Membrane in water
40347
    1TMC1    C1    1   1.302   2.574  11.445  0.3365  0.4053 -0.9725
    1TMC1    C2    2   1.275   2.703  11.486 -0.3944  0.2104  0.3778
    1TMC1    C3    3   1.373   2.797  11.505  0.7683 -0.3778  0.1979
    1TMC1    C4    4   1.428   2.535  11.435 -0.6697  1.0770 -0.1296
    1TMC1    C5    5   1.528   2.621  11.472 -0.4193 -0.4959  0.7336
    1TMC1    C6    6   1.502   2.750  11.500  0.2231 -0.2203  0.1654
    1TMC1     C    7   1.186   2.486  11.413  0.2751  0.6984  0.1435
    1TMC1     O    8   1.072   2.533  11.426  0.5091  0.3995 -0.3393
    1TMC1     H    9   1.171   2.732  11.486 -0.4790 -0.0496 -2.3707
    1TMC1    H1   10   1.447   2.433  11.402 -0.8426  0.4851  1.6233
    1TMC1    H2   11   1.588   2.811  11.522  0.1556  0.0108 -0.2035
    1TMC1    C7   12   1.671   2.597  11.455  0.2985 -0.6179  0.3577
    1TMC1    C8   13   1.344   2.902  11.608  0.6321 -0.1778 -0.4770
    1TMC1    O1   14   1.739   2.674  11.388  0.4910  0.4817  0.3927
    1TMC1    O2   15   1.245   2.880  11.683  0.2667 -0.0930  0.6683
    1TMC1    O3   16   1.688   2.467  11.453 -0.0869  0.2794  0.0464
    1TMC1    H3   17   1.626   2.423  11.516 -1.1228 -0.7434 -1.7008
    1TMC1    O5   18   1.458   2.959  11.653 -0.0736 -0.1054 -0.1781
    1TMC1    H5   19   1.510   2.992  11.576  0.7738 -1.8937 -0.3578
    2MPD2     C   20   0.995   2.020  11.327  0.0434  0.0595 -0.6882
    2MPD2    C1   21   0.933   2.134  11.372  0.4516  0.1144 -0.0632
    2MPD2    C2   22   1.010   2.240  11.387 -0.3229 -0.8208 -0.2565
    2MPD2    C3   23   1.144   2.241  11.364  0.4241 -0.6923  0.1328
    2MPD2    C4   24   1.210   2.128  11.323  0.1430  0.0914  0.2226
    2MPD2    C5   25   1.131   2.016  11.300  0.4908  0.8123 -0.4727
    2MPD2     H   26   0.964   2.332  11.423  1.6418 -0.0983  0.4181
    2MPD2    H1   27   1.315   2.131  11.298  0.5200 -0.4973  1.7248
    2MPD2    H2   28   0.932   1.932  11.321 -0.6227  0.4398  0.9378
    2MPD2    H3   29   1.173   1.923  11.262 -1.5612 -0.5705  0.6742
    2MPD2     N   30   1.225   2.356  11.387 -0.3511 -0.7244  0.3294
    2MPD2    H5   31   1.325   2.337  11.390 -0.2468 -0.1104  0.5799
    2MPD2    N1   32   0.803   2.138  11.427 -0.0887 -0.2828  0.1949
    2MPD2    H7   33   0.774   2.221  11.478 -2.1778 -0.3249 -0.9156
    3TMC1    C1   34   4.636   3.100  10.448 -0.9443  0.7040 -0.0937
    3TMC1    C2   35   4.716   2.992  10.471 -0.0683  0.1272 -0.4346
    3TMC1    C3   36   0.090   2.985  10.395 -0.6631  0.3895 -0.5028
    3TMC1    C4   37   4.657   3.194  10.354  0.7853 -0.6994 -0.7282
    3TMC1    C5   38   0.021   3.178  10.270  0.8276  0.8421  0.0429
    3TMC1    C6   39   0.109   3.073  10.290  0.3591  0.4832 -0.9486
    3TMC1     C   40   4.507   3.100  10.517 -0.2458  1.6173 -0.5549
    3TMC1     O   41   4.442   2.997  10.506 -0.6084 -0.7524 -0.3462
    3TMC1     H   42   4.695   2.917  10.546 -2.1274  2.0716  0.9376
    3TMC1    H1   43   4.575   3.259  10.328  0.9505 -0.2361 -0.0832
    3TMC1    H2   44   0.197   3.064  10.227 -0.0673 -1.7176 -1.2216
    3TMC1    C7   45   0.063   3.281  10.186  0.0758  0.1955 -0.2398
    3TMC1    C8   46   0.180   2.877  10.415 -0.3805 -1.0327 -0.3210
    3TMC1    O1   47   0.136   3.267  10.088 -0.2243 -0.3449 -0.4827
    3TMC1    O2   48   0.299   2.880  10.443  0.0174  0.2821  0.3362
    3TMC1    O3   49   0.056   3.392  10.263  0.0718  0.6697  0.4897
    3TMC1    H3   50   0.002   3.390  10.345 -0.2692  1.4570  0.2856
    3TMC1    O5   51   0.110   2.769  10.381 -0.5985  0.3132  0.9676
    3TMC1    H5   52   0.018   2.785  10.352  0.3553 -0.3488 -2.4436
    4MPD2     C   53   4.114   3.313  10.765  0.0546  0.3241 -0.5347
    4MPD2    C1   54   4.193   3.415  10.722  0.2100  0.0589  0.1703
    4MPD2    C2   55   4.310   3.384  10.654 -0.0203  0.0187  0.6770
    4MPD2    C3   56   4.351   3.254  10.628  0.2296  0.2379  0.0049
    4MPD2    C4   57   4.264   3.157  10.663 -0.0918  0.0463 -0.6284
    4MPD2    C5   58   4.151   3.184  10.730  0.3145  0.8608 -0.5295
    4MPD2     H   59   4.369   3.466  10.616  0.5627 -1.0086 -0.6420
    4MPD2    H1   60   4.270   3.052  10.633  2.0697  1.1976 -4.2238
    4MPD2    H2   61   4.027   3.325  10.829  0.9773 -0.4864  0.8740
    4MPD2    H3   62   4.076   3.111  10.759 -0.4301  1.7224 -0.2973
    4MPD2     N   63   4.469   3.234  10.562 -0.3320 -0.5002  0.0178
    4MPD2    H5   64   4.517   3.317  10.529  0.4908 -0.9771  0.0177
    4MPD2    N1   65   4.181   3.552  10.763  0.5471  0.2519 -0.7222
    4MPD2    H7   66   4.237   3.625  10.721  0.5649  0.9380  0.4765
    5TCq1    O1   67   3.939   0.829  11.317  0.0727 -0.1796  0.4512
    5TCq1    C1   68   4.050   0.843  11.241  0.7075  0.1678  0.5143
    5TCq1    O2   69   4.132   0.930  11.260  0.0690  0.2620  0.0034
    5TCq1    C2   70   4.059   0.724  11.157 -0.1103  0.8110  0.2299
    5TCq1    C3   71   3.946   0.678  11.098  0.1981 -0.5894  0.2234
    5TCq1    C4   72   3.965   0.592  10.995 -0.2127 -0.4438  0.0578
    5TCq1    C5   73   4.087   0.562  10.942  0.8769 -0.4665  0.0386
    5TCq1    C6   74   4.195   0.607  11.007  0.6392 -0.2509  0.2839
    5TCq1    C7   75   4.185   0.687  11.117 -0.0167 -0.5408 -0.2198
    5TCq1    C8   76   4.329   0.567  10.960 -0.4621  0.0942 -0.1426
    5TCq1    O4   77   4.328   0.454  10.912 -0.1581  0.1981 -0.4762
    5TCq1    C9   78   3.844   0.543  10.926  0.5485  0.9971  0.0498
    5TCq1    O5   79   3.746   0.556  10.996 -0.2385 -0.5472  0.4816
    5TCq1    O6   80   3.860   0.508  10.809 -0.0982 -0.5033 -0.7286
    5TCq1    H1   81   3.892   0.743  11.313 -0.0463 -0.0731 -0.4099
    5TCq1    H2   82   3.843   0.710  11.115  0.1642 -0.0425 -1.0400
    5TCq1    H3   83   4.090   0.484  10.867  2.0002  0.9729 -1.4079
    5TCq1    H4   84   4.273   0.724  11.169 -1.8257  1.2949  1.5229
    6MPD2     C   85   4.633   0.780  10.968  0.0899  0.4345  0.8853
    6MPD2    C1   86   4.558   0.666  10.935  0.5648  0.2676  0.1572
    6MPD2    C2   87   4.622   0.565  10.871 -0.4759  0.3313 -1.0125
    6MPD2    C3   88   0.011   0.567  10.829  0.1967  0.3816  0.6164
    6MPD2    C4   89   0.083   0.683  10.864  0.0619 -0.1308  0.1288
    6MPD2    C5   90   0.021   0.790  10.922 -0.2543 -0.2990 -0.0810
    6MPD2     H   91   4.571   0.472  10.850 -1.7234  0.8344 -0.2026
    6MPD2    H1   92   0.181   0.702  10.822 -0.4208  1.0265 -0.4718
    6MPD2    H2   93   4.590   0.869  11.011 -3.4512 -0.8303 -0.0217
    6MPD2    H3   94   0.070   0.886  10.935 -0.4681 -0.3499  1.0998
    6MPD2     N   95   0.075   0.457  10.759 -0.2258  0.1003  0.3618
    6MPD2    H5   96   0.025   0.370  10.744  1.7210 -0.9652  0.0707
    6MPD2    N1   97   4.425   0.662  10.981  0.3137  0.2373  0.4033
    6MPD2    H7   98   4.396   0.744  11.035  0.8779  0.8252 -0.1914
    7TCq1    O1   99   2.200   0.276  13.115  0.3574  0.3544  0.3917
    7TCq1    C1  100   2.266   0.346  13.201 -0.0855  0.3571 -0.0199
    7TCq1    O2  101   2.251   0.468  13.224  0.2464 -0.6143 -0.5373
    7TCq1    C2  102   2.277   0.259  13.311  0.3040 -0.4251 -0.4210
    7TCq1    C3  103   2.154   0.245  13.365 -0.1463  0.4527  0.1763
    7TCq1    C4  104   2.108   0.129  13.422 -1.0361 -0.4077 -0.0995
    7TCq1    C5  105   2.184   0.019  13.404 -0.5624  0.0678 -0.7451
    7TCq1    C6  106   2.312   0.028  13.339 -0.2717  0.4123  0.2731
    7TCq1    C7  107   2.353   0.150  13.292  0.1751  0.3947  0.2453
    7TCq1    C8  108   2.406   4.657  13.343  0.4916 -0.6456  0.5657
    7TCq1    O4  109   2.382   4.551  13.403 -0.1289 -0.0919 -0.0287
    7TCq1    C9  110   1.979   0.117  13.485 -0.5198  0.2093  0.3737
    7TCq1    O5  111   1.911   0.224  13.493 -0.5396 -0.6466 -0.7623
    7TCq1    O6  112   1.934   0.010  13.526 -0.2019 -0.2688 -0.4341
    7TCq1    H1  113   2.205   0.180  13.134  3.3905  0.1624 -1.4583
    7TCq1    H2  114   2.095   0.335  13.371 -1.1167 -0.2154  0.6059
    7TCq1    H3  115   2.163   4.668  13.458 -2.6465 -0.9396 -3.2912
    7TCq1    H4  116   2.438   0.179  13.232  0.1123  1.1412  0.5156
    8MPD2     C  117   2.870   4.461  13.208 -0.1345 -0.0621  0.7516
    8MPD2    C1  118   2.751   4.396  13.232  0.1085 -0.2446 -0.3183
    8MPD2    C2  119   2.643   4.475  13.264  0.2158  0.2071 -0.9101
    8MPD2    C3  120   2.644   4.614  13.271 -0.0948 -0.8498 -0.0459
    8MPD2    C4  121   2.774   4.676  13.258 -0.2441  0.3425  0.0540
    8MPD2    C5  122   2.878   4.595  13.228  0.2884 -0.3764 -0.0057
    8MPD2     H  123   2.546   4.429  13.279  0.4618 -0.4461 -1.3160
    8MPD2    H1  124   2.794   0.040  13.255 -0.1014  0.2970 -0.6656
    8MPD2    H2  125   2.955   4.406  13.169  1.1809  0.7056  2.5251
    8MPD2    H3  126   2.974   4.642  13.212 -1.2941  2.9262  0.2963
    8MPD2     N  127   2.531   4.700  13.296 -0.0193 -0.0495  0.2833
    8MPD2    H5  128   2.550   0.053  13.268  3.2146 -0.5189  0.8853
    8MPD2    N1  129   2.743   4.255  13.208  0.5279  0.1414 -0.3597
    8MPD2    H7  130   2.832   4.217  13.181 -0.6683 -1.5761 -1.8693
    9TMC1    C1  131   0.374   3.462  10.905  0.3762  0.5187  0.4281
    9TMC1    C2  132   0.247   3.437  10.939  0.4637  0.1354 -0.0682
    9TMC1    C3  133   0.163   3.394  10.841 -0.6746 -0.4691  0.3894
    9TMC1    C4  134   0.420   3.444  10.780  0.0727 -0.1978 -0.3903
    9TMC1    C5  135   0.326   3.403  10.685  0.2083 -0.3502  0.3519
    9TMC1    C6  136   0.192   3.371  10.711 -0.1005  0.1517 -0.4380
    9TMC1     C  137   0.464   3.506  11.005  0.3993  0.0180 -0.1737
    9TMC1     O  138   0.573   3.555  10.971  1.1498  0.0841 -0.4086
    9TMC1     H  139   0.198   3.469  11.030 -0.8463  2.4533 -1.5876
    9TMC1    H1  140   0.526   3.443  10.755 -0.3997 -0.5892 -2.3652
    9TMC1    H2  141   0.124   3.357  10.628  0.1346  0.2865 -0.6549
    9TMC1    C7  142   0.367   3.374  10.544  0.2072 -0.0022 -0.3438
    9TMC1    C8  143   0.017   3.392  10.877 -0.4084 -0.9694  0.5193
    9TMC1    O1  144   0.298   3.308  10.468 -0.0881 -0.1704 -0.7385
    9TMC1    O2  145   4.673   3.373  10.793 -0.1787 -0.2557  0.7799
    9TMC1    O3  146   0.488   3.429  10.517 -0.0638  0.1073  0.2766
    9TMC1    H3  147   0.503   3.512  10.567 -1.6442  1.9337 -2.2567
    9TMC1    O5  148   0.015   3.328  10.995  0.0709 -0.1541  0.0871
    9TMC1    H5  149   0.088   3.332  11.061  0.9028  0.9481 -0.8891
   10MPD2     C  150   0.618   3.554  11.259  0.2370 -0.2327 -0.5283
   10MPD2    C1  151   0.501   3.479  11.252 -0.6610  0.5611 -0.2037
   10MPD2    C2  152   0.453   3.423  11.372  0.8333  0.3098 -0.1120
   10MPD2    C3  153   0.520   3.429  11.498 -0.4850  0.0631 -1.2105
   10MPD2    C4  154   0.639   3.504  11.499  0.0381 -0.5080 -0.2397
   10MPD2    C5  155   0.680   3.572  11.383  0.2552  0.0814 -0.2954
   10MPD2     H  156   0.357   3.373  11.366  0.5990  0.9004 -1.3920
   10MPD2    H1  157   0.707   3.523  11.581  0.7533  1.3236 -1.2375
   10MPD2    H2  158   0.658   3.609  11.174  0.1754  0.7434  0.0823
   10MPD2    H3  159   0.770   3.633  11.377 -0.0889  0.4146 -2.1339
   10MPD2     N  160   0.477   3.356  11.610  0.5085 -0.0967 -0.0664
   10MPD2    H5  161   0.529   3.365  11.696  0.6644  1.5184 -0.3223
   10MPD2    N1  162   0.424   3.464  11.130 -0.2635 -0.2755 -0.2208
   10MPD2    H7  163   0.341   3.405  11.138  0.5297 -1.2961  0.5951
   11TCq1    O1  164   1.012   3.203  13.907  0.2668 -0.0517  0.1701
   11TCq1    C1  165   0.890   3.142  13.912  0.0466  0.1115 -0.9549
   11TCq1    O2  166   0.791   3.189  13.861 -0.6857 -0.3084  0.0712
   11TCq1    C2  167   0.923   3.003  13.900 -0.4433  0.2362 -0.7192
   11TCq1    C3  168   1.008   2.948  13.988 -0.1222  0.0493 -0.0566
   11TCq1    C4  169   1.045   2.821  13.962  0.2117  0.0894 -0.0107
   11TCq1    C5  170   0.993   2.753  13.855 -0.2027 -0.8049  0.2389
   11TCq1    C6  171   0.891   2.812  13.782 -0.0609  0.4475  0.2104
   11TCq1    C7  172   0.864   2.944  13.796 -0.0125 -0.5246  0.4282
   11TCq1    C8  173   0.824   2.738  13.674 -0.0660  0.6758 -0.6310
   11TCq1    O4  174   0.723   2.784  13.623  0.1203  0.1297 -0.3177
   11TCq1    C9  175   1.145   2.753  14.039  0.0054  0.5652  0.7956
   11TCq1    O5  176   1.164   2.806  14.153  0.0779  0.0908 -0.0724
   11TCq1    O6  177   1.199   2.647  13.999 -0.1239  0.1446 -0.1988
   11TCq1    H1  178   1.087   3.143  13.923 -0.0361 -0.3361  0.5106
   11TCq1    H2  179   1.063   2.997  14.067 -1.1309  1.0733  0.0133
   11TCq1    H3  180   1.030   2.653  13.837 -2.4019 -1.1125 -2.5942
   11TCq1    H4  181   0.786   2.987  13.735  0.5111  1.1548  0.9421
   12MPD2     C  182   0.708   2.533  13.490  0.4885  0.3902 -0.6839
   12MPD2    C1  183   0.817   2.510  13.574 -0.0681  0.4638  1.0357
   12MPD2    C2  184   0.864   2.381  13.590  0.0238 -0.1497  1.1940
   12MPD2    C3  185   0.797   2.280  13.533 -0.6337 -0.8847  0.3371
   12MPD2    C4  186   0.689   2.309  13.449  0.1900  0.5860  0.0405
   12MPD2    C5  187   0.645   2.431  13.426  0.1059  0.5206 -0.2729
   12MPD2     H  188   0.946   2.364  13.659  0.7683 -0.8384  0.1381
   12MPD2    H1  189   0.628   2.233  13.401  2.4308 -0.3434 -1.2991
   12MPD2    H2  190   0.678   2.636  13.472 -1.1028 -0.0748 -0.7348
   12MPD2    H3  191   0.559   2.460  13.367  0.2924  1.7395  0.0549
   12MPD2     N  192   0.829   2.144  13.557 -0.0912  1.6007  0.0233
   12MPD2    H5  193   0.784   2.072  13.502 -0.1814  0.6791  1.3096
   12MPD2    N1  194   0.876   2.610  13.651  0.1893  0.4354  0.4302
   12MPD2    H7  195   0.961   2.599  13.704  0.6749 -0.6028 -0.5732
   13TCq1    O1  196   0.811   3.383  10.724  0.3607  0.5693  0.2929
   13TCq1    C1  197   0.809   3.292  10.816 -0.4209  0.0346  0.3680
   13TCq1    O2  198   0.801   3.327  10.932 -0.3327 -0.1880 -0.1134
   13TCq1    C2  199   0.714   3.195  10.756 -0.2356  0.0404 -1.0663
   13TCq1    C3  200   0.737   3.149  10.627 -0.9154 -0.1952 -0.0124
   13TCq1    C4  201   0.667   3.042  10.589 -0.0409  0.1689 -0.6342
   13TCq1    C5  202   0.558   3.009  10.657 -1.2430  0.1417  0.0848
   13TCq1    C6  203   0.516   3.082  10.764  0.8299  0.2957 -0.8976
   13TCq1    C7  204   0.599   3.173  10.819  0.9037 -0.1597  0.0693
   13TCq1    C8  205   0.384   3.065  10.812  0.2554  1.1340 -0.5840
   13TCq1    O4  206   0.336   3.138  10.901  0.4516  0.2363 -0.4940
   13TCq1    C9  207   0.701   2.983  10.465 -0.5462 -0.3527 -0.6954
   13TCq1    O5  208   0.800   3.035  10.403 -0.0919 -0.0455  0.4904
   13TCq1    O6  209   0.638   2.872  10.437 -0.3977  0.0267 -0.8839
   13TCq1    H1  210   0.781   3.363  10.633 -3.2425  2.6655  1.0457
   13TCq1    H2  211   0.826   3.186  10.576 -0.2283 -1.0211  0.5797
   13TCq1    H3  212   0.500   2.932  10.607  3.6825 -3.4152 -0.1288
   13TCq1    H4  213   0.567   3.229  10.906  0.4484 -1.3412  0.6584
   14MPD2     C  214   0.170   2.782  10.739 -0.6314 -0.3159  0.2951
   14MPD2    C1  215   0.198   2.908  10.790  0.1167  0.5494  0.1151
   14MPD2    C2  216   0.100   2.986  10.843 -0.0371 -0.6210 -0.2250
   14MPD2    C3  217   4.709   2.944  10.848 -0.6378 -0.0239  0.4359
   14MPD2    C4  218   4.680   2.822  10.795  0.3132  0.4234 -0.0312
   14MPD2    C5  219   0.036   2.744  10.735 -0.1383 -0.7551  0.3210
   14MPD2     H  220   0.121   3.089  10.871 -0.1083 -0.9491  1.0320
   14MPD2    H1  221   4.573   2.805  10.786  0.3889  0.7644 -1.5051
   14MPD2    H2  222   0.240   2.712  10.696 -1.5956 -0.2969 -1.3245
   14MPD2    H3  223   4.741   2.652  10.690  0.2982 -0.7185 -0.1070
   14MPD2     N  224   4.607   3.030  10.895 -1.0328 -0.4360 -0.6618
   14MPD2    H5  225   4.631   3.129  10.895  2.9283 -1.3649  1.3482
   14MPD2    N1  226   0.335   2.948  10.774  0.1079  0.1902 -0.5033
   14MPD2    H7  227   0.391   2.880  10.723  2.0143  0.2955  1.4562
   15TCq1    O1  228   3.223   2.573   1.917 -0.4877 -0.2235 -0.1568
   15TCq1    C1  229   3.326   2.652   1.893 -0.3498  0.0519  0.2602
   15TCq1    O2  230   3.366   2.739   1.970 -0.0870  0.2750  0.3612
   15TCq1    C2  231   3.423   2.578   1.806 -0.4571  0.4928  0.2411
   15TCq1    C3  232   3.557   2.609   1.819  0.0208  0.2639 -0.9141
   15TCq1    C4  233   3.640   2.553   1.725 -0.1503  0.0217  0.0937
   15TCq1    C5  234   3.591   2.478   1.629 -0.5474  0.0773 -0.2040
   15TCq1    C6  235   3.458   2.458   1.613 -0.1418 -0.2410 -0.6167
   15TCq1    C7  236   3.371   2.507   1.705  0.1177  0.1082 -0.4442
   15TCq1    C8  237   3.408   2.367   1.506  0.7037  0.2469  0.0567
   15TCq1    O4  238   3.495   2.293   1.462 -0.4111 -0.6120 -0.5891
   15TCq1    C9  239   3.780   2.588   1.718 -0.4766  0.6506 -0.0092
   15TCq1    O5  240   3.853   2.538   1.626  0.1810  0.1160 -0.0908
   15TCq1    O6  241   3.835   2.645   1.819 -0.2462  0.2864 -0.2827
   15TCq1    H1  242   3.219   2.485   1.872  1.2710 -0.6503  0.5326
   15TCq1    H2  243   3.598   2.676   1.893  1.5149 -0.5904 -0.9848
   15TCq1    H3  244   3.664   2.441   1.557 -0.0287  2.0384 -0.6858
   15TCq1    H4  245   3.263   2.497   1.701  0.2521 -1.1372 -0.9292
   16MPD2     C  246   3.067   2.292   1.391  0.6276  0.9232  0.1040
   16MPD2    C1  247   3.205   2.286   1.389 -0.3298 -0.6701 -0.0797
   16MPD2    C2  248   3.271   2.189   1.313  0.0166  0.1915 -1.0049
   16MPD2    C3  249   3.205   2.109   1.211 -0.1479 -0.0771 -0.8461
   16MPD2    C4  250   3.065   2.122   1.219  0.3637 -0.1395 -0.3427
   16MPD2    C5  251   2.996   2.213   1.304  0.3110 -0.5973  0.0337
   16MPD2     H  252   3.376   2.163   1.315 -0.0516  0.1732  1.7585
   16MPD2    H1  253   2.999   2.063   1.157  0.0782 -0.7919  0.5736
   16MPD2    H2  254   3.014   2.361   1.455 -1.3657 -2.2937  1.9042
   16MPD2    H3  255   2.888   2.213   1.298  0.2325 -2.7495  1.6342
   16MPD2     N  256   3.272   2.006   1.138 -0.7720  0.2280 -0.2002
   16MPD2    H5  257   3.372   2.001   1.150 -0.7788  2.3407  0.8098
   16MPD2    N1  258   3.275   2.370   1.481 -0.1798  0.1947  0.0670
   16MPD2    H7  259   3.214   2.442   1.519 -0.1749 -0.9955  2.3289
   17TMC1    C1  260   0.025   2.703   9.967 -1.0312 -0.6255  0.2327
   17TMC1    C2  261   0.154   2.729   9.996 -0.3298  0.6102 -0.0823
   17TMC1    C3  262   0.198   2.852   9.970  0.6308 -0.2044  0.3440
   17TMC1    C4  263   4.688   2.788   9.906 -0.0657  0.3186 -0.1119
   17TMC1    C5  264   4.736   2.911   9.873  0.6984 -0.2766  0.2233
   17TMC1    C6  265   0.121   2.948   9.918  0.4853  0.5172  0.6254
   17TMC1     C  266   4.710   2.596  10.045  0.2938 -0.4182  0.4452
   17TMC1     O  267   4.589   2.607  10.067  0.2034  0.4110 -0.2041
   17TMC1     H  268   0.224   2.663  10.045 -0.8465  1.6913  2.1253
   17TMC1    H1  269   4.587   2.762   9.876  0.6297 -1.4143 -0.9405
   17TMC1    H2  270   0.158   3.049   9.902 -1.9951  1.3683  0.2245
   17TMC1    C7  271   4.630   3.009   9.867  0.4597 -0.0517 -0.1300
   17TMC1    C8  272   0.335   2.881   9.997 -0.3486 -0.6980  0.0528
   17TMC1    O1  273   4.531   2.984   9.936  0.7120  0.3119  0.1050
   17TMC1    O2  274   0.360   2.891  10.113  0.3952 -0.7472 -0.6374
   17TMC1    O3  275   4.695   3.126   9.863  0.3061 -0.5192  0.2682
   17TMC1    H3  276   0.032   3.112   9.807 -0.9010 -3.4873 -0.6957
   17TMC1    O5  277   0.385   2.941   9.886  0.6061 -0.0935  0.5593
   17TMC1    H5  278   0.336   2.914   9.805 -0.9614  0.4682  1.3044
   18MPD2     C  279   4.646   2.438  10.304 -0.2041 -0.3719 -0.2547
   18MPD2    C1  280   0.028   2.460  10.244 -0.8156 -0.0925  0.8419
   18MPD2    C2  281   0.142   2.408  10.301 -0.6976  0.3592  0.0688
   18MPD2    C3  282   0.142   2.355  10.425  0.4234 -0.4092  1.0984
   18MPD2    C4  283   0.021   2.332  10.482 -0.1148  0.2235  0.1797
   18MPD2    C5  284   4.647   2.367  10.422  0.4272 -0.4866  0.6931
   18MPD2     H  285   0.230   2.427  10.240 -0.5864  0.4477  0.2586
   18MPD2    H1  286   0.016   2.282  10.578  2.7882 -0.8823 -0.2466
   18MPD2    H2  287   4.557   2.479  10.258 -0.6745 -1.0177  0.0773
   18MPD2    H3  288   4.550   2.339  10.460  1.0873 -0.9021  2.0741
   18MPD2     N  289   0.259   2.315  10.490 -0.0669 -0.2606 -0.2622
   18MPD2    H5  290   0.256   2.272  10.582 -0.4385  1.1266  0.3722
   18MPD2    N1  291   0.059   2.533  10.123  0.1576 -0.0646 -0.3121
   18MPD2    H7  292   0.158   2.532  10.104  0.3044  0.2898  0.4668
   19TMC2    C1  293   2.180   2.754  13.992 -0.1420 -0.0276 -0.1907
   19TMC2    C2  294   2.105   2.873  13.994 -0.0358  0.2581 -0.2095
   19TMC2    C3  295   1.973   2.858  14.011 -0.3833  0.0128 -0.6320
   19TMC2    C4  296   2.121   2.640  14.039  0.1780  0.0988  0.0611
   19TMC2    C5  297   1.989   2.627  14.038  0.0861 -0.4486 -0.3789
   19TMC2    C6  298   1.909   2.735  14.025 -0.2387 -0.7866 -0.3509
   19TMC2     C  299   2.326   2.773  13.989  0.1837  0.2533 -0.1555
   19TMC2     O  300   2.368   2.868  13.924 -0.3841  0.0196  0.0464
   19TMC2     H  301   2.149   2.971  13.984 -1.6439  0.7980 -1.9824
   19TMC2    H1  302   2.181   2.550  14.045  1.5613  1.1232  1.6547
   19TMC2    H2  303   1.806   2.723  14.056 -0.4351  2.1037  0.0898
   19TMC2    C7  304   1.942   2.495  14.035 -0.4569 -0.0074 -0.4306
   19TMC2    C8  305   1.882   2.968  14.042 -0.2238 -0.1010  0.4731
   19TMC2    O1  306   2.013   2.414  14.091  0.1135 -0.0895 -0.5281
   19TMC2    O2  307   1.768   2.965  14.001 -0.3582 -0.1919 -0.1666
   19TMC2    O5  308   1.920   3.019  14.163 -0.0663  0.6091 -0.3205
   19TMC2    H5  309   2.017   3.007  14.176 -0.0126  1.4422  0.0680
   20MPD2     C  310   2.630   2.739  14.001  0.1302  0.5433  0.4858
   20MPD2    C1  311   2.538   2.649  14.051 -1.5223  0.1121  0.5336
   20MPD2    C2  312   2.585   2.529  14.106  0.0823  0.9961 -0.2946
   20MPD2    C3  313   2.720   2.499  14.112 -0.1734 -0.4536 -0.3439
   20MPD2    C4  314   2.806   2.593  14.060 -0.4685 -0.0849  0.4971
   20MPD2    C5  315   2.758   2.714  14.011  0.1607 -0.2378 -0.6383
   20MPD2     H  316   2.504   2.466  14.142  2.2457 -2.5674 -1.6870
   20MPD2    H1  317   2.913   2.577  14.072 -0.6887 -0.6543  1.7708
   20MPD2    H2  318   2.601   2.838  13.967  0.9499  1.0883  1.3491
   20MPD2    H3  319   2.830   2.781  13.966 -0.7378  0.7617 -0.5724
   20MPD2     N  320   2.773   2.387  14.180 -0.0692  0.2741 -0.1261
   20MPD2    H5  321   2.874   2.385  14.187 -0.1516  2.4504  1.6853
   20MPD2    N1  322   2.396   2.668  14.048  0.0239 -0.3028 -0.3229
   20MPD2    H7  323   2.338   2.605  14.103  0.8232 -2.2294 -1.7107
   21TMC2    C1  324   4.458   2.358  14.364 -0.0111 -0.6390  0.7995
   21TMC2    C2  325   4.462   2.249  14.454  0.4462 -0.2292 -0.2611
   21TMC2    C3  326   4.394   2.269  14.577  0.3202 -0.2702  0.5949
   21TMC2    C4  327   4.391   2.477  14.386  0.3615 -0.1394  1.1099
   21TMC2    C5  328   4.326   2.483  14.507  0.0433  0.7249  1.4281
   21TMC2    C6  329   4.327   2.386  14.605 -0.1712  0.7004  0.0445
   21TMC2     C  330   4.546   2.352  14.249 -0.4423 -0.2505  0.5591
   21TMC2     O  331   4.661   2.306  14.267  0.5447 -0.6184  0.8538
   21TMC2     H  332   4.500   2.154  14.417 -0.4852 -0.3732 -0.8678
   21TMC2    H1  333   4.406   2.565  14.325  2.4462 -1.4670 -0.2981
   21TMC2    H2  334   4.267   2.399  14.694 -1.1194 -0.3166 -0.4412
   21TMC2    C7  335   4.311   2.613  14.562 -0.1039  0.0326  0.2472
   21TMC2    C8  336   4.338   2.151  14.639 -0.7056  0.8330  0.3691
   21TMC2    O1  337   4.312   2.623  14.687 -0.1762 -0.0985 -0.5323
   21TMC2    O2  338   4.226   2.162  14.687  0.2549  0.1745 -0.3100
   21TMC2    O5  339   4.438   2.076  14.689  0.2853  0.3425  0.2229
   21TMC2    H5  340   4.521   2.106  14.647 -0.0878 -1.3444 -1.6813
   22MPD2     C  341   0.023   2.655  13.888 -0.8755 -1.0390 -0.7216
   22MPD2    C1  342   0.071   2.539  13.942  0.2080  0.5211  0.0364
   22MPD2    C2  343   4.730   2.463  14.027 -0.1782 -0.2845  0.8790
   22MPD2    C3  344   4.600   2.505  14.057 -0.3347 -0.5014 -0.2003
   22MPD2    C4  345   4.546   2.603  13.978  0.4542  0.5743  0.2895
   22MPD2    C5  346   4.635   2.685  13.910 -0.1643  0.7311 -0.0855
   22MPD2     H  347   0.036   2.378  14.075 -0.6112 -1.3271 -0.5464
   22MPD2    H1  348   4.442   2.631  13.989 -0.7454 -3.2125 -1.3242
   22MPD2    H2  349   0.081   2.714  13.819  1.5136 -2.4820  0.0391
   22MPD2    H3  350   4.593   2.778  13.872  1.0414  1.9182  1.5127
   22MPD2     N  351   4.511   2.447  14.158 -0.0460  0.1416  0.2663
   22MPD2    H5  352   4.416   2.480  14.168 -0.3120 -0.7924  0.8648
   22MPD2    N1  353   0.201   2.492  13.908  0.2858 -0.4730 -0.1654
   22MPD2    H7  354   0.223   2.401  13.947  2.8730  0.2038 -0.0364
   23TMC2    C1  355   1.012   3.927  14.446 -0.4838  0.1559  0.3995
   23TMC2    C2  356   0.981   4.058  14.434 -0.1338 -0.3097  0.3838
   23TMC2    C3  357   0.849   4.086  14.403 -0.1781 -0.1667  0.2845
   23TMC2    C4  358   0.918   3.830  14.437  0.2231  0.0704  0.8565
   23TMC2    C5  359   0.793   3.859  14.409 -0.1058  0.4589  0.1324
   23TMC2    C6  360   0.755   3.994  14.390  0.2329 -0.2929 -0.2210
   23TMC2     C  361   1.133   3.888  14.516 -0.1768 -0.0897  0.2285
   23TMC2     O  362   1.121   3.802  14.602  0.4305 -0.0248  0.4945
   23TMC2     H  363   1.062   4.131  14.436 -0.4126  0.0057  0.3262
   23TMC2    H1  364   0.933   3.725  14.462 -1.1333 -0.6330 -1.2607
   23TMC2    H2  365   0.658   4.025  14.353  0.5058  1.2571  0.3688
   23TMC2    C7  366   0.708   3.745  14.383  0.2604 -0.9847 -0.3572
   23TMC2    C8  367   0.820   4.221  14.359 -0.7087  0.4331  0.7593
   23TMC2    O1  368   0.760   3.637  14.359  0.6922  0.0625 -0.3250
   23TMC2    O2  369   0.741   4.243  14.264  0.3381  0.6397 -0.3080
   23TMC2    O5  370   0.833   4.299  14.469 -0.3388  0.4857  0.0162
   23TMC2    H5  371   0.872   4.245  14.541 -0.2087  0.0291 -0.3945
   24MPD2     C  372   1.646   3.862  14.568 -0.0539  0.4680  0.3423
   24MPD2    C1  373   1.540   3.798  14.639 -0.2662 -0.0674 -0.4435
   24MPD2    C2  374   1.410   3.823  14.609  0.2873 -0.5073  0.6230
   24MPD2    C3  375   1.375   3.913  14.502 -0.2392 -0.7235  0.3821
   24MPD2    C4  376   1.477   3.965  14.425 -1.2851  0.4601 -0.2500
   24MPD2    C5  377   1.611   3.935  14.450 -0.4783 -1.0816  0.0262
   24MPD2     H  378   1.335   3.788  14.678 -2.4423  2.2465 -0.9552
   24MPD2    H1  379   1.459   4.033  14.342 -1.4524  1.9481  0.9950
   24MPD2    H2  380   1.751   3.854  14.593 -0.0839  2.5171  1.1398
   24MPD2    H3  381   1.691   3.981  14.393 -2.0981  1.3016 -0.3414
   24MPD2     N  382   1.243   3.952  14.465  0.2563  0.2438 -0.3114
   24MPD2    H5  383   1.229   4.009  14.382 -2.1277  1.2423  0.7911
   24MPD2    N1  384   1.556   3.719  14.756 -0.5902 -0.0771  0.1407
   24MPD2    H7  385   1.467   3.685  14.793 -0.5108 -1.0394 -0.5756
   25TMC2    C1  386   4.596   1.266  11.004 -0.2908  0.5649  0.7367
   25TMC2    C2  387   4.679   1.337  10.921  0.4217  0.9872  0.3121
   25TMC2    C3  388   4.731   1.456  10.970  0.3467 -0.0386 -0.3777
   25TMC2    C4  389   4.565   1.311  11.129  0.0788  0.5125 -0.0920
   25TMC2    C5  390   4.615   1.430  11.170 -0.3122 -0.1492 -0.6176
   25TMC2    C6  391   4.698   1.508  11.091  0.2729  0.2761 -0.0689
   25TMC2     C  392   4.500   1.164  10.946  0.5052 -0.6490  0.7684
   25TMC2     O  393   4.413   1.137  11.026  0.1390 -0.0145  0.7508
   25TMC2     H  394   4.713   1.305  10.823 -0.6183  1.8302 -0.3221
   25TMC2    H1  395   4.493   1.258  11.191  1.4513 -3.4979 -1.8882
   25TMC2    H2  396   0.003   1.600  11.124  0.3903  0.6168 -1.1793
   25TMC2    C7  397   4.558   1.485  11.291  0.2390 -0.8961  0.9874
   25TMC2    C8  398   0.035   1.540  10.863 -0.2253 -0.1774  0.0920
   25TMC2    O1  399   4.476   1.423  11.350  0.4223 -0.1402 -0.1026
   25TMC2    O2  400   0.078   1.502  10.754  0.0458  0.6881 -0.1193
   25TMC2    O5  401   4.715   1.653  10.882  0.1931 -0.1874 -0.0848
   25TMC2    H5  402   4.676   1.664  10.972  0.3055  0.1441 -0.0763
   26MPD2     C  403   4.339   0.791  10.659  0.0461  0.3908 -0.0948
   26MPD2    C1  404   4.270   0.892  10.729  0.0424 -0.6802  1.0164
   26MPD2    C2  405   4.343   0.991  10.788  0.8775 -0.0955 -0.1428
   26MPD2    C3  406   4.476   1.003  10.774 -0.0862  0.5863 -0.7906
   26MPD2    C4  407   4.543   0.915  10.683  0.1777 -0.2638 -0.0875
   26MPD2    C5  408   4.471   0.804  10.632 -0.1645  0.3585 -1.0843
   26MPD2     H  409   4.284   1.059  10.849  1.4734  1.0416 -0.8407
   26MPD2    H1  410   4.650   0.927  10.666 -0.5402  2.7082 -2.4983
   26MPD2    H2  411   4.286   0.715  10.603  0.5443  1.0364 -1.4325
   26MPD2    H3  412   4.520   0.738  10.562  3.3330  0.9531  0.7721
   26MPD2     N  413   4.545   1.106  10.836  0.7163 -0.9873  0.2598
   26MPD2    H5  414   4.643   1.112  10.811  0.9173  0.1525  1.3131
   26MPD2    N1  415   4.128   0.884  10.752 -0.0672  0.3258 -0.7489
   26MPD2    H7  416   4.075   0.810  10.707 -0.4533  0.3689 -0.3578
   27TMC2    C1  417   3.295   3.820  11.860 -0.0436 -0.2085 -1.9546
   27TMC2    C2  418   3.376   3.907  11.795  0.1214  0.1917 -0.3800
   27TMC2    C3  419   3.499   3.922  11.846 -0.1447 -0.2757  0.7190
   27TMC2    C4  420   3.326   3.763  11.978 -0.2549  0.1231 -0.0718
   27TMC2    C5  421   3.438   3.795  12.041 -0.0781  0.4253  0.7047
   27TMC2    C6  422   3.527   3.876  11.975  0.3966  0.1167  0.3429
   27TMC2     C  423   3.151   3.835  11.834 -1.3936 -0.4350 -0.7210
   27TMC2     O  424   3.120   3.905  11.743 -0.3657  0.3320  0.0030
   27TMC2     H  425   3.360   3.936  11.692  0.2335  1.1233 -0.1305
   27TMC2    H1  426   3.271   3.680  12.022 -0.2199  0.7450  1.1535
   27TMC2    H2  427   3.624   3.898  12.018  1.9393 -0.5574 -2.7889
   27TMC2    C7  428   3.395   3.832  12.173 -0.5693  0.9111  0.3525
   27TMC2    C8  429   3.584   4.020  11.777 -0.1696  0.4504  0.2832
   27TMC2    O1  430   3.417   3.739  12.250  0.4201 -0.5935 -0.2321
   27TMC2    O2  431   3.570   4.050  11.660  0.5733  0.4607 -0.0531
   27TMC2    O5  432   3.627   4.105  11.870 -0.5522 -0.1594  0.1712
   27TMC2    H5  433   3.653   4.077  11.960  1.3441  2.2258  0.3825
   28MPD2     C  434   2.695   3.915  12.076  0.0196  0.0853  0.5568
   28MPD2    C1  435   2.770   3.815  12.144 -0.0876  0.0240  0.0750
   28MPD2    C2  436   2.897   3.781  12.096  1.1349  0.0103  0.0411
   28MPD2    C3  437   2.946   3.834  11.979 -1.0293 -0.1561  0.2761
   28MPD2    C4  438   2.877   3.929  11.906 -0.0904  0.2232  0.4482
   28MPD2    C5  439   2.752   3.967  11.960 -0.4239 -0.4698  0.4514
   28MPD2     H  440   2.964   3.712  12.147  0.6786  0.4089  1.1736
   28MPD2    H1  441   2.916   3.981  11.820  0.3884 -0.7613  0.0761
   28MPD2    H2  442   2.594   3.940  12.107  0.4432  1.8561  0.5090
   28MPD2    H3  443   2.696   4.048  11.913  0.6516 -0.3738 -0.6723
   28MPD2     N  444   3.073   3.796  11.944  0.6380 -0.4571 -0.1122
   28MPD2    H5  445   3.118   3.743  12.018  0.6954  0.4523  0.5000
   28MPD2    N1  446   2.717   3.763  12.268 -0.0129  0.6065  0.5482
   28MPD2    H7  447   2.630   3.797  12.309 -0.3992  0.7616 -0.3784
   29TMC2    C1  448   2.827   1.178  14.309 -0.0170 -0.0736  0.4401
   29TMC2    C2  449   2.832   1.141  14.440  0.1145  0.5118 -0.3055
   29TMC2    C3  450   2.846   1.235  14.542 -0.2405  0.1579  0.6637
   29TMC2    C4  451   2.826   1.309  14.276  0.7329 -0.0923 -0.0788
   29TMC2    C5  452   2.845   1.404  14.372 -0.3886  0.3753 -0.6547
   29TMC2    C6  453   2.850   1.372  14.511 -0.1373 -0.1617 -0.1789
   29TMC2     C  454   2.830   1.076  14.210 -0.3855  0.1661 -0.8223
   29TMC2     O  455   2.856   0.960  14.247 -0.3549  0.2598 -0.2553
   29TMC2     H  456   2.811   1.036  14.453 -1.0824  0.5859 -1.6136
   29TMC2    H1  457   2.824   1.334  14.170 -3.2178 -0.6498 -0.1515
   29TMC2    H2  458   2.848   1.448  14.589  2.8010 -0.5668  0.2796
   29TMC2    C7  459   2.883   1.534  14.321  0.0837 -0.7431 -0.6298
   29TMC2    C8  460   2.836   1.185  14.672 -0.5267  0.2531  0.2740
   29TMC2    O1  461   2.857   1.552  14.200  0.4046  0.3452 -0.2167
   29TMC2    O2  462   2.806   1.068  14.702 -0.7914  0.2552  0.2224
   29TMC2    O5  463   2.902   1.265  14.758 -0.0374  0.0405 -0.1926
   29TMC2    H5  464   2.955   1.331  14.709 -0.3984 -0.1129 -0.7900
   30MPD2     C  465   2.740   0.899  13.737 -0.5865 -0.5904  0.7921
   30MPD2    C1  466   2.841   0.878  13.826 -0.1155 -0.1165  0.2866
   30MPD2    C2  467   2.846   0.941  13.948  0.1137  0.0734  0.0775
   30MPD2    C3  468   2.755   1.040  13.983 -0.5968  0.2578  0.2754
   30MPD2    C4  469   2.644   1.059  13.900 -0.7448 -0.6472  0.1315
   30MPD2    C5  470   2.640   0.985  13.784  1.1666  0.4440 -0.1577
   30MPD2     H  471   2.927   0.930  14.019  0.3990 -1.1738 -0.4347
   30MPD2    H1  472   2.563   1.128  13.920 -0.0696 -0.0649  0.8548
   30MPD2    H2  473   2.720   0.861  13.638  0.5074 -0.1305  0.3985
   30MPD2    H3  474   2.551   0.996  13.723  0.9704  1.4448  0.3088
   30MPD2     N  475   2.754   1.111  14.104 -0.4030  0.2772 -0.2103
   30MPD2    H5  476   2.678   1.176  14.114  0.3755  1.3080 -1.0350
   30MPD2    N1  477   2.948   0.794  13.805  0.6275  0.1463 -0.1258
   30MPD2    H7  478   3.025   0.799  13.871  0.3821 -2.3930  0.3638
   31TMC2    C1  479   0.770   0.031  15.624 -0.5271 -0.0336  0.1036
   31TMC2    C2  480   0.635   0.069  15.620 -1.6321  0.6524  0.3750
   31TMC2    C3  481   0.558   0.028  15.731 -0.3891 -0.2452  0.1537
   31TMC2    C4  482   0.819   4.689  15.718 -0.7983  0.3892 -0.6565
   31TMC2    C5  483   0.742   4.646  15.820  0.4287 -0.1357 -0.7761
   31TMC2    C6  484   0.610   4.688  15.823 -0.0685  0.6613 -0.1172
   31TMC2     C  485   0.856   0.095  15.527  0.4546  0.0818  0.2552
   31TMC2     O  486   0.809   0.181  15.457  0.3380 -0.6018  0.2013
   31TMC2     H  487   0.603   0.153  15.560  1.7334  0.2942 -1.9536
   31TMC2    H1  488   0.922   4.658  15.712 -1.1790 -1.4461  1.8817
   31TMC2    H2  489   0.550   4.654  15.907  0.3320 -3.4367 -1.4705
   31TMC2    C7  490   0.801   4.639  15.957 -0.0816 -0.2288 -0.1572
   31TMC2    C8  491   0.426   0.067  15.746 -0.1206  0.0918  0.2843
   31TMC2    O1  492   0.740   4.582  16.042 -0.4312  0.0404 -0.3052
   31TMC2    O2  493   0.360   4.740  15.824  1.2133  0.0097 -0.4067
   31TMC2    O5  494   0.403   0.187  15.685 -0.1325  0.2584 -0.0752
   31TMC2    H5  495   0.477   0.235  15.641 -0.3425  0.1328 -0.5620
   32MPD2     C  496   1.245   0.081  15.205  0.3298  0.0586 -0.2700
   32MPD2    C1  497   1.109   0.102  15.193 -0.1663 -0.2175  0.0292
   32MPD2    C2  498   1.025   0.092  15.298  0.0856  0.7096  0.6185
   32MPD2    C3  499   1.075   0.068  15.423 -0.8680 -0.4405 -0.3041
   32MPD2    C4  500   1.210   0.062  15.446  0.3429 -0.5045  0.6936
   32MPD2    C5  501   1.290   0.067  15.335  0.1508  0.4742 -0.0825
   32MPD2     H  502   0.917   0.083  15.287  0.2259  0.1382 -0.2467
   32MPD2    H1  503   1.250   0.054  15.546 -1.2017  0.0938  1.3604
   32MPD2    H2  504   1.321   0.096  15.129 -1.5244 -1.2846 -2.4203
   32MPD2    H3  505   1.395   0.051  15.352 -0.2117 -0.4473  1.3131
   32MPD2     N  506   0.987   0.059  15.536  0.3172  0.3026 -0.4407
   32MPD2    H5  507   1.023   0.018  15.621 -1.8740  1.2917  0.9895
   32MPD2    N1  508   1.067   0.133  15.059  0.4709 -0.3393 -0.3751
   32MPD2    H7  509   1.138   0.125  14.987  1.1649 -0.5281  0.3327
   33TMC2    C1  510   1.109   3.139  10.717 -0.8104 -1.6494  0.1499
   33TMC2    C2  511   1.147   3.220  10.817  0.0968 -0.3698  0.6384
   33TMC2    C3  512   1.161   3.354  10.786  0.4828  0.5098 -0.3183
   33TMC2    C4  513   1.097   3.186  10.587 -0.0741  0.5604 -0.0150
   33TMC2    C5  514   1.107   3.319  10.566 -0.1617  0.5247 -1.0617
   33TMC2    C6  515   1.145   3.408  10.665 -0.1098 -0.0006 -0.0089
   33TMC2     C  516   1.053   3.017  10.740 -0.3746  0.0814 -0.6768
   33TMC2     O  517   1.048   2.943  10.643 -0.0129 -0.5076  0.2304
   33TMC2     H  518   1.160   3.192  10.921 -2.9805  0.0815  1.1483
   33TMC2    H1  519   1.057   3.121  10.510 -2.9237 -0.4090  2.3063
   33TMC2    H2  520   1.165   3.508  10.627 -1.4673  0.7542  1.2669
   33TMC2    C7  521   1.105   3.363  10.430 -0.3001 -0.1153 -0.1392
   33TMC2    C8  522   1.207   3.449  10.873  0.5923 -0.1904 -0.2629
   33TMC2    O1  523   1.064   3.473  10.399 -0.0612 -0.1303 -0.1915
   33TMC2    O2  524   1.157   3.555  10.899  0.2180 -0.0755 -0.1095
   33TMC2    O5  525   1.306   3.385  10.940 -0.1774  0.3356  0.2378
   33TMC2    H5  526   1.328   3.300  10.896 -0.7374  1.8414 -2.9644
   34MPD2     C  527   0.674   2.775  10.977 -0.7370 -0.3626 -0.0239
   34MPD2    C1  528   0.741   2.743  10.857  0.0546  0.0468  0.3482
   34MPD2    C2  529   0.846   2.818  10.819  0.3258  0.2304  0.5352
   34MPD2    C3  530   0.888   2.922  10.895  0.2566  1.1873 -0.3831
   34MPD2    C4  531   0.823   2.954  11.011  0.0515 -0.0723  0.1690
   34MPD2    C5  532   0.716   2.884  11.053 -0.4221  0.4349  0.1810
   34MPD2     H  533   0.901   2.795  10.728 -2.0205 -0.8696 -0.5915
   34MPD2    H1  534   0.840   3.048  11.062 -0.8329 -0.6185  1.4918
   34MPD2    H2  535   0.581   2.726  11.001 -1.5523  1.2519  0.0644
   34MPD2    H3  536   0.662   2.912  11.143 -1.3899 -0.9777  0.0387
   34MPD2     N  537   0.988   3.012  10.862  0.0511  0.7364 -0.0811
   34MPD2    H5  538   0.999   3.092  10.924 -1.6557  0.3647  0.6827
   34MPD2    N1  539   0.706   2.630  10.782 -0.3856  0.6544  0.2064
   34MPD2    H7  540   0.766   2.614  10.703 -0.5276 -0.9994  0.4393
   35TMC2    C1  541   2.204   4.200  10.822 -0.0514 -0.2262  0.0580
   35TMC2    C2  542   2.182   4.259  10.698 -0.4251 -0.3293 -0.2211
   35TMC2    C3  543   2.056   4.245  10.645 -0.3735  0.1805 -0.3364
   35TMC2    C4  544   2.119   4.103  10.874 -0.4919  0.5780 -0.7472
   35TMC2    C5  545   2.004   4.077  10.800 -0.8183  0.0020 -0.3388
   35TMC2    C6  546   1.959   4.153  10.695 -0.1172  0.4201 -0.3749
   35TMC2     C  547   2.344   4.190  10.861 -0.1527  0.0908 -0.7959
   35TMC2     O  548   2.425   4.203  10.771 -0.2563 -0.0743  0.6229
   35TMC2     H  549   2.257   4.331  10.669 -0.7562  0.6573  1.3694
   35TMC2    H1  550   2.146   4.050  10.965 -1.4209  0.5150 -0.5079
   35TMC2    H2  551   1.867   4.134  10.641 -0.6578 -2.2048  1.4976
   35TMC2    C7  552   1.915   3.970  10.852  0.3570  0.5466  0.4643
   35TMC2    C8  553   2.044   4.262  10.502 -0.4281 -0.0154 -0.0796
   35TMC2    O1  554   1.927   3.941  10.974 -0.0419 -0.1270  0.5635
   35TMC2    O2  555   1.961   4.189  10.446  0.0550  0.0217  0.8342
   35TMC2    O5  556   2.149   4.326  10.448 -0.7034  0.1724 -0.5209
   35TMC2    H5  557   2.196   4.389  10.506  2.5086 -1.3536 -1.4857
   36MPD2     C  558   2.701   3.993  11.170  0.6453 -0.2394  0.0494
   36MPD2    C1  559   2.582   4.006  11.247 -0.3732 -0.1640  0.6628
   36MPD2    C2  560   2.475   4.068  11.187  0.3749  0.7799 -0.9687
   36MPD2    C3  561   2.481   4.100  11.051 -0.2460  0.2412 -0.0093
   36MPD2    C4  562   2.597   4.083  10.982  0.0272 -0.1551 -1.0161
   36MPD2    C5  563   2.708   4.042  11.046 -0.1434 -0.8803 -0.3487
   36MPD2     H  564   2.381   4.090  11.235 -0.3813 -0.2727 -1.9768
   36MPD2    H1  565   2.617   4.114  10.880  0.3048 -1.5414 -1.3835
   36MPD2    H2  566   2.791   3.948  11.210  0.3278  0.1674  1.2099
   36MPD2    H3  567   2.803   4.041  10.993  1.2252 -0.9360  2.1448
   36MPD2     N  568   2.362   4.154  10.996  0.1589  0.3666  1.0007
   36MPD2    H5  569   2.282   4.158  11.057  0.6221  2.8190  1.4758
   36MPD2    N1  570   2.574   3.960  11.379 -0.0424  0.9141 -0.4321
   36MPD2    H7  571   2.482   3.959  11.422  0.0092  0.8710 -0.3223
   37TMC2    C1  572   4.601   3.892  11.563  0.3078 -0.2565 -0.5675
   37TMC2    C2  573   4.490   3.925  11.484  0.0452 -0.3489  0.1183
   37TMC2    C3  574   4.502   4.014  11.387 -0.3831 -0.1524 -0.6902
   37TMC2    C4  575   4.728   3.925  11.530 -0.0563 -0.2763  0.0734
   37TMC2    C5  576   4.736   4.008  11.414  0.0856 -0.3218 -0.3950
   37TMC2    C6  577   4.626   4.070  11.358  0.7542 -0.0096  0.3888
   37TMC2     C  578   4.589   3.838  11.695  0.0170  0.5713  0.5883
   37TMC2     O  579   4.483   3.778  11.721  0.2070 -0.1890 -0.4800
   37TMC2     H  580   4.389   3.910  11.522  0.4235 -0.7280  0.9672
   37TMC2    H1  581   0.077   3.887  11.575  0.4498  0.1379 -0.5910
   37TMC2    H2  582   4.636   4.151  11.288 -1.3589  1.0612  1.3161
   37TMC2    C7  583   0.126   4.054  11.385  0.5355 -0.0400 -0.3646
   37TMC2    C8  584   4.397   4.041  11.283 -0.1759 -0.5635 -0.2759
   37TMC2    O1  585   0.216   4.014  11.454 -0.1282  0.2686  0.2757
   37TMC2    O2  586   4.400   4.130  11.205  0.5746 -0.7434 -0.6561
   37TMC2    O5  587   4.332   3.921  11.278  0.2473 -0.0080 -0.9454
   37TMC2    H5  588   4.350   3.850  11.343 -1.4741  1.0441  0.7111
   38MPD2     C  589   0.070   3.745  12.154 -0.5679 -0.0490 -0.1383
   38MPD2    C1  590   0.171   3.800  12.071 -0.0432  0.9237 -0.0241
   38MPD2    C2  591   0.125   3.843  11.940 -0.1269  0.4118 -0.0981
   38MPD2    C3  592   4.736   3.823  11.896  0.3270 -0.4223 -0.5616
   38MPD2    C4  593   4.649   3.768  11.983  0.3008 -0.1578 -0.0887
   38MPD2    C5  594   4.683   3.729  12.108 -0.0418  0.3737  0.1749
   38MPD2     H  595   0.196   3.896  11.877  0.1320  0.6451  0.3964
   38MPD2    H1  596   4.547   3.756  11.948  0.5932  1.8474 -1.6443
   38MPD2    H2  597   0.093   3.720  12.257 -0.0476  0.3008 -0.1719
   38MPD2    H3  598   4.600   3.686  12.163 -0.3419 -1.0082 -1.3752
   38MPD2     N  599   4.705   3.862  11.767  0.0856 -0.1420  0.2064
   38MPD2    H5  600   0.036   3.913  11.717  0.2076 -0.7192 -0.2041
   38MPD2    N1  601   0.300   3.817  12.120  0.3360  0.2717 -0.0548
   38MPD2    H7  602   0.361   3.864  12.055  1.9585 -0.2207  1.1249
   39TMC2    C1  603   3.198   1.902   1.557 -0.4333  0.1482  0.0513
   39TMC2    C2  604   3.131   1.998   1.631  0.5002 -0.3096  0.6160
   39TMC2    C3  605   3.216   2.089   1.698  0.2466  0.2563 -0.3992
   39TMC2    C4  606   3.333   1.886   1.565  0.7316  0.0418 -0.2228
   39TMC2    C5  607   3.409   1.982   1.627 -0.4804  0.9428 -0.3281
   39TMC2    C6  608   3.350   2.089   1.693 -0.0766 -0.3922  0.2345
   39TMC2     C  609   3.128   1.833   1.452  0.2341 -0.3227  0.0849
   39TMC2     O  610   3.012   1.870   1.427  0.2724 -0.1459  0.2620
   39TMC2     H  611   3.023   1.996   1.628  0.4643  1.4951  0.7641
   39TMC2    H1  612   3.384   1.811   1.506 -2.6299 -1.7142 -0.9238
   39TMC2    H2  613   3.408   2.170   1.736 -1.3144  1.2278 -1.1556
   39TMC2    C7  614   3.553   1.954   1.626 -0.2391 -0.2794 -0.1790
   39TMC2    C8  615   3.154   2.191   1.783  0.0877 -0.3232 -0.1912
   39TMC2    O1  616   3.588   1.841   1.601 -0.2004 -0.7268 -0.0809
   39TMC2    O2  617   3.192   2.310   1.795  0.1060  0.3453 -0.1048
   39TMC2    O5  618   3.040   2.141   1.830  0.2942 -0.2525 -0.0216
   39TMC2    H5  619   3.019   2.048   1.809 -3.6765  0.8777 -1.1659
   40MPD2     C  620   3.234   1.531   1.255 -0.7656 -0.1436 -0.2383
   40MPD2    C1  621   3.157   1.641   1.286  0.2392  0.1448  0.4909
   40MPD2    C2  622   3.042   1.672   1.213 -0.1323 -0.1551 -0.5217
   40MPD2    C3  623   3.002   1.586   1.111  0.5882  0.2235  0.1471
   40MPD2    C4  624   3.075   1.477   1.080  0.3917  0.4380  0.2373
   40MPD2    C5  625   3.191   1.454   1.153  0.3604 -0.5150 -0.0978
   40MPD2     H  626   2.983   1.758   1.243 -0.1984 -0.8604  1.3256
   40MPD2    H1  627   3.070   1.416   0.990 -1.2775  0.7765  0.1023
   40MPD2    H2  628   3.326   1.516   1.311  0.6282  1.0808 -2.2041
   40MPD2    H3  629   3.257   1.380   1.110 -3.1818 -2.0569 -2.9694
   40MPD2     N  630   2.899   1.625   1.015 -0.1351  0.4739  0.3298
   40MPD2    H5  631   2.887   1.550   0.947  0.2616 -1.8473  2.8087
   40MPD2    N1  632   3.191   1.722   1.398  0.3434 -0.3727 -0.0821
   40MPD2    H7  633   3.270   1.679   1.445  1.6464  0.0246 -1.9059
   41TMC2    C1  634   1.579   3.379  13.535 -0.1589  0.0899 -0.1266
   41TMC2    C2  635   1.485   3.320  13.449  0.4748 -0.0095  0.6841
   41TMC2    C3  636   1.389   3.407  13.398 -0.2761 -0.4576 -0.4338
   41TMC2    C4  637   1.593   3.512  13.550  0.0137  0.5324 -0.3750
   41TMC2    C5  638   1.494   3.590  13.492 -0.0841 -0.4032 -0.3604
   41TMC2    C6  639   1.387   3.542  13.418 -0.9332  0.6802  0.5869
   41TMC2     C  640   1.690   3.297  13.579 -0.2540 -0.1148 -0.7396
   41TMC2     O  641   1.696   3.185  13.529  0.0480  0.2690 -0.2268
   41TMC2     H  642   1.479   3.214  13.427 -0.8092  0.2947 -0.5132
   41TMC2    H1  643   1.673   3.555  13.609  1.5393  0.1317 -2.1798
   41TMC2    H2  644   1.308   3.603  13.375 -1.1944 -0.0081  0.0819
   41TMC2    C7  645   1.544   3.719  13.460  0.9182  0.8063 -0.3488
   41TMC2    C8  646   1.273   3.345  13.325  0.4776 -0.2138 -1.0094
   41TMC2    O1  647   1.601   3.789  13.542  0.0248  0.0242  0.1712
   41TMC2    O2  648   1.201   3.422  13.263  0.0875 -0.2050 -0.5442
   41TMC2    O5  649   1.331   3.232  13.276 -0.0622 -0.1628 -0.8387
   41TMC2    H5  650   1.325   3.156  13.338 -2.6166 -0.2072 -1.1276
   42MPD2     C  651   1.948   3.176  13.677  0.1282  0.4978  0.5674
   42MPD2    C1  652   1.876   3.281  13.735 -0.0434 -0.1490  0.1362
   42MPD2    C2  653   1.911   3.330  13.860 -0.3933 -0.1053 -0.2388
   42MPD2    C3  654   2.024   3.281  13.925  0.1609  0.0541  0.3146
   42MPD2    C4  655   2.097   3.178  13.868  0.6213 -0.4005  0.2816
   42MPD2    C5  656   2.054   3.121  13.741  0.5010  0.1204  0.6398
   42MPD2     H  657   1.858   3.412  13.907 -0.1715 -0.0463 -0.0901
   42MPD2    H1  658   2.195   3.150  13.906  0.6269  0.1560  0.6849
   42MPD2    H2  659   1.920   3.132  13.581 -0.8212  0.1618  0.9926
   42MPD2    H3  660   2.117   3.044  13.696  0.0821  0.8849 -1.2434
   42MPD2     N  661   2.066   3.327  14.052 -0.1635  0.3740  0.4507
   42MPD2    H5  662   2.149   3.288  14.095  0.2031 -0.3302 -0.8865
   42MPD2    N1  663   1.772   3.351  13.677 -0.0303 -0.1427 -0.1022
   42MPD2    H7  664   1.749   3.445  13.709 -0.9223 -0.6492  0.7577
   43TMC2    C1  665   3.604   2.290   0.570 -0.2533  0.7846  0.0552
   43TMC2    C2  666   3.491   2.365   0.595 -0.2403  0.4009 -0.3541
   43TMC2    C3  667   3.510   2.472   0.683  1.0803 -0.9331 -0.0755
   43TMC2    C4  668   3.724   2.315   0.626 -0.1190  0.3341  0.7715
   43TMC2    C5  669   3.731   2.418   0.720  0.3016  0.0112  0.3059
   43TMC2    C6  670   3.625   2.500   0.744  0.1550  0.0592 -0.0750
   43TMC2     C  671   3.600   2.194   0.457 -1.1808 -0.1535 -0.6065
   43TMC2     O  672   3.692   2.120   0.435 -0.0243  0.4618 -0.4802
   43TMC2     H  673   3.392   2.359   0.551  0.7896 -0.3805 -2.5589
   43TMC2    H1  674   3.807   2.255   0.589 -2.8404 -0.8837 -3.3852
   43TMC2    H2  675   3.635   2.589   0.805 -0.4337 -0.5333  0.8776
   43TMC2    C7  676   3.867   2.457   0.763 -0.2856 -0.3031  0.3423
   43TMC2    C8  677   3.397   2.557   0.720 -0.6171 -0.2003 -0.5459
   43TMC2    O1  678   3.956   2.414   0.693 -0.5950  0.1141 -0.2867
   43TMC2    O2  679   3.279   2.527   0.708 -0.0496  0.3150 -0.2634
   43TMC2    O5  680   3.436   2.684   0.716  0.2739 -0.1606  0.2980
   43TMC2    H5  681   3.531   2.696   0.695 -0.3036 -1.8290 -3.1358
   44MPD2     C  682   3.345   1.937   0.092  0.3547  0.4172 -0.7064
   44MPD2    C1  683   3.476   1.917   0.137 -0.1942 -0.2276  1.0783
   44MPD2    C2  684   3.521   2.001   0.239 -0.8602  0.0782  1.1060
   44MPD2    C3  685   3.434   2.101   0.294 -0.3148  0.0502 -0.2580
   44MPD2    C4  686   3.306   2.112   0.250  0.2308  0.4444  0.4099
   44MPD2    C5  687   3.261   2.030   0.155  0.1990  0.4691 -0.3487
   44MPD2     H  688   3.622   1.991   0.278 -0.2040 -1.0363 -0.8803
   44MPD2    H1  689   3.239   2.184   0.295 -0.7759 -0.8958  1.0534
   44MPD2    H2  690   3.311   1.882   0.006 -4.1503  2.9116 -0.5221
   44MPD2    H3  691   3.155   2.034   0.135  0.1249  0.8397  0.1171
   44MPD2     N  692   3.476   2.195   0.398  0.5946  0.4925 -0.1863
   44MPD2    H5  693   3.404   2.260   0.429  1.7250  1.0872  1.1445
   44MPD2    N1  694   3.567   1.835   0.072  0.2872  0.7151 -0.3074
   44MPD2    H7  695   3.652   1.810   0.121  1.5714  3.1951 -1.3237
   45TMC2    C1  696   4.104   3.847   9.469  0.0959 -0.0723  0.3386
   45TMC2    C2  697   4.111   3.792   9.596 -0.0616  0.0180  0.1853
   45TMC2    C3  698   4.130   3.880   9.704  0.0664 -0.1879  0.0065
   45TMC2    C4  699   4.123   3.983   9.450  0.2359  0.2680 -0.0110
   45TMC2    C5  700   4.129   4.066   9.554  0.5363  0.4278 -0.5647
   45TMC2    C6  701   4.131   4.016   9.684 -0.2809  0.4059 -0.3411
   45TMC2     C  702   4.036   3.761   9.365 -0.1100  0.2345  0.5048
   45TMC2     O  703   4.042   3.639   9.369 -0.5745  0.2160  0.0608
   45TMC2     H  704   4.098   3.686   9.616  1.3251 -0.4843 -1.5873
   45TMC2    H1  705   4.128   4.013   9.346  0.4057  1.0911  0.2388
   45TMC2    H2  706   4.114   4.082   9.769 -0.5639 -0.1320  0.0149
   45TMC2    C7  707   4.077   4.196   9.517  0.2899  0.2917  0.2230
   45TMC2    C8  708   4.125   3.832   9.844  0.6885  0.0621 -0.2531
   45TMC2    O1  709   4.026   4.194   9.405  0.1336 -1.0324  0.0448
   45TMC2    O2  710   4.080   3.904   9.938 -0.1610  0.1139 -0.4331
   45TMC2    O5  711   4.192   3.718   9.857  0.1487  0.5987  0.3343
   45TMC2    H5  712   4.228   3.678   9.775  1.9380  0.3432  1.2521
   46MPD2     C  713   3.820   3.692   9.164 -0.0895 -0.2052 -0.0747
   46MPD2    C1  714   3.846   3.817   9.206  0.3180 -0.1023 -0.5534
   46MPD2    C2  715   3.762   3.912   9.172  0.0347 -0.1107  0.0881
   46MPD2    C3  716   3.654   3.887   9.088 -0.0386 -0.2903 -0.0033
   46MPD2    C4  717   3.630   3.755   9.050 -0.1245 -0.1714 -0.2078
   46MPD2    C5  718   3.717   3.662   9.087  0.4515 -0.1135  0.7002
   46MPD2     H  719   3.788   4.007   9.218 -0.0729 -0.4069  0.7685
   46MPD2    H1  720   3.542   3.734   8.990 -1.7362  1.5505  1.5616
   46MPD2    H2  721   3.891   3.614   9.188  0.8050  0.8488  0.7156
   46MPD2    H3  722   3.700   3.557   9.064  0.9351 -0.2994  1.2037
   46MPD2     N  723   3.562   3.986   9.070  0.5234  0.1873  0.1926
   46MPD2    H5  724   3.590   4.075   9.111 -0.2109  0.3575  0.3212
   46MPD2    N1  725   3.950   3.851   9.294 -0.6972 -0.4900  0.2662
   46MPD2    H7  726   3.961   3.947   9.326  1.5382 -1.2577  1.7820
   47TMC2    C1  727   0.805   0.430   8.678  0.4651  1.0404  0.1668
   47TMC2    C2  728   0.702   0.503   8.620 -0.4577 -0.7802 -0.1841
   47TMC2    C3  729   0.626   0.585   8.704 -0.1245  0.1823 -0.3728
   47TMC2    C4  730   0.836   0.444   8.808 -0.6036  0.2527  0.4061
   47TMC2    C5  731   0.765   0.531   8.892  0.7187 -0.7040  0.5747
   47TMC2    C6  732   0.660   0.605   8.839  0.1447  0.6396 -0.3593
   47TMC2     C  733   0.875   0.338   8.587  1.0154 -0.1818 -0.0231
   47TMC2     O  734   0.868   0.357   8.468 -0.3559  0.3525 -0.3038
   47TMC2     H  735   0.683   0.508   8.513 -1.2558 -0.1177 -0.0101
   47TMC2    H1  736   0.918   0.393   8.859 -1.5864 -2.0070 -0.2926
   47TMC2    H2  737   0.594   0.666   8.899  0.9970  0.2168  1.0183
   47TMC2    C7  738   0.789   0.520   9.038 -0.4930  0.0095 -0.4217
   47TMC2    C8  739   0.509   0.644   8.648 -0.3216  0.1036  0.9114
   47TMC2    O1  740   0.896   0.484   9.074 -0.0259 -0.1622 -0.0588
   47TMC2    O2  741   0.489   0.764   8.661 -0.2538  0.6315 -0.6233
   47TMC2    O5  742   0.421   0.547   8.621  0.1528  0.0059  0.5413
   47TMC2    H5  743   0.452   0.454   8.629 -0.2245 -0.1592  0.0873
   48MPD2     C  744   1.048   0.121   8.458  0.5336 -0.7720  0.0183
   48MPD2    C1  745   0.998   0.123   8.592  0.1032 -0.5784  0.7138
   48MPD2    C2  746   1.024   4.739   8.660  0.3350  0.8403 -0.0262
   48MPD2    C3  747   1.092   4.629   8.603 -0.2070  0.1966  0.3592
   48MPD2    C4  748   1.138   4.638   8.473  0.5146 -0.0716 -0.2020
   48MPD2    C5  749   1.115   0.010   8.401 -1.2943 -0.8599 -0.5597
   48MPD2     H  750   0.988   4.722   8.761  0.3916  0.4706 -0.0706
   48MPD2    H1  751   1.191   4.554   8.430 -0.1538 -0.8174  0.4281
   48MPD2    H2  752   1.038   0.214   8.403  0.6576 -1.3700 -1.0145
   48MPD2    H3  753   1.140   0.021   8.296  1.1934 -3.4628 -0.2230
   48MPD2     N  754   1.101   4.512   8.675  0.3463 -0.3324 -0.1156
   48MPD2    H5  755   1.053   4.505   8.764  0.2873  0.3020 -0.0946
   48MPD2    N1  756   0.918   0.226   8.654 -0.0338 -1.2765  0.5620
   48MPD2    H7  757   0.896   0.220   8.752  1.5484 -0.3792  0.9694
   49TMC2    C1  758   3.969   1.859  10.452  0.5186 -0.9721 -0.2624
   49TMC2    C2  759   3.920   1.766  10.368 -0.6436  0.0926 -0.3052
   49TMC2    C3  760   3.907   1.636  10.408  0.7574 -0.7556  0.6709
   49TMC2    C4  761   3.996   1.834  10.580 -0.7087  0.3183  0.0941
   49TMC2    C5  762   3.967   1.705  10.624 -0.4781  0.5192 -0.7391
   49TMC2    C6  763   3.915   1.608  10.536 -0.3715  0.2453  0.3914
   49TMC2     C  764   4.019   1.976  10.378 -0.1650  0.5782  0.4497
   49TMC2     O  765   3.995   1.992  10.258 -0.0270 -0.0209 -0.2169
   49TMC2     H  766   3.905   1.781  10.262  0.7293 -0.5850 -0.5990
   49TMC2    H1  767   4.004   1.911  10.656 -0.1578  0.5120 -0.1625
   49TMC2    H2  768   3.928   1.506  10.573 -1.4135 -0.4724 -1.2281
   49TMC2    C7  769   3.992   1.665  10.760 -0.1155 -0.9086  0.4390
   49TMC2    C8  770   3.893   1.530  10.314  0.0907 -0.8197  0.4962
   49TMC2    O1  771   3.954   1.553  10.793 -0.2301  0.5136  0.0420
   49TMC2    O2  772   3.812   1.544  10.222  0.0197 -0.4551  0.0494
   49TMC2    O5  773   4.022   1.492  10.287  0.0285  0.5238 -0.2871
   49TMC2    H5  774   4.091   1.521  10.350 -0.7074  0.4442  0.5672
   50MPD2     C  775   4.140   2.248  10.312  0.1138 -0.6441  0.8660
   50MPD2    C1  776   4.159   2.174  10.427  0.7720  0.3363  0.2857
   50MPD2    C2  777   4.226   2.233  10.525 -0.1510  0.5868 -0.1160
   50MPD2    C3  778   4.281   2.358  10.511  0.0358  0.1140 -0.3950
   50MPD2    C4  779   4.284   2.417  10.386  0.0526  1.1285 -0.1491
   50MPD2    C5  780   4.210   2.366  10.289  0.6929 -0.4313 -0.5059
   50MPD2     H  781   4.224   2.184  10.621  1.3206 -0.7474 -0.7744
   50MPD2    H1  782   4.323   2.517  10.370  2.9586  0.1162  0.5921
   50MPD2    H2  783   4.071   2.211  10.236 -2.2619  2.5172  1.4730
   50MPD2    H3  784   4.202   2.420  10.196 -0.7241  0.2318  0.0041
   50MPD2     N  785   4.341   2.430  10.618 -1.2770  0.0246 -0.3628
   50MPD2    H5  786   4.369   2.526  10.606 -0.9614 -0.0985 -0.6109
   50MPD2    N1  787   4.108   2.046  10.457  0.9785  0.2572 -0.1289
   50MPD2    H7  788   4.124   2.007  10.549  0.5328 -1.7333 -0.9054
   51TMC2    C1  789   0.043   1.237   0.641  0.3381 -0.0767  0.6531
   51TMC2    C2  790   0.007   1.369   0.618  0.2920  0.3654 -0.2175
   51TMC2    C3  791   0.111   1.457   0.608 -0.6331  0.1692  0.3704
   51TMC2    C4  792   0.174   1.195   0.658  0.1873  0.3280 -0.0741
   51TMC2    C5  793   0.269   1.294   0.638 -0.4240 -0.8518  0.2882
   51TMC2    C6  794   0.241   1.423   0.615 -0.2927  0.2578  0.0934
   51TMC2     C  795   4.687   1.140   0.691 -0.7155 -0.0996 -0.2385
   51TMC2     O  796   4.715   1.025   0.660  0.3116 -0.0689 -0.4734
   51TMC2     H  797   4.650   1.404   0.592  0.1666 -0.0550 -0.3116
   51TMC2    H1  798   0.196   1.093   0.683 -1.2272  0.2229  0.7729
   51TMC2    H2  799   0.318   1.496   0.592  0.1230  0.1307  1.0868
   51TMC2    C7  800   0.412   1.262   0.648 -0.7065  0.3249 -0.0498
   51TMC2    C8  801   0.080   1.590   0.557  0.0684  0.0356 -0.5408
   51TMC2    O1  802   0.477   1.363   0.662 -0.1158 -0.8702  0.4013
   51TMC2    O2  803   4.723   1.621   0.489  0.7823 -0.2023  0.2634
   51TMC2    O5  804   0.162   1.677   0.611  0.4527 -0.2657  0.2178
   51TMC2    H5  805   0.204   1.652   0.696  0.6896 -1.9238 -0.3947
   52MPD2     C  806   4.364   1.004   1.074  0.4558  0.0098 -0.3036
   52MPD2    C1  807   4.457   0.931   0.997  0.0276 -0.1629  0.4798
   52MPD2    C2  808   4.531   0.988   0.897  0.5612 -0.2315 -0.0292
   52MPD2    C3  809   4.516   1.121   0.880 -0.9311  0.1643 -0.2055
   52MPD2    C4  810   4.427   1.193   0.949  0.2913 -0.3418  0.2623
   52MPD2    C5  811   4.351   1.135   1.040 -0.0332 -0.3562 -0.2224
   52MPD2     H  812   4.621   0.941   0.860  1.3444  0.8222  0.5375
   52MPD2    H1  813   4.424   1.300   0.934  1.3129 -0.2473  0.7143
   52MPD2    H2  814   4.307   0.962   1.156  0.3979  1.5610  0.4471
   52MPD2    H3  815   4.285   1.193   1.103  0.5317  1.3121 -1.1747
   52MPD2     N  816   4.601   1.190   0.786  1.4326 -0.1958 -0.7299
   52MPD2    H5  817   4.611   1.290   0.804 -1.3541 -0.2748  1.3656
   52MPD2    N1  818   4.480   0.796   1.017  0.3576 -0.3456  0.7118
   52MPD2    H7  819   4.560   0.758   0.968  1.6355  2.6549  0.5190
   53TMC2    C1  820   0.805   4.236  11.497 -0.2302 -0.3104 -0.4556
   53TMC2    C2  821   0.944   4.235  11.488 -0.2818 -0.0786 -0.5676
   53TMC2    C3  822   1.011   4.182  11.592  0.1132 -0.6541 -0.0819
   53TMC2    C4  823   0.745   4.204  11.618 -0.2128  0.2706 -0.0575
   53TMC2    C5  824   0.820   4.144  11.716  0.4991 -0.5259  0.1736
   53TMC2    C6  825   0.954   4.136  11.709 -0.6161  0.1129  0.4956
   53TMC2     C  826   0.727   4.286  11.385 -0.5801  0.5872  0.2362
   53TMC2     O  827   0.785   4.349  11.301 -0.1784  0.5932 -0.4497
   53TMC2     H  828   0.987   4.296  11.410 -1.6493  0.6105 -0.7911
   53TMC2    H1  829   0.640   4.220  11.642 -0.5273 -0.7832 -0.7433
   53TMC2    H2  830   1.019   4.090  11.783  1.0262 -1.1246 -1.6991
   53TMC2    C7  831   0.756   4.124  11.843  1.0046 -0.3755 -0.4164
   53TMC2    C8  832   1.159   4.204  11.595  0.5455  0.4587 -0.5808
   53TMC2    O1  833   0.635   4.108  11.837  0.4340 -0.4893 -0.7494
   53TMC2    O2  834   1.214   4.224  11.702  0.1255  0.7814 -0.2799
   53TMC2    O5  835   1.210   4.227  11.471 -0.4812 -0.2185  0.4696
   53TMC2    H5  836   1.167   4.178  11.397  1.5578 -0.8657 -0.2947
   54MPD2     C  837   0.509   4.325  11.194 -0.5311 -0.5563  0.3656
   54MPD2    C1  838   0.496   4.267  11.320  0.7989 -0.4813  1.0167
   54MPD2    C2  839   0.372   4.222  11.356  0.0158  0.0250  0.3959
   54MPD2    C3  840   0.262   4.221  11.271  0.2519 -0.0335  0.1537
   54MPD2    C4  841   0.282   4.274  11.143 -0.3834  0.9221  0.1058
   54MPD2    C5  842   0.404   4.318  11.107 -0.2261 -0.0306 -0.0128
   54MPD2     H  843   0.364   4.180  11.455  1.1373  0.7200  0.7862
   54MPD2    H1  844   0.202   4.274  11.069 -0.9392  0.4706  0.7073
   54MPD2    H2  845   0.601   4.364  11.151 -0.4284 -3.8337 -2.3259
   54MPD2    H3  846   0.420   4.354  11.006 -1.9683  0.5897 -0.0698
   54MPD2     N  847   0.137   4.153  11.286  0.6182  0.6285 -0.4506
   54MPD2    H5  848   0.068   4.167  11.212 -1.2469 -2.1583  0.7668
   54MPD2    N1  849   0.601   4.247  11.406 -0.2402  0.3923 -0.1915
   54MPD2    H7  850   0.582   4.204  11.496 -1.6934  1.3229 -0.0407
   55TMC2    C1  851   2.241   2.560   0.505  0.3692 -0.2418 -0.1157
   55TMC2    C2  852   2.354   2.618   0.560  0.5401 -0.8813  1.0433
   55TMC2    C3  853   2.408   2.557   0.665  0.2861 -0.2003  0.1256
   55TMC2    C4  854   2.189   2.461   0.573 -0.2698  0.2008  0.1554
   55TMC2    C5  855   2.251   2.394   0.675 -0.5357 -0.1191 -0.1998
   55TMC2    C6  856   2.360   2.447   0.731 -0.5857  0.0561 -0.0769
   55TMC2     C  857   2.156   2.639   0.420  0.7861  0.3753  0.0034
   55TMC2     O  858   2.034   2.618   0.417  0.4450  0.4459 -0.5004
   55TMC2     H  859   2.396   2.707   0.514 -1.0380 -0.1923  0.9479
   55TMC2    H1  860   2.101   2.424   0.520 -0.7817  0.2351  0.9797
   55TMC2    H2  861   2.427   2.389   0.793 -2.6479 -1.6035  0.5980
   55TMC2    C7  862   2.198   2.262   0.729  0.2503  0.7155  0.7219
   55TMC2    C8  863   2.540   2.594   0.708  0.0277  0.4039  0.4454
   55TMC2    O1  864   2.252   2.200   0.818 -0.0269  0.0567  0.2804
   55TMC2    O2  865   2.587   2.570   0.815 -0.1852  0.2266 -0.5199
   55TMC2    O5  866   2.604   2.642   0.602 -0.0550 -0.3089  0.6951
   55TMC2    H5  867   2.554   2.642   0.518 -0.2474 -0.1525  0.8074
   56MPD2     C  868   2.263   2.888   0.175  0.0053 -0.1035 -0.2917
   56MPD2    C1  869   2.175   2.808   0.244 -0.6004 -0.4617 -0.3654
   56MPD2    C2  870   2.039   2.817   0.209 -0.5172 -0.7708 -0.1774
   56MPD2    C3  871   1.999   2.898   0.103  0.1443 -0.2173  0.4164
   56MPD2    C4  872   2.091   2.981   0.042  0.5715  0.4181 -0.1249
   56MPD2    C5  873   2.221   2.971   0.078  0.0981 -0.1639  0.2917
   56MPD2     H  874   1.957   2.758   0.249 -0.2294  0.5411  2.3923
   56MPD2    H1  875   2.064   3.045  17.725 -1.1484  1.6393  1.3732
   56MPD2    H2  876   2.370   2.875   0.191  0.1730  1.3758 -0.2214
   56MPD2    H3  877   2.304   3.027   0.035 -1.7733 -0.0661 -3.1644
   56MPD2     N  878   1.870   2.886   0.053  0.1085  0.0211  0.1707
   56MPD2    H5  879   1.812   2.819   0.103  1.2315  0.3422  1.8925
   56MPD2    N1  880   2.226   2.714   0.336  0.8337  0.2896  0.4363
   56MPD2    H7  881   2.326   2.720   0.348  0.7289  0.5436  1.2131
   57TMC2    C1  882   4.389   2.121  12.814  0.1728 -0.0187 -0.2665
   57TMC2    C2  883   4.253   2.096  12.786 -0.2283  0.7583 -0.1421
   57TMC2    C3  884   4.207   2.124  12.661 -0.1870  0.8191  0.3684
   57TMC2    C4  885   4.477   2.158  12.714  0.6694  0.7041  0.7232
   57TMC2    C5  886   4.431   2.181  12.590  0.8616  0.4375 -0.0063
   57TMC2    C6  887   4.302   2.161  12.563 -0.3067  0.5347  0.2503
   57TMC2     C  888   4.418   2.144  12.959 -0.3478  0.0148  0.2661
   57TMC2     O  889   4.337   2.202  13.030 -0.0307  0.0157 -0.1884
   57TMC2     H  890   4.188   2.074  12.869  1.1654  1.6184  1.1799
   57TMC2    H1  891   4.580   2.166  12.746  0.0660  1.1266  2.5249
   57TMC2    H2  892   4.262   2.171  12.463  4.4044  1.3197 -1.5228
   57TMC2    C7  893   4.509   2.259  12.499 -0.4154  0.0204  0.0639
   57TMC2    C8  894   4.066   2.121  12.634  0.6852  0.4484  0.1980
   57TMC2    O1  895   4.452   2.332  12.422 -1.1000 -0.3232  0.8459
   57TMC2    O2  896   3.989   2.036  12.685 -0.0765 -0.3551 -0.3967
   57TMC2    O5  897   4.032   2.178  12.521 -0.0018 -0.3966  0.4870
   57TMC2    H5  898   4.083   2.259  12.498 -2.1749  1.4736  2.3093
   58MPD2     C  899   0.018   2.118  13.349  0.2320  0.2710 -0.0656
   58MPD2    C1  900   4.665   2.215  13.330  0.1019 -0.2249  0.1677
   58MPD2    C2  901   4.584   2.198  13.214  0.5285 -0.1053  0.1987
   58MPD2    C3  902   4.612   2.106  13.113 -0.1720 -0.0689 -0.4433
   58MPD2    C4  903   4.725   2.033  13.127  0.0389 -0.4195  1.4534
   58MPD2    C5  904   0.046   2.037  13.247 -0.9546  0.8921  0.4188
   58MPD2     H  905   4.491   2.253  13.204  0.7564  0.2035 -0.2219
   58MPD2    H1  906   0.031   1.962  13.061 -1.3175 -0.0577  0.0773
   58MPD2    H2  907   0.081   2.117  13.437  0.6770  0.6333 -0.3858
   58MPD2    H3  908   0.128   1.966  13.258 -0.8115  0.6571 -2.1899
   58MPD2     N  909   4.543   2.089  12.990  0.2090  0.5463 -0.4710
   58MPD2    H5  910   4.579   2.023  12.922 -3.0502  0.1512 -1.8336
   58MPD2    N1  911   4.625   2.313  13.425 -0.0069  0.0355 -0.6921
   58MPD2    H7  912   4.543   2.371  13.404 -0.0286  0.6110  0.9688
   59TMC2    C1  913   2.676   2.936  12.471 -0.0015  0.3488 -0.6750
   59TMC2    C2  914   2.566   2.892  12.407  0.1518  0.3984 -0.2910
   59TMC2    C3  915   2.539   2.932  12.285  0.2297  0.1671 -0.5969
   59TMC2    C4  916   2.768   3.015  12.408  0.4184  0.0228  0.2379
   59TMC2    C5  917   2.734   3.062  12.283  0.0106  0.9782  0.3399
   59TMC2    C6  918   2.615   3.027  12.217  0.6723  0.0574  0.0536
   59TMC2     C  919   2.668   2.934  12.616  0.6103  0.7284 -0.9177
   59TMC2     O  920   2.562   2.906  12.673 -0.4259  0.2446  0.3103
   59TMC2     H  921   2.487   2.840  12.460  0.5789  0.4657  0.4195
   59TMC2    H1  922   2.857   3.050  12.459 -0.4828 -0.2307  1.9980
   59TMC2    H2  923   2.608   3.038  12.109 -0.9437 -0.2523  0.1410
   59TMC2    C7  924   2.834   3.140  12.211  0.3061 -0.7604 -0.0721
   59TMC2    C8  925   2.424   2.876  12.219  0.3904 -0.6454  0.0693
   59TMC2    O1  926   2.946   3.147  12.260  0.2914  0.0748 -0.1048
   59TMC2    O2  927   2.328   2.842  12.287 -0.5901  0.7161 -0.1026
   59TMC2    O5  928   2.425   2.887  12.083  0.0347 -0.4405  0.7782
   59TMC2    H5  929   2.514   2.885  12.041  0.4596  0.9752  1.5793
   60MPD2     C  930   2.707   3.004  12.900  0.0438 -0.1364  0.3151
   60MPD2    C1  931   2.805   2.993  12.810  0.0792  0.0865 -0.5249
   60MPD2    C2  932   2.936   3.011  12.850 -0.3564  0.7241 -0.4493
   60MPD2    C3  933   2.964   3.044  12.986 -0.5048  0.3857  0.4959
   60MPD2    C4  934   2.858   3.061  13.076 -0.4804  1.3843  0.0982
   60MPD2    C5  935   2.736   3.053  13.020 -0.2663 -0.5114 -0.3586
   60MPD2     H  936   3.019   2.989  12.782 -0.2069 -1.0106  0.2778
   60MPD2    H1  937   2.876   3.092  13.178 -0.5790  1.9541 -0.0562
   60MPD2    H2  938   2.603   2.997  12.870 -0.1556 -2.1727  1.5682
   60MPD2    H3  939   2.652   3.083  13.082  0.4251  0.8251 -0.0487
   60MPD2     N  940   3.096   3.040  13.040  0.0841  0.3619 -0.5502
   60MPD2    H5  941   3.100   3.048  13.141  1.4658  1.2539 -0.6793
   60MPD2    N1  942   2.786   2.969  12.673 -0.0832 -0.1275  0.0494
   60MPD2    H7  943   2.871   2.965  12.618  1.8959 -0.1500  3.1619
   61TMC2    C1  944   2.008   4.221  15.634 -1.1659  0.4597  0.5759
   61TMC2    C2  945   1.894   4.205  15.715  0.3442 -0.8387 -0.2939
   61TMC2    C3  946   1.825   4.316  15.749  0.0198 -0.6836 -0.4313
   61TMC2    C4  947   2.038   4.349  15.601  0.2803 -0.2739  0.5551
   61TMC2    C5  948   1.964   4.454  15.636 -1.0144 -0.3377  0.0482
   61TMC2    C6  949   1.852   4.446  15.713  0.1135 -0.2103  0.6494
   61TMC2     C  950   2.108   4.113  15.628  0.4702  0.2189  0.0732
   61TMC2     O  951   2.076   4.013  15.687 -0.4671 -0.0081  0.0976
   61TMC2     H  952   1.859   4.104  15.736 -1.6510 -0.3567 -1.3444
   61TMC2    H1  953   2.122   4.369  15.535  0.0402  1.6516  0.8153
   61TMC2    H2  954   1.795   4.533  15.743 -0.4479  0.5522 -2.5909
   61TMC2    C7  955   1.999   4.578  15.578 -0.2987 -0.7168 -0.1546
   61TMC2    C8  956   1.695   4.288  15.804  0.2554 -0.4857  0.1035
   61TMC2    O1  957   2.092   4.567  15.500 -0.2259 -0.0593  0.9761
   61TMC2    O2  958   1.666   4.180  15.856  0.2563  0.7198 -0.6814
   61TMC2    O5  959   1.607   4.366  15.745  0.1531 -0.2941 -0.4565
   61TMC2    H5  960   1.651   4.447  15.711 -0.9824  1.3363  1.8792
   62MPD2     C  961   2.349   3.945  15.578  0.0140 -0.2521 -0.0676
   62MPD2    C1  962   2.321   4.065  15.513  0.0810  0.1548 -0.6681
   62MPD2    C2  963   2.409   4.114  15.413 -0.2878 -0.4790  0.3714
   62MPD2    C3  964   2.504   4.032  15.364  0.6088  0.4815  0.0580
   62MPD2    C4  965   2.532   3.907  15.426  0.0756  0.5335  0.0620
   62MPD2    C5  966   2.459   3.870  15.532  0.0719  0.2400 -0.1414
   62MPD2     H  967   2.380   4.203  15.358 -1.3009  0.0541  1.7751
   62MPD2    H1  968   2.616   3.846  15.396  0.2561 -0.3111  2.2649
   62MPD2    H2  969   2.290   3.903  15.658 -0.8480  1.1271  0.0297
   62MPD2    H3  970   2.491   3.783  15.588 -0.5806  0.3154  0.3508
   62MPD2     N  971   2.566   4.070  15.239  0.7864 -0.0761 -0.2320
   62MPD2    H5  972   2.548   4.164  15.205  2.5181  0.0293 -0.8582
   62MPD2    N1  973   2.207   4.147  15.536 -0.5417 -0.0704 -0.1774
   62MPD2    H7  974   2.201   4.241  15.498  0.0364  0.4079  0.9226
   63TMC2    C1  975   1.349   4.708   9.405 -0.3635  0.7820 -0.5978
   63TMC2    C2  976   1.465   4.717   9.469 -0.3768 -0.4507 -0.1546
   63TMC2    C3  977   1.544   0.087   9.447 -0.6699  0.1423 -0.0626
   63TMC2    C4  978   1.307   0.060   9.317  0.2211 -0.2407  0.2915
   63TMC2    C5  979   1.386   0.172   9.294  0.9363 -0.1572 -0.8788
   63TMC2    C6  980   1.505   0.181   9.356  0.4993 -0.3541 -0.3781
   63TMC2     C  981   1.233   4.639   9.461 -0.2550  0.3732 -0.5256
   63TMC2     O  982   1.127   4.678   9.416 -0.3652  0.3353  0.1719
   63TMC2     H  983   1.503   4.634   9.526 -0.8681 -0.5885 -0.0241
   63TMC2    H1  984   1.207   0.068   9.277  1.2861  1.5595 -2.0747
   63TMC2    H2  985   1.562   0.271   9.336  1.0397 -0.5053  0.4738
   63TMC2    C7  986   1.318   0.296   9.264 -0.1740  0.1484  0.3649
   63TMC2    C8  987   1.607   0.138   9.562  0.1953  0.0877  0.2043
   63TMC2    O1  988   1.224   0.291   9.192  0.1861 -0.0414  0.0300
   63TMC2    O2  989   1.644   0.063   9.652 -0.1188 -0.0624  0.6075
   63TMC2    O5  990   1.530   0.254   9.573 -0.3029  0.0170 -0.1898
   63TMC2    H5  991   1.503   0.276   9.665 -1.8123 -3.6706  0.2626
   64MPD2     C  992   1.016   4.339   9.807  0.6320  0.2224  0.9530
   64MPD2    C1  993   1.150   4.353   9.841  0.2075  0.1464  0.1438
   64MPD2    C2  994   1.227   4.423   9.754 -0.0327 -0.6600  0.6138
   64MPD2    C3  995   1.172   4.492   9.645 -0.0998  0.1603  0.0848
   64MPD2    C4  996   1.040   4.484   9.615 -0.4818  0.0828  0.2239
   64MPD2    C5  997   0.967   4.393   9.693  0.5085  0.0473 -0.2740
   64MPD2     H  998   1.335   4.428   9.768  0.2513  1.6974 -2.4955
   64MPD2    H1  999   0.994   4.530   9.528  0.5645  1.2068  0.2601
   64MPD2    H2 1000   0.947   4.285   9.870 -2.9256  2.6086 -0.8979
   64MPD2    H3 1001   0.862   4.389   9.667  0.7660 -1.6722 -1.0380
   64MPD2     N 1002   1.265   4.563   9.569  0.1987  0.0112  0.5497
   64MPD2    H5 1003   1.361   4.543   9.595  0.3527 -1.1284 -0.8872
   64MPD2    N1 1004   1.208   4.300   9.956  0.1306 -0.3196  0.1747
   64MPD2    H7 1005   1.310   4.302   9.961  0.1627  0.3409 -0.6945
   65TMC2    C1 1006   3.290   4.025  15.499  0.8770 -0.0770 -0.0535
   65TMC2    C2 1007   3.249   4.025  15.364  0.0503 -0.3526  0.1636
   65TMC2    C3 1008   3.277   4.137  15.291 -0.1077  0.7987 -0.1368
   65TMC2    C4 1009   3.330   4.137  15.561  0.3534  0.1343  0.8236
   65TMC2    C5 1010   3.353   4.248  15.485  0.1072 -0.1027 -0.2010
   65TMC2    C6 1011   3.329   4.248  15.352 -0.6994  1.2241  0.1909
   65TMC2     C 1012   3.236   3.933  15.595  0.9818  1.0308  0.4310
   65TMC2     O 1013   3.209   3.974  15.710  0.0064 -0.6309 -0.2409
   65TMC2     H 1014   3.217   3.930  15.324 -0.6123 -1.0181  2.2382
   65TMC2    H1 1015   3.371   4.122  15.660 -1.4484  1.7335  1.8087
   65TMC2    H2 1016   3.349   4.336  15.293  1.1269  0.3887 -0.4267
   65TMC2    C7 1017   3.324   4.382  15.542  0.1105 -0.0343 -0.0191
   65TMC2    C8 1018   3.280   4.115  15.158 -0.1407  0.4653  0.3310
   65TMC2    O1 1019   3.365   4.480  15.479 -0.3560  0.0332 -0.2698
   65TMC2    O2 1020   3.352   4.179  15.082 -0.4963 -0.3963 -0.4320
   65TMC2    O5 1021   3.159   4.053  15.128  0.6254  0.6682 -0.0157
   65TMC2    H5 1022   3.098   4.037  15.203  0.3410  0.1801 -0.3452
   66MPD2     C 1023   3.217   3.701  15.768 -0.7055 -0.1909 -0.2783
   66MPD2    C1 1024   3.209   3.694  15.627  0.5703  0.6365 -0.0600
   66MPD2    C2 1025   3.193   3.569  15.571  0.9221 -0.1550 -0.2198
   66MPD2    C3 1026   3.138   3.470  15.647 -0.1028  0.3840  0.0529
   66MPD2    C4 1027   3.143   3.484  15.784  0.7236  0.1343  0.3199
   66MPD2    C5 1028   3.203   3.592  15.842  0.2486  0.6026  0.2617
   66MPD2     H 1029   3.197   3.562  15.463  2.0621 -0.0377 -0.1868
   66MPD2    H1 1030   3.119   3.402  15.851  0.9572 -1.6666 -1.8414
   66MPD2    H2 1031   3.230   3.791  15.827  2.5853 -0.6789 -0.2509
   66MPD2    H3 1032   3.219   3.597  15.949 -0.7447  0.1347  0.4368
   66MPD2     N 1033   3.072   3.358  15.589 -0.1599  0.3811  0.0870
   66MPD2    H5 1034   3.029   3.296  15.658 -1.2291  1.6879  0.6043
   66MPD2    N1 1035   3.229   3.809  15.545  0.4909  0.6173  0.0279
   66MPD2    H7 1036   3.245   3.792  15.447  0.9866  0.1629  0.1875
   67TMC2    C1 1037   3.180   2.887  14.111 -0.7673  0.6624 -0.5641
   67TMC2    C2 1038   3.072   2.823  14.168  0.4736 -0.1731  0.7497
   67TMC2    C3 1039   3.083   2.789  14.297  0.0821 -0.6772 -0.3218
   67TMC2    C4 1040   3.290   2.931  14.177  0.1778  0.6756  0.3433
   67TMC2    C5 1041   3.304   2.891  14.302 -0.4322 -0.4572  1.0374
   67TMC2    C6 1042   3.203   2.813  14.360  0.5999  0.2157  0.3985
   67TMC2     C 1043   3.163   2.932  13.979  0.5665  0.2008 -0.3311
   67TMC2     O 1044   3.258   2.938  13.911  0.5789  0.4010 -0.0844
   67TMC2     H 1045   2.987   2.786  14.111 -0.9018  2.1647  1.2532
   67TMC2    H1 1046   3.366   2.998  14.138  2.1230 -0.4333  2.2096
   67TMC2    H2 1047   3.217   2.787  14.464  2.9193  2.7851  0.7137
   67TMC2    C7 1048   3.415   2.921  14.382  0.6017  0.3871 -0.7443
   67TMC2    C8 1049   3.004   2.688  14.348  0.6417 -0.5007 -0.0324
   67TMC2    O1 1050   3.520   2.928  14.326 -0.2089  0.6630 -0.7545
   67TMC2    O2 1051   2.884   2.681  14.322  0.0571  0.1521 -0.4229
   67TMC2    O5 1052   3.086   2.584  14.343 -0.2949 -0.3098  0.2496
   67TMC2    H5 1053   3.180   2.609  14.329 -0.7152  0.8334 -0.5340
   68MPD2     C 1054   3.041   3.049  13.727 -0.8235 -0.4057 -1.2794
   68MPD2    C1 1055   2.976   3.033  13.851 -0.2860 -0.2189 -0.0705
   68MPD2    C2 1056   2.848   3.084  13.859 -0.2792  0.0104  0.5947
   68MPD2    C3 1057   2.794   3.175  13.768  0.5509  0.5234 -0.7199
   68MPD2    C4 1058   2.864   3.194  13.652  0.2367 -0.3493  0.4916
   68MPD2    C5 1059   2.985   3.123  13.628  0.0402  0.0022  0.4570
   68MPD2     H 1060   2.795   3.069  13.952  0.9919 -2.4042  0.9033
   68MPD2    H1 1061   2.822   3.261  13.577  0.3846 -0.0870  0.6459
   68MPD2    H2 1062   3.138   3.006  13.707 -0.8889 -1.0419 -0.2107
   68MPD2    H3 1063   3.044   3.146  13.540  0.2038 -1.3761  0.2049
   68MPD2     N 1064   2.668   3.238  13.783 -0.1548  0.0183 -0.1220
   68MPD2    H5 1065   2.660   3.308  13.709 -1.1801 -1.2836 -1.2560
   68MPD2    N1 1066   3.029   2.965  13.962 -0.0075 -0.2399 -0.3693
   68MPD2    H7 1067   2.969   2.957  14.043  0.7499 -0.8398  0.1405
   69TMC2    C1 1068   4.214   4.388  12.119  0.4229 -0.1505  0.9773
   69TMC2    C2 1069   4.095   4.342  12.080 -0.2301  0.0374 -0.1095
   69TMC2    C3 1070   4.037   4.425  11.982  0.1113  0.6722  0.4484
   69TMC2    C4 1071   4.288   4.475  12.043 -0.4730 -0.7226  0.0333
   69TMC2    C5 1072   4.243   4.526  11.927  0.0584  0.2189 -0.0115
   69TMC2    C6 1073   4.112   4.502  11.902 -0.5635  0.8440  0.3444
   69TMC2     C 1074   4.260   4.320  12.242 -0.5051 -0.2797 -0.5114
   69TMC2     O 1075   4.178   4.257  12.308  0.2052  0.1217 -0.7586
   69TMC2     H 1076   4.040   4.268  12.137  1.9544 -0.4270  1.3910
   69TMC2    H1 1077   4.380   4.513  12.086 -1.8889  1.2480  1.3504
   69TMC2    H2 1078   4.071   4.536  11.807 -0.4257  3.4734  1.2524
   69TMC2    C7 1079   4.336   4.579  11.838 -0.2222 -0.3987  0.6299
   69TMC2    C8 1080   3.923   4.361  11.925 -0.7990  0.3568  0.2655
   69TMC2    O1 1081   4.451   4.592  11.881  0.2790 -0.2710  0.1903
   69TMC2    O2 1082   3.890   4.346  11.805  0.0571 -0.8782 -0.1001
   69TMC2    O5 1083   3.835   4.336  12.022 -0.1224  0.6414 -0.6266
   69TMC2    H5 1084   3.854   4.361  12.115 -1.1540 -0.9914  0.0166
   70MPD2     C 1085   4.577   4.359  12.389  0.4420  0.1192 -0.3812
   70MPD2    C1 1086   4.449   4.317  12.389  0.4419  0.2875 -0.1256
   70MPD2    C2 1087   4.394   4.246  12.498 -0.1825  0.6933 -0.8944
   70MPD2    C3 1088   4.484   4.222  12.605  0.3461  0.2759 -0.1632
   70MPD2    C4 1089   4.610   4.271  12.608  0.3295  0.3451  0.0343
   70MPD2    C5 1090   4.656   4.337  12.498 -0.0919  0.2876 -0.1174
   70MPD2     H 1091   4.291   4.211  12.489 -0.3055  0.9355 -0.3984
   70MPD2    H1 1092   4.669   4.249  12.697 -1.2516 -0.7129  0.8327
   70MPD2    H2 1093   4.618   4.395  12.295  0.1245 -0.0807 -0.5938
   70MPD2    H3 1094   0.013   4.380  12.492  0.8855 -2.0479 -0.6058
   70MPD2     N 1095   4.440   4.153  12.718  0.1973 -0.3777 -0.2091
   70MPD2    H5 1096   4.502   4.132  12.795 -0.6082 -0.7620  0.3442
   70MPD2    N1 1097   4.390   4.347  12.268 -0.0143  0.2014  0.4433
   70MPD2    H7 1098   4.448   4.380  12.191 -0.2560  0.5004  0.3884
   71TMC2    C1 1099   2.660   1.315   1.578  0.3723  0.0331  0.0028
   71TMC2    C2 1100   2.760   1.367   1.656  0.3973 -0.2178  0.5056
   71TMC2    C3 1101   2.721   1.437   1.765  0.2692  0.2749  0.5286
   71TMC2    C4 1102   2.532   1.328   1.605  0.3082 -0.8220 -0.6748
   71TMC2    C5 1103   2.489   1.412   1.707 -0.3920 -0.5337 -0.6118
   71TMC2    C6 1104   2.585   1.463   1.790 -0.0651 -0.5961  0.5177
   71TMC2     C 1105   2.704   1.209   1.488  0.2695  0.5930 -0.6383
   71TMC2     O 1106   2.788   1.241   1.408  0.1662  0.3751 -0.1622
   71TMC2     H 1107   2.863   1.336   1.646  0.0004 -1.3735 -0.0650
   71TMC2    H1 1108   2.465   1.306   1.523 -0.7680  0.3739 -0.1094
   71TMC2    H2 1109   2.567   1.542   1.862 -0.1725 -1.5920  1.5854
   71TMC2    C7 1110   2.358   1.473   1.712  0.1595 -0.4208  0.3124
   71TMC2    C8 1111   2.818   1.513   1.837  0.2779  0.2393  0.3726
   71TMC2    O1 1112   2.342   1.577   1.779  0.1828 -0.2776 -0.2243
   71TMC2    O2 1113   2.807   1.557   1.954  0.3710 -0.4596 -0.0492
   71TMC2    O5 1114   2.889   1.580   1.739  0.0257  0.3814  0.2021
   71TMC2    H5 1115   2.883   1.564   1.642  0.0593 -1.2327  0.4743
   72MPD2     C 1116   2.682   0.752   1.277  0.3197 -0.3827 -0.4980
   72MPD2    C1 1117   2.727   0.870   1.219  0.1428  0.1122  0.0610
   72MPD2    C2 1118   2.703   0.995   1.283  0.5220  0.2657 -0.3786
   72MPD2    C3 1119   2.639   0.987   1.410 -0.4354 -0.2972  0.2119
   72MPD2    C4 1120   2.587   0.870   1.454  0.4420  0.7342  0.0062
   72MPD2    C5 1121   2.615   0.751   1.396  0.2152  0.3236 -0.1211
   72MPD2     H 1122   2.744   1.085   1.239 -0.6138  0.0891 -1.7819
   72MPD2    H1 1123   2.537   0.872   1.550 -0.4194  0.0295 -0.4246
   72MPD2    H2 1124   2.684   0.659   1.222  0.3068  0.0278 -1.1944
   72MPD2    H3 1125   2.576   0.655   1.426 -1.1643 -0.1379 -3.4196
   72MPD2     N 1126   2.623   1.099   1.497  0.6177  0.2919  0.1220
   72MPD2    H5 1127   2.553   1.098   1.570 -0.9700  0.6877 -1.3988
   72MPD2    N1 1128   2.788   0.872   1.090 -0.7125  1.1821  0.0729
   72MPD2    H7 1129   2.813   0.961   1.048 -0.7528  0.7915 -0.7704
   73TMC2    C1 1130   2.253   2.107  14.021 -0.0872  0.4703 -0.3430
   73TMC2    C2 1131   2.223   2.156  14.147  0.3576 -0.5702  0.1779
   73TMC2    C3 1132   2.277   2.092  14.256  0.5566  0.6107 -0.3187
   73TMC2    C4 1133   2.341   2.005  14.008  0.1191 -0.6582 -0.5468
   73TMC2    C5 1134   2.392   1.941  14.116  0.0280  0.5384 -0.7029
   73TMC2    C6 1135   2.357   1.982  14.239  0.5481  0.3624  0.6892
   73TMC2     C 1136   2.288   2.218  13.926  0.4896  0.1070  0.1458
   73TMC2     O 1137   2.393   2.191  13.868 -0.5978  0.1782  0.4478
   73TMC2     H 1138   2.163   2.246  14.146 -0.3658 -1.0145  2.3080
   73TMC2    H1 1139   2.356   1.963  13.909 -0.3674 -1.6501 -0.1907
   73TMC2    H2 1140   2.408   1.930  14.320  0.9810 -1.3237 -0.6714
   73TMC2    C7 1141   2.534   1.903  14.094  0.6532  0.6391  1.0341
   73TMC2    C8 1142   2.281   2.169  14.379 -0.4715  0.0117  0.2207
   73TMC2    O1 1143   2.603   1.861  14.182 -0.5319 -0.5109 -0.8129
   73TMC2    O2 1144   2.369   2.150  14.462  0.1893 -0.4197  0.3123
   73TMC2    O5 1145   2.196   2.269  14.368 -0.0986 -0.5350  0.3235
   73TMC2    H5 1146   2.119   2.242  14.313 -1.5891  1.0980  1.6274
   74MPD2     C 1147   2.273   2.644  13.644 -0.4358  0.1289 -0.2151
   74MPD2    C1 1148   2.376   2.574  13.699  0.1713  0.3611 -0.0048
   74MPD2    C2 1149   2.349   2.462  13.781 -0.2923  0.1242 -0.2280
   74MPD2    C3 1150   2.220   2.417  13.796  0.2504  0.4388  0.2037
   74MPD2    C4 1151   2.122   2.487  13.737  0.0133  0.3766  0.3864
   74MPD2    C5 1152   2.141   2.603  13.668  0.3951  0.1075 -0.7085
   74MPD2     H 1153   2.429   2.415  13.837 -1.0738 -0.4797  0.3931
   74MPD2    H1 1154   2.023   2.445  13.752 -0.3305  0.3275 -2.0033
   74MPD2    H2 1155   2.286   2.720  13.568  1.0280 -0.9968 -1.0910
   74MPD2    H3 1156   2.072   2.664  13.610  0.9707  1.2530 -0.1962
   74MPD2     N 1157   2.190   2.314  13.899 -0.0379  0.0470  0.4054
   74MPD2    H5 1158   2.094   2.302  13.929  1.2300 -2.5129  3.3888
   74MPD2    N1 1159   2.513   2.614  13.667  0.0357  0.0436  0.0607
   74MPD2    H7 1160   2.527   2.693  13.605 -0.0826 -0.5861 -0.7594
   75TMC2    C1 1161   2.482   3.331  13.860  0.3696  0.0722  0.2907
   75TMC2    C2 1162   2.490   3.443  13.936  0.4223  0.3294  0.2315
   75TMC2    C3 1163   2.428   3.554  13.886  0.2744  0.4333  0.3318
   75TMC2    C4 1164   2.414   3.318  13.745 -0.0624 -0.6518  0.4536
   75TMC2    C5 1165   2.343   3.432  13.704  0.0821  0.0738  0.2147
   75TMC2    C6 1166   2.351   3.548  13.772 -0.2948  0.0757 -0.7971
   75TMC2     C 1167   2.577   3.231  13.888 -0.0028  0.1727  0.1923
   75TMC2     O 1168   2.585   3.195  14.005  0.1998 -0.1342 -0.4628
   75TMC2     H 1169   2.558   3.452  14.020 -0.5025 -0.2791  1.0466
   75TMC2    H1 1170   2.420   3.228  13.684  0.4143  0.8869 -1.7589
   75TMC2    H2 1171   2.310   3.646  13.748 -0.8856 -0.6011 -2.4744
   75TMC2    C7 1172   2.247   3.413  13.595 -0.5191  1.3573  0.8432
   75TMC2    C8 1173   2.477   3.686  13.912 -0.2364  0.0656 -0.5577
   75TMC2    O1 1174   2.242   3.303  13.535 -0.0303 -0.3024 -0.2995
   75TMC2    O2 1175   2.405   3.786  13.900 -0.2037  0.5770  0.0969
   75TMC2    O5 1176   2.607   3.681  13.887  0.5269 -0.4279  0.1923
   75TMC2    H5 1177   2.656   3.596  13.882  2.2442  0.5560  0.1470
   76TMC2    C1 1178   1.306   4.587  11.674 -0.5546  0.2765  0.3898
   76TMC2    C2 1179   1.368   4.620  11.560 -0.2274  0.0191 -0.0032
   76TMC2    C3 1180   1.501   4.630  11.540  0.8054 -0.4602 -0.6159
   76TMC2    C4 1181   1.377   4.567  11.788  0.7638  0.1636  0.2718
   76TMC2    C5 1182   1.516   4.581  11.766 -0.7984 -0.7186 -0.3366
   76TMC2    C6 1183   1.578   4.602  11.648 -0.7437 -0.1746  0.3491
   76TMC2     C 1184   1.164   4.560  11.669 -0.1536 -0.7296  0.5865
   76TMC2     O 1185   1.109   4.569  11.556  0.2456 -0.4066  0.4113
   76TMC2     H 1186   1.316   4.637  11.466  2.5210  0.5223 -1.4484
   76TMC2    H1 1187   1.338   4.551  11.888  0.0179  1.0512  0.1268
   76TMC2    H2 1188   1.685   4.600  11.636 -0.9178  0.9680 -1.4186
   76TMC2    C7 1189   1.607   4.551  11.877 -0.0972 -0.1577  0.1294
   76TMC2    C8 1190   1.557   4.702  11.424  0.6405  0.0588 -0.0747
   76TMC2    O1 1191   1.717   4.601  11.873 -0.6160 -0.3416  0.6822
   76TMC2    O2 1192   1.641   0.046  11.432 -0.6537 -0.3844 -0.0508
   76TMC2    O5 1193   1.487   4.672  11.312 -0.1763  0.6004 -0.0303
   76TMC2    H5 1194   1.430   4.593  11.326  0.1240  0.6759  1.6636
   77MPD2     C 1195   0.714   4.471  11.894 -0.1633 -0.0718 -0.2627
   77MPD2    C1 1196   0.737   4.505  11.761  0.7253  0.5508 -0.2569
   77MPD2    C2 1197   0.870   4.519  11.722 -0.0107 -0.4211  1.0752
   77MPD2    C3 1198   0.971   4.514  11.817 -0.8261  0.0018  0.6649
   77MPD2    C4 1199   0.939   4.518  11.950 -0.5801  0.3873  0.3045
   77MPD2    C5 1200   0.810   4.481  11.991 -0.1585  0.4046 -0.0285
   77MPD2     H 1201   0.888   4.543  11.618 -0.7694  1.9372  1.4936
   77MPD2    H1 1202   1.019   4.524  12.023 -2.4277 -0.8571  2.4053
   77MPD2    H2 1203   0.610   4.456  11.920  0.3823 -2.7674  0.2881
   77MPD2    H3 1204   0.787   4.461  12.095  1.8067 -0.3959  0.2526
   77MPD2     N 1205   1.111   4.531  11.793  0.0697  0.2108 -0.8846
   77MPD2    H5 1206   1.179   4.542  11.868 -0.2484  0.2289 -0.5991
   77MPD2    N1 1207   0.638   4.517  11.662  0.2948 -0.3069  0.7361
   77MPD2    H7 1208   0.668   4.568  11.580  1.9895 -2.0066  0.2994
   78TMC2    C1 1209   1.722   0.464   0.129 -0.1821 -0.8615 -0.6458
   78TMC2    C2 1210   1.677   0.356   0.065  0.0927 -0.2739  0.1234
   78TMC2    C3 1211   1.742   0.237   0.075  0.0096 -0.5813 -0.3535
   78TMC2    C4 1212   1.844   0.463   0.194 -0.4907 -0.2779  0.2373
   78TMC2    C5 1213   1.901   0.342   0.214 -0.2478 -0.2138  0.2240
   78TMC2    C6 1214   1.853   0.224   0.161 -0.9246 -0.4379 -0.0344
   78TMC2     C 1215   1.650   0.594   0.113 -0.7505  0.7030  0.1791
   78TMC2     O 1216   1.711   0.701   0.125  0.0376 -0.2033 -0.2154
   78TMC2     H 1217   1.580   0.338   0.019  0.6127 -0.5274 -0.8675
   78TMC2    H1 1218   1.893   0.555   0.221 -1.9059  0.6852 -0.4892
   78TMC2    H2 1219   1.916   0.137   0.178 -0.8012 -0.0909  1.2512
   78TMC2    C7 1220   2.040   0.346   0.269 -0.3505 -0.0597  0.4184
   78TMC2    C8 1221   1.682   0.124   0.012 -0.3678  0.1183  0.4523
   78TMC2    O1 1222   2.119   0.255   0.246 -0.0745  0.6497  0.5581
   78TMC2    O2 1223   1.639   0.120  17.664 -0.4538  0.3401 -0.3953
   78TMC2    O5 1224   1.686   0.025   0.109  0.3181  0.0415 -0.1306
   78TMC2    H5 1225   1.724   0.059   0.193  1.0630  1.2753 -0.9754
   79MPD1     C 1226   1.189   0.830   0.009  0.4009 -0.3842  0.2034
   79MPD1    C1 1227   1.313   0.876  17.757 -0.2785  0.5659 -0.7919
   79MPD1    C2 1228   1.421   0.796   0.041  0.7570  0.4075  0.7453
   79MPD1    C3 1229   1.404   0.665   0.080 -0.7851  0.4356 -0.0863
   79MPD1    C4 1230   1.278   0.620   0.085  0.4744  0.3485  0.5005
   79MPD1    C5 1231   1.164   0.704   0.056 -0.2288 -0.4238 -0.1729
   79MPD1     H 1232   1.517   0.846   0.050  0.0961  2.0448 -1.1566
   79MPD1    H1 1233   1.262   0.516   0.112 -0.0960  0.1577 -0.5666
   79MPD1    H2 1234   1.109   0.898  17.748  0.4314 -0.9091 -1.2777
   79MPD1    H3 1235   1.063   0.665   0.057  0.3353 -1.9488 -2.2679
   79MPD1     N 1236   1.512   0.574   0.115 -0.0182 -0.3447 -0.0475
   79MPD1    H5 1237   1.485   0.481   0.145  2.7568 -1.6932 -1.7019
   79MPD1    N1 1238   1.337   1.013  17.732 -0.4898  0.2863 -0.0727
   79MPD1    H6 1239   1.426   1.035  17.688  0.4502 -1.4225  0.9485
   79MPD1    H7 1240   1.266   1.061  17.676 -1.8639 -0.8928  0.6600
   80TMC2    C1 1241   0.686   3.935  11.234 -0.0224  0.1734  0.1901
   80TMC2    C2 1242   0.712   3.991  11.112  0.1649  0.5081  0.7354
   80TMC2    C3 1243   0.612   4.010  11.025 -0.0800  0.0700  0.8802
   80TMC2    C4 1244   0.564   3.882  11.264 -0.7494 -0.1546  0.3573
   80TMC2    C5 1245   0.466   3.895  11.171  0.6613 -0.2813 -0.4916
   80TMC2    C6 1246   0.486   3.960  11.052  0.2310  0.1242 -0.5019
   80TMC2     C 1247   0.800   3.915  11.334 -0.3141  0.1667 -0.7495
   80TMC2     O 1248   0.913   3.947  11.293 -0.3193  0.1772 -0.6477
   80TMC2     H 1249   0.811   4.022  11.080  0.7384 -1.4994  0.5530
   80TMC2    H1 1250   0.539   3.835  11.359  0.7635 -0.2805  0.6932
   80TMC2    H2 1251   0.408   3.960  10.977  0.1248 -0.4394 -0.3937
   80TMC2    C7 1252   0.330   3.834  11.179  0.2278 -0.6585 -0.0403
   80TMC2    C8 1253   0.627   4.057  10.886 -0.1221 -1.2074  0.0557
   80TMC2    O1 1254   0.246   3.846  11.090 -0.0178 -0.2977  0.4686
   80TMC2    O2 1255   0.530   4.101  10.820 -0.2010 -0.5133  0.0933
   80TMC2    O5 1256   0.750   4.023  10.842  0.1723  0.5478  0.0041
   80TMC2    H5 1257   0.807   3.982  10.910 -0.3489 -2.3224 -1.2804
   81MPD2     C 1258   0.988   3.827  11.559  0.1657  0.6398  0.6444
   81MPD2    C1 1259   0.846   3.834  11.566  0.4002  0.7662  0.4014
   81MPD2    C2 1260   0.786   3.805  11.688  0.0447  0.1624 -1.0581
   81MPD2    C3 1261   0.861   3.760  11.800 -0.1694 -0.0367  0.4776
   81MPD2    C4 1262   0.997   3.752  11.782 -0.0567 -0.0880  0.6499
   81MPD2    C5 1263   1.063   3.775  11.662  0.4808  0.6032 -0.4298
   81MPD2     H 1264   0.681   3.818  11.711  0.0360 -1.5323 -0.1507
   81MPD2    H1 1265   1.057   3.723  11.868  0.4509  1.4953  0.8256
   81MPD2    H2 1266   1.038   3.850  11.466 -1.1867  1.0003  0.0080
   81MPD2    H3 1267   1.171   3.770  11.652  0.4527  1.5606 -1.2747
   81MPD2     N 1268   0.811   3.742  11.933  0.8219 -0.1877 -0.1733
   81MPD2    H5 1269   0.870   3.716  12.011  0.7533 -0.3594 -0.1784
   81MPD2    N1 1270   0.760   3.887  11.465  0.3138 -0.1755  0.4462
   81MPD2    H7 1271   0.659   3.894  11.479 -0.0762 -0.7579 -1.9657
   82TMC2    C1 1272   3.298   2.963  11.015  0.6122 -0.0118 -0.0654
   82TMC2    C2 1273   3.396   2.973  11.108  0.4744  0.3892 -0.2495
   82TMC2    C3 1274   3.403   2.870  11.195  0.5536 -0.6708 -0.4029
   82TMC2    C4 1275   3.202   2.862  11.008  0.4070  0.3170 -0.9839
   82TMC2    C5 1276   3.220   2.761  11.095 -0.6165  0.6825  0.2970
   82TMC2    C6 1277   3.319   2.764  11.191 -0.5259 -0.5022  0.0600
   82TMC2     C 1278   3.287   3.066  10.909  0.4608  0.1272  0.2263
   82TMC2     O 1279   3.180   3.058  10.859  0.0319 -0.1643 -0.1784
   82TMC2     H 1280   3.470   3.051  11.117 -2.3404  3.2731 -2.3460
   82TMC2    H1 1281   3.121   2.866  10.937  0.5328 -1.1037 -1.2012
   82TMC2    H2 1282   3.339   2.685  11.263 -1.0144 -0.1108  0.6316
   82TMC2    C7 1283   3.107   2.676  11.140  0.9546  0.1524  0.3397
   82TMC2    C8 1284   3.509   2.873  11.283  0.0594 -0.3394 -0.1774
   82TMC2    O1 1285   3.105   2.615  11.246  0.1640 -0.3915  0.3911
   82TMC2    O2 1286   3.614   2.933  11.269 -0.3939  0.4478 -0.3753
   82TMC2    O5 1287   3.458   2.851  11.404  0.1386  0.5048  0.0899
   82TMC2    H5 1288   3.378   2.798  11.422  1.3853 -1.1519  0.8061
   83MPD2     C 1289   3.421   3.445  10.602  0.0421 -0.6235 -0.3130
   83MPD2    C1 1290   3.305   3.369  10.602  0.3181  0.0847 -0.2459
   83MPD2    C2 1291   3.293   3.266  10.687 -0.2674  0.1385  0.9620
   83MPD2    C3 1292   3.395   3.242  10.784  0.4184  0.1156 -0.7495
   83MPD2    C4 1293   3.509   3.320  10.779 -0.1522  1.1697 -0.7589
   83MPD2    C5 1294   3.529   3.417  10.686  0.3217  0.2230  0.0520
   83MPD2     H 1295   3.199   3.214  10.698 -1.5202  2.3758  0.9040
   83MPD2    H1 1296   3.596   3.307  10.842  0.4191  0.5721 -1.6576
   83MPD2    H2 1297   3.436   3.532  10.539 -1.4168 -0.3712 -0.3165
   83MPD2    H3 1298   3.622   3.472  10.695  1.3261 -1.1559 -2.1396
   83MPD2     N 1299   3.396   3.148  10.880 -0.3493 -0.3603 -0.3849
   83MPD2    H5 1300   3.480   3.149  10.936  0.0460  0.0005 -0.9900
   83MPD2    N1 1301   3.205   3.398  10.504 -0.6165 -0.2302 -0.1244
   83MPD2    H7 1302   3.224   3.477  10.444  0.3731 -0.6381 -0.3547
   84TMC2    C1 1303   4.284   2.616  10.977  0.1091  0.1287 -0.0900
   84TMC2    C2 1304   4.342   2.569  11.092 -0.0018 -0.4218 -0.2943
   84TMC2    C3 1305   4.435   2.467  11.065 -0.0003  0.4728 -0.8241
   84TMC2    C4 1306   4.318   2.575  10.848  0.7013 -0.1450  0.0855
   84TMC2    C5 1307   4.421   2.483  10.838 -0.1014  0.8098  0.0520
   84TMC2    C6 1308   4.487   2.431  10.942 -0.1635 -0.0843  0.2546
   84TMC2     C 1309   4.182   2.724  10.996 -0.2046 -0.0887 -0.4432
   84TMC2     O 1310   4.166   2.763  11.109  0.2566 -0.1898  0.0391
   84TMC2     H 1311   4.331   2.609  11.192  1.4448 -0.9708  0.0703
   84TMC2    H1 1312   4.279   2.620  10.758 -1.8333 -2.8518 -0.1623
   84TMC2    H2 1313   4.560   2.352  10.929 -0.2240  0.4407 -3.1935
   84TMC2    C7 1314   4.392   2.381  10.737  0.4298  0.2549  0.5701
   84TMC2    C8 1315   4.514   2.415  11.175  0.6672 -0.7575  0.0219
   84TMC2    O1 1316   4.400   2.263  10.766  0.6035 -0.1521  0.7427
   84TMC2    O2 1317   4.511   2.298  11.201  0.1326 -0.3606  0.3413
   84TMC2    O5 1318   4.628   2.484  11.175 -0.0767  0.5451  0.2463
   84TMC2    H5 1319   4.606   2.578  11.159 -0.1017  0.4139 -0.4677
   85TMC2    C1 1320   0.215   0.408  15.777  0.1824 -0.7937 -0.5020
   85TMC2    C2 1321   0.171   0.362  15.658  0.6109  1.1208  1.0314
   85TMC2    C3 1322   0.174   0.441  15.542  1.0866 -0.5924 -0.0772
   85TMC2    C4 1323   0.286   0.526  15.779 -0.5031  0.0971 -0.3357
   85TMC2    C5 1324   0.302   0.599  15.662 -0.3033 -0.1989 -0.0968
   85TMC2    C6 1325   0.241   0.560  15.547  0.5291  0.3438  0.4343
   85TMC2     C 1326   0.185   0.351  15.907  0.4550  0.0796 -0.5090
   85TMC2     O 1327   0.195   0.422  16.006 -0.3152  0.0217  0.0186
   85TMC2     H 1328   0.102   0.279  15.651  0.3875  1.1769  2.7430
   85TMC2    H1 1329   0.321   0.573  15.870  1.0347 -2.7115  0.5083
   85TMC2    H2 1330   0.272   0.610  15.455 -0.5964 -1.2524 -0.8189
   85TMC2    C7 1331   0.369   0.729  15.659 -0.7900  0.2454 -0.2470
   85TMC2    C8 1332   0.115   0.397  15.414 -0.0529  0.5109 -0.7613
   85TMC2    O1 1333   0.428   0.758  15.764 -0.2368  0.1568  0.3374
   85TMC2    O2 1334   0.111   0.465  15.311  0.1898  0.4260 -0.1478
   85TMC2    O5 1335   0.121   0.263  15.412  0.0675 -0.2545  0.9515
   85TMC2    H5 1336   0.155   0.223  15.495 -1.3744 -1.7617  0.8215
   86MPD2     C 1337   0.009   4.713  16.204  0.2521 -0.5786  0.8837
   86MPD2    C1 1338   0.024   4.669  16.071 -0.0008 -0.8238 -0.1019
   86MPD2    C2 1339   0.064   0.008  15.971  0.6518  0.1651 -0.1923
   86MPD2    C3 1340   0.105   0.137  16.002 -0.0923 -0.0897  0.6153
   86MPD2    C4 1341   0.095   0.174  16.132 -0.0698  0.1086  0.0673
   86MPD2    C5 1342   0.044   0.104  16.230  0.0902  0.7653 -0.1087
   86MPD2     H 1343   0.063   4.719  15.867 -1.9571  1.9328 -0.7035
   86MPD2    H1 1344   0.129   0.273  16.162 -0.6044 -0.3603  2.2202
   86MPD2    H2 1345   4.705   4.656  16.284  2.2259 -0.2134  2.2808
   86MPD2    H3 1346   0.039   0.144  16.331  0.3663 -0.4223  0.3808
   86MPD2     N 1347   0.146   0.219  15.898 -0.0300 -0.1630  0.0432
   86MPD2    H5 1348   0.154   0.180  15.805 -3.4943 -2.3371  0.6514
   86MPD2    N1 1349   4.726   4.534  16.028  0.5801  0.0594  0.0405
   86MPD2    H7 1350   0.002   4.513  15.930 -1.0262  3.2859 -0.9437
   87TMC2    C1 1351   2.656   3.746   0.587  0.7036 -0.1609  0.9412
   87TMC2    C2 1352   2.623   3.707   0.715 -0.1568 -0.1561  0.0125
   87TMC2    C3 1353   2.602   3.811   0.807  0.9077 -0.1717  0.0606
   87TMC2    C4 1354   2.685   3.879   0.565 -0.4444 -0.3757 -0.5297
   87TMC2    C5 1355   2.661   3.975   0.663 -0.2397 -0.3896 -0.7697
   87TMC2    C6 1356   2.610   3.945   0.777  0.6847  0.3247 -0.3093
   87TMC2     C 1357   2.706   3.645   0.494 -0.2539 -0.7258 -0.8934
   87TMC2     O 1358   2.759   3.689   0.393 -0.5141  0.2504 -0.4095
   87TMC2     H 1359   2.602   3.605   0.743  0.6922 -0.1695  0.6162
   87TMC2    H1 1360   2.721   3.913   0.469  1.0517 -1.4316 -0.3401
   87TMC2    H2 1361   2.565   4.018   0.844  1.0750 -0.7935  1.1680
   87TMC2    C7 1362   2.641   4.106   0.605 -0.9245 -0.2084 -0.4022
   87TMC2    C8 1363   2.552   3.775   0.939  0.0717  0.3778 -0.7523
   87TMC2    O1 1364   2.644   4.121   0.486  0.3998 -0.5628  0.5642
   87TMC2    O2 1365   2.467   3.685   0.951  0.2345 -0.0567  0.2745
   87TMC2    O5 1366   2.586   3.876   1.019  0.5096 -0.5024  0.1484
   87TMC2    H5 1367   2.677   3.909   0.999  0.4719 -0.5850 -0.1660
   88MPD2     C 1368   2.616   4.432   0.758  0.4766 -0.0452 -0.1669
   88MPD2    C1 1369   2.590   4.335   0.667 -0.2486  0.4196 -0.2034
   88MPD2    C2 1370   2.518   4.360   0.552  0.1908 -0.6228 -0.2597
   88MPD2    C3 1371   2.476   4.490   0.520  0.0079  0.0315  0.1192
   88MPD2    C4 1372   2.512   4.587   0.613 -0.6246 -0.0516  1.0574
   88MPD2    C5 1373   2.578   4.563   0.728 -0.2072  0.1682 -0.6746
   88MPD2     H 1374   2.488   4.269   0.502  0.1233 -0.2546 -0.8957
   88MPD2    H1 1375   2.485   4.687   0.581  2.5140  0.9287  1.4794
   88MPD2    H2 1376   2.668   4.401   0.848  1.1288 -0.7379 -0.7837
   88MPD2    H3 1377   2.595   4.649   0.791 -1.0737 -0.3078  0.2013
   88MPD2     N 1378   2.405   4.522   0.398  1.3944  0.0460  0.1322
   88MPD2    H5 1379   2.394   4.620   0.375  2.5499  0.3580  0.9264
   88MPD2    N1 1380   2.614   4.200   0.701 -0.2034  0.4904 -0.7299
   88MPD2    H7 1381   2.646   4.174   0.794  1.4610  2.9354 -0.6202
   89TMC2    C1 1382   4.185   2.509   1.606 -0.5731 -0.7106  0.1491
   89TMC2    C2 1383   4.129   2.544   1.730  1.1888 -0.1426  0.1328
   89TMC2    C3 1384   4.187   2.646   1.792 -0.5107  0.2690  0.1298
   89TMC2    C4 1385   4.303   2.556   1.561 -0.1025  0.0033 -0.4020
   89TMC2    C5 1386   4.370   2.651   1.630  0.1864  0.3007  0.3126
   89TMC2    C6 1387   4.309   2.692   1.748 -0.4774  0.2047  0.5984
   89TMC2     C 1388   4.152   2.379   1.543 -0.0822 -0.0875 -0.1702
   89TMC2     O 1389   4.238   2.308   1.493  0.2779 -0.5812  0.5869
   89TMC2     H 1390   4.064   2.476   1.783 -0.9777  0.9851 -1.0897
   89TMC2    H1 1391   4.362   2.486   1.504 -1.1096 -2.1702  1.2019
   89TMC2    H2 1392   4.356   2.775   1.800  0.4182  0.1185 -0.0785
   89TMC2    C7 1393   4.506   2.677   1.604 -0.0788 -0.1473  0.0548
   89TMC2    C8 1394   4.161   2.675   1.927  0.1461  0.3509 -0.3094
   89TMC2    O1 1395   4.578   2.714   1.700 -0.3369 -0.1207 -0.1164
   89TMC2    O2 1396   4.256   2.682   2.002  0.2579 -0.5963 -0.3208
   89TMC2    O5 1397   4.038   2.623   1.957  0.1699  0.1309  0.6276
   89TMC2    H5 1398   3.966   2.627   1.891 -0.3127 -0.8565  1.1027
   90MPD2     C 1399   3.853   1.950   1.580  0.2006  0.0100  0.0556
   90MPD2    C1 1400   3.776   2.061   1.595  0.6870 -0.2944 -0.1384
   90MPD2    C2 1401   3.827   2.192   1.599 -0.2064  0.2023 -1.0422
   90MPD2    C3 1402   3.961   2.209   1.565  0.2914  0.1810  0.8634
   90MPD2    C4 1403   4.037   2.093   1.543 -0.1537 -0.2743  0.1713
   90MPD2    C5 1404   3.985   1.969   1.567  0.6256 -0.3086  0.1711
   90MPD2     H 1405   3.773   2.277   1.639 -1.2759 -0.4834 -1.0449
   90MPD2    H1 1406   4.143   2.093   1.520  0.1218 -0.5352  1.4776
   90MPD2    H2 1407   3.819   1.848   1.594 -3.4904  1.3479  0.9107
   90MPD2    H3 1408   4.048   1.882   1.560  0.3071 -0.3874 -1.7394
   90MPD2     N 1409   4.024   2.342   1.567 -0.0374 -0.0739 -0.0566
   90MPD2    H5 1410   3.967   2.419   1.601 -1.2627 -0.6130 -0.8849
   90MPD2    N1 1411   3.637   2.062   1.617  0.0079  0.0357  0.0909
   90MPD2    H7 1412   3.596   2.155   1.622 -0.2537 -0.1408  1.2333
   91TMC2    C1 1413   0.166   1.168  16.372 -0.2916  0.2762  0.2811
   91TMC2    C2 1414   0.187   1.259  16.276 -0.8594 -0.3304 -0.0304
   91TMC2    C3 1415   0.088   1.273  16.183  0.1349 -0.0169  0.1427
   91TMC2    C4 1416   0.061   1.079  16.363  0.3160  0.4330  0.3198
   91TMC2    C5 1417   4.708   1.094  16.270  0.7044 -0.4746 -0.7309
   91TMC2    C6 1418   4.719   1.197  16.175 -0.4095  0.2650 -0.1438
   91TMC2     C 1419   0.276   1.100  16.442  0.4456  0.3260 -0.1248
   91TMC2     O 1420   0.239   1.073  16.555  0.2890 -0.0743  0.1321
   91TMC2     H 1421   0.271   1.326  16.277  0.9329 -2.5459 -2.1142
   91TMC2    H1 1422   0.057   0.994  16.431 -1.8045  1.6932  1.7683
   91TMC2    H2 1423   4.630   1.230  16.122  1.4539  2.0988 -2.1085
   91TMC2    C7 1424   4.635   0.970  16.249 -0.1858  0.5132  0.1520
   91TMC2    C8 1425   0.096   1.397  16.100  0.8053 -0.6075 -0.5022
   91TMC2    O1 1426   4.627   0.888  16.342 -0.0498  0.1516 -0.1683
   91TMC2    O2 1427   0.189   1.476  16.114  0.3698 -0.4499  0.2862
   91TMC2    O5 1428   0.044   1.364  15.977  0.0941 -0.3521 -0.1682
   91TMC2    H5 1429   0.017   1.270  15.968 -0.5309 -0.2952  1.2244
   92MPD2     C 1430   0.503   0.963  16.563  0.1826  0.2736 -0.8085
   92MPD2    C1 1431   0.511   1.051  16.455  0.8323  0.1525  0.0587
   92MPD2    C2 1432   0.638   1.080  16.411  0.1202 -0.2954 -0.2361
   92MPD2    C3 1433   0.747   1.021  16.473 -0.2199  0.1334  0.5613
   92MPD2    C4 1434   0.740   0.945  16.580 -0.0394 -0.0526  0.4545
   92MPD2    C5 1435   0.608   0.920  16.633  0.3209 -0.3963 -0.5256
   92MPD2     H 1436   0.640   1.142  16.323  3.7550 -2.0990 -1.4159
   92MPD2    H1 1437   0.826   0.914  16.637  1.9675  1.0380 -2.0133
   92MPD2    H2 1438   0.409   0.938  16.611 -0.4980  3.5445 -0.4544
   92MPD2    H3 1439   0.597   0.852  16.717 -4.1269 -0.0512 -0.8776
   92MPD2     N 1440   0.874   1.061  16.425  0.0278  0.0359  0.5192
   92MPD2    H5 1441   0.879   1.134  16.354 -0.2893 -0.7728 -0.3236
   92MPD2    N1 1442   0.398   1.111  16.388  0.3129 -0.1771 -0.4730
   92MPD2    H7 1443   0.410   1.163  16.302  1.1341 -1.0098 -0.8666
   93TMC2    C1 1444   2.500   1.657  13.825 -0.1550 -0.1871 -0.2152
   93TMC2    C2 1445   2.448   1.549  13.897  0.2275 -0.0385 -0.4625
   93TMC2    C3 1446   2.542   1.459  13.940 -0.4012 -0.1241  0.1293
   93TMC2    C4 1447   2.633   1.673  13.787 -0.5096  0.2246 -0.4054
   93TMC2    C5 1448   2.716   1.569  13.833 -0.2820 -0.1819 -0.0457
   93TMC2    C6 1449   2.672   1.467  13.912  0.2285 -0.1193 -0.0681
   93TMC2     C 1450   2.407   1.756  13.766  0.4051 -0.4053 -0.6776
   93TMC2     O 1451   2.459   1.842  13.700  0.4352 -0.1018 -0.9605
   93TMC2     H 1452   2.346   1.557  13.935  0.0814 -1.0312 -0.6362
   93TMC2    H1 1453   2.658   1.760  13.727 -0.5455  0.9363  0.6023
   93TMC2    H2 1454   2.744   1.389  13.938 -1.8722 -1.3492  2.0274
   93TMC2    C7 1455   2.857   1.586  13.809 -0.0457  0.5459 -0.5507
   93TMC2    C8 1456   2.503   1.356  14.026  0.0822 -0.2572 -0.1974
   93TMC2    O1 1457   2.940   1.525  13.878  0.5534  0.5234  0.4520
   93TMC2    O2 1458   2.586   1.301  14.097  0.3035  0.0060  0.1941
   93TMC2    O5 1459   2.413   1.287  13.953  0.3063 -0.5972  0.4010
   93TMC2    H5 1460   2.374   1.335  13.876  1.2058  0.2535  0.4668
   94MPD2     C 1461   2.191   1.953  13.721 -0.3298  0.1587 -0.8229
   94MPD2    C1 1462   2.166   1.819  13.748 -0.4702  0.1759  0.5424
   94MPD2    C2 1463   2.034   1.773  13.748  0.0549 -0.0935  0.1482
   94MPD2    C3 1464   1.929   1.852  13.698  0.1454  0.0368 -0.0741
   94MPD2    C4 1465   1.958   1.990  13.691  0.6487 -0.6145 -0.2016
   94MPD2    C5 1466   2.085   2.035  13.704  0.4993  0.0370  0.2541
   94MPD2     H 1467   2.014   1.668  13.765  1.5846 -0.4889 -0.5220
   94MPD2    H1 1468   1.878   2.058  13.666  0.0360 -0.7175  1.5122
   94MPD2    H2 1469   2.292   1.993  13.720  0.1383 -1.0348 -0.1006
   94MPD2    H3 1470   2.103   2.137  13.672 -0.9935  0.2028 -0.0228
   94MPD2     N 1471   1.794   1.809  13.678  0.1161  0.2725  0.3989
   94MPD2    H5 1472   1.736   1.876  13.629 -1.4463 -1.6360 -0.3419
   94MPD2    N1 1473   2.272   1.732  13.784 -0.0604  0.2997 -0.4270
   94MPD2    H7 1474   2.243   1.645  13.827  1.0290  0.8381  1.4138
   95TMC2    C1 1475   2.399   3.716  15.975 -0.1913 -0.5241  0.2994
   95TMC2    C2 1476   2.327   3.705  16.090 -0.7873 -0.6438 -0.5487
   95TMC2    C3 1477   2.260   3.818  16.132  0.6122  0.1908 -0.1934
   95TMC2    C4 1478   2.414   3.831  15.901  0.7553  0.0351 -0.0217
   95TMC2    C5 1479   2.373   3.947  15.964 -0.0679  0.2078  0.2024
   95TMC2    C6 1480   2.284   3.936  16.063 -0.4368  0.2736 -0.5470
   95TMC2     C 1481   2.452   3.600  15.914  0.9458 -0.0453 -0.0536
   95TMC2     O 1482   2.535   3.611  15.828  0.0306  0.0408 -0.6803
   95TMC2     H 1483   2.307   3.615  16.148  1.9063  0.2772  1.8147
   95TMC2    H1 1484   2.474   3.825  15.811  0.7432  0.3557 -0.0487
   95TMC2    H2 1485   2.248   4.026  16.111 -0.2250 -0.4693  1.0034
   95TMC2    C7 1486   2.402   4.074  15.902  0.6750 -0.0375 -0.1035
   95TMC2    C8 1487   2.135   3.803  16.201  0.1524  0.7110  0.0306
   95TMC2    O1 1488   2.522   4.083  15.868 -0.1931  0.3260 -0.1916
   95TMC2    O2 1489   2.118   3.697  16.259 -0.3012 -0.0640 -0.0132
   95TMC2    O5 1490   2.035   3.861  16.132  1.0309 -0.5052  0.0245
   95TMC2    H5 1491   2.061   3.944  16.086  0.6177  0.6280  1.8331
   96MPD2     C 1492   2.447   3.102  15.822 -0.0337  0.0328  0.3121
   96MPD2    C1 1493   2.536   3.204  15.794 -0.7026 -0.1135 -0.6440
   96MPD2    C2 1494   2.521   3.329  15.836 -0.0456  0.7923  0.6405
   96MPD2    C3 1495   2.411   3.358  15.910  0.2765  0.4337 -0.1812
   96MPD2    C4 1496   2.331   3.262  15.953  0.1712  0.4043  0.0711
   96MPD2    C5 1497   2.347   3.135  15.902 -0.0247 -0.0289 -0.5268
   96MPD2     H 1498   2.592   3.408  15.815 -1.8072  1.1563 -3.9712
   96MPD2    H1 1499   2.244   3.281  16.015 -0.1308 -0.4184 -0.1078
   96MPD2    H2 1500   2.464   3.000  15.793  0.7346 -0.0200  0.9604
   96MPD2    H3 1501   2.285   3.056  15.942  0.5490 -0.2362 -0.0319
   96MPD2     N 1502   2.384   3.487  15.953  1.1224 -0.1325  0.4823
   96MPD2    H5 1503   2.293   3.500  15.995  2.0254  0.1361  2.3597
   96MPD2    N1 1504   2.649   3.178  15.709  0.1714  0.4165  0.4371
   96MPD2    H7 1505   2.710   3.258  15.695 -1.5313  1.5604 -0.4250
   97TMC2    C1 1506   4.698   1.473   0.007  0.1892  0.5750 -0.3489
   97TMC2    C2 1507   4.573   1.532  17.747 -0.3990  0.0927  0.1959
   97TMC2    C3 1508   4.553   1.610  17.632  0.2325  0.0345 -0.5917
   97TMC2    C4 1509   0.056   1.495  17.681  1.0961  0.1330 -0.4477
   97TMC2    C5 1510   0.035   1.579  17.573  0.0488 -0.3122 -0.1133
   97TMC2    C6 1511   4.655   1.635  17.546 -0.2905  0.4420 -0.7989
   97TMC2     C 1512   4.713   1.374   0.111 -0.2120 -0.1487 -0.2745
   97TMC2     O 1513   4.620   1.330   0.174 -0.4890 -0.2788  0.4188
   97TMC2     H 1514   4.490   1.500   0.042  1.0463 -2.0522  1.0623
   97TMC2    H1 1515   0.160   1.466  17.691  0.9068 -0.5820 -0.5284
   97TMC2    H2 1516   4.635   1.712  17.471 -0.1838  1.7640  0.5279
   97TMC2    C7 1517   0.151   1.634  17.502 -0.4470  0.3400  0.4789
   97TMC2    C8 1518   4.445   1.703  17.628 -0.3158 -0.3181  0.5038
   97TMC2    O1 1519   0.260   1.601  17.551  0.6185  0.1771 -0.4120
   97TMC2    O2 1520   4.334   1.671  17.663  1.0256 -0.3720  0.5899
   97TMC2    O5 1521   4.497   1.821  17.661 -0.5544  0.4210  0.6560
   97TMC2    H5 1522   4.593   1.822  17.679 -0.6652  1.2201  1.1938
   98MPD2     C 1523   0.250   1.007   0.313  0.0329  0.3175 -0.0524
   98MPD2    C1 1524   0.116   1.011   0.275 -0.5616 -0.0168 -0.4443
   98MPD2    C2 1525   0.065   1.126   0.217  0.2332  0.6149  0.1070
   98MPD2    C3 1526   0.147   1.235   0.202 -0.3441  0.8573 -0.0391
   98MPD2    C4 1527   0.284   1.228   0.236 -0.1070  0.0244  0.0141
   98MPD2    C5 1528   0.338   1.114   0.298 -0.0028 -0.2952 -0.2919
   98MPD2     H 1529   4.700   1.128   0.198 -0.4475 -2.4120  3.5408
   98MPD2    H1 1530   0.352   1.309   0.211  1.8316 -2.1317 -1.6374
   98MPD2    H2 1531   0.280   0.921   0.372 -0.5979  0.3409  0.3018
   98MPD2    H3 1532   0.441   1.105   0.333 -0.4841  1.2306  1.5108
   98MPD2     N 1533   0.102   1.353   0.141  0.3569 -0.1327  0.2673
   98MPD2    H5 1534   0.172   1.422   0.116 -1.6906  2.3852  1.4409
   98MPD2    N1 1535   0.039   0.897   0.301  0.0461  0.6594 -0.2341
   98MPD2    H7 1536   0.087   0.808   0.312  0.1190  0.8565  1.0460
   99TMC2    C1 1537   4.126   2.846   1.480  0.3357  0.4087 -0.2746
   99TMC2    C2 1538   4.223   2.921   1.535 -0.3353 -0.1543  0.0144
   99TMC2    C3 1539   4.188   3.021   1.627 -0.6685  0.7629  0.6264
   99TMC2    C4 1540   3.996   2.852   1.522 -0.4740  0.0330  0.5113
   99TMC2    C5 1541   3.969   2.947   1.626  0.0177  0.0362 -0.3043
   99TMC2    C6 1542   4.062   3.037   1.674  0.0101 -0.1668 -0.0374
   99TMC2     C 1543   4.170   2.767   1.360 -0.4206 -0.1032  0.5734
   99TMC2     O 1544   4.287   2.756   1.346  0.4579  0.1821 -0.3751
   99TMC2     H 1545   4.324   2.912   1.495 -0.0709  1.8184  0.2319
   99TMC2    H1 1546   3.922   2.775   1.504  0.2090 -0.7498  1.0553
   99TMC2    H2 1547   4.027   3.112   1.743 -0.3812 -1.8713  1.6116
   99TMC2    C7 1548   3.833   2.973   1.678 -0.8300  0.1836 -0.6971
   99TMC2    C8 1549   4.286   3.133   1.646 -0.1608  0.1528  0.0702
   99TMC2    O1 1550   3.823   3.027   1.787  0.1575 -0.1024 -0.5639
   99TMC2    O2 1551   4.366   3.142   1.553  0.0485  0.0992 -0.1152
   99TMC2    O5 1552   4.222   3.239   1.704  0.4346  0.2871 -0.2222
   99TMC2    H5 1553   4.170   3.223   1.786  0.3802  2.4423  0.1516
  100MPD2     C 1554   4.206   2.594   1.112 -0.4406 -0.4088 -0.1121
  100MPD2    C1 1555   4.088   2.647   1.155  0.1291  0.2920  0.7376
  100MPD2    C2 1556   3.976   2.616   1.083 -0.7530 -0.5319 -0.5054
  100MPD2    C3 1557   3.985   2.555   0.959 -0.2658 -0.0996  0.1681
  100MPD2    C4 1558   4.109   2.520   0.912 -0.4874 -0.5502  0.8098
  100MPD2    C5 1559   4.218   2.537   0.994  0.6488  0.0769 -0.3591
  100MPD2     H 1560   3.882   2.635   1.133  0.0323 -1.6796  1.3921
  100MPD2    H1 1561   4.131   2.478   0.815 -0.6909  1.6507 -0.1915
  100MPD2    H2 1562   4.298   2.595   1.170 -1.3883  0.5933  1.3618
  100MPD2    H3 1563   4.315   2.512   0.952  0.1860  0.8566 -1.9251
  100MPD2     N 1564   3.873   2.525   0.882  0.4672  0.4988 -0.5378
  100MPD2    H5 1565   3.787   2.540   0.934  1.4221 -0.9167  1.4652
  100MPD2    N1 1566   4.071   2.733   1.268  0.2581  0.1715 -0.4434
  100MPD2    H7 1567   3.975   2.761   1.286 -0.2769 -2.0730  0.1528
  101TMC2    C1 1568   4.045   3.447  12.872 -0.0460  1.2076 -0.0828
  101TMC2    C2 1569   3.938   3.534  12.861  0.0628  0.0008  1.1087
  101TMC2    C3 1570   3.965   3.643  12.790 -0.1372  0.2532  0.0911
  101TMC2    C4 1571   4.179   3.477  12.827  0.2861  0.0520  0.5364
  101TMC2    C5 1572   4.195   3.596  12.765 -0.7992  0.0307  0.0718
  101TMC2    C6 1573   4.090   3.680  12.742 -0.3502 -0.2356 -0.1086
  101TMC2     C 1574   4.017   3.329  12.942 -0.1465  0.5088 -0.3876
  101TMC2     O 1575   3.929   3.343  13.025 -0.1624  0.6495  0.0813
  101TMC2     H 1576   3.836   3.512  12.893 -0.7762 -0.7014 -2.0619
  101TMC2    H1 1577   4.253   3.397  12.826 -0.0644 -0.2294 -1.3814
  101TMC2    H2 1578   4.105   3.773  12.688  0.1516  0.2590  0.8711
  101TMC2    C7 1579   4.322   3.631  12.705 -0.1545 -0.5130  0.0898
  101TMC2    C8 1580   3.852   3.696  12.721  1.1298 -0.5343 -0.2144
  101TMC2    O1 1581   4.318   3.731  12.631 -0.3830  0.0091 -0.3019
  101TMC2    O2 1582   3.737   3.712  12.758  0.5502  0.1918 -0.1355
  101TMC2    O5 1583   3.900   3.730  12.604  0.2876 -0.3547 -0.6927
  101TMC2    H5 1584   3.986   3.696  12.571  0.2989 -1.0620  0.0535
  102MPD2     C 1585   4.067   2.995  12.808  0.4069 -0.0489 -0.4728
  102MPD2    C1 1586   4.025   3.092  12.897 -0.2093 -0.0309 -0.3781
  102MPD2    C2 1587   3.927   3.061  12.987  0.6134 -0.1439  0.0976
  102MPD2    C3 1588   3.859   2.940  12.972 -0.7557  0.3875 -0.6343
  102MPD2    C4 1589   3.905   2.839  12.885  0.7073  0.1233  0.3196
  102MPD2    C5 1590   4.007   2.873  12.802  0.7031 -1.3221 -0.2194
  102MPD2     H 1591   3.890   3.127  13.065  2.8225  2.5183 -1.1020
  102MPD2    H1 1592   3.852   2.745  12.877 -0.0396  0.4239  1.6710
  102MPD2    H2 1593   4.151   3.013  12.741  1.3644  0.9779  1.0262
  102MPD2    H3 1594   4.051   2.806  12.729  0.8120  1.0794 -2.3820
  102MPD2     N 1595   3.750   2.928  13.054  0.0897 -0.1289  0.3519
  102MPD2    H5 1596   3.731   3.012  13.107  0.1568  1.0098 -1.4300
  102MPD2    N1 1597   4.079   3.223  12.883 -0.0354  0.3414  0.6086
  102MPD2    H7 1598   4.151   3.237  12.813 -0.6259 -1.0388 -0.2904
  103TMC2    C1 1599   1.554   3.978  12.413  0.4105 -0.1778  0.1762
  103TMC2    C2 1600   1.418   3.956  12.418 -0.5145 -0.4881  0.0765
  103TMC2    C3 1601   1.355   3.937  12.537 -0.5652  0.0511 -0.4447
  103TMC2    C4 1602   1.629   3.963  12.530  0.3442 -1.4107 -0.0216
  103TMC2    C5 1603   1.566   3.935  12.647 -0.4766 -0.4503  0.0000
  103TMC2    C6 1604   1.427   3.926  12.644 -0.1821  0.4814 -0.5721
  103TMC2     C 1605   1.591   4.073  12.307 -0.1221  0.5985 -0.2503
  103TMC2     O 1606   1.531   4.059  12.198 -0.4031  0.1407 -0.4844
  103TMC2     H 1607   1.360   3.976  12.329 -3.8239  0.2228  2.3734
  103TMC2    H1 1608   1.737   3.968  12.534  0.3235  1.1314 -2.6602
  103TMC2    H2 1609   1.377   3.934  12.739  1.0032 -0.7971  0.1665
  103TMC2    C7 1610   1.633   3.970  12.773  0.5573 -0.4272 -0.6372
  103TMC2    C8 1611   1.211   3.917  12.525 -0.7556  0.5073 -0.0985
  103TMC2    O1 1612   1.710   4.063  12.759 -0.0601  0.0201 -0.3530
  103TMC2    O2 1613   1.135   3.963  12.443  0.5174  0.0568  0.7114
  103TMC2    O5 1614   1.181   3.845  12.636 -0.2668  0.5559  0.3773
  103TMC2    H5 1615   1.251   3.806  12.692 -1.7574  0.2156  2.0080
  104MPD2     C 1616   1.733   4.405  12.349  0.4980  0.4837 -0.4792
  104MPD2    C1 1617   1.660   4.303  12.286 -0.8433  0.1556 -0.3324
  104MPD2    C2 1618   1.600   4.333  12.161 -0.7929 -0.1681  0.3090
  104MPD2    C3 1619   1.612   4.458  12.107 -0.7874 -0.2550  0.3726
  104MPD2    C4 1620   1.693   4.555  12.168 -0.7522  0.3106  0.6293
  104MPD2    C5 1621   1.755   4.524  12.290  0.0728 -0.3542  0.1186
  104MPD2     H 1622   1.542   4.258  12.110  1.7801 -2.0810  0.1626
  104MPD2    H1 1623   1.712   4.656  12.132 -1.1872  0.4594  0.8166
  104MPD2    H2 1624   1.775   4.393  12.448  0.4860  0.7098 -0.4476
  104MPD2    H3 1625   1.817   4.589  12.350 -1.4443  1.6058 -0.4410
  104MPD2     N 1626   1.553   4.479  11.984  0.3088  0.0004  0.1243
  104MPD2    H5 1627   1.476   4.418  11.959  1.0782 -1.0048  0.1947
  104MPD2    N1 1628   1.661   4.180  12.352  0.1662 -0.1536  0.0799
  104MPD2    H7 1629   1.712   4.173  12.440  0.5730 -0.7624 -0.2075
  105TMC2    C1 1630   3.206   3.134  17.645  0.4806 -0.6725 -0.4011
  105TMC2    C2 1631   3.257   3.258  17.609 -0.1041  0.1484 -0.4219
  105TMC2    C3 1632   3.178   3.362  17.648 -0.4762  0.2717 -0.9877
  105TMC2    C4 1633   3.083   3.109  17.692  0.9717 -1.1579  0.2924
  105TMC2    C5 1634   3.012   3.216  17.734  0.3338 -0.0674  0.4483
  105TMC2    C6 1635   3.062   3.343  17.722 -0.8566  0.1686  0.2995
  105TMC2     C 1636   3.291   3.018  17.651  0.9624 -0.2840  0.4695
  105TMC2     O 1637   3.249   2.927  17.719 -0.0309  0.3020  0.5674
  105TMC2     H 1638   3.358   3.277  17.573  0.4574 -1.2735  0.4242
  105TMC2    H1 1639   3.043   3.009  17.707 -0.6401 -0.5748 -0.1120
  105TMC2    H2 1640   3.003   3.428  17.755 -0.2647  1.2030 -1.3048
  105TMC2    C7 1641   2.915   3.184   0.074 -0.5600 -0.1810 -0.5247
  105TMC2    C8 1642   3.233   3.489  17.643  0.0012  0.2033  0.8540
  105TMC2    O1 1643   2.903   3.061   0.095 -0.5007  0.3104  0.2220
  105TMC2    O2 1644   3.155   3.576  17.597 -0.4418 -1.0163 -0.1494
  105TMC2    O5 1645   3.292   3.506  17.761  0.2772 -0.4964 -0.2150
  105TMC2    H5 1646   3.328   3.421   0.027  2.1532  0.5499  0.4332
  106MPD2     C 1647   3.667   2.724  17.457 -0.5887 -0.2825  0.3983
  106MPD2    C1 1648   3.656   2.841  17.384  0.3971  0.7635 -0.5330
  106MPD2    C2 1649   3.550   2.925  17.410 -0.4339 -0.3611 -0.1327
  106MPD2    C3 1650   3.485   2.915  17.532  0.5837  0.3172  0.9107
  106MPD2    C4 1651   3.499   2.801  17.612 -0.1414 -0.5851 -0.1352
  106MPD2    C5 1652   3.584   2.702  17.567  0.3380 -0.7337 -0.6310
  106MPD2     H 1653   3.536   3.012  17.347 -2.6416 -0.6838 -0.1175
  106MPD2    H1 1654   3.438   2.784  17.699 -1.6574  0.2303 -1.0326
  106MPD2    H2 1655   3.752   2.658  17.448 -0.0621  0.3391  0.8429
  106MPD2    H3 1656   3.610   2.627  17.641  0.9091  3.5836  3.6018
  106MPD2     N 1657   3.389   3.015  17.556  0.4259  0.9281  0.2343
  106MPD2    H5 1658   3.392   3.095  17.495  0.8704 -0.4863 -1.5840
  106MPD2    N1 1659   3.735   2.872  17.268  0.3928  0.4475 -0.2449
  106MPD2    H7 1660   3.708   2.958  17.220 -1.4075  0.5211  0.9154
  107TMC2    C1 1661   3.633   3.372  11.379 -0.0806  0.1542 -0.2395
  107TMC2    C2 1662   3.749   3.420  11.428 -0.6025 -0.0705  0.1934
  107TMC2    C3 1663   3.858   3.413  11.358 -0.0227  0.0802 -0.1635
  107TMC2    C4 1664   3.631   3.316  11.258  0.6876 -0.2276 -0.0846
  107TMC2    C5 1665   3.749   3.304  11.186 -0.5539 -0.2064 -0.4887
  107TMC2    C6 1666   3.868   3.359  11.231 -0.3539  0.6115 -0.2367
  107TMC2     C 1667   3.561   3.296  11.478  0.1096  0.8269  0.0723
  107TMC2     O 1668   3.623   3.253  11.573 -0.1304  0.0670 -0.0725
  107TMC2     H 1669   3.750   3.454  11.531  1.1088  1.8738 -0.4508
  107TMC2    H1 1670   3.545   3.273  11.208 -1.2836  2.3213  1.1282
  107TMC2    H2 1671   3.963   3.363  11.179  1.4098  1.5109  3.0109
  107TMC2    C7 1672   3.750   3.210  11.074 -0.5023  0.0121  0.5603
  107TMC2    C8 1673   3.971   3.484  11.397  0.0343  0.2662  0.4775
  107TMC2    O1 1674   3.638   3.191  11.030  0.1289  0.8500 -0.1996
  107TMC2    O2 1675   4.086   3.460  11.361 -0.2562  0.1873  0.0685
  107TMC2    O5 1676   3.926   3.594  11.459  0.0236 -0.4662 -0.1938
  107TMC2    H5 1677   3.833   3.620  11.442  0.0660 -0.0911  0.1488
  108MPD2     C 1678   3.233   3.151  11.420  0.1995 -0.4576 -0.0855
  108MPD2    C1 1679   3.342   3.187  11.490 -0.5141 -0.3282 -0.0118
  108MPD2    C2 1680   3.350   3.151  11.624 -0.4864 -0.2319  0.0046
  108MPD2    C3 1681   3.258   3.059  11.679 -0.6226  0.1412 -0.3653
  108MPD2    C4 1682   3.157   3.017  11.601  0.4643  0.0494  1.0177
  108MPD2    C5 1683   3.144   3.072  11.480  0.2964  0.4656  0.2364
  108MPD2     H 1684   3.434   3.177  11.688 -0.3893  1.5064 -0.8297
  108MPD2    H1 1685   3.076   2.951  11.631 -0.5799  1.3756  1.1043
  108MPD2    H2 1686   3.209   3.186  11.320  1.8895  0.2025 -0.2697
  108MPD2    H3 1687   3.058   3.043  11.420  0.7963 -2.0611  0.7357
  108MPD2     N 1688   3.263   2.990  11.809  0.3277  0.3881  0.4219
  108MPD2    H5 1689   3.189   2.927  11.837  1.9778 -0.3750  2.9864
  108MPD2    N1 1690   3.438   3.268  11.425 -0.2295  0.1120  0.6932
  108MPD2    H7 1691   3.404   3.314  11.342  3.5548 -1.3839 -1.7038
  109TMC2    C1 1692   3.488   0.881   0.724 -0.7951  0.4342  0.4444
  109TMC2    C2 1693   3.502   1.015   0.738 -0.4955 -0.3002  0.3845
  109TMC2    C3 1694   3.617   1.072   0.693 -0.6480  0.5509 -0.1656
  109TMC2    C4 1695   3.585   0.802   0.666 -0.1491 -0.1458 -0.0123
  109TMC2    C5 1696   3.698   0.867   0.618  0.1148  0.1592  0.2161
  109TMC2    C6 1697   3.714   1.001   0.631 -0.4405  0.4017 -0.4957
  109TMC2     C 1698   3.374   0.824   0.796 -0.1311  0.8388 -1.1454
  109TMC2     O 1699   3.334   0.880   0.895 -0.4711  0.2698  0.3596
  109TMC2     H 1700   3.428   1.079   0.784  0.4633  0.4599  0.8929
  109TMC2    H1 1701   3.560   0.698   0.649  0.2721 -0.4596  1.3176
  109TMC2    H2 1702   3.797   1.055   0.586  0.5071 -1.8526 -1.4637
  109TMC2    C7 1703   3.815   0.792   0.569  0.0809  0.5595  0.2690
  109TMC2    C8 1704   3.649   1.212   0.716 -0.2880  0.3041  0.7673
  109TMC2    O1 1705   3.899   0.860   0.504 -0.2733 -0.2510 -0.5123
  109TMC2    O2 1706   3.734   1.272   0.658  0.2561  0.0684  0.8031
  109TMC2    O5 1707   3.587   1.252   0.830  0.1872 -0.1585  0.4264
  109TMC2    H5 1708   3.536   1.194   0.891 -1.0427  0.5532  0.0821
  110MPD2     C 1709   2.989   0.502   0.844  0.1483 -0.1134  0.3764
  110MPD2    C1 1710   3.030   0.489   0.711 -0.0417  0.7912 -0.6647
  110MPD2    C2 1711   3.139   0.568   0.676  0.3336  0.4835 -0.0968
  110MPD2    C3 1712   3.208   0.645   0.765 -0.2549  0.2259  0.5686
  110MPD2    C4 1713   3.173   0.647   0.894  0.2782  0.6219 -0.3643
  110MPD2    C5 1714   3.063   0.579   0.930 -0.6659  0.0667  0.7166
  110MPD2     H 1715   3.190   0.557   0.580 -0.7402 -0.0476 -0.6065
  110MPD2    H1 1716   3.229   0.682   0.980  0.5787 -3.8730  1.2707
  110MPD2    H2 1717   2.916   0.436   0.889  0.0842  0.8813  1.7155
  110MPD2    H3 1718   3.029   0.589   1.032  0.4610 -0.0104  1.0989
  110MPD2     N 1719   3.311   0.727   0.717 -0.0232 -0.0650 -0.3387
  110MPD2    H5 1720   3.339   0.716   0.620  0.6361  4.8479 -0.7193
  110MPD2    N1 1721   2.961   0.409   0.623 -0.1726  0.4862 -0.0049
  110MPD2    H7 1722   2.879   0.367   0.665 -0.4817  1.3173  0.2315
  111TMC2    C1 1723   4.085   4.292  11.528  0.4584  0.7364  0.0541
  111TMC2    C2 1724   4.007   4.192  11.591 -0.0609  0.2674 -0.2855
  111TMC2    C3 1725   4.077   4.086  11.649 -0.1238  0.5997 -0.3758
  111TMC2    C4 1726   4.219   4.294  11.544 -0.1027  0.5008 -0.1166
  111TMC2    C5 1727   4.284   4.190  11.604  0.5069  0.1792 -0.3530
  111TMC2    C6 1728   4.212   4.083  11.656  0.0582  0.2116 -0.4115
  111TMC2     C 1729   4.022   4.411  11.485  0.0783  0.3750 -0.1185
  111TMC2     O 1730   4.080   4.480  11.403 -0.5179  0.2332  0.1093
  111TMC2     H 1731   3.904   4.173  11.566  0.0695  1.4779 -1.7707
  111TMC2    H1 1732   4.268   4.379  11.499  1.9411 -0.4092  0.3787
  111TMC2    H2 1733   4.250   3.996  11.708 -0.4846 -0.4166 -1.0573
  111TMC2    C7 1734   4.398   4.216  11.687 -0.8352 -0.2832 -0.3833
  111TMC2    C8 1735   4.003   3.996  11.739 -0.3028 -0.0945 -0.2195
  111TMC2    O1 1736   4.387   4.162  11.800  0.0556  0.0228 -0.0230
  111TMC2    O2 1737   4.033   3.992  11.858  0.1730 -0.4301  0.3255
  111TMC2    O5 1738   3.908   3.938  11.678 -0.3221  0.1400  0.3174
  111TMC2    H5 1739   3.935   3.938  11.584 -0.6151  0.1469  0.2319
  112MPD2     C 1740   3.596   4.703  11.465 -0.3925  0.4860 -0.1441
  112MPD2    C1 1741   3.698   4.697  11.373  0.6270  0.3342  0.2534
  112MPD2    C2 1742   3.811   4.620  11.408  0.0427  0.3099 -0.7106
  112MPD2    C3 1743   3.811   4.536  11.520 -0.2770 -1.0137 -0.4677
  112MPD2    C4 1744   3.698   4.542  11.605 -0.6472 -0.4768 -0.6407
  112MPD2    C5 1745   3.595   4.621  11.571 -0.4512  0.2064  0.5618
  112MPD2     H 1746   3.902   4.629  11.349  1.2762 -1.5126  0.9400
  112MPD2    H1 1747   3.690   4.479  11.692 -0.1591  0.5393  0.1338
  112MPD2    H2 1748   3.504   0.015  11.446 -0.5473 -0.0424 -0.8924
  112MPD2    H3 1749   3.507   4.616  11.634 -0.5053  0.4860  0.5094
  112MPD2     N 1750   3.909   4.437  11.555 -0.6593 -0.6315  0.7019
  112MPD2    H5 1751   3.894   4.392  11.645  0.3700  0.1960  1.2970
  112MPD2    N1 1752   3.703   0.022  11.252  0.2326  0.4549 -0.0884
  112MPD2    H7 1753   3.790   0.027  11.201  1.2156 -0.6799  1.4830
  113TMC2    C1 1754   2.271   3.361   0.419 -0.1333 -0.1280  0.1931
  113TMC2    C2 1755   2.162   3.372   0.330 -0.1344  0.0438  0.1816
  113TMC2    C3 1756   2.095   3.252   0.308  1.1922 -0.4651 -0.2709
  113TMC2    C4 1757   2.299   3.243   0.480  0.2058 -0.1590  0.5983
  113TMC2    C5 1758   2.225   3.131   0.459  1.3831  0.2158  0.7919
  113TMC2    C6 1759   2.123   3.134   0.370  0.6171  0.1322  0.2619
  113TMC2     C 1760   2.299   3.474   0.509 -0.3254  0.9818 -0.1895
  113TMC2     O 1761   2.295   3.437   0.626  0.4185  0.4080  0.0734
  113TMC2     H 1762   2.130   3.468   0.291 -2.0299  0.5032  2.8642
  113TMC2    H1 1763   2.372   3.231   0.560  0.7786  0.4252  0.1641
  113TMC2    H2 1764   2.058   3.049   0.351 -2.6725  2.6219  0.5366
  113TMC2    C7 1765   2.250   3.022   0.551  1.0980 -0.3876 -0.2753
  113TMC2    C8 1766   1.984   3.259   0.212  0.1528  0.6334 -0.5309
  113TMC2    O1 1767   2.370   3.001   0.574  0.0883 -0.4559  0.3316
  113TMC2    O2 1768   1.873   3.238   0.260 -0.6621 -0.4542  0.4941
  113TMC2    O5 1769   2.021   3.342   0.107 -0.1104  0.1397  0.1204
  113TMC2    H5 1770   2.118   3.345   0.092 -0.1339 -0.1302 -0.0805
  114MPD2     C 1771   2.319   3.968   0.623 -0.1876 -0.2442  0.4399
  114MPD2    C1 1772   2.280   3.855   0.686  0.6318  0.0949  0.2960
  114MPD2    C2 1773   2.290   3.731   0.630 -0.3155 -0.0335 -0.4349
  114MPD2    C3 1774   2.329   3.721   0.498 -0.4863 -0.2743 -0.0888
  114MPD2    C4 1775   2.363   3.836   0.423 -0.3306  0.2848  0.3891
  114MPD2    C5 1776   2.358   3.958   0.486 -0.0527  0.2961 -0.8963
  114MPD2     H 1777   2.264   3.645   0.691 -0.1505  0.3580  0.1787
  114MPD2    H1 1778   2.384   3.842   0.317 -0.9080 -1.8932  0.1466
  114MPD2    H2 1779   2.309   4.064   0.672  1.4486 -0.4216  1.1152
  114MPD2    H3 1780   2.367   4.048   0.426 -1.2707  1.4542  0.6550
  114MPD2     N 1781   2.325   3.592   0.441  0.5686 -0.0473 -0.6892
  114MPD2    H5 1782   2.333   3.585   0.340  0.2000 -1.0007 -0.6533
  114MPD2    N1 1783   2.238   3.857   0.821  0.1526 -0.6526 -0.1631
  114MPD2    H7 1784   2.226   3.766   0.864 -2.1629  1.1556  3.0561
  115TMC2    C1 1785   3.339   0.416  17.310  0.0528 -0.2996  0.0284
  115TMC2    C2 1786   3.472   0.420  17.298  0.0318  0.9739 -0.3247
  115TMC2    C3 1787   3.529   0.541  17.320  0.2876  0.2506 -0.0734
  115TMC2    C4 1788   3.256   0.523  17.332  0.2617  0.2147 -0.0255
  115TMC2    C5 1789   3.318   0.647  17.347 -0.5102  0.1178 -0.1167
  115TMC2    C6 1790   3.457   0.654  17.351 -0.0164 -0.4346  0.8846
  115TMC2     C 1791   3.277   0.295  17.263 -0.6765  0.2623 -0.9948
  115TMC2     O 1792   3.343   0.219  17.192 -0.2656 -0.2531  0.4614
  115TMC2     H 1793   3.526   0.329  17.276  0.8374  1.2892  0.3609
  115TMC2    H1 1794   3.148   0.520  17.331  0.3062 -1.4850  0.8659
  115TMC2    H2 1795   3.515   0.745  17.366  0.7502 -0.5346 -1.3716
  115TMC2    C7 1796   3.243   0.765  17.322  0.6514  0.2239  0.3276
  115TMC2    C8 1797   3.666   0.539  17.268 -0.0162 -1.1760 -0.0287
  115TMC2    O1 1798   3.117   0.767  17.328 -0.1977 -0.2237  0.3588
  115TMC2    O2 1799   3.729   0.438  17.267 -0.1585  0.0959 -0.4903
  115TMC2    O5 1800   3.707   0.664  17.259 -0.2103 -0.0594 -0.0817
  115TMC2    H5 1801   3.640   0.726  17.224  1.2610  3.2474  2.9669
  116MPD2     C 1802   2.854   4.741  17.241  0.1333  0.1609  0.2221
  116MPD2    C1 1803   2.971   4.739  17.160  0.1166  0.3073  0.7723
  116MPD2    C2 1804   3.072   0.082  17.189  1.0730 -0.6141 -0.0293
  116MPD2    C3 1805   3.064   0.166  17.303  0.3062  0.2007  0.3994
  116MPD2    C4 1806   2.950   0.166  17.381 -0.0512 -0.4355 -0.2137
  116MPD2    C5 1807   2.847   0.084  17.346 -0.2497 -0.7132 -0.4412
  116MPD2     H 1808   3.155   0.081  17.119  0.5822 -2.8302 -0.5819
  116MPD2    H1 1809   2.945   0.229  17.470 -0.7699 -0.8942  0.0691
  116MPD2    H2 1810   2.778   4.668  17.214  0.9807 -0.9543  0.9076
  116MPD2    H3 1811   2.752   0.092  17.398 -0.5718 -4.2796 -0.4965
  116MPD2     N 1812   3.151   0.275  17.320  0.0431 -0.2130  0.2401
  116MPD2    H5 1813   3.124   0.343  17.391 -0.8941  0.7112 -1.0109
  116MPD2    N1 1814   2.966   4.664  17.044  0.1671  0.5609 -0.5159
  116MPD2    H7 1815   2.876   4.624  17.016  0.2771 -0.3455  0.4471
  117TMC2    C1 1816   1.772   1.559  14.058 -0.4029 -0.5177 -0.7537
  117TMC2    C2 1817   1.900   1.512  14.093 -0.6429  0.2104 -0.4180
  117TMC2    C3 1818   1.996   1.605  14.097  0.1494  0.7589 -0.4623
  117TMC2    C4 1819   1.752   1.695  14.045  0.0001 -0.0843 -0.6802
  117TMC2    C5 1820   1.850   1.783  14.067  0.0089 -0.0235 -0.5349
  117TMC2    C6 1821   1.978   1.741  14.076 -0.2841  0.5428 -0.6022
  117TMC2     C 1822   1.667   1.459  14.036 -0.4144  0.4048 -0.1503
  117TMC2     O 1823   1.689   1.359  14.106  0.6862 -0.1285  0.3602
  117TMC2     H 1824   1.915   1.414  14.135 -2.5256  0.8757  1.7931
  117TMC2    H1 1825   1.655   1.742  14.037 -0.8120 -1.3063  1.9902
  117TMC2    H2 1826   2.064   1.807  14.079  0.3772 -0.4830  3.6747
  117TMC2    C7 1827   1.834   1.932  14.076 -0.4796  0.4303  0.0615
  117TMC2    C8 1828   2.133   1.552  14.103 -0.7653 -0.2087  0.0680
  117TMC2    O1 1829   1.935   1.992  14.112  0.2665 -0.1302 -0.3972
  117TMC2    O2 1830   2.229   1.628  14.108 -0.5442 -0.0626 -0.3753
  117TMC2    O5 1831   2.135   1.419  14.059  0.5807  0.3413 -1.0066
  117TMC2    H5 1832   2.046   1.386  14.033  1.3049 -3.0438  0.8575
  118MPD2     C 1833   1.621   2.126  13.857  0.5452  0.2688 -0.3820
  118MPD2    C1 1834   1.727   2.109  13.940  0.2273 -0.0608 -0.3579
  118MPD2    C2 1835   1.802   2.215  13.983  0.7099  0.5830  0.3227
  118MPD2    C3 1836   1.768   2.341  13.934  0.1578 -1.0139 -0.4909
  118MPD2    C4 1837   1.668   2.353  13.842 -1.2475  0.7301  0.1219
  118MPD2    C5 1838   1.596   2.244  13.803  0.6168  0.1034 -0.0107
  118MPD2     H 1839   1.882   2.208  14.055  1.2504 -1.7554 -0.5242
  118MPD2    H1 1840   1.653   2.446  13.788  0.2775 -0.1368 -1.8104
  118MPD2    H2 1841   1.566   2.040  13.820  2.9491 -1.5005  0.0907
  118MPD2    H3 1842   1.511   2.247  13.737 -0.1410 -2.0392  0.8663
  118MPD2     N 1843   1.832   2.467  13.962 -0.3526 -0.0909 -0.0075
  118MPD2    H5 1844   1.787   2.541  13.909 -0.9617 -2.1315 -2.3430
  118MPD2    N1 1845   1.745   1.973  13.980  0.0537 -0.2361  1.1905
  118MPD2    H7 1846   1.679   1.901  13.950  1.8079 -1.0604 -0.6779
  119TMC2    C1 1847   4.406   2.545  13.122 -0.7528 -0.2495  0.0540
  119TMC2    C2 1848   4.415   2.510  12.989 -0.3142  0.2091  0.0590
  119TMC2    C3 1849   4.296   2.503  12.919 -0.6257  0.4364  0.6101
  119TMC2    C4 1850   4.285   2.567  13.180  0.1994 -0.9748  0.2436
  119TMC2    C5 1851   4.173   2.563  13.106  0.3458  0.7495  0.0892
  119TMC2    C6 1852   4.174   2.535  12.973  0.4232 -0.3945  0.3848
  119TMC2     C 1853   4.521   2.607  13.180  0.3310 -0.3444  0.5111
  119TMC2     O 1854   4.493   2.672  13.281  0.1785  0.1072 -0.2684
  119TMC2     H 1855   4.507   2.487  12.937 -0.5416  0.7474 -0.5829
  119TMC2    H1 1856   4.276   2.609  13.280  1.1100  1.4733 -0.6936
  119TMC2    H2 1857   4.082   2.543  12.917 -0.1233 -0.5853  1.2572
  119TMC2    C7 1858   4.049   2.564  13.166  0.8193  0.8091  0.3854
  119TMC2    C8 1859   4.287   2.490  12.778 -0.2885  0.7960  0.5478
  119TMC2    O1 1860   3.957   2.608  13.096  0.2068  0.1166  0.4620
  119TMC2    O2 1861   4.382   2.521  12.705 -0.6727 -0.1013  0.3910
  119TMC2    O5 1862   4.173   2.420  12.751 -0.3945 -0.7078  0.1017
  119TMC2    H5 1863   4.107   2.424  12.824  0.4805  3.3274  0.7029
  120MPD2     C 1864   0.275   2.607  13.301 -0.2047 -0.1114 -0.3305
  120MPD2    C1 1865   0.170   2.687  13.344  0.1031 -0.2874 -0.2731
  120MPD2    C2 1866   0.047   2.668  13.283 -0.0438  0.2050  0.1731
  120MPD2    C3 1867   0.024   2.572  13.188 -0.5698  0.1151 -0.8791
  120MPD2    C4 1868   0.134   2.501  13.147 -0.7148  0.0692  0.5676
  120MPD2    C5 1869   0.256   2.511  13.204  0.3090  0.0238 -0.1849
  120MPD2     H 1870   4.707   2.731  13.314  0.9869  0.9353  1.3978
  120MPD2    H1 1871   0.125   2.415  13.082  1.0154  0.3389 -0.0247
  120MPD2    H2 1872   0.373   2.606  13.346 -0.1203 -0.4563 -0.5224
  120MPD2    H3 1873   0.335   2.446  13.169 -0.5777 -0.0955 -1.9449
  120MPD2     N 1874   4.639   2.549  13.127 -0.7636  0.6455  0.0018
  120MPD2    H5 1875   4.624   2.469  13.067  0.5438 -1.0426  1.9222
  120MPD2    N1 1876   0.185   2.773  13.450 -0.1456 -0.5474 -0.0882
  120MPD2    H7 1877   0.278   2.809  13.470 -1.0615  2.3307 -1.0151
  121TMC2    C1 1878   1.241   4.404  13.676 -0.5894 -0.5760 -0.6263
  121TMC2    C2 1879   1.377   4.416  13.686  0.1415  0.3243 -0.6291
  121TMC2    C3 1880   1.433   4.318  13.765 -0.1916 -0.0223  1.0616
  121TMC2    C4 1881   1.168   4.310  13.735  0.4578 -0.1357  0.3597
  121TMC2    C5 1882   1.230   4.224  13.829  0.3847  0.5527 -0.6005
  121TMC2    C6 1883   1.366   4.221  13.835  0.7509 -0.2489 -1.1298
  121TMC2     C 1884   1.171   4.469  13.566 -0.3960  0.3470 -0.3726
  121TMC2     O 1885   1.058   4.442  13.536  0.5198 -0.4225  0.6644
  121TMC2     H 1886   1.439   4.496  13.647  2.2125 -1.4553 -0.9729
  121TMC2    H1 1887   1.063   4.321  13.711  0.0701 -2.6531  0.8996
  121TMC2    H2 1888   1.415   4.159  13.910  0.4667  1.0411  0.1124
  121TMC2    C7 1889   1.151   4.134  13.919  0.2292 -0.2031  0.0478
  121TMC2    C8 1890   1.577   4.319  13.766 -0.1854 -0.1387 -1.2353
  121TMC2    O1 1891   1.227   4.078  14.004 -0.1186  0.3391 -0.2312
  121TMC2    O2 1892   1.644   4.421  13.777  0.0379  0.4795  0.2036
  121TMC2    O5 1893   1.611   4.191  13.752  0.4092  0.9569  0.8248
  121TMC2    H5 1894   1.535   4.130  13.742  0.5430  0.6933  1.4173
  122MPD2     C 1895   1.083   4.690  13.371  0.7106  0.0504  0.7562
  122MPD2    C1 1896   1.206   4.678  13.434 -0.6457  0.1880  1.6525
  122MPD2    C2 1897   1.314   0.017  13.395 -0.4277  0.7311 -0.0900
  122MPD2    C3 1898   1.286   0.117  13.303  0.5399 -0.4741 -0.4838
  122MPD2    C4 1899   1.163   0.137  13.256  0.0343  0.3377  0.3003
  122MPD2    C5 1900   1.058   0.050  13.280 -0.3721 -0.4719 -0.1277
  122MPD2     H 1901   1.415   4.739  13.429  0.7842  3.5156 -2.1000
  122MPD2    H1 1902   1.160   0.201  13.168  0.1475 -0.0525  0.0111
  122MPD2    H2 1903   1.009   4.614  13.394 -0.8873  1.8407  1.5221
  122MPD2    H3 1904   0.960   0.060  13.234  0.3984 -0.0369 -1.6918
  122MPD2     N 1905   1.382   0.212  13.256  0.2165 -0.2993 -0.0185
  122MPD2    H5 1906   1.354   0.275  13.182 -0.3667 -0.9415 -0.3439
  122MPD2    N1 1907   1.248   4.574  13.525 -0.0606 -0.4107  0.0103
  122MPD2    H7 1908   1.335   4.594  13.573  0.9213  0.9137 -2.2757
  123TMC2    C1 1909   4.340   3.363  10.082  0.5909 -0.2311  0.5990
  123TMC2    C2 1910   4.442   3.445  10.117 -0.1087  0.1485  0.0476
  123TMC2    C3 1911   4.544   3.471  10.026 -0.1508 -0.1219  0.1319
  123TMC2    C4 1912   4.337   3.296   9.962 -0.4887  1.1147 -0.1417
  123TMC2    C5 1913   4.434   3.328   9.871 -0.0049 -0.2879  0.0929
  123TMC2    C6 1914   4.534   3.410   9.903 -0.8818  0.4078  0.3640
  123TMC2     C 1915   4.250   3.325  10.189 -0.2672  0.1057 -0.7205
  123TMC2     O 1916   4.274   3.358  10.306  0.1906 -0.3203  0.4830
  123TMC2     H 1917   4.442   3.484  10.218  1.5929 -1.5597  0.7058
  123TMC2    H1 1918   4.264   3.218   9.945  0.8469 -0.2062  0.2228
  123TMC2    H2 1919   4.599   3.431   9.820 -1.0655 -1.4659 -0.2507
  123TMC2    C7 1920   4.419   3.272   9.735 -0.7863 -0.1010  0.7192
  123TMC2    C8 1921   4.615   3.601  10.017  0.0123 -0.1107 -0.2608
  123TMC2    O1 1922   4.322   3.198   9.729 -0.2377 -0.5815 -0.3884
  123TMC2    O2 1923   4.718   3.616   9.951 -0.4694 -0.3986 -0.7056
  123TMC2    O5 1924   4.558   3.692  10.103  0.2446 -0.3857  0.3782
  123TMC2    H5 1925   4.462   3.673  10.112 -0.0822  1.3383  0.4121
  124MPD2     C 1926   3.862   3.023  10.334 -0.2837  0.5563 -0.5033
  124MPD2    C1 1927   3.850   3.047  10.199 -0.5330  0.0889  0.3131
  124MPD2    C2 1928   3.941   3.132  10.139  0.0329  0.5409  0.1036
  124MPD2    C3 1929   4.039   3.192  10.210  0.1462 -0.3016  0.6327
  124MPD2    C4 1930   4.046   3.182  10.344 -0.2167 -0.0964  1.0266
  124MPD2    C5 1931   3.955   3.096  10.404 -0.3337  0.3636  0.8311
  124MPD2     H 1932   3.945   3.141  10.031 -0.4912  0.2928  0.0627
  124MPD2    H1 1933   4.118   3.220  10.416 -0.0098 -0.3804  0.9753
  124MPD2    H2 1934   3.792   2.957  10.384  0.0045  0.3718 -0.3434
  124MPD2    H3 1935   3.961   3.075  10.510  0.5862  1.8827  1.0764
  124MPD2     N 1936   4.141   3.254  10.139 -0.3442  0.0836  0.1725
  124MPD2    H5 1937   4.134   3.237  10.040  1.8758  2.1158 -0.3267
  124MPD2    N1 1938   3.756   2.981  10.125  0.2546 -0.0892 -0.1684
  124MPD2    H7 1939   3.712   2.909  10.182  2.5585 -2.3534 -1.2499
  125TMC2    C1 1940   0.026   0.606   9.585  0.3038  0.9292 -0.2013
  125TMC2    C2 1941   4.717   0.652   9.698  1.0702 -0.3946 -0.6533
  125TMC2    C3 1942   0.058   0.737   9.768 -0.0670  0.2911  0.2012
  125TMC2    C4 1943   0.150   0.653   9.541 -0.5341  0.2881 -0.0105
  125TMC2    C5 1944   0.231   0.736   9.612  0.3644 -0.4477  0.2068
  125TMC2    C6 1945   0.184   0.772   9.734  0.2820  0.3147  0.5459
  125TMC2     C 1946   4.696   0.499   9.508 -0.0660 -0.8357  0.1415
  125TMC2     O 1947   4.654   0.403   9.568  0.1933  0.2349 -0.6690
  125TMC2     H 1948   4.628   0.612   9.746  0.7342  0.9710 -0.1322
  125TMC2    H1 1949   0.186   0.612   9.448  1.2791 -0.4449  1.0286
  125TMC2    H2 1950   0.241   0.834   9.801 -0.3660  0.0988  1.2998
  125TMC2    C7 1951   0.371   0.735   9.593  0.1311  0.2436 -0.2101
  125TMC2    C8 1952   0.011   0.790   9.899 -0.5905 -0.0609  0.6057
  125TMC2    O1 1953   0.442   0.753   9.694 -0.0765  0.7327 -0.0677
  125TMC2    O2 1954   4.653   0.743   9.949  0.2047 -0.1751 -0.0904
  125TMC2    O5 1955   0.039   0.923   9.890  0.2236  0.2050  0.0595
  125TMC2    H5 1956   0.081   0.949   9.805 -2.0699 -2.1265 -1.7883
  126MPD1     C 1957   4.522   0.303   9.073 -0.2018 -0.6782 -0.3559
  126MPD1    C1 1958   4.544   0.433   9.050 -0.5242  0.2411 -0.1227
  126MPD1    C2 1959   4.617   0.503   9.142  0.2032 -0.5002 -0.3415
  126MPD1    C3 1960   4.632   0.450   9.270  0.3567  0.2941 -0.0273
  126MPD1    C4 1961   4.595   0.321   9.293 -0.4616 -0.5944  0.5393
  126MPD1    C5 1962   4.550   0.244   9.194  0.1573  0.5385 -0.1578
  126MPD1     H 1963   4.650   0.605   9.130 -0.3773 -0.1929  0.6769
  126MPD1    H1 1964   4.600   0.280   9.393 -0.4563 -1.4533  0.1918
  126MPD1    H2 1965   4.478   0.251   8.988 -0.5621 -1.5189  0.3405
  126MPD1    H3 1966   4.522   0.141   9.213  2.3200 -0.0113  0.0631
  126MPD1     N 1967   4.684   0.534   9.376  0.0975  0.0385  0.1596
  126MPD1    H5 1968   4.704   0.627   9.340 -0.0694 -0.4263 -1.1705
  126MPD1    N1 1969   4.547   0.484   8.919  0.2315 -0.0758 -0.6944
  126MPD1    H6 1970   4.521   0.583   8.923 -0.6753 -0.2586 -2.4413
  126MPD1    H7 1971   4.482   0.437   8.856 -1.1285  0.5932  0.1994
  127TMC2    C1 1972   0.821   3.696   9.590 -0.2993  1.0105  0.4170
  127TMC2    C2 1973   0.749   3.755   9.690 -0.0927 -0.0241 -0.2025
  127TMC2    C3 1974   0.757   3.717   9.817  0.3073  0.3737 -0.3338
  127TMC2    C4 1975   0.905   3.596   9.623 -0.3113  0.0271  0.2806
  127TMC2    C5 1976   0.910   3.557   9.753  0.1216  0.2710 -0.8773
  127TMC2    C6 1977   0.837   3.617   9.856  0.4564 -0.6992 -0.3142
  127TMC2     C 1978   0.827   3.764   9.459  0.3322  0.0503 -0.5488
  127TMC2     O 1979   0.933   3.748   9.398 -0.1864  0.4594  0.1464
  127TMC2     H 1980   0.682   3.835   9.659 -0.9057 -0.8094 -0.4806
  127TMC2    H1 1981   0.965   3.543   9.550 -0.0786 -0.1516  0.6006
  127TMC2    H2 1982   0.843   3.597   9.962  3.1321  0.1484 -0.2984
  127TMC2    C7 1983   1.025   3.483   9.794 -0.3800  0.2489  0.1468
  127TMC2    C8 1984   0.674   3.779   9.915 -0.4000 -0.0819 -0.2687
  127TMC2    O1 1985   1.106   3.450   9.705 -0.0009  0.0427  0.1572
  127TMC2    O2 1986   0.646   3.892   9.901  0.3523 -0.2408 -0.6741
  127TMC2    O5 1987   0.579   3.688   9.948 -0.6803 -0.1232  0.1096
  127TMC2    H5 1988   0.605   3.594   9.936 -0.8737 -0.1007 -0.4982
  128MPD2     C 1989   0.585   3.983   9.311 -0.3146  0.3007 -0.7764
  128MPD2    C1 1990   0.703   3.915   9.317  0.0621 -0.6666 -0.0105
  128MPD2    C2 1991   0.796   3.933   9.219 -0.8062 -0.2119  0.5365
  128MPD2    C3 1992   0.775   4.030   9.121 -0.2358 -0.6213 -0.2606
  128MPD2    C4 1993   0.654   4.100   9.116  0.0157 -0.6124 -0.0366
  128MPD2    C5 1994   0.560   4.066   9.205 -0.0336 -0.0401 -0.6581
  128MPD2     H 1995   0.889   3.878   9.223 -0.8141 -0.3390 -0.9300
  128MPD2    H1 1996   0.634   4.180   9.045 -0.8460  0.3989  1.3724
  128MPD2    H2 1997   0.506   3.961   9.381 -1.1784 -1.3446 -2.2650
  128MPD2    H3 1998   0.470   4.126   9.203 -1.4386 -2.1424 -0.1618
  128MPD2     N 1999   0.885   4.060   9.037 -0.0428 -0.5508  0.0384
  128MPD2    H5 2000   0.975   4.020   9.058 -0.6544 -2.4879 -0.9692
  128MPD2    N1 2001   0.720   3.832   9.429 -0.1243  0.0072 -0.5193
  128MPD2    H7 2002   0.639   3.822   9.490  0.5626  2.0860  0.7659
  129TMC2    C1 2003   4.643   4.208   1.404 -0.9080  0.2446  0.2511
  129TMC2    C2 2004   0.006   4.226   1.316  0.9542  0.0509  0.3228
  129TMC2    C3 2005   0.046   4.119   1.240  0.5095  0.0804  0.2175
  129TMC2    C4 2006   4.594   4.084   1.425  0.0620  0.0521 -0.5690
  129TMC2    C5 2007   4.633   3.980   1.336 -0.0624  0.6229  0.1730
  129TMC2    C6 2008   4.734   3.995   1.240  0.8328 -0.2382  0.2641
  129TMC2     C 2009   4.578   4.321   1.466 -0.5887  0.3877 -0.3970
  129TMC2     O 2010   4.504   4.297   1.561  0.4084  0.3610 -0.3949
  129TMC2     H 2011   0.063   4.317   1.304 -0.4301  0.8376 -0.3220
  129TMC2    H1 2012   4.518   4.065   1.500  0.7433 -0.7499 -0.0873
  129TMC2    H2 2013   0.010   3.920   1.163  0.4023  0.8328 -0.8776
  129TMC2    C7 2014   4.570   3.850   1.346 -0.4387 -0.2873 -0.1824
  129TMC2    C8 2015   0.131   4.157   1.126 -0.1307 -0.5725  0.0063
  129TMC2    O1 2016   4.464   3.849   1.410  0.9555  0.2260  0.1414
  129TMC2    O2 2017   0.128   4.268   1.075  0.2450 -0.0360  0.0919
  129TMC2    O5 2018   0.198   4.049   1.079  0.3895  0.3475  0.4359
  129TMC2    H5 2019   0.183   3.961   1.120  1.7614  0.6074  1.5001
  130MPD2     C 2020   4.424   4.561   1.538 -0.3557  0.5876 -0.4677
  130MPD2    C1 2021   4.528   4.559   1.443  0.5812 -0.0995 -0.0661
  130MPD2    C2 2022   4.538   4.674   1.366 -0.2875 -0.5446  0.4259
  130MPD2    C3 2023   4.457   0.042   1.385  0.8665 -0.1648 -0.5545
  130MPD2    C4 2024   4.357   0.034   1.480  0.2489  0.1983 -0.4660
  130MPD2    C5 2025   4.337   4.664   1.554  0.2820  0.2633  0.1543
  130MPD2     H 2026   4.609   4.673   1.284 -1.9051 -0.0021 -0.9626
  130MPD2    H1 2027   4.292   0.119   1.493 -0.7036 -0.7041  0.7171
  130MPD2    H2 2028   4.411   4.488   1.617 -1.9546 -0.7150 -1.9626
  130MPD2    H3 2029   4.256   4.663   1.626  0.3061  1.4532  0.1944
  130MPD2     N 2030   4.493   0.164   1.315 -0.2942 -0.0180  0.4252
  130MPD2    H5 2031   4.585   0.162   1.272 -0.7094  1.0600 -0.5153
  130MPD2    N1 2032   4.595   4.443   1.405 -0.3656 -0.3317  0.0698
  130MPD2    H7 2033   4.635   4.439   1.312 -1.0356  1.7965 -0.3094
  131TMC2    C1 2034   4.208   3.266   9.396 -0.2797 -0.2200 -0.5497
  131TMC2    C2 2035   4.290   3.254   9.285  0.4285  0.2553  0.1081
  131TMC2    C3 2036   4.375   3.364   9.265 -0.2593  0.0156 -0.0182
  131TMC2    C4 2037   4.238   3.358   9.488  0.6670  0.0183 -0.3962
  131TMC2    C5 2038   4.321   3.463   9.459 -0.2161 -0.2836  0.3105
  131TMC2    C6 2039   4.397   3.467   9.353 -0.0939 -0.3042 -0.1862
  131TMC2     C 2040   4.111   3.164   9.433  0.2882 -0.1685  0.2700
  131TMC2     O 2041   4.051   3.181   9.535 -0.3232  1.0239 -0.9645
  131TMC2     H 2042   4.271   3.174   9.214 -0.3483  0.6830 -0.1685
  131TMC2    H1 2043   4.181   3.354   9.580 -0.3325 -0.7457 -1.0444
  131TMC2    H2 2044   4.482   3.533   9.342  2.6232 -3.1670  3.7551
  131TMC2    C7 2045   4.352   3.564   9.560  0.5101  0.4731  0.2806
  131TMC2    C8 2046   4.444   3.366   9.136 -0.0611  0.0273  0.3976
  131TMC2    O1 2047   4.303   3.548   9.672 -0.4503  0.0746  0.4185
  131TMC2    O2 2048   4.475   3.264   9.077  0.7713 -0.1508  0.5541
  131TMC2    O5 2049   4.456   3.487   9.094 -0.3687  0.0369  0.6776
  131TMC2    H5 2050   4.423   3.562   9.148  2.2260  1.9258 -0.3583
  132MPD2     C 2051   3.940   2.904   9.230 -0.5425 -0.5419  0.4001
  132MPD2    C1 2052   3.987   2.972   9.347 -0.2725  0.2184 -0.1475
  132MPD2    C2 2053   3.958   2.915   9.466  1.0055  1.4951  0.5283
  132MPD2    C3 2054   3.875   2.807   9.470  0.0793  0.3131  0.2810
  132MPD2    C4 2055   3.821   2.738   9.360  0.5513 -0.1810  0.0679
  132MPD2    C5 2056   3.857   2.796   9.241 -0.4894  0.2293  0.2312
  132MPD2     H 2057   3.994   2.950   9.562 -3.9247  2.9743  1.8618
  132MPD2    H1 2058   3.737   2.671   9.376  0.3721 -0.3906 -1.6986
  132MPD2    H2 2059   3.962   2.941   9.130 -0.9874 -1.1958  0.0641
  132MPD2    H3 2060   3.809   2.748   9.157 -0.2281 -1.6079  1.1279
  132MPD2     N 2061   3.823   2.781   9.601  0.4248 -0.3429 -0.4726
  132MPD2    H5 2062   3.856   2.834   9.681 -0.9982 -0.4971  0.2209
  132MPD2    N1 2063   4.079   3.084   9.326 -0.9910  0.0695  0.2850
  132MPD2    H7 2064   4.107   3.106   9.230 -1.3317  1.1338  0.4313
  133TMC2    C1 2065   3.898   0.214   9.139 -0.3694 -0.4624  0.4135
  133TMC2    C2 2066   4.019   0.164   9.100  0.2244  0.3248  0.6879
  133TMC2    C3 2067   4.134   0.210   9.165  0.3668 -0.5532 -0.0387
  133TMC2    C4 2068   3.886   0.316   9.230  0.3252  0.4957 -0.4777
  133TMC2    C5 2069   3.998   0.348   9.298 -0.2285  0.3736 -0.4584
  133TMC2    C6 2070   4.121   0.301   9.265 -0.3093 -0.3287 -0.0926
  133TMC2     C 2071   3.784   0.124   9.121  0.0093  0.2399  0.0642
  133TMC2     O 2072   3.815   0.010   9.113  0.6636  0.3987 -0.4205
  133TMC2     H 2073   4.033   0.088   9.024  1.6772  2.6279 -1.3434
  133TMC2    H1 2074   3.788   0.352   9.261  0.5426  1.3586 -0.7697
  133TMC2    H2 2075   4.215   0.312   9.318  0.3178  0.3020 -1.3397
  133TMC2    C7 2076   3.999   0.453   9.399  0.3283 -0.0244  0.0844
  133TMC2    C8 2077   4.246   0.121   9.182 -0.7748 -0.6387  0.1450
  133TMC2    O1 2078   3.896   0.464   9.465 -0.1276  0.2611 -0.2835
  133TMC2    O2 2079   4.291   0.087   9.289 -0.4014 -0.1826 -0.3275
  133TMC2    O5 2080   4.283   0.067   9.064 -0.3263  0.1383 -0.3275
  133TMC2    H5 2081   4.242   0.109   8.986 -1.0179  1.2453  0.6265
  134MPD2     C 2082   3.439   0.239   9.061 -0.0417 -0.7748 -0.4762
  134MPD2    C1 2083   3.536   0.144   9.085 -0.0573  0.1018 -0.0323
  134MPD2    C2 2084   3.513   0.007   9.091 -0.2211  0.0355 -0.8064
  134MPD2    C3 2085   3.385   4.703   9.066  0.4723  0.3859 -0.2815
  134MPD2    C4 2086   3.283   0.054   9.043  0.2714  0.0353 -0.3432
  134MPD2    C5 2087   3.313   0.187   9.046  0.1574 -0.4492 -0.3705
  134MPD2     H 2088   3.596   4.679   9.098 -0.8274 -0.7355 -1.2276
  134MPD2    H1 2089   3.181   0.024   9.021  0.5639  0.2436 -1.9844
  134MPD2    H2 2090   3.452   0.346   9.054  1.5981 -0.9758 -0.3828
  134MPD2    H3 2091   3.239   0.263   9.022 -0.2236  0.0386  2.4306
  134MPD2     N 2092   3.350   4.568   9.060 -0.6518  0.0682 -0.9516
  134MPD2    H5 2093   3.253   4.554   9.037 -1.2778 -0.2915  1.8727
  134MPD2    N1 2094   3.665   0.189   9.099  0.1186  0.0640  0.6383
  134MPD2    H7 2095   3.681   0.290   9.097 -0.4205  0.1505  0.7810
  135TMC2    C1 2096   0.554   1.045   9.610 -0.4387  0.8870 -0.6063
  135TMC2    C2 2097   0.659   0.962   9.645  0.5939 -0.2991  0.5366
  135TMC2    C3 2098   0.680   0.937   9.771  0.2725 -0.2485  0.1895
  135TMC2    C4 2099   0.471   1.094   9.709 -0.6007 -0.1059  0.7059
  135TMC2    C5 2100   0.495   1.057   9.836 -0.4389  0.5138  0.4383
  135TMC2    C6 2101   0.592   0.967   9.869 -0.5145  0.0009  0.6561
  135TMC2     C 2102   0.501   1.052   9.474 -0.0768  0.0150  0.3416
  135TMC2     O 2103   0.382   1.070   9.459 -0.0317  0.2069  0.8330
  135TMC2     H 2104   0.716   0.913   9.568  1.1223 -0.7351  1.2047
  135TMC2    H1 2105   0.380   1.148   9.687 -1.0123 -0.0450  2.6019
  135TMC2    H2 2106   0.608   0.944   9.974 -0.2516  0.2135  0.6646
  135TMC2    C7 2107   0.391   1.053   9.938 -0.3209 -0.6710 -0.2887
  135TMC2    C8 2108   0.787   0.838   9.776 -1.0513  0.1220 -0.4334
  135TMC2    O1 2109   0.306   1.135   9.934 -0.1402 -0.6234  0.0563
  135TMC2    O2 2110   0.877   0.828   9.695 -0.4527  0.6909 -0.1268
  135TMC2    O5 2111   0.755   0.745   9.861  0.7020 -0.3333 -0.3681
  135TMC2    H5 2112   0.668   0.758   9.903  0.3619  2.3841 -1.9226
  136MPD2     C 2113   0.466   1.006   9.176 -0.3594 -0.0096 -0.8053
  136MPD2    C1 2114   0.577   0.983   9.242 -0.1279 -0.3897 -0.2181
  136MPD2    C2 2115   0.687   0.951   9.171  0.6812  1.2664  0.2495
  136MPD2    C3 2116   0.691   0.927   9.034 -0.0305  0.4464 -0.1337
  136MPD2    C4 2117   0.571   0.935   8.970  0.0392  0.3382  0.2326
  136MPD2    C5 2118   0.465   0.976   9.041 -0.0050 -0.0217  0.2972
  136MPD2     H 2119   0.770   0.912   9.229  0.4017  0.7840  0.3225
  136MPD2    H1 2120   0.553   0.907   8.867 -1.9211  1.3735  0.2930
  136MPD2    H2 2121   0.369   1.023   9.221  0.3592  0.1558  0.6548
  136MPD2    H3 2122   0.374   0.990   8.984 -0.8186 -1.2953  1.2604
  136MPD2     N 2123   0.809   0.882   8.961  0.3803  0.0351  0.0515
  136MPD2    H5 2124   0.804   0.862   8.861  3.0107 -1.0299  0.1327
  136MPD2    N1 2125   0.598   1.020   9.380 -0.5946  0.0534 -0.2327
  136MPD2    H7 2126   0.693   1.015   9.415 -1.1091 -1.4820  0.9660
  137TMC2    C1 2127   0.599   0.371   9.686  0.1335 -0.2107 -0.6529
  137TMC2    C2 2128   0.501   0.392   9.782 -0.0354 -0.0149 -0.0174
  137TMC2    C3 2129   0.373   0.389   9.741 -0.2139  0.8775  0.0622
  137TMC2    C4 2130   0.564   0.337   9.558  0.2415 -0.1311  0.2293
  137TMC2    C5 2131   0.431   0.317   9.531 -0.5383  0.7854 -0.0808
  137TMC2    C6 2132   0.329   0.349   9.617 -0.1090 -0.2233 -0.1154
  137TMC2     C 2133   0.727   0.343   9.742 -0.2576 -0.2830  0.0027
  137TMC2     O 2134   0.736   0.336   9.866  0.1262  0.1958  0.0256
  137TMC2     H 2135   0.517   0.422   9.885 -1.0602 -0.1412  0.1858
  137TMC2    H1 2136   0.640   0.306   9.488  0.4506  0.6232  0.1174
  137TMC2    H2 2137   0.224   0.359   9.589  0.6100 -0.6778 -3.0453
  137TMC2    C7 2138   0.401   0.273   9.402  0.3727 -0.1665  0.2806
  137TMC2    C8 2139   0.270   0.409   9.857  0.7434 -0.0806 -0.4123
  137TMC2    O1 2140   0.489   0.272   9.318  0.1827 -0.3883  0.1016
  137TMC2    O2 2141   0.299   0.458   9.967 -0.1625  0.3035 -0.3972
  137TMC2    O5 2142   0.148   0.354   9.838  0.2139 -0.4285  0.2536
  137TMC2    H5 2143   0.134   0.302   9.756 -0.3168 -0.8391  0.6021
  138MPD2     C 2144   1.049   0.240   9.611 -0.6320  0.0446  0.6158
  138MPD2    C1 2145   0.944   0.238   9.699 -0.2939  0.3381 -0.3702
  138MPD2    C2 2146   0.958   0.167   9.820  0.8605 -0.0765  0.2993
  138MPD2    C3 2147   1.071   0.091   9.840  0.1515  0.3673  0.8392
  138MPD2    C4 2148   1.179   0.102   9.744  1.0271 -0.5947  0.1234
  138MPD2    C5 2149   1.168   0.184   9.642 -0.7006 -0.4309 -0.1951
  138MPD2     H 2150   0.882   0.168   9.897  0.9604  0.1571  0.3932
  138MPD2    H1 2151   1.274   0.049   9.744  0.1303 -2.1892  0.0348
  138MPD2    H2 2152   1.043   0.300   9.521  1.6563 -0.0020  0.4250
  138MPD2    H3 2153   1.251   0.202   9.575 -1.4258 -0.0945 -0.9976
  138MPD2     N 2154   1.081   0.010   9.956  0.0187 -0.1905 -0.1621
  138MPD2    H5 2155   1.000   0.014  10.018  0.2507  1.8070  0.0148
  138MPD2    N1 2156   0.824   0.305   9.659  0.1452  1.1090  0.4397
  138MPD2    H7 2157   0.810   0.321   9.560  0.7784 -0.7833  0.0385
  139TMC2    C1 2158   0.298   2.563  12.768 -1.1626 -0.0134  0.7391
  139TMC2    C2 2159   0.239   2.438  12.785 -0.5129  0.5350  0.9279
  139TMC2    C3 2160   0.106   2.434  12.779 -0.1276  0.2415  0.5226
  139TMC2    C4 2161   0.226   2.674  12.752 -0.2360  0.9714 -0.8877
  139TMC2    C5 2162   0.093   2.664  12.756 -0.2708 -0.1327  0.5531
  139TMC2    C6 2163   0.029   2.546  12.772  0.3996  0.1292 -0.4036
  139TMC2     C 2164   0.401   2.580  12.861  0.8191  0.1984  0.8252
  139TMC2     O 2165   0.495   2.501  12.857 -0.6373 -0.2654 -0.4238
  139TMC2     H 2166   0.298   2.353  12.816  0.1387  0.5321 -0.3384
  139TMC2    H1 2167   0.271   2.768  12.725  1.3902  0.4569  0.0581
  139TMC2    H2 2168   4.663   2.538  12.775  0.4808  0.2272  2.2809
  139TMC2    C7 2169   0.038   2.763  12.849  0.4472  0.3919 -0.5503
  139TMC2    C8 2170   0.044   2.318  12.835  0.3115 -0.0370 -0.0368
  139TMC2    O1 2171   0.126   2.815  12.923  0.2435 -0.5230  0.3187
  139TMC2    O2 2172   4.680   2.328  12.890 -0.2560 -0.4595 -0.0430
  139TMC2    O5 2173   0.103   2.200  12.804  0.1746  0.0523  0.2668
  139TMC2    H5 2174   0.183   2.204  12.747 -0.4613 -2.7867 -0.8070
  140MPD2     C 2175   0.430   2.862  13.104  0.6079  0.0077  0.1473
  140MPD2    C1 2176   0.474   2.755  13.025  0.9465  0.7099  0.4748
  140MPD2    C2 2177   0.602   2.705  13.049  0.1137 -0.3070  0.1680
  140MPD2    C3 2178   0.687   2.761  13.144  0.4662  0.2446 -0.4904
  140MPD2    C4 2179   0.644   2.874  13.210  0.1098  0.0713 -0.1070
  140MPD2    C5 2180   0.521   2.914  13.198  0.1282 -0.3877  0.1168
  140MPD2     H 2181   0.640   2.622  12.992  0.6803 -0.4876  0.8052
  140MPD2    H1 2182   0.702   2.923  13.286 -1.3270 -0.6466  1.4408
  140MPD2    H2 2183   0.331   2.906  13.094  0.4921 -0.5213 -1.0508
  140MPD2    H3 2184   0.500   2.999  13.263  0.3277  1.0185 -1.6401
  140MPD2     N 2185   0.815   2.706  13.164  0.2836  0.4061 -0.0539
  140MPD2    H5 2186   0.848   2.623  13.115 -0.6168 -0.0960  0.1820
  140MPD2    N1 2187   0.383   2.701  12.933 -0.4554  0.5137  0.3776
  140MPD2    H7 2188   0.289   2.737  12.934 -1.1522 -1.2356 -1.6815
  141TMC2    C1 2189   2.063   3.420  14.264  0.1931  0.3773 -0.6353
  141TMC2    C2 2190   2.001   3.415  14.382 -1.0091 -0.2303 -0.1697
  141TMC2    C3 2191   2.078   3.405  14.499  0.7509  0.5102  0.4898
  141TMC2    C4 2192   2.202   3.424  14.253  0.4500 -0.9499 -0.7976
  141TMC2    C5 2193   2.272   3.425  14.373  1.2942 -0.2710 -0.6502
  141TMC2    C6 2194   2.217   3.405  14.497  0.0869 -0.5286  0.4088
  141TMC2     C 2195   1.989   3.398  14.140 -0.7154  0.0174 -0.4001
  141TMC2     O 2196   1.894   3.472  14.118  0.1302 -0.3234  0.2275
  141TMC2     H 2197   1.892   3.420  14.385 -0.8795  1.1452  2.8181
  141TMC2    H1 2198   2.243   3.447  14.155 -1.1469 -0.5736 -1.3759
  141TMC2    H2 2199   2.273   3.389  14.588  0.6298  1.0867  0.3575
  141TMC2    C7 2200   2.416   3.454  14.356 -0.1068 -0.6064  0.2125
  141TMC2    C8 2201   2.022   3.354  14.626 -0.4182 -0.6663  0.2562
  141TMC2    O1 2202   2.466   3.429  14.248  0.2162 -0.5901 -0.0906
  141TMC2    O2 2203   2.080   3.297  14.714 -0.3902 -0.7767 -0.1189
  141TMC2    O5 2204   1.896   3.419  14.631 -0.4035 -0.7173 -0.1512
  141TMC2    H5 2205   1.859   3.462  14.551 -0.0607 -0.5823 -0.2377
  142TMC2    C1 2206   4.103   2.567   9.587 -0.4944 -0.2542  0.4391
  142TMC2    C2 2207   4.086   2.522   9.457  0.9462 -0.0735 -0.3701
  142TMC2    C3 2208   4.171   2.558   9.357 -0.1569 -0.0962  0.3527
  142TMC2    C4 2209   4.215   2.640   9.619  0.5151 -0.2849 -0.3034
  142TMC2    C5 2210   4.299   2.680   9.518  0.8217  0.0428 -0.1565
  142TMC2    C6 2211   4.276   2.644   9.384  0.5738 -0.3596  0.7815
  142TMC2     C 2212   4.037   2.501   9.686  0.4426 -1.2670 -0.0296
  142TMC2     O 2213   3.993   2.387   9.662  0.2917 -0.1226 -0.5890
  142TMC2     H 2214   4.005   2.456   9.428 -1.6805  1.7802  2.7107
  142TMC2    H1 2215   4.232   2.666   9.723 -1.6586  0.2813 -0.0929
  142TMC2    H2 2216   4.331   2.700   9.309  2.3812 -0.7266  1.8298
  142TMC2    C7 2217   4.389   2.788   9.552 -0.3458 -0.8978  0.8628
  142TMC2    C8 2218   4.154   2.508   9.223 -0.5365 -0.5966 -0.1575
  142TMC2    O1 2219   4.385   2.819   9.670 -0.1021 -0.6016 -0.3987
  142TMC2    O2 2220   4.049   2.465   9.174  0.0848  0.6582  0.5255
  142TMC2    O5 2221   4.281   2.492   9.176 -0.7305 -0.9953 -0.2935
  142TMC2    H5 2222   4.354   2.526   9.233 -0.5281  0.4174 -1.3898
  143MPD2     C 2223   3.859   2.493  10.169  0.3474 -0.3586 -0.3023
  143MPD2    C1 2224   3.852   2.399  10.068 -0.9709  0.3160  0.6044
  143MPD2    C2 2225   3.913   2.413   9.948  0.1701 -0.0119 -0.8941
  143MPD2    C3 2226   3.968   2.543   9.923  0.0637 -0.2028  1.1080
  143MPD2    C4 2227   3.973   2.638  10.028  0.1565  0.3690 -0.2919
  143MPD2    C5 2228   3.922   2.612  10.150  0.2970 -0.2872  0.4989
  143MPD2     H 2229   3.912   2.330   9.878 -0.3093  0.4846 -1.4714
  143MPD2    H1 2230   4.024   2.730  10.004 -0.9388  1.1302  0.3053
  143MPD2    H2 2231   3.804   2.486  10.262  0.6280  1.3990  0.0072
  143MPD2    H3 2232   3.919   2.680  10.234  0.0482  0.0135  0.2504
  143MPD2     N 2233   4.019   2.586   9.796  0.3237  0.4576  0.0538
  143MPD2    H5 2234   4.051   2.682   9.794  1.1047  0.1678 -1.9149
  143MPD2    N1 2235   3.782   2.285  10.106 -0.1166  0.0293 -0.2317
  143MPD2    H7 2236   3.755   2.285  10.204  1.4230  0.1723  0.1848
  144TMC2    C1 2237   3.036   1.764   0.495  0.0105 -0.4082 -0.6385
  144TMC2    C2 2238   3.069   1.668   0.409 -0.0329 -0.2373  0.4051
  144TMC2    C3 2239   3.200   1.654   0.377  0.1270 -0.3081  0.1198
  144TMC2    C4 2240   3.131   1.846   0.546 -0.0094  0.0127 -0.0152
  144TMC2    C5 2241   3.260   1.843   0.503 -0.0881 -0.1276 -0.0120
  144TMC2    C6 2242   3.293   1.748   0.412  0.3635 -0.2104 -0.5161
  144TMC2     C 2243   2.890   1.796   0.505  0.1372 -0.4622 -0.3752
  144TMC2     O 2244   2.823   1.699   0.476  0.1515 -0.2131  0.7130
  144TMC2     H 2245   2.988   1.617   0.357  0.7036 -1.3667  0.3812
  144TMC2    H1 2246   3.088   1.923   0.610 -2.3391 -0.6826 -0.7607
  144TMC2    H2 2247   3.400   1.739   0.402  0.8520 -0.0605  4.6191
  144TMC2    C7 2248   3.359   1.903   0.589 -0.6178 -0.1767  0.4303
  144TMC2    C8 2249   3.239   1.560   0.280 -0.0231  0.2878 -0.1274
  144TMC2    O1 2250   3.461   1.847   0.591  0.1591  0.6229  0.0394
  144TMC2    O2 2251   3.149   1.499   0.218 -0.7506  0.2154  0.4089
  144TMC2    O5 2252   3.326   1.627   0.200 -0.0242  0.3332 -0.4791
  144TMC2    H5 2253   3.411   1.644   0.247 -1.0204 -3.6823  2.6667
  145MPD2     C 2254   2.472   2.096   0.507 -0.2784 -0.1998  0.0697
  145MPD2    C1 2255   2.485   1.965   0.473  0.4555 -0.0761  0.3629
  145MPD2    C2 2256   2.614   1.909   0.492  0.0587  0.3232  0.7305
  145MPD2    C3 2257   2.729   1.985   0.517  0.4577  0.0339  0.1575
  145MPD2    C4 2258   2.711   2.120   0.526  0.1099  0.0971 -0.3919
  145MPD2    C5 2259   2.583   2.171   0.524 -0.9616  0.1657 -0.9525
  145MPD2     H 2260   2.620   1.802   0.477 -0.2598  0.4979 -0.6250
  145MPD2    H1 2261   2.791   2.188   0.554 -0.4288  1.1473 -1.3833
  145MPD2    H2 2262   2.373   2.140   0.514  0.2949  1.2749 -1.1555
  145MPD2    H3 2263   2.573   2.277   0.539  0.5801  0.1461  0.1756
  145MPD2     N 2264   2.856   1.928   0.521  0.1289  0.3721 -0.6073
  145MPD2    H5 2265   2.930   1.996   0.534  0.8362 -0.4005 -0.5585
  145MPD2    N1 2266   2.378   1.884   0.425 -0.0873  0.3981  0.7525
  145MPD2    H7 2267   2.391   1.784   0.410  1.5856  0.8967 -1.1666
  146TMC2    C1 2268   3.417   0.195  12.068 -0.1164  0.6898 -0.9644
  146TMC2    C2 2269   3.331   0.194  11.958 -0.0486 -0.3071  0.1896
  146TMC2    C3 2270   3.376   0.158  11.840  0.1227 -0.1132 -0.1075
  146TMC2    C4 2271   3.554   0.179  12.055 -0.0960 -0.3154  0.2189
  146TMC2    C5 2272   3.599   0.161  11.925 -0.3687  0.7067 -0.2062
  146TMC2    C6 2273   3.512   0.152  11.817  0.2572  0.3396 -0.8871
  146TMC2     C 2274   3.364   0.239  12.201  0.3515 -0.1933  0.3225
  146TMC2     O 2275   3.264   0.306  12.205  0.3546 -0.2575 -0.0660
  146TMC2     H 2276   3.226   0.191  11.983  0.4203 -0.3481  2.1370
  146TMC2    H1 2277   3.630   0.202  12.128 -1.0751  1.5551  0.6450
  146TMC2    H2 2278   3.558   0.128  11.721  1.4423  1.1868 -0.5265
  146TMC2    C7 2279   3.738   0.121  11.912 -0.2971  0.3116 -1.0624
  146TMC2    C8 2280   3.285   0.108  11.743 -0.1210  0.3155  0.0499
  146TMC2    O1 2281   3.781   0.106  11.800 -0.2749  0.1385 -0.3620
  146TMC2    O2 2282   3.175   0.074  11.779 -0.1365  0.2782 -0.2274
  146TMC2    O5 2283   3.336   0.109  11.618  0.3070  0.4989  0.5397
  146TMC2    H5 2284   3.401   0.182  11.605  1.3899 -0.8286 -1.5386
  147MPD2     C 2285   4.221   0.062  12.082 -0.1097  0.5591 -0.2447
  147MPD2    C1 2286   4.137   0.013  12.178 -0.2052 -0.1661  0.0229
  147MPD2    C2 2287   3.995   0.016  12.163  0.2458 -0.2815 -0.0593
  147MPD2    C3 2288   3.944   0.068  12.043  0.1828 -0.3748  0.9380
  147MPD2    C4 2289   4.029   0.124  11.950 -0.1371  0.8221 -0.5093
  147MPD2    C5 2290   4.169   0.116  11.967 -0.2594 -0.2319 -0.6892
  147MPD2     H 2291   3.929   4.731  12.245 -0.1398 -0.0615 -0.2973
  147MPD2    H1 2292   3.998   0.187  11.867  1.4332 -1.7144 -2.9948
  147MPD2    H2 2293   4.326   0.049  12.103 -0.2450 -0.8347 -0.4463
  147MPD2    H3 2294   4.239   0.155  11.895  0.1026 -1.2289 -0.8729
  147MPD2     N 2295   3.805   0.077  12.027  0.2975 -0.0684  0.5499
  147MPD2    H5 2296   3.741   0.050  12.101 -1.6789 -1.4360 -1.6517
  147MPD2    N1 2297   4.201   4.705  12.297  0.0110  0.1262 -0.4254
  147MPD2    H7 2298   4.302   4.704  12.307 -0.0799 -3.1889  0.0545
  148TMC2    C1 2299   3.628   4.357  10.226  0.3430  0.1824 -0.2265
  148TMC2    C2 2300   3.621   4.436  10.340  0.8601 -0.6034  0.8955
  148TMC2    C3 2301   3.671   4.388  10.450  0.0896  0.7147 -0.0627
  148TMC2    C4 2302   3.712   4.252  10.221 -0.5207 -0.6560  0.0592
  148TMC2    C5 2303   3.771   4.208  10.338  0.8399 -0.1079 -1.3399
  148TMC2    C6 2304   3.747   4.276  10.454 -1.1813 -0.0867 -0.3242
  148TMC2     C 2305   3.528   4.369  10.121 -0.2484 -0.1641 -0.2068
  148TMC2     O 2306   3.463   4.470  10.123 -0.3082 -0.0245  0.0539
  148TMC2     H 2307   3.562   4.527  10.346  0.3216 -0.9161  0.3285
  148TMC2    H1 2308   3.748   4.216  10.125 -0.4158 -0.8079  0.1546
  148TMC2    H2 2309   3.806   4.259  10.543  1.5476  1.7121 -1.7638
  148TMC2    C7 2310   3.831   4.079  10.339 -0.6361 -0.6503 -1.1043
  148TMC2    C8 2311   3.625   4.460  10.572  0.0611 -0.0970 -0.0590
  148TMC2    O1 2312   3.873   4.032  10.235  0.3618  0.2347  0.4281
  148TMC2    O2 2313   3.575   4.572  10.584 -0.3660 -0.7202  0.6051
  148TMC2    O5 2314   3.645   4.374  10.676  0.2524 -0.2832 -0.0797
  148TMC2    H5 2315   3.625   4.419  10.760  3.7766 -0.6591  0.9627
  149MPD2     C 2316   3.324   4.326   9.913  0.0423 -0.1257 -0.7213
  149MPD2    C1 2317   3.397   4.225   9.960 -0.0249  0.4317  0.1025
  149MPD2    C2 2318   3.377   4.098   9.904  0.0592 -0.4990 -0.5358
  149MPD2    C3 2319   3.282   4.076   9.806  0.2372 -0.1387  1.1134
  149MPD2    C4 2320   3.202   4.183   9.766 -0.2320 -0.3077  0.5572
  149MPD2    C5 2321   3.228   4.305   9.819  0.5879  0.3595 -0.0019
  149MPD2     H 2322   3.421   4.017   9.960 -1.6094 -2.2267 -1.7173
  149MPD2    H1 2323   3.128   4.169   9.688  0.4297 -0.0364 -0.1205
  149MPD2    H2 2324   3.327   4.428   9.949  1.0703 -1.0954  1.8965
  149MPD2    H3 2325   3.163   4.387   9.791  0.3045 -0.1309 -0.7809
  149MPD2     N 2326   3.261   3.946   9.756  0.2503 -0.6302 -0.4285
  149MPD2    H5 2327   3.177   3.936   9.699  0.1369 -2.5247  0.0541
  149MPD2    N1 2328   3.496   4.245  10.061  0.2013 -0.0944  0.0437
  149MPD2    H7 2329   3.553   4.169  10.096  2.2897  1.5247  0.1754
  150TMC2    C1 2330   1.118   3.428  12.402 -0.7434 -0.0434  0.0696
  150TMC2    C2 2331   1.094   3.519  12.306 -0.4507 -0.2938 -0.3807
  150TMC2    C3 2332   1.181   3.622  12.281 -0.0260  0.1889 -0.1182
  150TMC2    C4 2333   1.224   3.444  12.485  0.1937  0.3927 -0.0506
  150TMC2    C5 2334   1.307   3.554  12.470  0.1783 -0.3775 -0.0171
  150TMC2    C6 2335   1.286   3.639  12.366 -0.2462  0.2467 -0.0326
  150TMC2     C 2336   1.096   3.291  12.366 -0.7469 -0.3371 -0.0469
  150TMC2     O 2337   1.192   3.220  12.385  0.5874  0.2516  0.8402
  150TMC2     H 2338   1.024   3.501  12.226 -0.9741 -3.0612  0.6952
  150TMC2    H1 2339   1.223   3.379  12.571 -4.0324  0.8864  0.2763
  150TMC2    H2 2340   1.357   3.721  12.360  0.1378 -0.2225 -1.8510
  150TMC2    C7 2341   1.435   3.536  12.520  0.2613  0.5125  0.4116
  150TMC2    C8 2342   1.142   3.725  12.187  0.7723  0.4185 -0.8478
  150TMC2    O1 2343   1.510   3.625  12.500 -0.0468 -1.0579 -0.5553
  150TMC2    O2 2344   1.028   3.746  12.152  0.2312 -0.0338 -0.1277
  150TMC2    O5 2345   1.256   3.790  12.150 -0.2286 -0.0875  0.0087
  150TMC2    H5 2346   1.346   3.757  12.171 -0.9604 -1.6680  0.6428
  151MPD2     C 2347   0.879   2.957  12.045  0.2931 -0.4966  0.1727
  151MPD2    C1 2348   0.788   3.051  12.080 -0.0286 -0.1463  0.6141
  151MPD2    C2 2349   0.823   3.163  12.157 -0.3337  1.1026 -0.1461
  151MPD2    C3 2350   0.954   3.168  12.212 -0.5067  0.5389  0.6702
  151MPD2    C4 2351   1.039   3.060  12.183 -0.6907 -0.1167 -0.1757
  151MPD2    C5 2352   1.003   2.959  12.094  0.5877 -0.0959  0.5767
  151MPD2     H 2353   0.751   3.235  12.196  0.1442  1.1971  0.5714
  151MPD2    H1 2354   1.139   3.056  12.224 -1.7088  0.2083  2.3003
  151MPD2    H2 2355   0.854   2.882  11.971 -0.3714 -0.6643  0.5717
  151MPD2    H3 2356   1.074   2.884  12.062 -0.5750 -1.8422  2.0675
  151MPD2     N 2357   0.981   3.281  12.295  0.0593 -0.4532 -0.2859
  151MPD2    H5 2358   0.919   3.360  12.306  1.0175  0.5304 -1.9554
  151MPD2    N1 2359   0.663   3.043  12.011  0.0937 -0.3837  0.8191
  151MPD2    H7 2360   0.642   2.950  11.975  0.8040  0.0867 -0.8225
  152TMC2    C1 2361   0.635   2.964  12.415 -0.1740 -0.4703 -0.0258
  152TMC2    C2 2362   0.723   2.867  12.374  0.4594 -0.3537  0.0016
  152TMC2    C3 2363   0.857   2.878  12.407 -0.4598  0.1250 -0.8037
  152TMC2    C4 2364   0.680   3.076  12.481 -0.1168  0.5778 -0.2757
  152TMC2    C5 2365   0.812   3.081  12.508  0.0104  0.0620 -0.1579
  152TMC2    C6 2366   0.909   2.985  12.477  0.8104 -0.4936 -0.6605
  152TMC2     C 2367   0.511   2.974  12.346  0.0716 -0.1704 -0.0103
  152TMC2     O 2368   0.461   3.084  12.347 -0.4434  0.2640  0.4252
  152TMC2     H 2369   0.696   2.775  12.325 -0.8940 -0.9167  1.7988
  152TMC2    H1 2370   0.605   3.151  12.504  0.3046  1.3078 -1.2778
  152TMC2    H2 2371   1.014   3.009  12.487  0.5930  0.1678  0.0578
  152TMC2    C7 2372   0.851   3.180  12.611  0.3482 -0.1572 -0.1246
  152TMC2    C8 2373   0.942   2.777  12.340  0.4905 -0.1348 -0.3072
  152TMC2    O1 2374   0.774   3.276  12.626 -0.8535 -0.0061  0.1188
  152TMC2    O2 2375   0.892   2.685  12.281  0.3267 -0.5712  0.4997
  152TMC2    O5 2376   1.053   2.763  12.417  0.2020  0.3481  0.9043
  152TMC2    H5 2377   1.072   2.838  12.477 -0.3323  0.8052  0.5060
  153MPD2     C 2378   0.341   2.717  12.148  0.1322 -0.1198  0.4480
  153MPD2    C1 2379   0.355   2.839  12.205 -0.2642 -0.0955 -0.6734
  153MPD2    C2 2380   0.271   2.940  12.170 -0.2125 -0.1011  0.1524
  153MPD2    C3 2381   0.176   2.926  12.072 -0.2456  0.2978  0.4845
  153MPD2    C4 2382   0.155   2.798  12.019  0.4892  0.2155 -0.1223
  153MPD2    C5 2383   0.244   2.694  12.056  0.2431 -0.1178  0.7175
  153MPD2     H 2384   0.280   3.037  12.217  0.1164 -0.4235  0.7531
  153MPD2    H1 2385   0.075   2.778  11.949 -0.1447  0.7477  0.4494
  153MPD2    H2 2386   0.416   2.644  12.176 -0.7608 -1.7009 -1.2426
  153MPD2    H3 2387   0.241   2.602  11.998 -1.9681  0.3137  0.1646
  153MPD2     N 2388   0.102   3.036  12.043  0.2844  0.3662 -0.6520
  153MPD2    H5 2389   0.106   3.111  12.111 -0.4071 -1.8415  1.8176
  153MPD2    N1 2390   0.471   2.853  12.293  0.2912  0.2062  0.1947
  153MPD2    H7 2391   0.529   2.771  12.303 -0.2292 -0.2459 -0.4914
  154TMC2    C1 2392   0.738   3.505  17.363  0.1058  0.3519 -0.2089
  154TMC2    C2 2393   0.707   3.373  17.344 -0.0280  0.2895  0.1738
  154TMC2    C3 2394   0.675   3.339  17.214  0.3434 -0.3061  0.0027
  154TMC2    C4 2395   0.733   3.595  17.262 -0.6896 -0.3394  0.4167
  154TMC2    C5 2396   0.701   3.552  17.142  0.0840  0.2366  0.5080
  154TMC2    C6 2397   0.671   3.423  17.107 -0.6358 -0.1905  0.2610
  154TMC2     C 2398   0.824   3.538  17.469  0.8452  0.7723 -0.3235
  154TMC2     O 2399   0.903   3.629  17.453  0.2804  0.7512 -0.4726
  154TMC2     H 2400   0.708   3.295  17.419 -1.3908 -1.8639 -2.0820
  154TMC2    H1 2401   0.772   3.695  17.278  0.0387 -0.4771 -0.5015
  154TMC2    H2 2402   0.636   3.393  17.009  2.2588 -0.9828 -0.5260
  154TMC2    C7 2403   0.690   3.640  17.026  0.5187  0.3686  0.0666
  154TMC2    C8 2404   0.660   3.194  17.189  0.0471 -0.1604 -0.7430
  154TMC2    O1 2405   0.693   3.591  16.913  0.1924  0.2454 -0.1331
  154TMC2    O2 2406   0.704   3.114  17.266 -0.4439 -0.5766  0.1938
  154TMC2    O5 2407   0.559   3.174  17.112 -0.6890  0.0534  0.3354
  154TMC2    H5 2408   0.516   3.254  17.074 -1.8398 -0.7431 -0.0757
  155MPD2     C 2409   0.870   3.353   0.021 -0.0611  0.6156  0.8155
  155MPD2    C1 2410   0.894   3.456  17.690 -0.3615  0.2559 -0.1358
  155MPD2    C2 2411   1.006   3.534  17.708 -0.3751  0.4306 -0.2441
  155MPD2    C3 2412   1.077   3.515   0.062 -0.7508  0.0751  0.8438
  155MPD2    C4 2413   1.050   3.423   0.157  0.2343  0.4934  0.3168
  155MPD2    C5 2414   0.947   3.340   0.132 -0.4583 -0.3900  0.2334
  155MPD2     H 2415   1.015   3.615  17.636 -1.7240 -0.1831 -1.1070
  155MPD2    H1 2416   1.105   3.410   0.250  0.3866  0.5779  0.2396
  155MPD2    H2 2417   0.785   3.285   0.021  0.9708 -0.6998 -1.9059
  155MPD2    H3 2418   0.927   3.257   0.199  1.1385  0.3871  1.6704
  155MPD2     N 2419   1.191   3.606   0.072  0.6498  0.2356  0.3992
  155MPD2    H5 2420   1.211   3.661  17.754 -2.6480  0.6733 -0.1134
  155MPD2    N1 2421   0.803   3.461  17.576  0.0771 -0.5216 -0.7383
  155MPD2    H7 2422   0.724   3.397  17.579  0.4943 -1.0367 -0.8130
  156TMC2    C1 2423   0.472   0.361  11.258 -0.6543 -0.3108  0.4992
  156TMC2    C2 2424   0.608   0.340  11.227 -0.1570  0.1144  0.0574
  156TMC2    C3 2425   0.690   0.449  11.206  0.4835 -0.1412  0.4675
  156TMC2    C4 2426   0.415   0.485  11.259  0.3205 -0.1533  0.4284
  156TMC2    C5 2427   0.500   0.588  11.239 -0.3891 -0.4007 -0.3084
  156TMC2    C6 2428   0.636   0.575  11.218 -0.2490  0.2330  0.5717
  156TMC2     C 2429   0.424   0.283  11.364  0.0499  0.2123 -0.0716
  156TMC2     O 2430   0.308   0.302  11.401  0.7703 -0.7600  0.1909
  156TMC2     H 2431   0.656   0.243  11.227  1.1956  0.7858  0.4908
  156TMC2    H1 2432   0.321   0.500  11.310 -0.1324  0.9824 -0.7477
  156TMC2    H2 2433   0.702   0.661  11.225  1.7185 -1.1979 -0.3558
  156TMC2    C7 2434   0.459   0.725  11.261  0.3342 -0.1149 -0.1650
  156TMC2    C8 2435   0.835   0.421  11.239  0.0771 -0.3838 -0.4367
  156TMC2    O1 2436   0.546   0.806  11.296  0.4004  0.0209 -0.3532
  156TMC2    O2 2437   0.871   0.331  11.313 -0.1640 -0.6407  0.5038
  156TMC2    O5 2438   0.910   0.534  11.218  0.2551 -0.5019  0.5628
  156TMC2    H5 2439   0.861   0.588  11.153 -1.6420 -2.2008  0.5669
  157MPD2     C 2440   0.407   0.168  11.632 -0.2624  0.1819  0.9623
  157MPD2    C1 2441   0.526   0.176  11.564 -0.1661  1.2133 -0.7569
  157MPD2    C2 2442   0.646   0.147  11.629 -0.5814  0.4651 -0.0816
  157MPD2    C3 2443   0.652   0.113  11.761  0.0865  0.1566  0.4855
  157MPD2    C4 2444   0.529   0.114  11.826  0.2441 -0.2112  0.0965
  157MPD2    C5 2445   0.411   0.141  11.764 -0.2088  0.4996 -0.2878
  157MPD2     H 2446   0.738   0.159  11.574 -1.7295  1.8263 -1.7173
  157MPD2    H1 2447   0.527   0.084  11.930 -0.4704  0.1499  0.1866
  157MPD2    H2 2448   0.309   0.179  11.586 -0.0786  3.6135  1.3919
  157MPD2    H3 2449   0.314   0.129  11.812 -0.4181 -1.1643 -1.1398
  157MPD2     N 2450   0.779   0.099  11.825  0.4009  0.0454  0.4548
  157MPD2    H5 2451   0.857   0.104  11.759 -0.4774  0.9482 -0.5177
  157MPD2    N1 2452   0.536   0.230  11.432 -0.4512 -0.2647 -0.0612
  157MPD2    H7 2453   0.630   0.250  11.400 -0.3372  0.7928  0.9341
  158TMC2    C1 2454   0.442   4.183  13.215  0.1526  0.4104 -0.0596
  158TMC2    C2 2455   0.430   4.274  13.110 -0.2672  0.4583  0.0290
  158TMC2    C3 2456   0.308   4.303  13.059 -0.6279 -0.7257 -0.2570
  158TMC2    C4 2457   0.333   4.114  13.260 -0.2614  0.2774  0.1785
  158TMC2    C5 2458   0.212   4.150  13.199 -0.8793 -0.3896 -0.0549
  158TMC2    C6 2459   0.192   4.246  13.103 -0.5381 -0.2268 -0.8254
  158TMC2     C 2460   0.572   4.166  13.268  0.0719 -0.9133 -0.3645
  158TMC2     O 2461   0.637   4.270  13.257 -0.0688 -0.3706  0.0395
  158TMC2     H 2462   0.518   4.330  13.080  0.4309  0.2267  1.6385
  158TMC2    H1 2463   0.325   4.058  13.352  0.5368  2.8279  1.7998
  158TMC2    H2 2464   0.096   4.275  13.063 -0.5741  2.1105  0.9999
  158TMC2    C7 2465   0.087   4.122  13.277  0.0177  0.2563 -0.3571
  158TMC2    C8 2466   0.302   4.413  12.965 -0.2430 -0.1035  0.4867
  158TMC2    O1 2467   0.001   4.209  13.280  0.0505 -0.1685  0.5995
  158TMC2    O2 2468   0.383   4.505  12.964  0.2244  0.0627  0.2574
  158TMC2    O5 2469   0.209   4.390  12.867 -0.0455  0.1243  0.0853
  158TMC2    H5 2470   0.174   4.299  12.872  1.9573 -0.6273  0.4628
  159MPD2     C 2471   0.921   3.969  13.584 -0.5373 -0.1129 -0.0962
  159MPD2    C1 2472   0.814   3.880  13.572 -0.3215  0.6216 -0.2681
  159MPD2    C2 2473   0.722   3.905  13.473  0.5399 -0.4990 -0.1645
  159MPD2    C3 2474   0.722   4.015  13.390 -0.2717  0.5023  0.2418
  159MPD2    C4 2475   0.835   4.098  13.399  0.3353 -0.1253  0.1370
  159MPD2    C5 2476   0.942   4.069  13.488 -0.4968  0.2878 -0.1187
  159MPD2     H 2477   0.636   3.839  13.465  0.2465  0.1027 -2.0792
  159MPD2    H1 2478   0.845   4.190  13.343  0.9758 -0.7082 -0.7079
  159MPD2    H2 2479   1.007   3.963  13.651  0.3234 -0.1766 -1.2159
  159MPD2    H3 2480   1.017   4.147  13.487  0.5629 -0.7438 -0.8814
  159MPD2     N 2481   0.604   4.047  13.321  0.1705  0.1857 -0.0873
  159MPD2    H5 2482   0.525   3.982  13.328  1.6570 -1.6217 -0.0338
  159MPD2    N1 2483   0.819   3.771  13.665 -0.1804 -0.7029  0.1962
  159MPD2    H7 2484   0.897   3.760  13.728 -0.5177 -0.6612  0.6258
  160TMC2    C1 2485   1.176   2.821   0.953 -0.0553  0.5767 -0.2211
  160TMC2    C2 2486   1.098   2.746   0.871 -0.4512  0.0788  0.5828
  160TMC2    C3 2487   1.126   2.614   0.870  0.0705  0.0880 -0.1624
  160TMC2    C4 2488   1.279   2.776   1.026  0.4761 -0.8736 -0.3853
  160TMC2    C5 2489   1.297   2.644   1.026 -0.2325 -0.1677 -0.2532
  160TMC2    C6 2490   1.210   2.565   0.963 -0.7243 -0.1540  0.5485
  160TMC2     C 2491   1.160   2.965   0.954 -0.5762 -0.0567 -0.1254
  160TMC2     O 2492   1.259   3.033   0.935 -0.3279 -0.2084  0.5375
  160TMC2     H 2493   1.004   2.781   0.832  0.4278  0.5293 -1.1345
  160TMC2    H1 2494   1.334   2.845   1.089 -0.2596 -0.9442  0.3283
  160TMC2    H2 2495   1.251   2.466   0.949 -0.1579  0.2715 -0.7401
  160TMC2    C7 2496   1.424   2.584   1.069  0.0294  0.4081 -0.2158
  160TMC2    C8 2497   1.020   2.535   0.821  0.0770  0.7253  0.2193
  160TMC2    O1 2498   1.421   2.472   1.112  0.3547 -0.8629  0.3392
  160TMC2    O2 2499   0.992   2.425   0.869  0.4288  0.2416  0.3599
  160TMC2    O5 2500   0.983   2.581   0.699  0.5521  0.4546  0.1228
  160TMC2    H5 2501   1.038   2.656   0.666 -0.3796  0.8593 -0.5094
  161MPD2     C 2502   1.058   3.252   0.987 -0.1977 -0.3764 -0.2659
  161MPD2    C1 2503   0.978   3.141   0.958 -0.1969 -0.2037  0.4655
  161MPD2    C2 2504   0.845   3.148   0.925  0.0750 -0.1226  0.2997
  161MPD2    C3 2505   0.783   3.272   0.922 -0.4462 -0.3219  0.5164
  161MPD2    C4 2506   0.858   3.384   0.958 -0.5799  0.3399  0.4193
  161MPD2    C5 2507   0.993   3.375   0.987 -0.4913 -0.8240  0.2979
  161MPD2     H 2508   0.790   3.056   0.919 -0.8874  0.4835 -0.0877
  161MPD2    H1 2509   0.807   3.479   0.968  0.0767  0.8708 -1.3250
  161MPD2    H2 2510   1.163   3.255   1.013 -0.9778 -1.5004  2.9885
  161MPD2    H3 2511   1.053   3.460   1.020 -3.4402  1.7956 -1.0621
  161MPD2     N 2512   0.646   3.273   0.904  0.5187 -0.2032 -0.1895
  161MPD2    H5 2513   0.601   3.184   0.885  1.0476 -0.1013 -1.8915
  161MPD2    N1 2514   1.027   3.009   0.952 -0.4204 -0.1117  0.6225
  161MPD2    H7 2515   0.953   2.941   0.944 -0.1106 -0.2943 -0.7478
  162TMC2    C1 2516   3.478   4.154   0.946 -0.6127 -0.0923 -0.5443
  162TMC2    C2 2517   3.508   4.283   0.958  0.3950  0.0043  0.2437
  162TMC2    C3 2518   3.522   4.337   1.081  1.2137 -0.2962  0.0930
  162TMC2    C4 2519   3.472   4.075   1.056 -0.0372  0.1865  0.2588
  162TMC2    C5 2520   3.485   4.132   1.185 -0.3367 -0.1145 -0.2490
  162TMC2    C6 2521   3.514   4.271   1.198 -0.1441 -0.4370 -0.0359
  162TMC2     C 2522   3.476   4.094   0.812  0.0032 -0.6234  0.1477
  162TMC2     O 2523   3.487   3.974   0.809  0.2184 -0.0915 -0.2115
  162TMC2     H 2524   3.526   4.356   0.879  1.8452  0.1800  0.7262
  162TMC2    H1 2525   3.442   3.972   1.047 -2.1912  0.8255  0.1029
  162TMC2    H2 2526   3.504   4.327   1.291 -1.3127  0.4514 -0.7066
  162TMC2    C7 2527   3.440   4.056   1.298  0.0859 -0.2293 -1.1015
  162TMC2    C8 2528   3.563   4.476   1.095  1.1887 -0.5785  0.5139
  162TMC2    O1 2529   3.387   4.119   1.389  0.1292  0.6588 -1.1332
  162TMC2    O2 2530   3.524   4.571   1.029  0.1155  0.2450  0.4014
  162TMC2    O5 2531   3.648   4.491   1.198 -0.3583  0.6221 -0.4555
  162TMC2    H5 2532   3.676   4.399   1.219 -2.0039  0.0265 -0.8402
  163MPD2     C 2533   3.306   4.040   0.333  0.4835  0.6699 -0.4240
  163MPD2    C1 2534   3.406   3.964   0.395 -0.7665 -0.5358 -0.0241
  163MPD2    C2 2535   3.446   4.010   0.521  0.3359  0.0453  0.3664
  163MPD2    C3 2536   3.398   4.126   0.576  0.0464  0.2532 -0.6482
  163MPD2    C4 2537   3.304   4.198   0.504 -0.3849 -0.0324 -0.2959
  163MPD2    C5 2538   3.259   4.158   0.381  0.4369  0.3860 -0.2017
  163MPD2     H 2539   3.523   3.956   0.575  0.6309  1.5783  1.4972
  163MPD2    H1 2540   3.264   4.294   0.535  1.5224  0.6611  0.0071
  163MPD2    H2 2541   3.254   4.016   0.241  0.7979 -0.6331 -0.2617
  163MPD2    H3 2542   3.194   4.223   0.324  2.5052  1.1448 -1.6988
  163MPD2     N 2543   3.433   4.177   0.705  0.0162  0.1612 -0.7262
  163MPD2    H5 2544   3.406   4.269   0.739  0.2216  0.1996 -0.6656
  163MPD2    N1 2545   3.447   3.851   0.326 -0.0039 -0.1125  0.5187
  163MPD2    H7 2546   3.430   3.839   0.227  0.0378  0.3797  0.4536
  164TMC2    C1 2547   4.099   3.741  10.872 -0.4440  0.4382  0.2383
  164TMC2    C2 2548   4.139   3.824  10.772 -0.0993  0.7500  0.3798
  164TMC2    C3 2549   4.106   3.955  10.783 -0.8554  0.4918  0.1189
  164TMC2    C4 2550   4.026   3.793  10.979 -0.1613  0.9887 -0.1550
  164TMC2    C5 2551   3.981   3.923  10.975  0.2992  0.1335 -0.1538
  164TMC2    C6 2552   4.030   4.007  10.879 -0.4300 -0.0411 -0.6430
  164TMC2     C 2553   4.093   3.594  10.857  0.1621 -0.5690 -0.5711
  164TMC2     O 2554   4.017   3.532  10.932  0.1962  0.2143  0.1130
  164TMC2     H 2555   4.181   3.790  10.678 -0.7936 -1.1325  0.7473
  164TMC2    H1 2556   3.989   3.729  11.057 -0.7512  0.8878 -0.5133
  164TMC2    H2 2557   4.017   4.115  10.879  2.9706  0.3665  0.9375
  164TMC2    C7 2558   3.910   3.969  11.089 -0.4560 -0.3893  0.3390
  164TMC2    C8 2559   4.140   4.039  10.668  0.0043 -0.1124 -0.4069
  164TMC2    O1 2560   3.889   3.892  11.183  0.0236  0.3465 -0.0145
  164TMC2    O2 2561   4.131   3.991  10.554 -0.3467 -0.3511  0.8342
  164TMC2    O5 2562   4.240   4.117  10.704  0.2020  0.2307 -0.7391
  164TMC2    H5 2563   4.239   4.141  10.799  1.4396 -1.3779 -0.3055
  165TMC2    C1 2564   1.081   1.362   0.760 -0.3751 -0.6659 -0.7246
  165TMC2    C2 2565   1.191   1.275   0.780  0.7213 -0.0147  0.6816
  165TMC2    C3 2566   1.299   1.318   0.841  0.2945  0.3650 -0.1703
  165TMC2    C4 2567   1.098   1.501   0.788  0.0151  0.0316  0.1942
  165TMC2    C5 2568   1.222   1.539   0.840 -0.8773  0.2866 -0.6875
  165TMC2    C6 2569   1.327   1.451   0.868 -0.3594  0.5480  0.2683
  165TMC2     C 2570   0.946   1.314   0.730  0.0510  0.5114 -0.3921
  165TMC2     O 2571   0.858   1.386   0.778 -0.2955 -0.7586 -0.6558
  165TMC2     H 2572   1.174   1.169   0.763 -0.3962  0.0486  1.4369
  165TMC2    H1 2573   1.014   1.569   0.799  0.0464 -0.0378  0.8620
  165TMC2    H2 2574   1.409   1.485   0.930 -0.1091  0.2057  0.1274
  165TMC2    C7 2575   1.256   1.679   0.864  0.3743  0.1717  0.1712
  165TMC2    C8 2576   1.399   1.215   0.837  0.3889  0.3385 -0.0986
  165TMC2    O1 2577   1.366   1.702   0.916 -0.4094  0.0087  0.1808
  165TMC2    O2 2578   1.386   1.095   0.853  0.3238  0.0861 -0.1534
  165TMC2    O5 2579   1.509   1.284   0.865 -0.4052  0.4682  0.4391
  165TMC2    H5 2580   1.505   1.376   0.829  0.7445  0.0381 -0.8089
  166MPD2     C 2581   0.605   0.957   0.579  0.4266  0.4315 -0.8991
  166MPD2    C1 2582   0.586   1.092   0.606 -0.5129  0.1617 -0.5508
  166MPD2    C2 2583   0.695   1.176   0.626  0.1198 -0.1497  0.8289
  166MPD2    C3 2584   0.826   1.120   0.636 -0.1900  0.1777  0.2660
  166MPD2    C4 2585   0.839   0.983   0.606  0.4557 -0.0240 -0.1200
  166MPD2    C5 2586   0.732   0.907   0.569  0.2670 -0.3052 -0.1256
  166MPD2     H 2587   0.682   1.283   0.642 -2.1370 -0.3166  0.1116
  166MPD2    H1 2588   0.940   0.945   0.592  0.2980 -0.9393  1.1443
  166MPD2    H2 2589   0.516   0.897   0.564  0.4566  0.0740  0.3697
  166MPD2    H3 2590   0.738   0.806   0.530  1.1452  0.5986 -2.3616
  166MPD2     N 2591   0.943   1.194   0.663 -0.7811  0.6568  0.0079
  166MPD2    H5 2592   1.032   1.151   0.639 -0.0485  3.4482 -2.2611
  166MPD2    N1 2593   0.450   1.132   0.622  0.0539 -0.7788 -0.3761
  166MPD2    H7 2594   0.378   1.061   0.614 -0.3628 -0.4774  0.6697
  167TMC2    C1 2595   2.967   3.634  12.752 -0.3213 -0.5045  0.1074
  167TMC2    C2 2596   2.854   3.578  12.822 -0.7942 -0.6870 -0.2879
  167TMC2    C3 2597   2.886   3.475  12.900  0.3583 -0.4800  0.6412
  167TMC2    C4 2598   3.091   3.588  12.760 -0.2580 -0.5725 -0.5992
  167TMC2    C5 2599   3.113   3.478  12.839  1.1433  0.8827  0.7160
  167TMC2    C6 2600   3.013   3.426  12.916  0.4530 -0.3040 -0.5793
  167TMC2     C 2601   2.936   3.743  12.650 -0.5740 -0.2409 -0.0439
  167TMC2     O 2602   2.837   3.815  12.662  0.3293 -0.1431  0.6596
  167TMC2     H 2603   2.752   3.613  12.813  0.1875  2.2420 -0.0764
  167TMC2    H1 2604   3.180   3.629  12.713  0.8294 -0.6554  1.3836
  167TMC2    H2 2605   3.023   3.342  12.983  0.6987  0.0771 -0.1432
  167TMC2    C7 2606   3.244   3.419  12.858  0.1241 -0.2698 -0.4633
  167TMC2    C8 2607   2.780   3.389  12.940  0.4466 -0.3371  0.8270
  167TMC2    O1 2608   3.258   3.336  12.947  0.1094 -0.0322 -0.0154
  167TMC2    O2 2609   2.718   3.430  13.037 -0.1408 -0.4633 -0.7104
  167TMC2    O5 2610   2.727   3.353  12.822  0.5297  0.5753 -0.1282
  167TMC2    H5 2611   2.790   3.337  12.749 -0.1094  0.6865 -0.7012
  168MPD2     C 2612   2.953   3.942  12.415  0.3138 -0.0819  0.8444
  168MPD2    C1 2613   3.050   3.850  12.445 -0.1059 -0.4582  0.1771
  168MPD2    C2 2614   3.160   3.835  12.364 -0.6307 -0.0233 -0.0705
  168MPD2    C3 2615   3.184   3.928  12.262  0.5129  0.4071  0.1240
  168MPD2    C4 2616   3.088   4.019  12.232  0.1574 -0.3663  0.0270
  168MPD2    C5 2617   2.976   4.028  12.313  0.3240 -0.4672 -0.1533
  168MPD2     H 2618   3.237   3.762  12.388 -0.7545 -0.2768 -0.4415
  168MPD2    H1 2619   3.091   4.086  12.146  1.2242 -0.8696 -0.3274
  168MPD2    H2 2620   2.859   3.936  12.469  0.9483  1.7795  2.1485
  168MPD2    H3 2621   2.899   4.090  12.268  1.6527  1.4425  0.1983
  168MPD2     N 2622   3.298   3.926  12.175  0.1633 -0.1705 -0.1764
  168MPD2    H5 2623   3.310   3.996  12.103 -0.7170 -2.0943 -2.1855
  168MPD2    N1 2624   3.039   3.759  12.555 -0.2614  0.1665  0.7273
  168MPD2    H7 2625   3.109   3.685  12.552 -0.7308 -0.3191  1.7197
  169MPD1     C 2626   0.630   3.300   9.619  0.3930 -0.4063  0.1852
  169MPD1    C1 2627   0.692   3.212   9.710 -0.4650 -0.1958 -0.3034
  169MPD1    C2 2628   0.825   3.185   9.684 -0.5135  0.9152  0.4983
  169MPD1    C3 2629   0.889   3.218   9.566 -0.2746 -0.3002  0.4624
  169MPD1    C4 2630   0.822   3.299   9.478 -0.3053  0.3160  0.3179
  169MPD1    C5 2631   0.697   3.343   9.509  0.1840 -0.7585 -0.0922
  169MPD1     H 2632   0.877   3.137   9.766  0.3364 -3.2872 -2.4529
  169MPD1    H1 2633   0.862   3.335   9.384  3.1222 -1.1353  1.1933
  169MPD1    H2 2634   0.529   3.331   9.646  0.2786 -0.0149 -0.7270
  169MPD1    H3 2635   0.649   3.419   9.448  0.1826 -1.9606 -1.5872
  169MPD1     N 2636   1.022   3.181   9.542  0.1819 -0.4735 -0.1176
  169MPD1    H5 2637   1.069   3.123   9.611 -1.1982  1.0894  2.1359
  169MPD1    N1 2638   0.636   3.186   9.836 -0.0666 -0.1965  0.0434
  169MPD1    H6 2639   0.534   3.193   9.838  0.0672  1.5635  0.8324
  169MPD1    H7 2640   0.670   3.101   9.880 -0.5563 -0.8049 -0.7670
  170MPD1     C 2641   3.800   0.716  12.917 -0.3887 -1.0462 -0.5236
  170MPD1    C1 2642   3.902   0.807  12.882  0.0476  0.0585  0.6223
  170MPD1    C2 2643   3.993   0.848  12.979  0.2147  0.0977  0.2766
  170MPD1    C3 2644   3.993   0.809  13.111 -0.0363  0.1866 -0.0990
  170MPD1    C4 2645   3.895   0.710  13.140 -0.4498 -0.3590 -0.8497
  170MPD1    C5 2646   3.810   0.668  13.043 -0.2834 -0.1915 -0.0154
  170MPD1     H 2647   4.064   0.923  12.945 -0.4998  1.0196  0.8014
  170MPD1    H1 2648   3.876   0.665  13.236 -0.4378  1.2421 -0.0908
  170MPD1    H2 2649   3.720   0.669  12.861 -0.5237  0.0684 -1.2641
  170MPD1    H3 2650   3.733   0.595  13.064 -1.2070  0.7002 -0.3018
  170MPD1     N 2651   4.087   0.862  13.204  0.7991 -0.0554 -0.0482
  170MPD1    H5 2652   4.148   0.934  13.168 -0.4723  0.3794 -1.3350
  170MPD1    N1 2653   3.908   0.858  12.746  0.3823  0.5453  0.0400
  170MPD1    H6 2654   3.904   0.777  12.683  0.1249 -0.0245  0.7878
  170MPD1    H7 2655   3.989   0.910  12.713  1.4458 -0.7651  0.5913
  171MPD1     C 2656   3.177   2.338  15.052 -0.2539 -0.0041 -0.1658
  171MPD1    C1 2657   3.107   2.222  15.042  0.3930  0.1743 -0.1972
  171MPD1    C2 2658   3.130   2.124  15.138 -0.4498  0.1642 -0.4005
  171MPD1    C3 2659   3.231   2.134  15.223  0.3298 -0.1532  0.4229
  171MPD1    C4 2660   3.311   2.246  15.224 -0.0165  0.7009  0.2606
  171MPD1    C5 2661   3.287   2.347  15.133 -0.5805 -0.3277  0.6325
  171MPD1     H 2662   3.066   2.037  15.140 -0.8262  0.5028  1.8479
  171MPD1    H1 2663   3.399   2.245  15.287  1.0024 -0.9968 -1.1698
  171MPD1    H2 2664   3.161   2.424  14.987  1.1259  1.2969  1.2095
  171MPD1    H3 2665   3.352   2.434  15.133 -0.2051 -0.6053 -0.1686
  171MPD1     N 2666   3.268   2.032  15.314 -0.0788 -0.0842 -0.3762
  171MPD1    H5 2667   3.345   2.054  15.376 -0.6135 -0.7584  0.5405
  171MPD1    N1 2668   2.983   2.227  14.967  0.1971  0.1637 -0.2055
  171MPD1    H6 2669   2.965   2.132  14.936 -3.4617  0.4703  0.9884
  171MPD1    H7 2670   2.999   2.280  14.882 -3.0834  1.9843  0.3187
  172MPD1     C 2671   2.180   1.231   0.215 -0.1258 -0.3623  0.9330
  172MPD1    C1 2672   2.230   1.313   0.317  0.0063  0.3542  0.4973
  172MPD1    C2 2673   2.329   1.405   0.287 -0.0810 -0.6202 -0.7397
  172MPD1    C3 2674   2.373   1.427   0.158 -1.1273 -0.1509 -0.2307
  172MPD1    C4 2675   2.321   1.355   0.056  0.6817 -0.3985  0.3563
  172MPD1    C5 2676   2.224   1.268   0.086  0.1654  0.2650 -0.2557
  172MPD1     H 2677   2.371   1.459   0.371  0.5190 -1.9299 -0.2028
  172MPD1    H1 2678   2.353   1.357  17.718  1.4560 -0.3683  0.6023
  172MPD1    H2 2679   2.101   1.156   0.224 -1.4910  0.7705 -1.4239
  172MPD1    H3 2680   2.176   1.215   0.004  2.3892 -1.8553 -0.2213
  172MPD1     N 2681   2.488   1.508   0.135 -0.2635  0.2429 -0.6423
  172MPD1    H5 2682   2.532   1.508   0.043  0.0057  0.2926 -0.5133
  172MPD1    N1 2683   2.205   1.280   0.454  0.3395  0.9227 -0.1702
  172MPD1    H6 2684   2.121   1.222   0.455 -0.5344  2.2102 -0.2086
  172MPD1    H7 2685   2.183   1.366   0.503  1.9372  0.7196  0.9160
  173MPD1     C 2686   3.781   1.648  13.881  0.1933  0.5177 -0.0857
  173MPD1    C1 2687   3.890   1.570  13.916 -0.3926  0.5384  0.9110
  173MPD1    C2 2688   3.877   1.481  14.016 -0.1289 -0.3726 -0.3322
  173MPD1    C3 2689   3.754   1.460  14.080  0.6110 -0.6713 -0.0587
  173MPD1    C4 2690   3.646   1.542  14.051 -0.1650  0.1160 -0.1518
  173MPD1    C5 2691   3.663   1.638  13.952 -0.2046  0.3790  0.6418
  173MPD1     H 2692   3.959   1.414  14.038  1.1053  1.4843  0.6743
  173MPD1    H1 2693   3.545   1.523  14.085 -0.5631  1.7452 -0.4298
  173MPD1    H2 2694   3.780   1.711  13.793 -3.4822  0.3755 -0.1325
  173MPD1    H3 2695   3.582   1.705  13.924 -0.7774  0.8312  3.4539
  173MPD1     N 2696   3.763   1.360  14.177  0.1986 -0.1339 -0.1146
  173MPD1    H5 2697   3.846   1.302  14.189  0.3017  0.0416  0.0195
  173MPD1    N1 2698   4.009   1.578  13.852 -0.2682  0.9357 -0.0123
  173MPD1    H6 2699   4.069   1.496  13.865  1.6018  2.1623 -0.8630
  173MPD1    H7 2700   4.003   1.593  13.752 -2.2878  0.2615  0.0023
  174MPD1     C 2701   3.959   0.387  14.382 -0.9202  0.8697  0.2460
  174MPD1    C1 2702   3.998   0.484  14.290 -0.4673 -0.2373  0.4783
  174MPD1    C2 2703   3.938   0.605  14.304 -0.3817 -0.2679 -0.2216
  174MPD1    C3 2704   3.835   0.630  14.400  0.3772 -0.2756  0.3650
  174MPD1    C4 2705   3.798   0.530  14.481  0.5025  0.3242 -0.7189
  174MPD1    C5 2706   3.858   0.410  14.479 -0.5082 -0.1620  0.0631
  174MPD1     H 2707   3.975   0.680  14.235 -0.1022 -0.5634 -0.3967
  174MPD1    H1 2708   3.734   0.542  14.568 -0.4056 -0.9789 -1.2174
  174MPD1    H2 2709   4.024   0.301  14.392 -2.0045  0.4694  3.7098
  174MPD1    H3 2710   3.836   0.343  14.561 -0.2792 -0.8364 -0.4217
  174MPD1     N 2711   3.778   0.758  14.419 -0.2847 -0.3456  0.2169
  174MPD1    H5 2712   3.711   0.759  14.495  0.4933 -1.1140  0.9186
  174MPD1    N1 2713   4.102   0.464  14.199 -0.2141 -0.5315 -0.3342
  174MPD1    H6 2714   4.108   0.522  14.116  2.3938  0.4620  0.5485
  174MPD1    H7 2715   4.110   0.364  14.178 -2.6232 -0.8643  0.2602
  175MPD1     C 2716   2.186   2.058  15.079 -0.3411 -0.2258 -0.6903
  175MPD1    C1 2717   2.158   1.930  15.114  0.0956  1.2943 -0.6742
  175MPD1    C2 2718   2.160   1.900  15.250 -0.4952 -0.2626 -0.9900
  175MPD1    C3 2719   2.198   1.997  15.346  0.1065  0.0412 -0.2168
  175MPD1    C4 2720   2.214   2.125  15.302  0.2687 -0.4773 -0.0589
  175MPD1    C5 2721   2.218   2.154  15.169  0.9404  0.1559  0.1612
  175MPD1     H 2722   2.134   1.799  15.280 -0.8853  0.6359  1.7636
  175MPD1    H1 2723   2.237   2.204  15.372 -0.0531  1.0693 -1.7119
  175MPD1    H2 2724   2.181   2.082  14.974  1.8619  2.5761 -0.1538
  175MPD1    H3 2725   2.230   2.257  15.140  1.2848  0.0785  0.0224
  175MPD1     N 2726   2.203   1.983  15.489  0.2165 -0.1172 -0.3262
  175MPD1    H5 2727   2.226   2.068  15.540 -2.7180  0.4326  0.0956
  175MPD1    N1 2728   2.145   1.823  15.023 -0.0468 -0.0838 -0.2308
  175MPD1    H6 2729   2.078   1.753  15.053 -0.4039 -0.2115 -1.3183
  175MPD1    H7 2730   2.141   1.843  14.923  1.4264 -0.4473 -0.3705
  176MPD1     C 2731   0.981   0.481  17.616  0.2447  0.4350 -0.1007
  176MPD1    C1 2732   0.880   0.406  17.655 -0.5148  0.2903  0.1890
  176MPD1    C2 2733   0.746   0.414  17.603  0.3051  0.4715 -0.1006
  176MPD1    C3 2734   0.724   0.503  17.504 -0.6576 -0.5839 -0.2780
  176MPD1    C4 2735   0.826   0.585  17.459 -0.4864  0.7440  0.4578
  176MPD1    C5 2736   0.950   0.578  17.517 -0.4175  0.1901 -0.1418
  176MPD1     H 2737   0.666   0.350  17.640 -2.4671  3.2410 -1.3073
  176MPD1    H1 2738   0.815   0.658  17.379 -0.8321  0.0391 -0.1341
  176MPD1    H2 2739   1.078   0.478  17.664  1.6486  0.9300 -2.9261
  176MPD1    H3 2740   1.034   0.638  17.484 -0.0477 -0.7774 -0.9772
  176MPD1     N 2741   0.589   0.519  17.470 -0.1495 -0.4368 -0.0760
  176MPD1    H5 2742   0.523   0.458  17.518 -0.0894 -0.4405 -0.0001
  176MPD1    N1 2743   0.912   0.320  17.753 -0.1500  0.3867  0.8931
  176MPD1    H6 2744   0.846   0.319   0.065 -1.4700  0.0467 -0.2358
  176MPD1    H7 2745   1.004   0.343   0.026  1.2187 -2.5984 -0.6164
  177MPD1     C 2746   1.636   3.864   9.342 -0.2088  0.6773  0.3146
  177MPD1    C1 2747   1.521   3.791   9.311 -0.6892  0.9497 -0.3315
  177MPD1    C2 2748   1.429   3.854   9.224  0.2996 -0.8542 -0.6255
  177MPD1    C3 2749   1.450   3.984   9.172 -0.2885  0.2816  0.4421
  177MPD1    C4 2750   1.565   4.049   9.209 -1.2862 -0.4038 -0.6462
  177MPD1    C5 2751   1.659   3.988   9.291  0.3925  0.4187 -0.8322
  177MPD1     H 2752   1.347   3.795   9.185 -0.1319 -1.4632  1.2034
  177MPD1    H1 2753   1.596   4.139   9.156  0.3465 -1.1860 -1.0114
  177MPD1    H2 2754   1.715   3.832   9.409 -0.9405 -0.0419  0.8250
  177MPD1    H3 2755   1.755   4.034   9.312  2.0243 -2.9819 -0.9576
  177MPD1     N 2756   1.355   4.042   9.081 -0.2767 -0.2392  0.1490
  177MPD1    H5 2757   1.268   3.992   9.069 -1.0340  1.4102 -1.3045
  177MPD1    N1 2758   1.517   3.654   9.338 -0.4468  0.8625 -0.2838
  177MPD1    H6 2759   1.419   3.627   9.344 -0.0578 -0.0970  1.6649
  177MPD1    H7 2760   1.567   3.618   9.420 -1.0652  0.2072 -0.1985
  178MPD1     C 2761   4.560   3.753  17.428  0.0569  0.7008 -0.4163
  178MPD1    C1 2762   4.677   3.764  17.352 -0.7221  0.0987  0.8069
  178MPD1    C2 2763   4.685   3.877  17.269  0.1401  0.9276  0.0503
  178MPD1    C3 2764   4.592   3.979  17.288  0.9679  0.3675  0.1658
  178MPD1    C4 2765   4.479   3.961  17.359  0.4981 -0.6356 -0.8641
  178MPD1    C5 2766   4.467   3.857  17.441  0.1343 -0.2856  0.2167
  178MPD1     H 2767   0.036   3.870  17.215 -0.6075  0.7727 -1.1958
  178MPD1    H1 2768   4.407   4.042  17.360 -0.0068 -1.0554 -2.5301
  178MPD1    H2 2769   4.539   3.673  17.497  0.2404  1.2640  0.2910
  178MPD1    H3 2770   4.382   3.842  17.507  0.8693 -0.9751  1.0044
  178MPD1     N 2771   4.609   4.097  17.213  0.3734 -0.1267  0.2940
  178MPD1    H5 2772   4.526   4.150  17.188  0.0459 -0.0948  1.4568
  178MPD1    N1 2773   0.004   3.649  17.336  0.4952  0.1743 -0.1079
  178MPD1    H6 2774   0.104   3.655  17.318  0.3412  1.1875 -0.6118
  178MPD1    H7 2775   4.729   3.576  17.405  0.8205  0.5962  0.4185
  179MPD1     C 2776   4.616   2.802  14.937 -0.4357  0.2982 -0.4749
  179MPD1    C1 2777   4.693   2.815  15.047  0.6901  0.0856  0.4415
  179MPD1    C2 2778   4.625   2.819  15.169 -0.0781  0.0521 -0.6522
  179MPD1    C3 2779   4.493   2.791  15.177  0.6415 -0.3461  0.3121
  179MPD1    C4 2780   4.422   2.753  15.068 -0.3233  0.1152  0.0290
  179MPD1    C5 2781   4.484   2.766  14.946 -0.4688  0.5821  0.2038
  179MPD1     H 2782   4.680   2.849  15.257 -2.0399  2.5734 -0.2721
  179MPD1    H1 2783   4.321   2.715  15.079 -1.2367  2.0623 -1.6187
  179MPD1    H2 2784   4.657   2.821  14.839  1.0373 -2.3756 -0.3845
  179MPD1    H3 2785   4.424   2.740  14.860  0.2599 -0.1105 -0.0936
  179MPD1     N 2786   4.423   2.798  15.298  0.5662 -0.5531  0.1278
  179MPD1    H5 2787   4.323   2.778  15.301  0.5430 -0.3947  0.3980
  179MPD1    N1 2788   0.085   2.869  15.045 -0.0777  0.0918  0.1333
  179MPD1    H6 2789   0.140   2.832  15.122 -1.0187 -2.1154 -0.2435
  179MPD1    H7 2790   0.129   2.840  14.958 -0.1960  1.1668 -0.2831
  180MPD1     C 2791   3.384   0.151  14.715 -0.4710  0.0559  0.3007
  180MPD1    C1 2792   3.356   0.221  14.599  0.1144 -0.0114 -0.3472
  180MPD1    C2 2793   3.448   0.207  14.503 -0.2413  0.2807 -0.4591
  180MPD1    C3 2794   3.555   0.108  14.505  0.1339 -1.3689  0.3581
  180MPD1    C4 2795   3.573   0.037  14.622 -0.7814 -0.0305  0.0471
  180MPD1    C5 2796   3.487   0.062  14.729  0.5130  1.2467 -0.6901
  180MPD1     H 2797   3.436   0.280  14.423  1.8791  2.2798  1.0386
  180MPD1    H1 2798   3.652   4.707  14.639 -0.6994  0.0914  0.1825
  180MPD1    H2 2799   3.322   0.156  14.804  1.4547  0.6684  1.6031
  180MPD1    H3 2800   3.482   0.004  14.820  0.5129 -0.8929 -2.0662
  180MPD1     N 2801   3.634   0.100  14.391 -0.5462  0.1188  0.0523
  180MPD1    H5 2802   3.598   0.143  14.307 -0.8744  2.1918  1.2512
  180MPD1    N1 2803   3.261   0.322  14.593 -0.1073  0.4451  0.2953
  180MPD1    H6 2804   3.238   0.363  14.503  0.1084  1.4076  0.6750
  180MPD1    H7 2805   3.178   0.301  14.649  1.0754 -0.5830  1.6720
  181MPD1     C 2806   4.491   1.642   9.942 -0.5360  0.3099  0.0612
  181MPD1    C1 2807   4.485   1.776   9.905  0.2158  0.5402  0.6613
  181MPD1    C2 2808   4.589   1.858   9.936 -0.0911 -0.6755 -0.2760
  181MPD1    C3 2809   4.701   1.806  10.002  0.4648 -0.8814  0.3353
  181MPD1    C4 2810   4.713   1.670  10.017  0.0845  0.1858  0.3329
  181MPD1    C5 2811   4.609   1.587   9.980 -0.7214  0.9875 -0.3268
  181MPD1     H 2812   4.579   1.960   9.901 -1.1491 -0.8453 -0.4738
  181MPD1    H1 2813   0.061   1.622  10.053  0.0311 -0.0653  0.1353
  181MPD1    H2 2814   4.403   1.586   9.914 -0.1896 -1.5972  2.7745
  181MPD1    H3 2815   4.614   1.482  10.004  0.2888  1.2446  0.5915
  181MPD1     N 2816   0.070   1.890  10.049  0.0651  0.2402  0.1089
  181MPD1    H5 2817   0.152   1.833  10.070 -0.8595 -0.8027  0.8613
  181MPD1    N1 2818   4.360   1.826   9.850  0.0715 -0.0783  0.2218
  181MPD1    H6 2819   4.398   1.908   9.802 -1.8145  1.4729  1.3752
  181MPD1    H7 2820   4.316   1.768   9.778  0.6451 -2.2661  1.6361
  182MPD1     C 2821   2.415   0.780   0.951  0.3214 -0.6165 -0.6422
  182MPD1    C1 2822   2.352   0.860   1.047 -0.2650 -0.0904  0.2317
  182MPD1    C2 2823   2.260   0.957   1.002  0.3473 -0.8173 -0.2544
  182MPD1    C3 2824   2.249   0.983   0.868 -0.0460 -0.1799 -0.6581
  182MPD1    C4 2825   2.326   0.912   0.778 -0.3047 -0.1736 -0.7380
  182MPD1    C5 2826   2.414   0.817   0.816  0.0304  0.5776 -0.1309
  182MPD1     H 2827   2.193   1.005   1.072  0.0149 -1.9341  0.2098
  182MPD1    H1 2828   2.321   0.927   0.671  2.5665  1.7083 -0.5816
  182MPD1    H2 2829   2.485   0.704   0.985  1.5058  0.9443  0.4242
  182MPD1    H3 2830   2.478   0.770   0.742  2.7256  0.9582  1.9571
  182MPD1     N 2831   2.164   1.079   0.811  0.2138  0.0937 -0.0724
  182MPD1    H5 2832   2.144   1.064   0.713  1.5756 -0.1708 -0.3120
  182MPD1    N1 2833   2.360   0.825   1.179 -0.0346  0.7096  0.3453
  182MPD1    H6 2834   2.353   0.902   1.246 -1.4828  1.4083 -0.6158
  182MPD1    H7 2835   2.440   0.770   1.211 -1.1954 -1.5112 -0.5915
  183MPD1     C 2836   1.869   2.017   9.273 -0.1610  0.9637  0.1978
  183MPD1    C1 2837   1.783   2.087   9.353 -0.1073 -0.3230 -0.3948
  183MPD1    C2 2838   1.701   2.019   9.447  0.6035 -0.2270  0.3672
  183MPD1    C3 2839   1.724   1.887   9.472 -0.2534  0.5125 -0.5187
  183MPD1    C4 2840   1.815   1.817   9.400  0.7710  0.1681 -0.1679
  183MPD1    C5 2841   1.877   1.878   9.294  0.3373  0.3046 -0.0030
  183MPD1     H 2842   1.631   2.071   9.513  0.9075 -0.4700  0.8761
  183MPD1    H1 2843   1.848   1.716   9.422 -2.5451 -0.8684  0.0648
  183MPD1    H2 2844   1.937   2.055   9.198  1.5147 -2.2910  0.0780
  183MPD1    H3 2845   1.948   1.822   9.234  0.2950 -0.3317  0.5457
  183MPD1     N 2846   1.670   1.823   9.585 -0.5044  0.3238 -0.0916
  183MPD1    H5 2847   1.618   1.882   9.649 -2.6986  0.2398 -1.8049
  183MPD1    N1 2848   1.749   2.217   9.321 -0.9010 -0.0437 -0.0557
  183MPD1    H6 2849   1.808   2.273   9.261  1.8426 -2.3769  0.4519
  183MPD1    H7 2850   1.714   2.271   9.400  1.3941 -1.0614  1.6748
  184MPD1     C 2851   1.127   3.771  10.037 -0.4922  0.7052  0.6347
  184MPD1    C1 2852   1.021   3.856  10.014  0.1671 -0.5373  0.1762
  184MPD1    C2 2853   1.001   3.915   9.887 -0.0425 -0.3831 -0.4668
  184MPD1    C3 2854   1.090   3.891   9.786  0.5674  0.3388  0.2721
  184MPD1    C4 2855   1.189   3.796   9.808 -0.1846 -0.1333 -0.5241
  184MPD1    C5 2856   1.210   3.748   9.932  0.5771 -0.5155  0.0677
  184MPD1     H 2857   0.913   3.976   9.877 -0.9166 -1.4357  0.8602
  184MPD1    H1 2858   1.261   3.780   9.729  0.6607 -0.1660  0.2507
  184MPD1    H2 2859   1.140   3.725  10.135  1.1000  0.0101  0.0977
  184MPD1    H3 2860   1.298   3.693   9.964  0.6399  0.0871  0.9335
  184MPD1     N 2861   1.085   3.958   9.662 -1.0115  0.6206 -0.2114
  184MPD1    H5 2862   1.160   3.933   9.598 -1.2610  0.7796 -0.5665
  184MPD1    N1 2863   0.942   3.889  10.130 -0.0023  0.3629 -0.4366
  184MPD1    H6 2864   0.923   3.819  10.201 -2.4429 -0.5634 -2.0360
  184MPD1    H7 2865   0.861   3.949  10.117  0.5711  0.9633 -1.2606
  185MPD1     C 2866   0.400   4.512   9.112  0.0293 -0.1373  0.1279
  185MPD1    C1 2867   0.506   4.487   9.035 -0.3774  0.5188 -0.3750
  185MPD1    C2 2868   0.619   4.438   9.105 -0.2176 -0.4504  0.0302
  185MPD1    C3 2869   0.617   4.398   9.240  0.2213 -0.0266 -0.1548
  185MPD1    C4 2870   0.500   4.410   9.304 -0.1897  0.5106 -0.2826
  185MPD1    C5 2871   0.398   4.464   9.242  0.6697 -0.1690  0.2362
  185MPD1     H 2872   0.706   4.413   9.045 -0.7401  1.5979 -1.5604
  185MPD1    H1 2873   0.501   4.391   9.411  0.3189 -3.1649 -0.9269
  185MPD1    H2 2874   0.307   4.553   9.072 -0.4597  0.7386  2.1392
  185MPD1    H3 2875   0.309   4.486   9.300  0.6794  1.1470 -0.2496
  185MPD1     N 2876   0.727   4.342   9.304  0.1869  0.1847  0.3326
  185MPD1    H5 2877   0.713   4.298   9.395 -0.3961 -2.8660 -1.2345
  185MPD1    N1 2878   0.519   4.545   8.913  0.2725 -0.0472  0.2014
  185MPD1    H6 2879   0.427   4.534   8.870 -0.4508 -0.6631  1.9070
  185MPD1    H7 2880   0.590   4.494   8.861  3.1664  2.8742  1.2941
  186MPD1     C 2881   0.102   2.732  15.794  0.6612  0.0796  0.0850
  186MPD1    C1 2882   0.172   2.843  15.764 -0.3670 -0.0415 -0.5400
  186MPD1    C2 2883   0.123   2.967  15.792  0.0208  0.3980 -0.1423
  186MPD1    C3 2884   0.006   2.975  15.865  0.0910  0.2960  0.8363
  186MPD1    C4 2885   4.689   2.866  15.915  0.9145 -0.1569  0.0872
  186MPD1    C5 2886   4.732   2.739  15.872 -0.0818 -0.0113 -0.2238
  186MPD1     H 2887   0.169   3.057  15.753  0.2313  0.4714  0.2788
  186MPD1    H1 2888   4.602   2.877  15.978 -0.3723 -0.0422 -1.7148
  186MPD1    H2 2889   0.126   2.633  15.757  1.3268 -0.2253  1.3220
  186MPD1    H3 2890   4.677   2.648  15.896  1.4811 -1.1795 -1.0632
  186MPD1     N 2891   4.685   3.101  15.897 -0.1982 -0.5336 -0.5864
  186MPD1    H5 2892   4.610   3.091  15.965 -2.2328 -0.5840 -2.8592
  186MPD1    N1 2893   0.267   2.837  15.669  0.3486  0.3195  0.4034
  186MPD1    H6 2894   0.318   2.751  15.688 -0.5617 -0.3959 -0.3670
  186MPD1    H7 2895   0.329   2.918  15.673  0.6091  0.1787 -0.5828
  187MPD1     C 2896   0.238   0.972  17.299  0.3663  0.4284  0.3368
  187MPD1    C1 2897   0.240   1.055  17.191 -0.3231 -0.6236 -0.3113
  187MPD1    C2 2898   0.130   1.050  17.115 -0.1169 -0.3023  0.7742
  187MPD1    C3 2899   0.020   0.971  17.149  0.2499 -0.2878  0.6126
  187MPD1    C4 2900   0.016   0.904  17.267  0.3970  0.8058  0.6074
  187MPD1    C5 2901   0.128   0.904  17.342 -0.3045 -0.1257  0.7523
  187MPD1     H 2902   0.128   1.114  17.027 -0.2300 -0.8485  0.3788
  187MPD1    H1 2903   4.674   0.846  17.304  0.3285 -1.2646 -2.8376
  187MPD1    H2 2904   0.326   0.968  17.362 -0.8876  0.8989  2.1227
  187MPD1    H3 2905   0.140   0.848  17.434 -0.8860 -1.1733  0.1830
  187MPD1     N 2906   4.651   0.956  17.065 -0.3674  0.6440 -0.0932
  187MPD1    H5 2907   4.563   0.920  17.101 -0.7796  2.0078  0.2948
  187MPD1    N1 2908   0.350   1.124  17.153  0.6027  0.3780 -0.1641
  187MPD1    H6 2909   0.400   1.170  17.229 -3.5572  1.3210  1.9865
  187MPD1    H7 2910   0.323   1.196  17.087 -1.2337  2.9264  3.3972
  188MPD1     C 2911   3.170   1.164  10.145 -1.0855  0.4564 -0.1604
  188MPD1    C1 2912   3.194   1.066  10.244 -0.0895  0.1401  0.1530
  188MPD1    C2 2913   3.246   0.946  10.199  0.0787 -0.1435 -0.2365
  188MPD1    C3 2914   3.254   0.913  10.064  0.4437  0.0210  0.0825
  188MPD1    C4 2915   3.207   1.008   9.973  0.1623 -0.4276 -0.5892
  188MPD1    C5 2916   3.175   1.130  10.011  0.2933 -1.0641 -0.3428
  188MPD1     H 2917   3.284   0.872  10.268  2.8049  1.5666  0.1017
  188MPD1    H1 2918   3.227   1.000   9.867  0.9665 -1.3249 -0.3770
  188MPD1    H2 2919   3.124   1.259  10.169 -2.9988 -0.2567 -0.9333
  188MPD1    H3 2920   3.163   1.202   9.931 -2.1513 -0.1397  0.8541
  188MPD1     N 2921   3.306   0.792  10.015 -0.2531 -0.4809  1.0779
  188MPD1    H5 2922   3.304   0.772   9.915 -0.1346 -0.6199  1.1023
  188MPD1    N1 2923   3.203   1.102  10.384  0.2824  0.1835  0.1827
  188MPD1    H6 2924   3.175   1.023  10.442 -0.8005  0.0799 -0.4899
  188MPD1    H7 2925   3.138   1.178  10.399 -0.4867 -0.3746 -0.3035
  189MPD1     C 2926   1.250   1.492   0.167  0.2814  0.6365 -0.8726
  189MPD1    C1 2927   1.182   1.434   0.062 -0.0554  0.1790 -0.0156
  189MPD1    C2 2928   1.118   1.515  17.743 -0.8560 -0.4000  0.5597
  189MPD1    C3 2929   1.133   1.653  17.744 -0.3166 -0.6269  0.6528
  189MPD1    C4 2930   1.208   1.705   0.082  0.2999 -0.2157 -0.6485
  189MPD1    C5 2931   1.257   1.629   0.184  0.0471 -0.6468  0.4172
  189MPD1     H 2932   1.044   1.478  17.673  0.5978 -1.8770 -0.2010
  189MPD1    H1 2933   1.231   1.811   0.084  1.9026 -0.6280  2.7016
  189MPD1    H2 2934   1.302   1.432   0.241 -0.2431  0.3564 -0.7299
  189MPD1    H3 2935   1.305   1.679   0.267  2.6480 -1.6081 -0.5131
  189MPD1     N 2936   1.063   1.727  17.647 -0.1859 -0.5380  0.3719
  189MPD1    H5 2937   0.997   1.673  17.591  0.2219 -1.2097  0.5457
  189MPD1    N1 2938   1.146   1.298   0.076 -0.3889 -0.0530  0.2079
  189MPD1    H6 2939   1.107   1.251  17.759  3.8548 -1.9609 -0.6994
  189MPD1    H7 2940   1.216   1.233   0.111 -0.3385 -1.3138 -2.2428
  190MPD1     C 2941   4.002   3.961  14.918  0.3217 -0.2863  0.2511
  190MPD1    C1 2942   4.110   3.985  14.837  0.0709  0.1021 -0.2543
  190MPD1    C2 2943   4.199   4.084  14.875  0.0587 -0.8232  1.0594
  190MPD1    C3 2944   4.194   4.137  15.007 -0.3635 -0.9480 -0.3142
  190MPD1    C4 2945   4.097   4.091  15.099  0.1303  0.2400 -0.1854
  190MPD1    C5 2946   3.990   4.017  15.047  0.4375  0.5974  0.6791
  190MPD1     H 2947   4.273   4.124  14.807 -2.5224 -0.0057 -1.2721
  190MPD1    H1 2948   4.095   4.124  15.202 -1.9275  0.3050 -0.2427
  190MPD1    H2 2949   3.924   3.891  14.893 -1.1188  1.1256  0.7937
  190MPD1    H3 2950   3.898   4.003  15.101  1.4539 -1.8482  1.7749
  190MPD1     N 2951   4.290   4.231  15.051  0.3610  0.2943  0.7032
  190MPD1    H5 2952   4.343   4.277  14.977 -0.9478 -1.0914 -1.1055
  190MPD1    N1 2953   4.111   3.925  14.713 -0.2034 -0.0514  0.1745
  190MPD1    H6 2954   4.069   3.833  14.715 -1.5014  0.4939 -2.1838
  190MPD1    H7 2955   4.200   3.918  14.664 -0.5324 -1.1559 -0.2453
  191MPD1     C 2956   3.575   0.838  12.630 -0.1842  0.1538 -0.4113
  191MPD1    C1 2957   3.555   0.926  12.528 -0.5500  0.0533  0.4766
  191MPD1    C2 2958   3.472   1.035  12.552  0.0055 -0.1721  0.5656
  191MPD1    C3 2959   3.408   1.054  12.675 -0.0692 -0.1971 -0.9693
  191MPD1    C4 2960   3.425   0.959  12.773 -0.9080  0.3883 -0.0017
  191MPD1    C5 2961   3.515   0.855  12.747 -0.4692 -0.0107 -0.0318
  191MPD1     H 2962   3.446   1.105  12.474 -1.8393 -0.9017  0.5212
  191MPD1    H1 2963   3.381   0.967  12.871  1.0706  0.0816  0.9044
  191MPD1    H2 2964   3.646   0.755  12.627  0.0337  0.2941  0.7357
  191MPD1    H3 2965   3.538   0.791  12.832 -1.5199 -3.0276 -2.0175
  191MPD1     N 2966   3.332   1.171  12.695 -0.2048 -0.2743 -0.4468
  191MPD1    H5 2967   3.335   1.242  12.623  0.0973 -2.0105 -2.1721
  191MPD1    N1 2968   3.622   0.914  12.407 -1.0690  0.5288 -0.1456
  191MPD1    H6 2969   3.568   0.940  12.325 -2.4179 -0.0631  0.5520
  191MPD1    H7 2970   3.655   0.820  12.387 -1.5380 -0.0260  1.6606
  192MPD1     C 2971   2.454   1.358  13.127  0.4678  0.5690 -0.5845
  192MPD1    C1 2972   2.478   1.470  13.050  0.4877 -0.1522 -0.2076
  192MPD1    C2 2973   2.605   1.501  13.017  0.9701  0.3179  0.5290
  192MPD1    C3 2974   2.711   1.407  13.043 -0.3921 -0.0533 -0.5319
  192MPD1    C4 2975   2.684   1.294  13.108 -0.2805 -0.2451 -1.2518
  192MPD1    C5 2976   2.556   1.265  13.156 -0.5203  0.9508 -0.2589
  192MPD1     H 2977   2.626   1.605  12.993  0.4522  0.3199  0.0996
  192MPD1    H1 2978   2.766   1.226  13.126  0.3667  0.0986 -2.9096
  192MPD1    H2 2979   2.354   1.343  13.166  0.2898 -0.8225 -1.5835
  192MPD1    H3 2980   2.537   1.175  13.213  0.5206  1.0022  0.1596
  192MPD1     N 2981   2.852   1.431  13.006  0.3070  0.0210 -0.5219
  192MPD1    H5 2982   2.911   1.354  13.037  0.5595 -0.1226 -1.3567
  192MPD1    N1 2983   2.386   1.571  13.041 -0.0054 -0.0651 -0.0670
  192MPD1    H6 2984   2.293   1.532  13.053 -0.9620  2.5251  1.0593
  192MPD1    H7 2985   2.381   1.627  12.956 -1.8860 -1.5983 -0.9483
  193MPD1     C 2986   3.008   1.421  15.971 -0.6044 -1.1705  0.1063
  193MPD1    C1 2987   2.977   1.554  15.960 -0.5173 -0.6869 -0.2913
  193MPD1    C2 2988   3.068   1.653  15.987  0.5041 -0.2168  0.0721
  193MPD1    C3 2989   3.187   1.619  16.055  0.4358 -1.0292 -0.4352
  193MPD1    C4 2990   3.213   1.488  16.077 -0.0620 -0.2374  0.0178
  193MPD1    C5 2991   3.126   1.385  16.024 -0.6019 -0.0815 -0.1338
  193MPD1     H 2992   3.041   1.756  15.969  0.5692 -0.0864  0.7590
  193MPD1    H1 2993   3.301   1.452  16.130 -0.7870 -1.0802  0.6668
  193MPD1    H2 2994   2.937   1.343  15.944 -0.1960 -1.7650  0.7566
  193MPD1    H3 2995   3.155   1.281  16.031 -0.2445  0.1443  1.5417
  193MPD1     N 2996   3.273   1.711  16.111  0.0229  0.1549 -0.2362
  193MPD1    H5 2997   3.352   1.672  16.162  0.3800  2.5383  1.0404
  193MPD1    N1 2998   2.861   1.584  15.896 -0.4219 -0.4485 -0.2971
  193MPD1    H6 2999   2.817   1.670  15.929  2.3982  0.8914 -0.0277
  193MPD1    H7 3000   2.804   1.502  15.914  0.7753 -0.7912  1.9129
  194MPD1     C 3001   1.432   3.496  17.187  1.0105  0.0808  0.2229
  194MPD1    C1 3002   1.464   3.539  17.057  0.1108 -0.0556  0.4433
  194MPD1    C2 3003   1.595   3.538  17.020  1.0578 -0.1715 -0.5644
  194MPD1    C3 3004   1.688   3.477  17.103 -0.5615 -0.1377 -0.0487
  194MPD1    C4 3005   1.653   3.416  17.221  0.0579 -0.8578  0.5470
  194MPD1    C5 3006   1.520   3.426  17.265  0.2956 -0.1792  0.4585
  194MPD1     H 3007   1.627   3.572  16.922  1.6511  1.1565  0.0976
  194MPD1    H1 3008   1.725   3.380  17.294  0.4560 -0.3038  0.4209
  194MPD1    H2 3009   1.331   3.503  17.224  0.2733  1.0496 -2.0163
  194MPD1    H3 3010   1.480   3.399  17.362 -2.0754  1.0353 -0.1831
  194MPD1     N 3011   1.825   3.462  17.072 -0.6609  0.2147  0.5423
  194MPD1    H5 3012   1.879   3.406  17.137 -0.1832 -0.6029 -0.5643
  194MPD1    N1 3013   1.377   3.613  16.982 -0.2754  0.0661  0.3556
  194MPD1    H6 3014   1.394   3.630  16.883  0.1618 -1.3405  0.1935
  194MPD1    H7 3015   1.279   3.591  16.996 -0.5384  0.0741 -1.4622
  195MPD1     C 3016   3.429   1.294   0.003 -0.1986  0.9753 -1.1957
  195MPD1    C1 3017   3.413   1.238  17.640  0.0029  0.0502  0.6742
  195MPD1    C2 3018   3.510   1.161  17.595  0.1908  0.1387 -0.3789
  195MPD1    C3 3019   3.624   1.143  17.675 -0.3305 -0.1006  0.1344
  195MPD1    C4 3020   3.655   1.212   0.025  0.0086  0.5168  0.3548
  195MPD1    C5 3021   3.552   1.289   0.068 -0.3096  0.3681 -1.3386
  195MPD1     H 3022   3.494   1.113  17.499 -1.5948  0.0973 -0.0624
  195MPD1    H1 3023   3.745   1.194   0.083  0.9258  0.5998 -1.0481
  195MPD1    H2 3024   3.349   1.359   0.037 -2.2283 -2.8307  1.3379
  195MPD1    H3 3025   3.559   1.354   0.155  0.1152 -0.3924 -0.8125
  195MPD1     N 3026   3.730   1.055  17.640  0.2198  0.2535 -0.5743
  195MPD1    H5 3027   3.805   1.045  17.708  1.0915 -3.8180 -2.2057
  195MPD1    N1 3028   3.289   1.229  17.576 -0.0182 -0.6023 -0.6667
  195MPD1    H6 3029   3.240   1.315  17.597 -1.3367 -1.1021 -1.7521
  195MPD1    H7 3030   3.306   1.221  17.475  3.7775  0.5846 -0.1346
  196MPD1     C 3031   2.644   0.591   0.045  0.5342 -0.6990  0.0416
  196MPD1    C1 3032   2.557   0.559   0.151 -0.7558  0.2512 -0.3229
  196MPD1    C2 3033   2.587   0.622   0.275  0.0807  0.6555 -0.1255
  196MPD1    C3 3034   2.704   0.706   0.288  0.3072  0.1124  0.2262
  196MPD1    C4 3035   2.784   0.721   0.184  0.4313 -0.5079  0.2697
  196MPD1    C5 3036   2.761   0.659   0.064  0.6104  0.2680  0.1393
  196MPD1     H 3037   2.512   0.615   0.353  1.3682 -0.9210  0.9682
  196MPD1    H1 3038   2.870   0.787   0.195  0.6616 -1.0773  1.8911
  196MPD1    H2 3039   2.617   0.555  17.712  2.2086 -2.0275  0.0663
  196MPD1    H3 3040   2.835   0.659  17.750 -0.1903 -2.4228 -0.6252
  196MPD1     N 3041   2.745   0.760   0.410  0.2232 -0.2539  0.3288
  196MPD1    H5 3042   2.817   0.831   0.418 -1.5144  1.3651  1.8560
  196MPD1    N1 3043   2.445   0.476   0.140 -0.0889 -0.3007 -0.5925
  196MPD1    H6 3044   2.415   0.474   0.043 -2.2490 -1.5031  0.0868
  196MPD1    H7 3045   2.372   0.474   0.212 -1.8392  1.8515 -2.3339
  197MPD1     C 3046   2.059   1.932  17.378  0.3349 -0.1039  0.1511
  197MPD1    C1 3047   2.183   1.975  17.417 -0.6994 -0.2400 -0.1980
  197MPD1    C2 3048   2.263   2.040  17.325  0.0136 -0.3060 -0.1530
  197MPD1    C3 3049   2.215   2.063  17.196  0.3568  0.0789 -0.2797
  197MPD1    C4 3050   2.098   2.003  17.160 -0.3096 -0.1159  0.2565
  197MPD1    C5 3051   2.018   1.943  17.252 -0.1685  0.3567 -0.2057
  197MPD1     H 3052   2.357   2.087  17.354 -0.8896 -0.9767  3.8402
  197MPD1    H1 3053   2.070   2.013  17.056 -2.3223  1.9556  0.9864
  197MPD1    H2 3054   1.989   1.877  17.441  0.2605  0.2008  0.3360
  197MPD1    H3 3055   1.924   1.898  17.221 -1.6223  2.7002  0.8260
  197MPD1     N 3056   2.297   2.126  17.098 -0.7707 -0.0904 -0.6638
  197MPD1    H5 3057   2.278   2.130  16.998  0.2205  0.9792 -0.8136
  197MPD1    N1 3058   2.216   1.972  17.555  0.2288  0.2774 -0.5718
  197MPD1    H6 3059   2.165   1.907  17.613 -0.4939 -0.1551 -1.6811
  197MPD1    H7 3060   2.315   1.949  17.570 -0.1571 -0.0101  1.4486
  198MPD1     C 3061   4.117   0.649  14.696  0.3840 -0.4452 -0.0727
  198MPD1    C1 3062   4.233   0.711  14.728 -0.1410  0.1139  0.0788
  198MPD1    C2 3063   4.259   0.763  14.847 -0.3239 -0.0964 -0.2482
  198MPD1    C3 3064   4.175   0.735  14.956 -0.1626 -0.5557 -0.2583
  198MPD1    C4 3065   4.061   0.661  14.923  0.4200 -0.0174  0.6969
  198MPD1    C5 3066   4.028   0.622  14.795 -0.0448 -0.0243 -0.3318
  198MPD1     H 3067   4.351   0.815  14.871 -0.6703  0.0906  0.6777
  198MPD1    H1 3068   3.985   0.649  14.999 -0.8190  1.4051 -0.2892
  198MPD1    H2 3069   4.094   0.612  14.597  3.9370 -0.6381 -0.8067
  198MPD1    H3 3070   3.935   0.572  14.771 -0.0492  0.8046 -2.0584
  198MPD1     N 3071   4.214   0.781  15.082  0.3695  0.3389 -0.4793
  198MPD1    H5 3072   4.304   0.827  15.093  1.0819 -1.6501  2.1051
  198MPD1    N1 3073   4.324   0.741  14.628  0.3718 -0.0642 -0.4814
  198MPD1    H6 3074   4.420   0.748  14.661  0.6056  0.3446 -1.2605
  198MPD1    H7 3075   4.316   0.674  14.552 -0.4118 -0.7096  0.1582
  199MPD1     C 3076   0.213   1.668   9.260  0.4699 -0.2577  0.0975
  199MPD1    C1 3077   0.354   1.666   9.273  0.3692 -0.3779 -0.1581
  199MPD1    C2 3078   0.413   1.790   9.293  0.2252  0.3406  0.1906
  199MPD1    C3 3079   0.337   1.907   9.318 -0.0923  0.0006  0.4026
  199MPD1    C4 3080   0.198   1.898   9.315  0.3877  0.0201  0.0441
  199MPD1    C5 3081   0.138   1.778   9.284 -0.1121 -0.8570 -0.0187
  199MPD1     H 3082   0.521   1.792   9.299  0.1423 -1.9242  2.2605
  199MPD1    H1 3083   0.129   1.978   9.336  0.4882  0.0323  0.3279
  199MPD1    H2 3084   0.154   1.579   9.242 -0.3246  0.4615 -0.7940
  199MPD1    H3 3085   0.033   1.763   9.265 -0.3815  1.7593 -0.5885
  199MPD1     N 3086   0.385   2.024   9.367  0.5151 -0.0163  0.1056
  199MPD1    H5 3087   0.312   2.092   9.384  1.0509  0.9295 -1.3374
  199MPD1    N1 3088   0.433   1.552   9.262 -0.4864 -0.5458  0.1466
  199MPD1    H6 3089   0.528   1.545   9.299 -1.0050 -2.0466  1.1573
  199MPD1    H7 3090   0.379   1.468   9.280 -0.0240 -0.8360  0.1742
  200MPD1     C 3091   0.025   1.821  14.767 -0.3038  0.0086  0.1577
  200MPD1    C1 3092   0.049   1.789  14.637 -1.0183  0.2670  0.3631
  200MPD1    C2 3093   0.182   1.816  14.588  0.0374  0.0994 -0.0925
  200MPD1    C3 3094   0.271   1.881  14.669 -0.0185  0.2884  0.2231
  200MPD1    C4 3095   0.242   1.919  14.793  0.8627  0.3673 -0.2209
  200MPD1    C5 3096   0.121   1.881  14.850 -0.0047 -0.6203  0.8671
  200MPD1     H 3097   0.221   1.782  14.493  0.4180  0.0446  0.0851
  200MPD1    H1 3098   0.300   1.981  14.860  0.7421  0.6629 -0.3920
  200MPD1    H2 3099   4.667   1.817  14.809  0.7258 -0.4605  2.5918
  200MPD1    H3 3100   0.104   1.933  14.944  1.8972 -2.4986  2.2497
  200MPD1     N 3101   0.398   1.899  14.614 -0.2348 -0.2270 -0.1461
  200MPD1    H5 3102   0.415   1.859  14.522 -1.2828  4.2615 -2.3169
  200MPD1    N1 3103   4.686   1.743  14.548  0.3045  0.2902 -0.1809
  200MPD1    H6 3104   4.613   1.692  14.599  2.1166 -2.3620 -0.2922
  200MPD1    H7 3105   4.724   1.682  14.477 -1.1195  0.3138 -0.9736
  201MPD1     C 3106   2.484   1.491  13.490 -0.0805  0.3710  0.6255
  201MPD1    C1 3107   2.621   1.503  13.475  0.4010  0.0782  0.5101
  201MPD1    C2 3108   2.697   1.384  13.481  0.1542  0.3064 -0.8460
  201MPD1    C3 3109   2.633   1.266  13.495 -0.0943 -0.0683 -0.2754
  201MPD1    C4 3110   2.491   1.253  13.501  0.5697 -0.0468  0.2147
  201MPD1    C5 3111   2.420   1.365  13.493  0.1176 -0.0234 -0.5902
  201MPD1     H 3112   2.804   1.385  13.467  0.3663  0.7177  0.8850
  201MPD1    H1 3113   2.441   1.157  13.504  1.3681 -0.4434  0.6524
  201MPD1    H2 3114   2.419   1.576  13.479  0.1998  0.4648 -0.2558
  201MPD1    H3 3115   2.312   1.369  13.499  0.1264  1.6501 -1.6035
  201MPD1     N 3116   2.706   1.145  13.478 -0.0067  0.2719 -0.2251
  201MPD1    H5 3117   2.805   1.154  13.497  0.1823  0.8400 -1.4485
  201MPD1    N1 3118   2.690   1.627  13.463  0.3557 -0.6509  0.1345
  201MPD1    H6 3119   2.769   1.617  13.400  2.4994  0.7977  2.5978
  201MPD1    H7 3120   2.628   1.696  13.421  1.4498  0.3761  0.2299
  202MPD1     C 3121   2.006   0.614   9.043  0.2017  0.2222 -0.0978
  202MPD1    C1 3122   1.953   0.727   9.106  0.1595 -0.4005  0.1513
  202MPD1    C2 3123   1.985   0.736   9.241 -0.0311  0.5149 -0.2792
  202MPD1    C3 3124   2.043   0.631   9.317  0.2304  0.3996  0.2348
  202MPD1    C4 3125   2.075   0.517   9.245 -0.7324 -0.3075  0.5416
  202MPD1    C5 3126   2.053   0.509   9.112  0.0773 -0.0818 -0.2712
  202MPD1     H 3127   1.963   0.824   9.301 -0.5076  0.1500  0.0862
  202MPD1    H1 3128   2.118   0.434   9.300  0.4069 -1.3975 -2.0122
  202MPD1    H2 3129   2.021   0.598   8.937  0.8481  2.2812 -0.3276
  202MPD1    H3 3130   2.069   0.423   9.049 -0.7464  0.2180 -0.8988
  202MPD1     N 3131   2.071   0.639   9.458  0.0643  0.2828 -0.1996
  202MPD1    H5 3132   2.116   0.557   9.498  0.0953 -0.1022 -1.0206
  202MPD1    N1 3133   1.925   0.846   9.041  0.1924 -0.1832 -0.3102
  202MPD1    H6 3134   1.863   0.907   9.094  0.5496 -1.5912  1.7330
  202MPD1    H7 3135   1.885   0.828   8.949 -1.1951 -0.4371  0.3465
  203MPD1     C 3136   0.911   1.231  13.078  0.5742 -0.0697  0.7121
  203MPD1    C1 3137   1.024   1.195  13.158  1.4467  0.2899  0.0350
  203MPD1    C2 3138   1.130   1.135  13.091 -0.3876 -0.5957  0.4872
  203MPD1    C3 3139   1.128   1.117  12.953  0.4617  0.1282  0.2904
  203MPD1    C4 3140   1.011   1.141  12.881  0.0978  0.2697  0.1339
  203MPD1    C5 3141   0.904   1.202  12.944  0.4252  0.1705 -0.4151
  203MPD1     H 3142   1.203   1.089  13.156  0.8572  2.4175  1.2276
  203MPD1    H1 3143   0.998   1.123  12.775 -1.7927  1.3042  0.1834
  203MPD1    H2 3144   0.824   1.284  13.118  0.7956  3.0705 -2.9333
  203MPD1    H3 3145   0.817   1.228  12.885  0.9146  1.9534 -0.3608
  203MPD1     N 3146   1.241   1.060  12.891 -0.4609  0.2348 -0.4009
  203MPD1    H5 3147   1.326   1.060  12.946  0.2243 -1.8101 -1.4403
  203MPD1    N1 3148   1.053   1.248  13.285 -0.3583 -1.0729  0.0044
  203MPD1    H6 3149   0.968   1.260  13.340  0.2888 -1.1680  1.0214
  203MPD1    H7 3150   1.118   1.200  13.346 -0.6418  0.0112  1.1571
  204MPD1     C 3151   2.047   2.618  17.657  0.1199 -0.9707 -0.0947
  204MPD1    C1 3152   2.023   2.637  17.523 -0.3162 -0.7560 -0.0124
  204MPD1    C2 3153   1.905   2.605  17.461  0.1398  0.1815  0.3475
  204MPD1    C3 3154   1.810   2.536  17.527  0.7361 -0.5015 -0.4442
  204MPD1    C4 3155   1.829   2.509  17.656  0.6452 -0.0084 -0.3749
  204MPD1    C5 3156   1.947   2.550  17.720 -0.3689  0.1285  1.0159
  204MPD1     H 3157   1.891   2.634  17.358  2.0187 -0.3051 -0.0376
  204MPD1    H1 3158   1.766   2.447  17.719  0.7180  0.6068  0.3106
  204MPD1    H2 3159   2.139   2.654  17.703 -0.0240 -1.8605  0.8831
  204MPD1    H3 3160   1.965   2.521   0.057  0.8299 -0.7275  0.5744
  204MPD1     N 3161   1.693   2.501  17.456  0.0226 -0.0799 -0.6547
  204MPD1    H5 3162   1.692   2.532  17.359 -0.0154  0.3587 -0.5149
  204MPD1    N1 3163   2.117   2.720  17.457  1.1139 -0.6171 -0.3378
  204MPD1    H6 3164   2.215   2.699  17.473  0.7286 -0.7204  1.8129
  204MPD1    H7 3165   2.109   2.706  17.356  0.5713 -2.1024 -0.0900
  205MPD1     C 3166   0.634   1.358  16.618 -0.2141  0.6780 -0.3020
  205MPD1    C1 3167   0.569   1.294  16.721  0.5399  0.4108  0.1312
  205MPD1    C2 3168   0.623   1.293  16.848 -0.3228 -0.1131 -0.3398
  205MPD1    C3 3169   0.758   1.341  16.865  0.0328  0.2716  0.2211
  205MPD1    C4 3170   0.824   1.394  16.759  0.2996 -0.9646 -0.4962
  205MPD1    C5 3171   0.754   1.414  16.639 -0.0503 -0.1321  0.3275
  205MPD1     H 3172   0.569   1.259  16.936 -0.4972  1.6672  0.2342
  205MPD1    H1 3173   0.927   1.429  16.765 -0.3660  0.8625  0.3780
  205MPD1    H2 3174   0.590   1.354  16.519 -1.0486  0.6580  0.0730
  205MPD1    H3 3175   0.786   1.473  16.554 -0.2328 -1.2587 -0.5102
  205MPD1     N 3176   0.832   1.336  16.984 -0.2324  0.2985  1.0662
  205MPD1    H5 3177   0.923   1.382  16.988  0.0855 -0.5540  3.6158
  205MPD1    N1 3178   0.436   1.254  16.697 -0.4677  0.5843 -0.0663
  205MPD1    H6 3179   0.424   1.209  16.606 -0.5824  1.2552 -0.3848
  205MPD1    H7 3180   0.396   1.185  16.760  1.0879  0.8496  1.1993
  206MPD1     C 3181   1.016   4.399  17.399 -0.1577  0.3931  0.1366
  206MPD1    C1 3182   1.064   4.279  17.353  0.1964 -0.0387  0.0371
  206MPD1    C2 3183   1.098   4.266  17.219 -0.7482 -0.0352 -0.0786
  206MPD1    C3 3184   1.053   4.363  17.130  0.0310  0.0016  0.3983
  206MPD1    C4 3185   0.999   4.481  17.182 -0.3284  0.3924 -0.6245
  206MPD1    C5 3186   0.978   4.502  17.315  0.0709  0.1425 -0.2305
  206MPD1     H 3187   1.142   4.176  17.178  0.0796  0.3474 -0.0279
  206MPD1    H1 3188   0.968   4.553  17.107  0.7432  1.9151  0.3808
  206MPD1    H2 3189   1.011   4.423  17.505  2.2525 -0.0769  0.3541
  206MPD1    H3 3190   0.926   4.588  17.353 -2.3398 -1.8546  0.9887
  206MPD1     N 3191   1.069   4.351  16.988  0.1662 -0.1173  0.2283
  206MPD1    H5 3192   1.041   4.425  16.924 -0.7944  0.2234  1.0332
  206MPD1    N1 3193   1.114   4.185  17.439  0.3789 -0.2736  0.4149
  206MPD1    H6 3194   1.064   4.189  17.528 -1.0325 -0.2580 -0.3691
  206MPD1    H7 3195   1.108   4.091  17.400 -1.4109 -0.5392  1.3191
  207MPD1     C 3196   3.097   1.730   9.617 -0.3605  1.0957  0.6268
  207MPD1    C1 3197   3.078   1.722   9.751 -0.5196  0.3675 -1.0678
  207MPD1    C2 3198   3.182   1.760   9.839 -0.1037 -0.1440  0.4012
  207MPD1    C3 3199   3.306   1.805   9.789  1.2212  0.3899 -0.4984
  207MPD1    C4 3200   3.323   1.813   9.658 -0.0357 -0.1775 -0.3332
  207MPD1    C5 3201   3.218   1.776   9.575  0.1250  0.2901 -0.1981
  207MPD1     H 3202   3.156   1.761   9.944  1.9463  2.3737  0.8778
  207MPD1    H1 3203   3.405   1.865   9.610  0.1977 -0.9677 -0.8022
  207MPD1    H2 3204   3.018   1.709   9.546 -0.6358  0.3380  1.1596
  207MPD1    H3 3205   3.232   1.787   9.468  0.6766 -2.8289 -0.4531
  207MPD1     N 3206   3.414   1.835   9.871 -0.2497 -0.3114  0.1673
  207MPD1    H5 3207   3.501   1.866   9.827  0.4291 -0.6074  1.2986
  207MPD1    N1 3208   2.954   1.687   9.805 -0.1145  0.0529  0.0231
  207MPD1    H6 3209   2.967   1.628   9.888  0.8038  2.8876  1.9122
  207MPD1    H7 3210   2.904   1.627   9.740 -0.7275 -0.3171  0.8352
  208MPD1     C 3211   2.342   0.508  17.009 -0.3234  0.1542 -0.0228
  208MPD1    C1 3212   2.257   0.415  17.052  0.3486  0.4668  1.1968
  208MPD1    C2 3213   2.175   0.452  17.155 -0.1141  0.3449 -0.6599
  208MPD1    C3 3214   2.180   0.574  17.221  0.2479  0.0394  0.1490
  208MPD1    C4 3215   2.286   0.661  17.188  0.0756 -0.1672  0.2221
  208MPD1    C5 3216   2.360   0.625  17.077  0.4297 -0.2159  0.0358
  208MPD1     H 3217   2.104   0.377  17.188 -1.1416  1.0912 -1.1828
  208MPD1    H1 3218   2.293   0.763  17.223 -0.4372  0.1923 -0.6943
  208MPD1    H2 3219   2.387   0.506  16.910 -1.8062 -2.7940 -0.6353
  208MPD1    H3 3220   2.422   0.701  17.031 -0.9070  0.8069 -0.0565
  208MPD1     N 3221   2.078   0.607  17.324  0.3102 -0.2169 -0.0180
  208MPD1    H5 3222   2.007   0.535  17.337 -0.4703  0.2195 -1.7890
  208MPD1    N1 3223   2.239   0.286  16.988 -0.0001  0.2549  0.4409
  208MPD1    H6 3224   2.262   0.211  17.052  0.8045  0.4379  0.3593
  208MPD1    H7 3225   2.300   0.274  16.907 -1.2648  0.2921 -0.5197
  209MPD1     C 3226   3.915   1.562  11.859  0.3000 -0.9765 -0.1883
  209MPD1    C1 3227   3.937   1.696  11.864 -0.1373  0.4399 -0.2443
  209MPD1    C2 3228   3.935   1.769  11.748 -0.0345  0.1629 -0.3779
  209MPD1    C3 3229   3.924   1.714  11.620  0.3098  0.1442 -0.0944
  209MPD1    C4 3230   3.921   1.578  11.616  0.4887  0.4803  0.2401
  209MPD1    C5 3231   3.922   1.506  11.734  0.1244 -0.0586 -0.5329
  209MPD1     H 3232   3.947   1.876  11.758 -2.1921  0.5223 -1.5685
  209MPD1    H1 3233   3.909   1.520  11.525 -0.0242  1.6277 -0.4155
  209MPD1    H2 3234   3.909   1.502  11.950 -1.4947  1.0570  1.0293
  209MPD1    H3 3235   3.922   1.397  11.728  2.0672 -0.1689  1.5543
  209MPD1     N 3236   3.914   1.801  11.509  0.2987  0.1932 -0.1521
  209MPD1    H5 3237   3.915   1.899  11.535  0.2549 -0.4476  2.2494
  209MPD1    N1 3238   3.943   1.766  11.988 -0.6379 -0.4062 -0.3276
  209MPD1    H6 3239   3.977   1.708  12.065  0.1369 -1.7189 -1.6565
  209MPD1    H7 3240   4.004   1.847  11.981 -0.5428 -0.6294 -2.0252
  210MPD1     C 3241   3.856   2.739  11.217 -0.4619  0.2663  0.7058
  210MPD1    C1 3242   3.868   2.665  11.335 -0.2429 -0.1880 -0.5305
  210MPD1    C2 3243   3.887   2.529  11.324 -0.4479 -0.4349 -0.1759
  210MPD1    C3 3244   3.873   2.462  11.203 -0.0362 -0.3050 -0.2693
  210MPD1    C4 3245   3.855   2.542  11.087  0.1355 -0.2036  0.2341
  210MPD1    C5 3246   3.843   2.679  11.091 -0.0676  0.5113 -0.1899
  210MPD1     H 3247   3.913   2.472  11.412 -3.5358 -0.7875  0.5035
  210MPD1    H1 3248   3.826   2.502  10.991  2.7848  1.2289 -1.1785
  210MPD1    H2 3249   3.852   2.848  11.217  1.0224  0.3087 -1.0951
  210MPD1    H3 3250   3.824   2.745  11.007 -2.6011  0.3824  0.2935
  210MPD1     N 3251   3.862   2.325  11.190 -0.1676 -0.4952  0.6745
  210MPD1    H5 3252   3.834   2.286  11.101 -0.1370  2.0402 -0.4388
  210MPD1    N1 3253   3.888   2.716  11.467 -0.0394  0.2729 -0.6543
  210MPD1    H6 3254   3.851   2.807  11.495 -0.1155 -0.2543  1.0150
  210MPD1    H7 3255   3.853   2.656  11.541 -1.1371  1.3189 -0.3174
  211MPD1     C 3256   1.894   0.742  16.484 -0.0203 -0.5646  0.6457
  211MPD1    C1 3257   1.861   0.832  16.576 -0.6511  0.2691 -0.1110
  211MPD1    C2 3258   1.757   0.922  16.551 -0.1884 -0.0647 -0.4444
  211MPD1    C3 3259   1.675   0.895  16.444  0.4809  0.2862 -0.4447
  211MPD1    C4 3260   1.694   0.786  16.360 -1.1587 -0.2536 -0.4653
  211MPD1    C5 3261   1.810   0.720  16.372 -0.1240  0.6158 -0.3288
  211MPD1     H 3262   1.749   1.021  16.596 -0.7977  0.5301 -1.8795
  211MPD1    H1 3263   1.637   0.768  16.270  1.3593 -1.0835 -1.8967
  211MPD1    H2 3264   1.969   0.664  16.492  0.6070 -0.2348 -2.0351
  211MPD1    H3 3265   1.849   0.649  16.299 -0.1453 -0.1354  0.3917
  211MPD1     N 3266   1.567   0.986  16.425  0.2347 -0.1950 -0.0305
  211MPD1    H5 3267   1.551   1.055  16.498 -3.5872 -0.2966 -0.7730
  211MPD1    N1 3268   1.951   0.847  16.680 -0.3336  0.3740 -0.1287
  211MPD1    H6 3269   1.996   0.766  16.723 -2.2439 -1.9971 -2.5622
  211MPD1    H7 3270   1.917   0.904  16.757 -0.9889 -0.7812  0.4425
  212MPD1     C 3271   0.636   4.333  16.290  0.2913  0.2999  0.1866
  212MPD1    C1 3272   0.636   4.349  16.427  0.0944  0.0298 -0.1791
  212MPD1    C2 3273   0.597   4.248  16.510  0.5359 -0.2068 -0.1335
  212MPD1    C3 3274   0.545   4.133  16.452  0.3863  0.1976 -0.2719
  212MPD1    C4 3275   0.544   4.119  16.314  0.2147  0.1521 -0.5561
  212MPD1    C5 3276   0.583   4.221  16.228 -0.3284  0.1304  0.1287
  212MPD1     H 3277   0.612   4.259  16.617 -0.8142  1.7606 -0.1522
  212MPD1    H1 3278   0.495   4.028  16.280 -1.3066  1.1187 -0.9361
  212MPD1    H2 3279   0.680   4.408  16.224 -1.6273 -0.0655 -1.5016
  212MPD1    H3 3280   0.577   4.204  16.122  0.0649 -1.1502  0.3130
  212MPD1     N 3281   0.505   4.029  16.539 -0.5477  0.1539  0.0635
  212MPD1    H5 3282   0.483   3.942  16.492 -1.5894  1.3478 -1.6352
  212MPD1    N1 3283   0.712   4.462  16.470 -0.6098  0.0098  0.9614
  212MPD1    H6 3284   0.692   4.533  16.400  1.2563  2.2665  2.6820
  212MPD1    H7 3285   0.687   4.497  16.562 -2.7998 -0.0700  0.4021
  213MPD1     C 3286   4.671   0.435  14.869 -0.2965 -0.0449  0.2670
  213MPD1    C1 3287   4.681   0.409  15.003 -0.1854  0.0727 -0.2426
  213MPD1    C2 3288   4.574   0.349  15.065 -0.3678 -0.0670  0.4610
  213MPD1    C3 3289   4.448   0.351  15.018 -0.4862  0.3909 -0.6465
  213MPD1    C4 3290   4.433   0.412  14.890  1.1318  0.6993 -0.6254
  213MPD1    C5 3291   4.546   0.455  14.819  0.1771 -0.5607  0.2175
  213MPD1     H 3292   4.591   0.303  15.162  0.6261  0.3695  0.4956
  213MPD1    H1 3293   4.331   0.415  14.853  1.5573 -1.3637 -1.9983
  213MPD1    H2 3294   0.010   0.462  14.802 -1.6911  0.9480 -1.0412
  213MPD1    H3 3295   4.525   0.490  14.719 -1.0713  0.6892  0.8971
  213MPD1     N 3296   4.333   0.298  15.083  0.1942 -0.3969 -0.4296
  213MPD1    H5 3297   4.247   0.308  15.028 -0.3146  0.4165  0.5178
  213MPD1    N1 3298   0.070   0.394  15.054  0.2682  0.5295 -0.4239
  213MPD1    H6 3299   0.074   0.395  15.156  0.7764  0.2862 -0.4444
  213MPD1    H7 3300   0.129   0.460  15.003 -0.8674  1.9186  0.0392
  214MPD1     C 3301   4.041   4.158  15.616 -0.0583  0.3354  0.3080
  214MPD1    C1 3302   4.100   4.263  15.682  0.3551 -0.4815  0.7858
  214MPD1    C2 3303   4.106   4.387  15.618 -0.4785 -0.1029  0.5027
  214MPD1    C3 3304   4.029   4.401  15.499 -1.0543  0.3045  0.1825
  214MPD1    C4 3305   3.960   4.298  15.444 -0.2760 -0.0174  1.2302
  214MPD1    C5 3306   3.963   4.175  15.505  0.3200  0.2693 -0.7282
  214MPD1     H 3307   4.184   4.454  15.654  0.7015 -2.4961  2.4051
  214MPD1    H1 3308   3.912   4.316  15.349 -0.0545  1.4046  1.3936
  214MPD1    H2 3309   4.046   4.057  15.656 -0.1474  0.6427  1.0908
  214MPD1    H3 3310   3.923   4.086  15.458 -2.7690 -1.1661  4.7113
  214MPD1     N 3311   4.031   4.522  15.424  0.4043  0.5828 -0.5799
  214MPD1    H5 3312   4.003   4.515  15.327  0.7855 -1.7548 -0.5049
  214MPD1    N1 3313   4.176   4.240  15.796 -0.0439 -0.3280 -0.1558
  214MPD1    H6 3314   4.140   4.158  15.844 -0.2785 -0.2088 -0.1279
  214MPD1    H7 3315   4.175   4.317  15.862 -1.6345 -0.6305  0.1677
  215MPD1     C 3316   2.589   1.836  10.796 -0.4541  0.6145  0.0285
  215MPD1    C1 3317   2.673   1.756  10.719  0.3578  0.0552  0.1665
  215MPD1    C2 3318   2.805   1.738  10.753  0.4316  0.2552 -0.4052
  215MPD1    C3 3319   2.856   1.799  10.864 -0.2508  0.6494 -0.6437
  215MPD1    C4 3320   2.776   1.883  10.932  0.6390  0.1804  0.4505
  215MPD1    C5 3321   2.647   1.903  10.899  0.5711 -0.7553  1.2198
  215MPD1     H 3322   2.854   1.666  10.690  1.9576  0.8682  0.0915
  215MPD1    H1 3323   2.820   1.944  11.010 -1.9648 -0.3760  2.3440
  215MPD1    H2 3324   2.483   1.856  10.779 -0.4208 -0.9087 -2.0826
  215MPD1    H3 3325   2.590   1.966  10.967  0.1502 -0.6701  0.7914
  215MPD1     N 3326   2.997   1.792  10.906  0.6371  0.2548  1.1009
  215MPD1    H5 3327   3.021   1.845  10.989  1.3158 -1.0077  1.7151
  215MPD1    N1 3328   2.634   1.721  10.587 -0.2988 -0.2930  0.1371
  215MPD1    H6 3329   2.532   1.716  10.579 -0.2186 -1.4017 -0.2511
  215MPD1    H7 3330   2.677   1.635  10.553  0.8438 -0.1353  1.1938
  216MPD1     C 3331   1.059   3.738  16.956 -1.0155 -0.6065 -0.1121
  216MPD1    C1 3332   1.047   3.756  17.092  1.0030 -0.4403 -0.6592
  216MPD1    C2 3333   1.050   3.639  17.171 -0.3849  0.0253  0.0293
  216MPD1    C3 3334   1.045   3.511  17.118 -0.3369 -0.1645 -0.5483
  216MPD1    C4 3335   1.040   3.499  16.983 -0.3095  0.5521  0.2059
  216MPD1    C5 3336   1.039   3.616  16.902  0.4331 -0.1599  0.8094
  216MPD1     H 3337   1.055   3.656  17.277  0.0351  0.8528 -0.1257
  216MPD1    H1 3338   1.052   3.401  16.938 -1.2161 -0.0885  1.3687
  216MPD1    H2 3339   1.057   3.828  16.895  0.6849  0.3798  1.2631
  216MPD1    H3 3340   1.026   3.613  16.794 -0.7329  4.7962  0.8094
  216MPD1     N 3341   1.073   3.402  17.205 -0.4096  0.5342  0.3479
  216MPD1    H5 3342   1.099   3.418  17.302 -1.1959  3.1188  0.1303
  216MPD1    N1 3343   1.062   3.884  17.149 -0.1253 -0.5576 -0.1661
  216MPD1    H6 3344   1.064   3.961  17.082  0.1319 -0.1897  0.2612
  216MPD1    H7 3345   1.000   3.888  17.229  1.2311  0.0158  0.8512
  217MPD1     C 3346   1.239   0.342   8.243 -0.6988 -0.4482  0.2565
  217MPD1    C1 3347   1.174   0.468   8.245  0.6768  0.1228 -0.1754
  217MPD1    C2 3348   1.157   0.530   8.365 -0.1516  0.2571 -0.5299
  217MPD1    C3 3349   1.209   0.478   8.477  0.5986  0.0037 -0.6721
  217MPD1    C4 3350   1.286   0.364   8.476  0.1239 -0.3672  0.7069
  217MPD1    C5 3351   1.307   0.298   8.356 -0.3225  0.2301 -0.4769
  217MPD1     H 3352   1.103   0.623   8.369 -0.8672 -0.1829 -0.0689
  217MPD1    H1 3353   1.326   0.332   8.571  2.1836  0.5004  0.1339
  217MPD1    H2 3354   1.238   0.266   8.166  2.6550 -1.1197  0.8998
  217MPD1    H3 3355   1.361   0.205   8.363 -0.5786  0.1651  0.5979
  217MPD1     N 3356   1.204   0.548   8.602 -0.1617 -0.1487 -0.2988
  217MPD1    H5 3357   1.253   0.513   8.684  1.8821  0.3496 -1.2950
  217MPD1    N1 3358   1.111   0.518   8.131 -0.3592  0.2272 -0.3692
  217MPD1    H6 3359   1.065   0.609   8.139  1.8346  1.1954  1.1524
  217MPD1    H7 3360   1.140   0.496   8.035 -0.7296 -1.7226 -0.0289
  218MPD1     C 3361   2.695   2.364  12.794  0.3506 -0.6046 -0.4953
  218MPD1    C1 3362   2.826   2.359  12.772 -0.4101 -0.3259  0.7185
  218MPD1    C2 3363   2.880   2.250  12.714 -0.3789  0.3508 -0.3378
  218MPD1    C3 3364   2.803   2.143  12.675  0.2053  0.0535  0.0524
  218MPD1    C4 3365   2.666   2.143  12.701  0.1794  1.0830  0.0303
  218MPD1    C5 3366   2.615   2.257  12.756  0.1806 -0.6260 -0.7686
  218MPD1     H 3367   2.987   2.242  12.696 -0.3814  0.5759 -0.4471
  218MPD1    H1 3368   2.601   2.057  12.691 -1.1361  2.0118  0.4768
  218MPD1    H2 3369   2.639   2.442  12.843  0.6541 -0.0958 -0.9647
  218MPD1    H3 3370   2.509   2.264  12.780  0.3230  0.0713 -0.3306
  218MPD1     N 3371   2.877   2.030  12.632 -0.5308 -0.4159 -0.1610
  218MPD1    H5 3372   2.977   2.046  12.630 -0.2423 -2.3675 -1.6684
  218MPD1    N1 3373   2.905   2.475  12.790 -0.4963 -0.2606 -0.1741
  218MPD1    H6 3374   3.005   2.459  12.782 -0.7134 -1.5816 -0.2288
  218MPD1    H7 3375   2.891   2.527  12.877  2.6513 -1.9197  1.2855
  219MPD1     C 3376   3.631   1.614  12.104 -0.6035  0.3009  0.1872
  219MPD1    C1 3377   3.565   1.725  12.070  0.5781 -0.2032 -0.2831
  219MPD1    C2 3378   3.439   1.753  12.124  0.2178 -0.4620  0.1899
  219MPD1    C3 3379   3.390   1.677  12.226  1.3741  0.0431 -0.1436
  219MPD1    C4 3380   3.463   1.565  12.263 -0.3137 -0.3048  0.2806
  219MPD1    C5 3381   3.586   1.534  12.205  1.0211 -0.7202 -0.0418
  219MPD1     H 3382   3.394   1.848  12.100  3.1228  0.5221 -1.3816
  219MPD1    H1 3383   3.443   1.513  12.356 -1.4881  1.6859  1.1325
  219MPD1    H2 3384   3.718   1.580  12.050 -0.9454 -3.1250  1.7516
  219MPD1    H3 3385   3.628   1.437  12.230 -0.1745 -0.4711  2.9309
  219MPD1     N 3386   3.269   1.692  12.297  0.2902 -1.0605 -0.4644
  219MPD1    H5 3387   3.248   1.632  12.377 -0.4452 -0.6625 -0.3487
  219MPD1    N1 3388   3.620   1.795  11.964 -0.2528 -0.4869  0.0411
  219MPD1    H6 3389   3.592   1.893  11.965 -1.2119 -0.7636  1.0958
  219MPD1    H7 3390   3.721   1.794  11.966 -0.2578 -2.5433 -0.2660
  220MPD1     C 3391   2.827   2.964   9.540  0.3158 -0.8092  0.4121
  220MPD1    C1 3392   2.883   3.022   9.651 -0.2307  0.2690 -0.4437
  220MPD1    C2 3393   2.867   2.959   9.779 -0.4104 -0.4541 -0.4155
  220MPD1    C3 3394   2.800   2.837   9.792 -0.2129  0.5689 -0.3412
  220MPD1    C4 3395   2.750   2.777   9.680 -0.3344 -0.7974  0.1231
  220MPD1    C5 3396   2.764   2.840   9.554 -0.1908  0.0701 -0.0830
  220MPD1     H 3397   2.903   3.012   9.866 -2.6298 -1.8025  1.2891
  220MPD1    H1 3398   2.687   2.689   9.679 -0.3639 -0.7757  0.0966
  220MPD1    H2 3399   2.840   3.000   9.438  1.2349 -2.6404 -0.0985
  220MPD1    H3 3400   2.719   2.794   9.467 -1.2489  0.0699  0.4704
  220MPD1     N 3401   2.785   2.783   9.922 -0.3247 -0.5301 -0.0169
  220MPD1    H5 3402   2.840   2.829   9.994  0.8351 -0.1361 -1.1504
  220MPD1    N1 3403   2.954   3.143   9.637 -0.2652  0.4439  0.3495
  220MPD1    H6 3404   2.968   3.195   9.724 -0.7724  0.2137  0.5670
  220MPD1    H7 3405   2.916   3.205   9.567 -0.2096 -1.2716 -1.1968
  221MPD1     C 3406   1.651   0.790  17.102  0.3330 -0.0718 -0.1032
  221MPD1    C1 3407   1.525   0.815  17.048 -0.7602 -0.4678  0.5777
  221MPD1    C2 3408   1.502   0.753  16.923 -0.0241 -0.5176  0.7651
  221MPD1    C3 3409   1.597   0.667  16.868 -0.3804 -0.2030  0.0603
  221MPD1    C4 3410   1.719   0.641  16.922  0.0348  0.3438 -0.3249
  221MPD1    C5 3411   1.743   0.706  17.041 -0.1473  0.3858 -0.1541
  221MPD1     H 3412   1.412   0.771  16.865  0.0975 -0.7429  0.5100
  221MPD1    H1 3413   1.790   0.571  16.880  1.1472  2.5820 -2.1388
  221MPD1    H2 3414   1.660   0.838  17.199 -0.1898 -0.5105  0.1609
  221MPD1    H3 3415   1.841   0.690  17.087 -0.1055  0.5050 -0.2038
  221MPD1     N 3416   1.585   0.611  16.739  0.5383  0.1426  0.2259
  221MPD1    H5 3417   1.668   0.559  16.712  0.8438  1.0558 -0.5988
  221MPD1    N1 3418   1.438   0.906  17.112 -0.5261 -0.1324  0.0558
  221MPD1    H6 3419   1.339   0.888  17.101 -0.0589 -1.2050 -2.5391
  221MPD1    H7 3420   1.453   0.900  17.212  1.1052 -1.7754 -0.2743
  222MPD1     C 3421   4.215   4.068   0.771 -0.0459 -0.4932 -0.1639
  222MPD1    C1 3422   4.143   4.049   0.654  0.6851 -0.0816 -0.1593
  222MPD1    C2 3423   4.147   4.154   0.566 -0.2938 -0.0245  0.6867
  222MPD1    C3 3424   4.166   4.277   0.618 -0.3284  0.2228  0.3242
  222MPD1    C4 3425   4.201   4.301   0.751  0.0507  0.2593 -0.3371
  222MPD1    C5 3426   4.236   4.193   0.828  0.4060 -0.4465 -0.2848
  222MPD1     H 3427   4.102   4.143   0.468 -1.0124  1.7073  0.8207
  222MPD1    H1 3428   4.212   4.405   0.779  0.8902  0.5221 -1.6307
  222MPD1    H2 3429   4.258   3.992   0.835  0.5883 -0.4159 -0.5016
  222MPD1    H3 3430   4.296   4.207   0.917 -2.0458 -1.0193  1.4826
  222MPD1     N 3431   4.120   4.389   0.544  1.1846  1.0851 -0.3271
  222MPD1    H5 3432   4.146   4.483   0.571  0.3878  0.9610  0.8542
  222MPD1    N1 3433   4.105   3.921   0.617 -0.2810 -0.9198  0.9642
  222MPD1    H6 3434   4.066   3.887   0.705  0.8622 -0.4430  1.6586
  222MPD1    H7 3435   4.032   3.915   0.547  0.2521 -2.4071  0.5482
  223MPD1     C 3436   3.442   0.374   0.273  0.7723 -0.2853  0.1671
  223MPD1    C1 3437   3.567   0.415   0.302 -0.2805  0.1628  0.0446
  223MPD1    C2 3438   3.671   0.322   0.298 -0.5451  0.4317 -0.3822
  223MPD1    C3 3439   3.660   0.195   0.253 -0.7184 -0.5361  0.5074
  223MPD1    C4 3440   3.533   0.146   0.221  0.2309  0.3145 -0.4368
  223MPD1    C5 3441   3.431   0.241   0.224 -0.2745  0.3951  0.6299
  223MPD1     H 3442   3.769   0.345   0.339  0.6105 -1.1919 -2.2288
  223MPD1    H1 3443   3.514   0.048   0.178  2.3730 -0.5267  0.5474
  223MPD1    H2 3444   3.356   0.439   0.273 -0.8116 -2.3801  0.1606
  223MPD1    H3 3445   3.343   0.210   0.170 -0.0647  0.9799 -0.0510
  223MPD1     N 3446   3.777   0.117   0.260  0.2030  0.1220  0.7259
  223MPD1    H5 3447   3.860   0.159   0.301  1.1450  1.9683 -3.0489
  223MPD1    N1 3448   3.581   0.528   0.382 -0.1763  0.0354 -0.3664
  223MPD1    H6 3449   3.672   0.574   0.373 -1.5329  2.9299  0.9290
  223MPD1    H7 3450   3.510   0.598   0.365  1.2222  1.1957 -1.3522
  224MPD1     C 3451   1.535   1.768   9.185  0.9278  0.0929 -0.1680
  224MPD1    C1 3452   1.442   1.849   9.244  0.5420 -0.2810 -0.1944
  224MPD1    C2 3453   1.355   1.781   9.324 -0.1328 -0.0839  0.2437
  224MPD1    C3 3454   1.365   1.643   9.367  0.1014  0.2041 -0.1919
  224MPD1    C4 3455   1.476   1.578   9.319  0.5889 -0.3042  0.4284
  224MPD1    C5 3456   1.566   1.641   9.229 -1.0191  0.1922 -0.0273
  224MPD1     H 3457   1.271   1.840   9.358  1.3475  1.8565  0.5199
  224MPD1    H1 3458   1.504   1.481   9.357  0.2446 -0.4879  0.2122
  224MPD1    H2 3459   1.612   1.804   9.117  0.0908  2.2708  0.0497
  224MPD1    H3 3460   1.650   1.593   9.180 -0.5401  1.1329 -0.1109
  224MPD1     N 3461   1.290   1.584   9.470  0.5512  0.8840 -0.3876
  224MPD1    H5 3462   1.298   1.485   9.490 -3.0045  0.7326  0.2871
  224MPD1    N1 3463   1.419   1.990   9.217  0.7970 -0.6139  0.0190
  224MPD1    H6 3464   1.374   2.035   9.296  0.2534 -1.8199  0.3917
  224MPD1    H7 3465   1.494   2.046   9.177 -1.5747  1.3503 -1.6860
  225MPD1     C 3466   3.292   2.372  12.473 -0.0627  0.0797 -0.1874
  225MPD1    C1 3467   3.256   2.254  12.421  0.0530  0.4336 -0.4213
  225MPD1    C2 3468   3.120   2.244  12.397 -0.3664  0.4238  0.5314
  225MPD1    C3 3469   3.035   2.346  12.398 -0.0959  0.1116  0.2577
  225MPD1    C4 3470   3.073   2.469  12.442  0.2674 -0.3732 -0.2843
  225MPD1    C5 3471   3.202   2.481  12.479 -0.5368  0.4438 -0.0052
  225MPD1     H 3472   3.087   2.148  12.359 -1.8273  1.7718 -1.6561
  225MPD1    H1 3473   2.999   2.549  12.448 -2.8534 -3.1376 -2.3217
  225MPD1    H2 3474   3.399   2.393  12.480  0.2695 -1.0979 -1.7009
  225MPD1    H3 3475   3.243   2.576  12.513  1.4280 -1.2074  2.2986
  225MPD1     N 3476   2.900   2.336  12.371  0.4371 -0.0628  0.0204
  225MPD1    H5 3477   2.843   2.420  12.380  2.0694  1.0860 -0.3520
  225MPD1    N1 3478   3.334   2.142  12.426  0.7339  0.1540 -0.1782
  225MPD1    H6 3479   3.302   2.081  12.351 -0.3162  0.8604 -0.3136
  225MPD1    H7 3480   3.432   2.169  12.426  1.4675 -2.5241  0.0880
  226MPD1     C 3481   4.499   1.922   9.548  0.0560  0.2988 -0.6740
  226MPD1    C1 3482   4.556   1.798   9.533  0.6874  0.1856 -0.3966
  226MPD1    C2 3483   4.681   1.782   9.574 -0.2751  0.4323  0.1754
  226MPD1    C3 3484   0.009   1.888   9.637 -0.2331 -0.0389 -0.1483
  226MPD1    C4 3485   4.691   2.013   9.643  0.0235  0.2858 -0.7004
  226MPD1    C5 3486   4.565   2.031   9.597 -0.0179 -0.3561  0.5060
  226MPD1     H 3487   4.731   1.687   9.564  0.3030  0.5459  1.9345
  226MPD1    H1 3488   4.738   2.104   9.680  2.8111 -2.0440  1.4191
  226MPD1    H2 3489   4.399   1.943   9.512 -1.5668 -1.2037  3.0165
  226MPD1    H3 3490   4.524   2.131   9.598 -0.1637 -0.4235  0.9436
  226MPD1     N 3491   0.141   1.858   9.676  0.0951  0.0273  0.3660
  226MPD1    H5 3492   0.174   1.762   9.669  2.3547  0.7563  1.0580
  226MPD1    N1 3493   4.492   1.713   9.434 -0.1545 -0.0459 -0.0935
  226MPD1    H6 3494   4.390   1.711   9.433 -0.1628  0.3108  0.1720
  226MPD1    H7 3495   4.527   1.624   9.469  0.3357 -0.2939 -1.1859
  227MPD1     C 3496   0.852   1.376   9.264  0.4663  0.7682 -0.6651
  227MPD1    C1 3497   0.934   1.470   9.318 -0.2362  0.2052 -0.1605
  227MPD1    C2 3498   0.881   1.546   9.419 -0.9779  0.2329 -0.2883
  227MPD1    C3 3499   0.751   1.518   9.464  0.3684  0.0308 -0.1029
  227MPD1    C4 3500   0.679   1.408   9.421  0.2740 -0.0631 -0.0950
  227MPD1    C5 3501   0.737   1.340   9.319 -0.0194  0.1635 -0.6724
  227MPD1     H 3502   0.917   1.644   9.448  2.0816 -1.1300  0.5808
  227MPD1    H1 3503   0.579   1.384   9.456  0.1630  0.8358  0.2078
  227MPD1    H2 3504   0.883   1.306   9.187  1.3289 -0.1945  0.5697
  227MPD1    H3 3505   0.685   1.262   9.265 -1.0562  0.0331  0.5362
  227MPD1     N 3506   0.701   1.613   9.559 -0.1610 -0.1721  0.0010
  227MPD1    H5 3507   0.744   1.705   9.551  0.1517 -0.2932  0.2847
  227MPD1    N1 3508   1.048   1.509   9.243  0.3552  0.3946 -0.3830
  227MPD1    H6 3509   1.102   1.434   9.201 -1.1535 -0.9510  0.1064
  227MPD1    H7 3510   1.121   1.551   9.301  0.2702 -1.6468  1.1896
  228MPD1     C 3511   0.291   4.706  12.364 -0.4193  0.4698  0.3376
  228MPD1    C1 3512   0.192   0.036  12.297  0.2687 -0.0217  0.0501
  228MPD1    C2 3513   0.064   0.034  12.336  0.1277 -0.1903  0.0573
  228MPD1    C3 3514   0.026   4.703  12.447 -0.9468  0.4153 -0.3353
  228MPD1    C4 3515   0.120   4.624  12.511 -0.5687  0.1682  0.1483
  228MPD1    C5 3516   0.253   4.624  12.468  0.3022  0.5673  0.0194
  228MPD1     H 3517   4.724   0.090  12.292  1.7371  1.5337 -0.7625
  228MPD1    H1 3518   0.095   4.556  12.592 -0.7721  2.3943  1.9688
  228MPD1    H2 3519   0.397   4.708  12.340 -0.5179 -0.6331 -0.1557
  228MPD1    H3 3520   0.333   4.572  12.518 -0.8714 -0.3212  0.9600
  228MPD1     N 3521   4.630   4.707  12.486 -0.0995  0.7483  0.0416
  228MPD1    H5 3522   4.562   4.730  12.414  1.0543  0.3275 -1.1884
  228MPD1    N1 3523   0.219   0.126  12.195 -0.7698 -0.1800  0.3189
  228MPD1    H6 3524   0.308   0.175  12.205 -1.2372  0.5278  1.0810
  228MPD1    H7 3525   0.145   0.195  12.182  0.8232  0.6723 -3.9196
  229MPD1     C 3526   0.642   2.331  15.790 -0.3254  0.2452  0.0399
  229MPD1    C1 3527   0.504   2.312  15.812 -1.4269  0.3242 -0.5953
  229MPD1    C2 3528   0.413   2.356  15.713 -0.0770  0.1716 -0.0352
  229MPD1    C3 3529   0.457   2.420  15.595 -0.2353  0.3337 -0.0635
  229MPD1    C4 3530   0.590   2.431  15.576 -0.0009 -0.1702  0.0447
  229MPD1    C5 3531   0.679   2.392  15.674 -0.8343 -0.1074 -0.0600
  229MPD1     H 3532   0.308   2.345  15.736 -0.0712  0.2876  0.0459
  229MPD1    H1 3533   0.630   2.479  15.487 -1.8379  1.8611  0.3125
  229MPD1    H2 3534   0.709   2.291  15.865 -1.7865 -1.2295  0.5629
  229MPD1    H3 3535   0.785   2.410  15.659 -0.5408 -2.8152 -1.2448
  229MPD1     N 3536   0.374   2.454  15.488 -0.3155 -0.6160 -0.2507
  229MPD1    H5 3537   0.412   2.488  15.401  0.9666 -0.5797  0.3201
  229MPD1    N1 3538   0.459   2.286  15.942  0.2862 -0.2504 -0.2506
  229MPD1    H6 3539   0.386   2.215  15.943  0.5577 -0.4972  1.4921
  229MPD1    H7 3540   0.538   2.243  15.991 -0.1626 -1.0080 -0.1981
  230MPD1     C 3541   4.086   2.443  15.092 -0.1256 -0.3970 -0.0956
  230MPD1    C1 3542   4.157   2.374  14.996 -0.4119 -0.4478  0.0171
  230MPD1    C2 3543   4.294   2.357  15.015  0.0301  0.6505  0.1496
  230MPD1    C3 3544   4.359   2.405  15.133  0.7006 -0.1855  0.0871
  230MPD1    C4 3545   4.284   2.458  15.236  0.0740 -0.1678 -0.2760
  230MPD1    C5 3546   4.148   2.482  15.215 -0.8934  0.0119 -0.1708
  230MPD1     H 3547   4.354   2.308  14.939  0.6113  0.7360  0.5566
  230MPD1    H1 3548   4.324   2.502  15.327  0.4328 -0.3173 -0.3628
  230MPD1    H2 3549   3.982   2.465  15.070 -0.0263 -0.1214 -0.2781
  230MPD1    H3 3550   4.088   2.549  15.274 -0.5902  1.8948 -1.9894
  230MPD1     N 3551   4.502   2.420  15.130  0.0163  0.0823 -0.5023
  230MPD1    H5 3552   4.554   2.416  15.042  2.4860 -0.8307  0.9961
  230MPD1    N1 3553   4.105   2.356  14.862 -0.3455 -0.3708  0.5115
  230MPD1    H6 3554   4.003   2.345  14.859 -0.3028 -0.5991 -0.0121
  230MPD1    H7 3555   4.146   2.281  14.807 -0.0386 -0.2057  0.5201
  231MPD1     C 3556   2.955   0.430  15.882 -0.5917  0.0522  0.4905
  231MPD1    C1 3557   2.965   0.545  15.805 -0.5543  0.0473 -0.3941
  231MPD1    C2 3558   2.980   0.532  15.665  0.2092  0.1067 -0.4190
  231MPD1    C3 3559   2.972   0.409  15.607 -0.2065  0.0348 -0.1994
  231MPD1    C4 3560   2.940   0.299  15.685  0.1553 -0.4471 -0.0208
  231MPD1    C5 3561   2.938   0.312  15.821  0.1479  0.2333  0.7087
  231MPD1     H 3562   3.023   0.615  15.611  2.3610 -1.0568 -0.5060
  231MPD1    H1 3563   2.915   0.202  15.641 -2.4859  0.6258 -0.9233
  231MPD1    H2 3564   2.938   0.433  15.989  2.4442 -0.1938  0.9799
  231MPD1    H3 3565   2.912   0.221  15.875  0.8073  0.3514  1.2392
  231MPD1     N 3566   2.999   0.394  15.471 -0.0342 -0.4403 -0.3993
  231MPD1    H5 3567   3.008   0.484  15.424 -1.1616  0.6799  1.5053
  231MPD1    N1 3568   3.001   0.669  15.866 -0.2840  0.2846  0.4639
  231MPD1    H6 3569   2.955   0.661  15.956  0.9299 -0.4513  1.0158
  231MPD1    H7 3570   2.954   0.749  15.824 -0.0767 -0.7753 -1.8201
  232MPD1     C 3571   4.352   1.703  17.227 -0.3473  0.9166 -0.2345
  232MPD1    C1 3572   4.474   1.766  17.235 -0.0350  0.0556  0.0849
  232MPD1    C2 3573   4.483   1.877  17.317 -0.1350  0.5292  0.3439
  232MPD1    C3 3574   4.366   1.937  17.373  0.0379 -0.1987  0.4520
  232MPD1    C4 3575   4.249   1.870  17.360 -0.1079  0.2528 -0.4111
  232MPD1    C5 3576   4.244   1.760  17.280  1.5708  0.0203  0.8003
  232MPD1     H 3577   4.580   1.919  17.341 -0.5332  1.4233  0.3875
  232MPD1    H1 3578   4.154   1.900  17.402 -0.5290 -1.2425 -0.2751
  232MPD1    H2 3579   4.331   1.616  17.166 -0.9192  0.8205  0.0965
  232MPD1    H3 3580   4.147   1.714  17.272  1.3186  0.5358  0.8504
  232MPD1     N 3581   4.380   2.057  17.445 -0.2086 -0.8746 -0.2784
  232MPD1    H5 3582   4.473   2.086  17.472 -1.3582  1.2323  1.5104
  232MPD1    N1 3583   4.595   1.716  17.179 -0.1785  0.4619  0.2526
  232MPD1    H6 3584   4.581   1.644  17.108 -2.3822  0.5907  0.5555
  232MPD1    H7 3585   4.648   1.793  17.138 -1.5554  0.3988 -1.6791
  233MPD1     C 3586   0.881   2.653   1.202 -0.5567 -0.2461  0.7217
  233MPD1    C1 3587   0.795   2.546   1.180  0.3228  0.4046  0.0867
  233MPD1    C2 3588   0.847   2.424   1.177 -0.1239  0.1454  0.1508
  233MPD1    C3 3589   0.982   2.400   1.215  1.0237 -0.4143 -0.2038
  233MPD1    C4 3590   1.067   2.504   1.243  0.0019  0.6427  0.1905
  233MPD1    C5 3591   1.016   2.629   1.228 -0.2396 -0.1808 -0.6995
  233MPD1     H 3592   0.785   2.337   1.157  0.2973  0.3257 -1.9528
  233MPD1    H1 3593   1.172   2.488   1.269 -0.0608  0.4930  0.3552
  233MPD1    H2 3594   0.837   2.751   1.191 -0.8498 -0.7935 -2.8861
  233MPD1    H3 3595   1.081   2.714   1.248  0.0973 -1.1266  2.1617
  233MPD1     N 3596   1.043   2.273   1.216 -0.3932 -0.3399  0.7984
  233MPD1    H5 3597   1.132   2.264   1.264 -0.0756 -3.8026 -0.4233
  233MPD1    N1 3598   0.665   2.586   1.158  0.2997  0.5379  0.6352
  233MPD1    H6 3599   0.594   2.516   1.175  3.3920 -2.3740  1.7027
  233MPD1    H7 3600   0.642   2.670   1.211  0.0564  1.1241 -0.4020
  234MPD1     C 3601   2.239   0.175  10.155  0.4091  0.2823  0.3020
  234MPD1    C1 3602   2.141   0.231  10.229 -0.1167  0.7990  0.0650
  234MPD1    C2 3603   2.035   0.298  10.164 -0.6775  0.6966  0.9363
  234MPD1    C3 3604   2.022   0.288  10.024  0.3981  0.1216  0.9823
  234MPD1    C4 3605   2.113   0.227   9.948 -0.2872  0.8040 -0.1132
  234MPD1    C5 3606   2.226   0.174  10.011 -0.8126  0.0883 -0.0305
  234MPD1     H 3607   1.968   0.357  10.226 -1.4745  0.5993  0.1728
  234MPD1    H1 3608   2.104   0.204   9.842 -2.6463  1.1399  0.0163
  234MPD1    H2 3609   2.321   0.120  10.200  0.1361 -1.4363 -1.2669
  234MPD1    H3 3610   2.298   0.120   9.951  0.4147 -0.2719  1.7818
  234MPD1     N 3611   1.907   0.353   9.971  0.1028  0.3932 -0.1832
  234MPD1    H5 3612   1.845   0.401  10.036  1.2652 -1.8679  2.6002
  234MPD1    N1 3613   2.175   0.259  10.357  0.2737 -1.0200  0.4699
  234MPD1    H6 3614   2.218   0.179  10.403  0.4967 -0.2731  1.5814
  234MPD1    H7 3615   2.085   0.266  10.405 -0.4966  1.1311 -1.3255
  235MPD1     C 3616   3.264   2.120  10.117  0.3605  0.1625 -0.1000
  235MPD1    C1 3617   3.261   2.155   9.980 -0.5536 -0.4721 -0.3842
  235MPD1    C2 3618   3.329   2.275   9.946 -0.3909  0.2809  0.4145
  235MPD1    C3 3619   3.400   2.350  10.043  0.8702  0.7171 -0.4237
  235MPD1    C4 3620   3.404   2.309  10.174  0.9338 -0.3186  0.3046
  235MPD1    C5 3621   3.341   2.190  10.208  0.2775 -0.1328 -0.1929
  235MPD1     H 3622   3.318   2.313   9.845  0.0152  0.5644  0.4770
  235MPD1    H1 3623   3.468   2.361  10.244  0.5999  0.3329  0.1185
  235MPD1    H2 3624   3.204   2.042  10.162 -0.1787  1.2905  1.1449
  235MPD1    H3 3625   3.325   2.156  10.310  1.0945  0.0436 -0.0064
  235MPD1     N 3626   3.462   2.471   9.997  0.4529  0.0960  0.5093
  235MPD1    H5 3627   3.465   2.483   9.896 -1.2305 -1.1559  0.3222
  235MPD1    N1 3628   3.166   2.086   9.893 -0.5161  0.4719 -0.0954
  235MPD1    H6 3629   3.178   1.986   9.904 -0.8692  0.5225  0.7586
  235MPD1    H7 3630   3.183   2.117   9.797 -0.0293 -1.2472 -0.5600
  236MPD1     C 3631   3.227   3.522   8.948  0.1809  0.0322 -0.2559
  236MPD1    C1 3632   3.229   3.414   9.033  0.1437  0.0123  0.4870
  236MPD1    C2 3633   3.208   3.433   9.163 -0.1572 -0.6023 -0.2575
  236MPD1    C3 3634   3.195   3.563   9.215  0.1036  0.2924  0.4538
  236MPD1    C4 3635   3.177   3.671   9.128 -0.1844  0.3005  0.5814
  236MPD1    C5 3636   3.194   3.648   8.991  0.3035  0.1943  0.0693
  236MPD1     H 3637   3.209   3.347   9.229  2.1630  0.1622  0.6897
  236MPD1    H1 3638   3.161   3.773   9.162 -1.9314  0.0226  0.6364
  236MPD1    H2 3639   3.224   3.499   8.842 -0.8493  4.1995 -1.1319
  236MPD1    H3 3640   3.188   3.728   8.919 -0.5740 -0.6280 -0.7908
  236MPD1     N 3641   3.183   3.592   9.358  0.1950  0.9172 -0.1206
  236MPD1    H5 3642   3.169   3.691   9.377  0.8948  0.8162  0.9404
  236MPD1    N1 3643   3.214   3.287   8.982  0.2016 -0.2082 -0.0484
  236MPD1    H6 3644   3.256   3.284   8.888 -3.1014 -0.3521 -1.5091
  236MPD1    H7 3645   3.261   3.217   9.038  1.1323 -0.0235 -0.5914
  237MPD1     C 3646   2.861   1.905  15.447 -0.5787  1.0044  0.8310
  237MPD1    C1 3647   2.821   1.795  15.519 -0.1431  0.5010  0.0347
  237MPD1    C2 3648   2.749   1.696  15.452  0.2766 -0.1164 -0.2344
  237MPD1    C3 3649   2.741   1.702  15.314 -0.1551  0.7762  0.0423
  237MPD1    C4 3650   2.790   1.810  15.244 -0.0649 -0.2277  0.3479
  237MPD1    C5 3651   2.850   1.920  15.310 -0.3292  0.3498 -0.4026
  237MPD1     H 3652   2.712   1.607  15.503 -1.1394  0.8404  0.3909
  237MPD1    H1 3653   2.785   1.807  15.136  1.6460  0.3217  0.2559
  237MPD1    H2 3654   2.910   1.993  15.488  3.0047 -0.9833  0.7957
  237MPD1    H3 3655   2.884   2.011  15.261 -2.0919  0.9878 -0.4531
  237MPD1     N 3656   2.689   1.598  15.236 -0.2536 -0.6718 -0.4047
  237MPD1    H5 3657   2.679   1.614  15.136 -0.7611 -1.7154 -0.5268
  237MPD1    N1 3658   2.811   1.806  15.655 -0.5503  0.4289 -0.2016
  237MPD1    H6 3659   2.900   1.843  15.687 -1.7607  2.6763  0.5749
  237MPD1    H7 3660   2.806   1.717  15.704  0.4310  1.2554  1.4247
  238MPD1     C 3661   0.365   0.622  14.318  0.3698  0.8806  0.3241
  238MPD1    C1 3662   0.303   0.610  14.442  0.0238  0.4968  0.5212
  238MPD1    C2 3663   0.202   0.514  14.457  0.3672  0.0143  0.5850
  238MPD1    C3 3664   0.130   0.467  14.351  0.2295 -0.2717 -0.2691
  238MPD1    C4 3665   0.182   0.507  14.228 -0.4326 -0.5678  0.6937
  238MPD1    C5 3666   0.303   0.568  14.215  0.4923  0.1884 -0.4045
  238MPD1     H 3667   0.153   0.503  14.553 -2.9109  1.8502 -0.8724
  238MPD1    H1 3668   0.132   0.475  14.137  0.2248 -0.4597  0.3000
  238MPD1    H2 3669   0.452   0.684  14.300 -0.9660  2.3735 -0.9511
  238MPD1    H3 3670   0.331   0.576  14.111  2.7449  0.6155  0.2360
  238MPD1     N 3671   0.010   0.389  14.347 -0.8166  0.4694  0.2047
  238MPD1    H5 3672   4.699   0.380  14.262 -0.0446 -0.7311 -0.1453
  238MPD1    N1 3673   0.361   0.676  14.551  0.3758  0.0454  0.3232
  238MPD1    H6 3674   0.295   0.703  14.623  0.9125  0.2899  0.7247
  238MPD1    H7 3675   0.429   0.744  14.518  0.8618  0.3135  1.8736
  239MPD1     C 3676   0.038   0.782  14.812 -0.0798 -0.3757 -0.2597
  239MPD1    C1 3677   0.141   0.852  14.748 -0.4581  0.5384  0.5260
  239MPD1    C2 3678   0.112   0.939  14.637  0.7904  0.6459 -0.0722
  239MPD1    C3 3679   4.717   0.955  14.597  0.2243  0.2822  0.2914
  239MPD1    C4 3680   4.617   0.891  14.675 -0.0558 -0.1995 -0.6735
  239MPD1    C5 3681   4.643   0.805  14.776  0.4155  0.4942 -0.2696
  239MPD1     H 3682   0.185   1.000  14.585 -0.0408  1.1965 -0.5943
  239MPD1    H1 3683   4.514   0.919  14.656  0.1565 -0.4550 -2.1712
  239MPD1    H2 3684   0.059   0.720  14.898  1.7708 -0.7539 -0.9840
  239MPD1    H3 3685   4.570   0.760  14.842  0.2101 -1.0810 -1.5408
  239MPD1     N 3686   4.683   1.028  14.479 -0.6263 -0.1480  0.1173
  239MPD1    H5 3687   4.582   1.037  14.470 -0.6108  0.9964  1.0718
  239MPD1    N1 3688   0.262   0.863  14.816 -0.3197  0.1474 -0.0462
  239MPD1    H6 3689   0.295   0.773  14.849 -0.6255 -0.5148 -1.5698
  239MPD1    H7 3690   0.335   0.911  14.763  1.0915  0.4962  2.2105
  240MPD1     C 3691   3.918   1.232  13.126 -0.5180 -0.9919  0.0413
  240MPD1    C1 3692   3.850   1.124  13.188  0.0878  0.0664  0.3084
  240MPD1    C2 3693   3.865   1.108  13.320  0.2382 -0.3451  0.0115
  240MPD1    C3 3694   3.956   1.183  13.395 -0.5215  0.2914  0.5626
  240MPD1    C4 3695   4.032   1.281  13.333 -0.3784 -0.0400  0.1187
  240MPD1    C5 3696   4.011   1.299  13.200 -0.1004  0.6979  0.0211
  240MPD1     H 3697   3.814   1.026  13.369 -0.3038 -0.0826 -0.1143
  240MPD1    H1 3698   4.102   1.346  13.385  2.1277 -1.7363 -1.1475
  240MPD1    H2 3699   3.899   1.265  13.024 -0.1366 -1.1413 -0.0746
  240MPD1    H3 3700   4.054   1.387  13.153 -3.1141  0.9469 -2.2304
  240MPD1     N 3701   3.980   1.144  13.525  0.4929 -0.2272  0.1414
  240MPD1    H5 3702   3.923   1.067  13.559 -0.9499  0.9159  0.3480
  240MPD1    N1 3703   3.739   1.065  13.119  0.0939  0.0326  0.3346
  240MPD1    H6 3704   3.712   0.981  13.171  1.3635 -0.4695  0.1777
  240MPD1    H7 3705   3.759   1.057  13.020  2.3036  0.2626  0.7688
  241MPD1     C 3706   4.682   0.762  14.250  0.0905 -0.2037  0.4070
  241MPD1    C1 3707   4.713   0.810  14.126 -0.5611  0.1226 -0.0386
  241MPD1    C2 3708   4.611   0.866  14.052  0.4406  0.0384 -0.1625
  241MPD1    C3 3709   4.492   0.888  14.108 -0.3483  0.3201  0.0251
  241MPD1    C4 3710   4.467   0.855  14.237 -0.2871  0.1225 -0.0368
  241MPD1    C5 3711   4.561   0.789  14.308  0.1498 -0.8859 -0.3740
  241MPD1     H 3712   4.618   0.883  13.946 -0.0884 -1.0212 -0.3713
  241MPD1    H1 3713   4.369   0.861  14.283 -0.8661  1.0576 -1.3965
  241MPD1    H2 3714   0.018   0.715  14.309  2.2045  0.3962 -1.9095
  241MPD1    H3 3715   4.540   0.759  14.410  1.4114  1.3079  0.5196
  241MPD1     N 3716   4.374   0.935  14.037  0.0583 -0.3449 -0.0383
  241MPD1    H5 3717   4.289   0.935  14.092  0.1244  0.0334  0.0583
  241MPD1    N1 3718   0.090   0.775  14.059  0.2468 -0.2783  0.1323
  241MPD1    H6 3719   0.163   0.738  14.120  0.9497  0.2698 -0.3785
  241MPD1    H7 3720   0.115   0.854  14.000 -0.9088 -0.9126 -1.2026
  242MPD1     C 3721   3.868   3.668  15.885 -0.3899  0.1669  0.5741
  242MPD1    C1 3722   3.868   3.788  15.815  0.3229 -0.2164 -0.0125
  242MPD1    C2 3723   3.916   3.779  15.689 -0.1603 -0.3674  1.3786
  242MPD1    C3 3724   3.930   3.658  15.622 -0.3087 -0.3047  0.0288
  242MPD1    C4 3725   3.898   3.544  15.692  0.4901  0.2603 -1.0967
  242MPD1    C5 3726   3.870   3.546  15.825  0.6300  0.2754  0.1568
  242MPD1     H 3727   3.937   3.875  15.645 -0.1876  0.6271  3.5038
  242MPD1    H1 3728   3.914   3.449  15.643 -2.4766 -0.7070 -0.2031
  242MPD1    H2 3729   3.847   3.668  15.991 -3.1861  1.3028  0.0045
  242MPD1    H3 3730   3.859   3.458  15.887  1.6053 -1.5427 -2.2229
  242MPD1     N 3731   3.972   3.637  15.493 -0.0158  0.2580  0.3692
  242MPD1    H5 3732   3.981   3.541  15.463  1.6644  0.6939 -0.4984
  242MPD1    N1 3733   3.872   3.907  15.887  0.0081  0.2006 -0.3245
  242MPD1    H6 3734   3.829   3.985  15.838 -0.7892 -0.5552 -0.8389
  242MPD1    H7 3735   3.835   3.910  15.981 -0.2178  3.4274 -0.5176
  243MPD1     C 3736   2.167   2.976  16.271  0.5839  0.2956  0.1389
  243MPD1    C1 3737   2.130   2.961  16.401 -0.1335  0.2560 -0.3801
  243MPD1    C2 3738   2.016   2.892  16.433 -0.5069 -0.7938  0.4872
  243MPD1    C3 3739   1.947   2.827  16.335 -1.0695 -0.2527 -0.1728
  243MPD1    C4 3740   1.988   2.840  16.207  0.0788 -0.2436  0.5157
  243MPD1    C5 3741   2.096   2.915  16.171  0.0174  0.0488  0.0876
  243MPD1     H 3742   1.984   2.885  16.536 -0.4898  0.4419  0.5695
  243MPD1    H1 3743   1.943   2.783  16.126  2.8442 -1.3458 -0.2356
  243MPD1    H2 3744   2.251   3.039  16.245  0.5353  0.0686 -0.5725
  243MPD1    H3 3745   2.131   2.913  16.069  1.3408 -2.1496  0.5898
  243MPD1     N 3746   1.831   2.758  16.372  0.5364  0.2129  0.4310
  243MPD1    H5 3747   1.800   2.777  16.467 -0.2082 -1.3185  0.4931
  243MPD1    N1 3748   2.193   3.033  16.498 -0.2690  0.3077  0.7308
  243MPD1    H6 3749   2.294   3.043  16.489 -0.0410 -1.4777  1.3860
  243MPD1    H7 3750   2.170   3.006  16.594 -2.0852 -0.6556  0.0139
  244MPD1     C 3751   1.076   2.851  16.991 -0.9279 -0.2367  0.1548
  244MPD1    C1 3752   1.049   2.735  16.917  0.1777 -0.2486  0.1571
  244MPD1    C2 3753   1.137   2.683  16.824  0.1564  0.2141 -0.2940
  244MPD1    C3 3754   1.268   2.728  16.816  0.5011  0.0249  0.6682
  244MPD1    C4 3755   1.301   2.827  16.909  0.1779 -0.0968  0.0817
  244MPD1    C5 3756   1.207   2.892  16.990 -0.4482  0.7145  0.0484
  244MPD1     H 3757   1.098   2.602  16.764 -0.6676 -0.5321  1.2361
  244MPD1    H1 3758   1.400   2.870  16.904 -0.0808  0.5133  0.2976
  244MPD1    H2 3759   0.999   2.907  17.044 -0.6559 -1.1114  1.4686
  244MPD1    H3 3760   1.229   2.978  17.053  2.1954 -0.4800  0.7676
  244MPD1     N 3761   1.346   2.654  16.721  0.3876  0.7242 -0.1866
  244MPD1    H5 3762   1.302   2.582  16.665 -0.4494  1.5722 -0.6082
  244MPD1    N1 3763   0.920   2.686  16.915 -0.2279 -0.4722 -0.0779
  244MPD1    H6 3764   0.912   2.585  16.910 -0.3748 -0.4147 -1.0438
  244MPD1    H7 3765   0.863   2.713  16.994  0.0787 -1.3561  0.4355
  245MPD1     C 3766   1.967   3.653  13.045 -0.2750  0.2318  0.5274
  245MPD1    C1 3767   1.988   3.783  13.004  0.0310 -0.4400  0.0523
  245MPD1    C2 3768   2.121   3.837  13.008 -0.0736  0.0847  0.6471
  245MPD1    C3 3769   2.230   3.752  13.041 -0.3272 -0.4290  0.9866
  245MPD1    C4 3770   2.201   3.618  13.075 -0.0496  0.1337  0.0578
  245MPD1    C5 3771   2.071   3.577  13.077  0.2729 -0.0655 -0.1196
  245MPD1     H 3772   2.149   3.933  12.966 -0.7710 -0.9133 -2.1324
  245MPD1    H1 3773   2.274   3.543  13.101 -1.5730 -1.6695 -0.8843
  245MPD1    H2 3774   1.867   3.612  13.051  0.4937 -1.7745 -0.4281
  245MPD1    H3 3775   2.057   3.474  13.108 -1.7936 -0.1116 -1.1937
  245MPD1     N 3776   2.361   3.805  13.039 -0.1896 -0.1591 -0.2735
  245MPD1    H5 3777   2.374   3.905  13.029 -2.2954  0.2940  1.4571
  245MPD1    N1 3778   1.890   3.858  12.945  0.0142 -0.4365  0.1298
  245MPD1    H6 3779   1.795   3.840  12.977  0.0660 -1.5214 -0.3507
  245MPD1    H7 3780   1.904   3.959  12.938 -3.4001  0.0396 -0.1440
  246MPD1     C 3781   4.263   0.775   9.695 -0.1549 -0.1075 -0.3491
  246MPD1    C1 3782   4.351   0.732   9.595 -0.0093 -0.4065 -0.2852
  246MPD1    C2 3783   4.298   0.650   9.501  0.8233  0.0615  0.4375
  246MPD1    C3 3784   4.171   0.593   9.507 -0.3577 -0.1807  0.2969
  246MPD1    C4 3785   4.094   0.628   9.619 -0.7568 -0.5794 -0.3181
  246MPD1    C5 3786   4.140   0.725   9.703 -0.1687 -0.0757 -0.1027
  246MPD1     H 3787   4.350   0.624   9.410  0.7173  1.3481  0.0046
  246MPD1    H1 3788   3.996   0.589   9.641 -1.4423  1.0585 -0.4696
  246MPD1    H2 3789   4.286   0.865   9.751  0.6391 -0.5680  0.0705
  246MPD1    H3 3790   4.078   0.756   9.786  0.9152  1.6986  0.0499
  246MPD1     N 3791   4.125   0.498   9.408  0.1568  1.0008  0.3192
  246MPD1    H5 3792   4.179   0.498   9.322 -0.5130  0.4899 -0.1033
  246MPD1    N1 3793   4.461   0.813   9.562 -0.1325  0.1820  0.0491
  246MPD1    H6 3794   4.499   0.849   9.650  0.2703  2.5629 -1.0971
  246MPD1    H7 3795   4.534   0.762   9.514  1.6365  1.7683  1.0036
  247MPD1     C 3796   2.313   4.551  15.751  0.2439  0.1586  0.0747
  247MPD1    C1 3797   2.407   4.457  15.707  0.4534  0.1590  0.0238
  247MPD1    C2 3798   2.406   4.333  15.769 -0.2264  0.3246 -0.1536
  247MPD1    C3 3799   2.309   4.300  15.867 -0.2696  0.1084 -0.5166
  247MPD1    C4 3800   2.213   4.390  15.899  0.1530  0.4095  0.6890
  247MPD1    C5 3801   2.210   4.512  15.835 -0.0191 -0.2289  0.6225
  247MPD1     H 3802   2.478   4.259  15.736 -0.4770 -1.0605  2.4305
  247MPD1    H1 3803   2.136   4.369  15.972 -1.6881  1.0680 -1.0426
  247MPD1    H2 3804   2.314   4.648  15.703  1.0583  0.4994  0.7686
  247MPD1    H3 3805   2.131   4.582  15.857 -0.0978 -0.5357  1.3176
  247MPD1     N 3806   2.302   4.168  15.917  0.4039  0.1825 -0.8393
  247MPD1    H5 3807   2.214   4.143  15.961  0.8024  0.1093 -0.0781
  247MPD1    N1 3808   2.498   4.487  15.604 -0.0157 -0.4888  0.7827
  247MPD1    H6 3809   2.573   4.420  15.588 -0.8517 -1.1280 -0.5136
  247MPD1    H7 3810   2.532   4.582  15.614  0.7171 -0.6226 -0.4657
  248MPD1     C 3811   0.739   4.125  16.838  0.0546  0.0144 -0.2368
  248MPD1    C1 3812   0.705   4.127  16.969  0.4717 -0.0618  0.6172
  248MPD1    C2 3813   0.682   4.011  17.043 -0.1404  0.2841  0.8127
  248MPD1    C3 3814   0.699   3.887  16.981  0.7218 -0.5691 -1.0636
  248MPD1    C4 3815   0.738   3.881  16.850 -0.1740  0.8433  0.6625
  248MPD1    C5 3816   0.761   4.001  16.785  0.2589  0.5861  0.6097
  248MPD1     H 3817   0.656   4.014  17.148 -0.7129 -0.6929  0.7005
  248MPD1    H1 3818   0.764   3.787  16.804  1.5390  2.5824 -1.9436
  248MPD1    H2 3819   0.738   4.214  16.776 -2.3825  0.0381 -0.1545
  248MPD1    H3 3820   0.788   4.001  16.680  1.3836  0.7610  0.9002
  248MPD1     N 3821   0.673   3.772  17.060 -0.6131  0.4471 -0.3708
  248MPD1    H5 3822   0.670   3.784  17.161 -1.6872 -0.1140 -0.3358
  248MPD1    N1 3823   0.664   4.244  17.029 -0.4819 -0.5400  0.2716
  248MPD1    H6 3824   0.681   4.258  17.128  1.3470 -0.3885 -0.0779
  248MPD1    H7 3825   0.714   4.317  16.979  0.1232 -1.8637 -1.0456
  249MPD1     C 3826   4.245   1.696  11.212 -0.3345 -0.4815  0.8941
  249MPD1    C1 3827   4.262   1.820  11.148 -0.6867  0.5139  0.2974
  249MPD1    C2 3828   4.218   1.837  11.025  0.3996  0.0035  0.4251
  249MPD1    C3 3829   4.133   1.742  10.961 -0.0570  0.1165  0.0050
  249MPD1    C4 3830   4.113   1.620  11.025  0.7934 -1.0245  0.5492
  249MPD1    C5 3831   4.168   1.602  11.153  0.4099 -0.2367  0.5965
  249MPD1     H 3832   4.230   1.934  10.978 -0.1302 -0.5359 -0.8273
  249MPD1    H1 3833   4.059   1.536  10.983  1.4592 -0.6918 -0.9830
  249MPD1    H2 3834   4.295   1.673  11.305  0.3721  0.4678  0.7425
  249MPD1    H3 3835   4.155   1.507  11.204 -0.2376 -0.3757  0.1693
  249MPD1     N 3836   4.088   1.752  10.827 -0.5310  0.0824 -0.0112
  249MPD1    H5 3837   4.122   1.836  10.780 -2.7015  1.6398  1.1859
  249MPD1    N1 3838   4.347   1.925  11.206 -0.0241  0.5733 -0.2054
  249MPD1    H6 3839   4.330   2.019  11.170 -1.9438  0.4482  0.3703
  249MPD1    H7 3840   4.337   1.931  11.307  1.2785 -0.9358 -0.0003
  250MPD2     C 3841   0.950   1.544  12.659 -0.5034 -0.7195  0.0439
  250MPD2    C1 3842   0.820   1.578  12.624 -0.0334  0.0379 -0.1731
  250MPD2    C2 3843   0.749   1.493  12.531 -0.5498 -0.0060  0.4581
  250MPD2    C3 3844   0.810   1.379  12.476 -0.2351  0.3954  0.5125
  250MPD2    C4 3845   0.925   1.336  12.541 -0.2265  0.0767  0.0489
  250MPD2    C5 3846   0.986   1.418  12.624  0.1902  1.3319 -0.1856
  250MPD2     H 3847   0.650   1.516  12.494  1.0162  1.1146 -3.0744
  250MPD2    H1 3848   0.969   1.242  12.511  1.0548  0.0922  1.8338
  250MPD2    H2 3849   1.012   1.604  12.724 -0.6025  0.4079 -0.9160
  250MPD2    H3 3850   1.082   1.376  12.654 -0.8656  0.6996  2.3807
  250MPD2     N 3851   0.752   1.298  12.382  0.6530 -0.2838 -0.1478
  250MPD2    H5 3852   0.806   1.220  12.345 -0.2831 -1.0034 -0.0020
  250MPD2    N1 3853   0.771   1.699  12.684 -0.3767  0.5462  0.7963
  250MPD2    H7 3854   0.829   1.756  12.745  2.0474 -0.7975 -0.2500
  251TMC3    C1 3855   0.646   1.896  12.684 -0.5369 -0.0793 -0.8605
  251TMC3    C2 3856   0.522   1.945  12.646 -0.3819  0.7584 -0.0427
  251TMC3    C3 3857   0.523   2.076  12.602  0.1242 -0.0890 -0.4010
  251TMC3    C4 3858   0.759   1.972  12.661 -0.5635 -0.6369 -0.1930
  251TMC3    C5 3859   0.753   2.099  12.617 -0.2027 -0.2273  0.1666
  251TMC3    C6 3860   0.633   2.156  12.580 -0.7018  0.1314 -0.1684
  251TMC3     C 3861   0.653   1.757  12.654 -0.1629  0.5001  0.1522
  251TMC3     O 3862   0.555   1.701  12.603  0.0994 -0.7330  0.2402
  251TMC3     H 3863   0.429   1.891  12.649 -0.4013  0.8754  1.6230
  251TMC3    H1 3864   0.855   1.935  12.695 -0.1314  0.0721 -0.6346
  251TMC3    H2 3865   0.630   2.264  12.573 -0.2478  0.0481 -1.7118
  251TMC3    C7 3866   0.858   2.177  12.668 -0.3125  0.6902  0.0195
  251TMC3    C8 3867   0.393   2.138  12.588  0.0103  0.8359 -0.6377
  251TMC3    O1 3868   0.827   2.285  12.712  0.0989  0.3965 -0.0327
  251TMC3    O2 3869   0.322   2.136  12.689  0.0581  0.1596  0.5661
  252TMC3    C1 3870   1.228   3.161   9.434 -0.3586 -0.1037 -0.3169
  252TMC3    C2 3871   1.327   3.233   9.379 -0.0534  0.2016 -0.7671
  252TMC3    C3 3872   1.432   3.164   9.320  0.1933  0.2191  0.6048
  252TMC3    C4 3873   1.223   3.023   9.419 -0.3491 -0.4030 -0.4637
  252TMC3    C5 3874   1.325   2.959   9.349 -0.6060  0.4043 -0.1084
  252TMC3    C6 3875   1.429   3.025   9.295  0.2869 -0.0600 -0.4688
  252TMC3     C 3876   1.103   3.230   9.442 -0.5121 -0.2710 -0.3852
  252TMC3     O 3877   1.084   3.316   9.349  0.0886  0.4894 -0.2559
  252TMC3     H 3878   1.330   3.338   9.407 -0.9547  0.0127  0.0601
  252TMC3    H1 3879   1.149   2.968   9.476  1.5969 -0.9920  1.5208
  252TMC3    H2 3880   1.515   2.973   9.255 -0.0146 -0.1913 -0.9408
  252TMC3    C7 3881   1.334   2.813   9.351  0.0372 -0.1328  0.1677
  252TMC3    C8 3882   1.561   3.227   9.295 -0.2162  0.1650 -0.2131
  252TMC3    O1 3883   1.449   2.769   9.343  0.0346  0.1534  0.0741
  252TMC3    O2 3884   1.630   3.185   9.205  0.4432 -0.5456 -0.8894
  253MPD2     C 3885   2.123   1.463  14.706 -0.0673  0.0936  0.2768
  253MPD2    C1 3886   1.990   1.460  14.759  0.0900 -0.0527 -0.1848
  253MPD2    C2 3887   1.979   1.494  14.891  0.5582 -0.1538 -0.3678
  253MPD2    C3 3888   2.091   1.502  14.977  0.6948  0.7730  0.2166
  253MPD2    C4 3889   2.214   1.499  14.926  0.2492 -0.2433 -0.0083
  253MPD2    C5 3890   2.233   1.476  14.789  0.2803  0.2489 -0.4869
  253MPD2     H 3891   1.881   1.497  14.938 -0.3023 -0.6773 -2.0966
  253MPD2    H1 3892   2.290   1.513  15.002 -0.0234 -1.0203  0.4126
  253MPD2    H2 3893   2.132   1.436  14.601 -0.8167  1.5575 -0.1642
  253MPD2    H3 3894   2.330   1.456  14.746  1.2970  1.1169  1.4515
  253MPD2     N 3895   2.079   1.521  15.115 -0.0747 -0.0799  0.5566
  253MPD2    H5 3896   2.165   1.510  15.167 -1.3568  0.9514  2.9194
  253MPD2    N1 3897   1.875   1.451  14.679 -0.7513  0.1788 -0.1266
  253MPD2    H7 3898   1.789   1.471  14.728 -0.2602  0.8575  0.4458
  254TMC3    C1 3899   1.963   1.589  15.319  0.1790 -0.1723 -0.2285
  254TMC3    C2 3900   1.872   1.679  15.382  1.0126 -0.4027 -0.5670
  254TMC3    C3 3901   1.857   1.663  15.514  0.3499  0.1410  0.2236
  254TMC3    C4 3902   2.028   1.486  15.387  0.2286  0.6814 -0.1774
  254TMC3    C5 3903   2.000   1.483  15.523 -0.7262  0.2559 -0.2090
  254TMC3    C6 3904   1.921   1.568  15.591 -0.1128  0.0335  0.5670
  254TMC3     C 3905   1.966   1.582  15.172  0.2432  0.2100 -0.6425
  254TMC3     O 3906   1.896   1.661  15.112 -0.1926  0.0635  0.4670
  254TMC3     H 3907   1.824   1.758  15.324  1.6787  0.4745  0.0615
  254TMC3    H1 3908   2.089   1.413  15.335  0.9414 -0.1423  1.8018
  254TMC3    H2 3909   1.921   1.554  15.698  2.1253  1.1146  0.7131
  254TMC3    C7 3910   2.088   1.396  15.604 -0.2405 -0.1192 -0.6103
  254TMC3    C8 3911   1.818   1.775  15.595  0.1852  1.2417  0.1871
  254TMC3    O1 3912   2.039   1.357  15.709 -0.6660  0.6695  0.1072
  254TMC3    O2 3913   1.797   1.743  15.711  0.1336  0.1597  0.0058
  255MPD2     C 3914   0.385   4.461  10.222 -0.2888 -0.0157  0.1858
  255MPD2    C1 3915   0.426   4.591  10.208  0.5041  0.1408  1.2560
  255MPD2    C2 3916   0.562   4.622  10.204 -0.5717  0.4811  0.3394
  255MPD2    C3 3917   0.649   4.515  10.215  0.4471  0.8483  0.9377
  255MPD2    C4 3918   0.607   4.389  10.221  0.4262 -0.1336  0.4081
  255MPD2    C5 3919   0.476   4.364  10.224  0.1471 -0.6785  0.3465
  255MPD2     H 3920   0.597   4.725  10.206  1.1670 -0.0724 -1.4668
  255MPD2    H1 3921   0.671   4.302  10.225 -0.3088 -0.7972 -1.9039
  255MPD2    H2 3922   0.279   4.438  10.230 -0.4858  1.9644  3.0660
  255MPD2    H3 3923   0.444   4.262  10.241  1.6164 -1.5742 -2.1609
  255MPD2     N 3924   0.786   4.548  10.217  0.2086 -0.2352 -0.0350
  255MPD2    H5 3925   0.819   4.642  10.196  0.5065 -0.3510 -0.0823
  255MPD2    N1 3926   0.324   4.690  10.191  0.4161 -0.2819 -0.7219
  255MPD2    H7 3927   0.230   4.654  10.200 -0.3735  1.5323 -1.7571
  256TMC3    C1 3928   0.228   0.164  10.166 -1.2326 -0.2699 -0.0789
  256TMC3    C2 3929   0.225   0.289  10.210 -0.4473  0.1344 -0.5049
  256TMC3    C3 3930   0.098   0.340  10.234  0.0139 -0.6604 -0.3636
  256TMC3    C4 3931   0.113   0.100  10.127 -0.0240  0.3945 -0.1158
  256TMC3    C5 3932   4.731   0.157  10.136  0.1084 -0.3534 -0.5212
  256TMC3    C6 3933   4.724   0.279  10.197 -0.2553  0.2537  0.3346
  256TMC3     C 3934   0.346   0.087  10.178 -0.7263 -0.3127 -0.9633
  256TMC3     O 3935   0.453   0.145  10.184  0.0913  0.4959 -0.4141
  256TMC3     H 3936   0.313   0.326  10.262 -1.4811 -0.3040  1.5582
  256TMC3    H1 3937   0.131   0.013  10.066 -0.2496  0.2514  0.0257
  256TMC3    H2 3938   4.633   0.338  10.205 -0.7872 -0.5111 -0.1084
  256TMC3    C7 3939   4.634   0.122  10.030  0.2909 -0.4823 -0.0334
  256TMC3    C8 3940   0.086   0.477  10.276 -0.2225 -0.3669  0.3837
  256TMC3    O1 3941   4.649   0.012   9.983  0.1414 -0.6984 -0.2184
  256TMC3    O2 3942   4.734   0.501  10.350 -0.1570 -0.5448 -0.0211
  257MPD2     C 3943   4.436   1.618  13.141  0.1216 -0.1494  0.7699
  257MPD2    C1 3944   4.391   1.505  13.066 -0.3760  0.2850  0.3050
  257MPD2    C2 3945   4.360   1.385  13.129 -0.0461 -0.1740  0.4324
  257MPD2    C3 3946   4.374   1.370  13.257  0.9151 -0.5803  0.2279
  257MPD2    C4 3947   4.397   1.483  13.336 -0.6351 -0.4671 -0.8740
  257MPD2    C5 3948   4.422   1.602  13.276 -0.0789 -1.0981 -0.8849
  257MPD2     H 3949   4.340   1.296  13.071  0.1597 -0.3241  0.5891
  257MPD2    H1 3950   4.391   1.485  13.445  2.1034 -0.9170 -0.7071
  257MPD2    H2 3951   4.458   1.713  13.094  1.2259 -0.2521  1.0707
  257MPD2    H3 3952   4.441   1.682  13.348  0.5945 -1.2100 -0.9363
  257MPD2     N 3953   4.353   1.239  13.304 -0.8250  1.2222  0.6347
  257MPD2    H5 3954   4.307   1.174  13.241 -1.3211  0.7499  1.4746
  257MPD2    N1 3955   4.385   1.527  12.927 -0.3838 -0.5618 -0.1253
  257MPD2    H7 3956   4.409   1.620  12.892 -2.1043  0.6875  2.0310
  258TMC3    C1 3957   4.347   1.065  13.443 -0.9760  0.3657 -0.1911
  258TMC3    C2 3958   4.245   1.007  13.372 -0.2776  0.1289  0.1642
  258TMC3    C3 3959   4.213   0.874  13.396  0.4306  0.1704 -0.3731
  258TMC3    C4 3960   4.418   0.993  13.535 -0.2272  0.2737 -0.3869
  258TMC3    C5 3961   4.387   0.862  13.560 -0.4423  0.4518 -0.6006
  258TMC3    C6 3962   4.284   0.803  13.491 -0.2592  0.1629  0.2952
  258TMC3     C 3963   4.392   1.199  13.425  0.3242  0.2105 -0.0598
  258TMC3     O 3964   4.461   1.257  13.505 -0.1241  1.1481  0.3804
  258TMC3     H 3965   4.180   1.068  13.310 -0.2400  0.3022  0.2956
  258TMC3    H1 3966   4.502   1.045  13.579  0.6559 -2.8148  1.6631
  258TMC3    H2 3967   4.255   0.702  13.520 -0.2843  0.1073  0.0777
  258TMC3    C7 3968   4.494   0.762  13.583  0.7012  0.1304 -0.2414
  258TMC3    C8 3969   4.095   0.812  13.333 -0.0227  0.7088 -0.1943
  258TMC3    O1 3970   4.469   0.645  13.554  0.2109 -0.3503  0.2185
  258TMC3    O2 3971   4.052   0.709  13.381 -0.7943  0.0716  0.3933
  259MPD2     C 3972   3.096   3.481   0.535 -0.0480  0.2041 -0.3893
  259MPD2    C1 3973   3.074   3.350   0.547 -0.0698  0.1390  0.1595
  259MPD2    C2 3974   3.133   3.260   0.452 -0.0568  0.2529 -0.3825
  259MPD2    C3 3975   3.227   3.307   0.356  0.6464  0.0484 -0.0821
  259MPD2    C4 3976   3.256   3.444   0.356 -0.6209  0.1415  0.0239
  259MPD2    C5 3977   3.187   3.533   0.442  0.6286 -0.4386  0.7790
  259MPD2     H 3978   3.133   3.153   0.470 -0.4605  0.4609  0.8107
  259MPD2    H1 3979   3.337   3.489   0.299 -2.3020  0.3000 -2.2175
  259MPD2    H2 3980   3.060   3.556   0.604  0.5538  1.6465 -1.6489
  259MPD2    H3 3981   3.211   3.639   0.439  2.5639 -0.8926  0.4010
  259MPD2     N 3982   3.295   3.208   0.276  1.0188  0.0382 -0.7508
  259MPD2    H5 3983   3.262   3.112   0.276 -1.0777  0.7732 -2.3342
  259MPD2    N1 3984   3.002   3.306   0.661  1.0571 -0.7935  0.1450
  259MPD2    H7 3985   2.965   3.374   0.726 -1.4467 -0.0811 -2.0373
  260TMC3    C1 3986   3.468   3.104   0.151  0.5187 -0.2105 -0.4499
  260TMC3    C2 3987   3.574   3.133   0.063  0.0431  0.1929 -0.2764
  260TMC3    C3 3988   3.669   3.034   0.050  0.3641 -0.0737 -0.1374
  260TMC3    C4 3989   3.466   2.989   0.230  0.2924  1.0558  0.0335
  260TMC3    C5 3990   3.572   2.903   0.221  0.0097 -0.3236  0.3307
  260TMC3    C6 3991   3.677   2.926   0.137  0.1894  0.5399  0.6344
  260TMC3     C 3992   3.397   3.231   0.187  0.6540  0.0505  0.1103
  260TMC3     O 3993   3.419   3.333   0.125  0.1225 -0.5063  0.1468
  260TMC3     H 3994   3.578   3.225   0.005  1.9348  0.6018  0.4971
  260TMC3    H1 3995   3.386   2.979   0.302 -0.3921  1.0381 -0.7300
  260TMC3    H2 3996   3.752   2.849   0.122  2.0682  2.1923  1.5324
  260TMC3    C7 3997   3.545   2.759   0.235 -0.5426  0.4871 -0.4121
  260TMC3    C8 3998   3.753   3.042  17.698  0.5246 -0.2497  0.0343
  260TMC3    O1 3999   3.622   2.679   0.177  0.0475 -0.6224 -0.8195
  260TMC3    O2 4000   3.756   3.146  17.635  0.8890  0.3496  0.2239
  261MPD2     C 4001   0.220   1.380  11.734  0.0412 -0.2029  0.1630
  261MPD2    C1 4002   0.328   1.425  11.786  0.7143  0.0861  0.0042
  261MPD2    C2 4003   0.369   1.557  11.767  0.2950  0.2072  0.2941
  261MPD2    C3 4004   0.290   1.642  11.690  0.0794  0.0148 -0.6813
  261MPD2    C4 4005   0.169   1.592  11.640 -0.2806 -0.0879  0.1060
  261MPD2    C5 4006   0.139   1.459  11.669 -0.8136  0.0093  0.3169
  261MPD2     H 4007   0.472   1.585  11.789  0.5800 -0.7845  0.2540
  261MPD2    H1 4008   0.104   1.650  11.576 -1.6366 -1.4777  0.2214
  261MPD2    H2 4009   0.178   1.282  11.749  0.0942  0.0024  1.6804
  261MPD2    H3 4010   0.047   1.420  11.629 -0.3326 -0.7055 -0.0912
  261MPD2     N 4011   0.351   1.766  11.652 -0.0956 -0.2056  0.3214
  261MPD2    H5 4012   0.433   1.792  11.705  0.0325  0.4940 -0.2112
  261MPD2    N1 4013   0.415   1.349  11.866  0.2181 -0.8674 -0.3625
  261MPD2    H7 4014   0.501   1.396  11.893  0.7089 -1.9621 -0.0129
  262TMC3    C1 4015   0.383   1.971  11.552  0.0097 -0.0077 -0.0301
  262TMC3    C2 4016   0.329   2.091  11.544  0.2793  0.8234 -0.1467
  262TMC3    C3 4017   0.418   2.195  11.509  0.0572 -0.5399  0.2396
  262TMC3    C4 4018   0.520   1.955  11.530 -0.0519  0.1173 -0.2424
  262TMC3    C5 4019   0.598   2.059  11.496  0.1938 -0.7088  0.2196
  262TMC3    C6 4020   0.549   2.181  11.483 -0.4937 -0.1634  0.2823
  262TMC3     C 4021   0.291   1.860  11.577 -0.5613  0.7672 -0.5871
  262TMC3     O 4022   0.171   1.877  11.566  0.3729 -0.0952 -0.6621
  262TMC3     H 4023   0.225   2.102  11.572  0.9900  0.0072  2.8039
  262TMC3    H1 4024   0.561   1.855  11.533 -0.8155 -0.1680  0.9439
  262TMC3    H2 4025   0.605   2.267  11.447 -0.8005 -0.0398  0.0988
  262TMC3    C7 4026   0.723   2.024  11.434  0.6580 -0.2006  0.1033
  262TMC3    C8 4027   0.374   2.334  11.520 -0.7784  0.6101 -0.0292
  262TMC3    O1 4028   0.732   1.906  11.401 -0.6889  0.3223 -0.3235
  262TMC3    O2 4029   0.467   2.410  11.533  0.1352  0.0465  0.4838
  263MPD2     C 4030   1.078   1.173  11.572 -0.3066 -0.4275  0.3483
  263MPD2    C1 4031   1.190   1.219  11.508 -0.0079 -0.6541 -0.0872
  263MPD2    C2 4032   1.180   1.328  11.426  0.6157  0.0164 -0.5802
  263MPD2    C3 4033   1.050   1.379  11.392 -0.7815 -0.5507 -0.2276
  263MPD2    C4 4034   0.940   1.325  11.449 -0.4124 -0.3275  0.3483
  263MPD2    C5 4035   0.953   1.220  11.537  0.2613  0.0932  0.2493
  263MPD2     H 4036   1.273   1.374  11.395  1.1390 -0.5031  0.2125
  263MPD2    H1 4037   0.838   1.359  11.432  0.2673  1.5091 -0.0903
  263MPD2    H2 4038   1.071   1.086  11.636  0.2737 -0.4526  0.3813
  263MPD2    H3 4039   0.872   1.164  11.580 -0.4999  0.2043 -1.0328
  263MPD2     N 4040   1.050   1.480  11.297  0.0029  0.7657  0.2953
  263MPD2    H5 4041   1.141   1.509  11.262  0.5464 -0.1552  0.9609
  263MPD2    N1 4042   1.312   1.154  11.539 -0.0248  0.3707 -0.3309
  263MPD2    H7 4043   1.313   1.084  11.613 -1.0620  0.9619  0.2354
  264TMC3    C1 4044   0.957   1.631  11.147 -0.2759  0.0595  0.1000
  264TMC3    C2 4045   0.845   1.709  11.118  0.4055 -0.1218 -0.9636
  264TMC3    C3 4046   0.838   1.761  10.991  0.5811  0.2926 -0.2020
  264TMC3    C4 4047   1.053   1.597  11.049 -0.7099  0.2577  0.0724
  264TMC3    C5 4048   1.049   1.662  10.928  0.0820 -0.4352  0.0541
  264TMC3    C6 4049   0.934   1.725  10.891 -0.0915 -0.3467 -0.3911
  264TMC3     C 4050   0.938   1.542  11.250 -0.2565 -0.3104 -0.7354
  264TMC3     O 4051   0.818   1.509  11.262  0.0589  0.4439  0.2451
  264TMC3     H 4052   0.776   1.734  11.197  0.1716 -0.5834 -1.0231
  264TMC3    H1 4053   1.124   1.517  11.065  1.6788  2.5448  1.0199
  264TMC3    H2 4054   0.925   1.767  10.792  0.2939 -1.1151 -0.7441
  264TMC3    C7 4055   1.172   1.733  10.910 -0.3818 -0.0652 -0.1664
  264TMC3    C8 4056   0.816   1.903  10.980  0.5524 -1.1032  0.5637
  264TMC3    O1 4057   1.277   1.674  10.938  0.0455  0.0409  0.2770
  264TMC3    O2 4058   0.873   1.959  10.887  0.3580  0.4923  0.0135
  265MPD2     C 4059   3.421   1.203  15.481  0.1267  0.2920  0.0629
  265MPD2    C1 4060   3.421   1.307  15.384 -0.1652 -0.1607  0.0030
  265MPD2    C2 4061   3.485   1.286  15.262  0.1094 -0.0818  0.0004
  265MPD2    C3 4062   3.547   1.163  15.238  0.0104 -0.8591  0.8800
  265MPD2    C4 4063   3.548   1.065  15.338  0.0400  0.5896 -0.0351
  265MPD2    C5 4064   3.478   1.083  15.454  0.3489 -0.1220  0.0746
  265MPD2     H 4065   3.489   1.361  15.184 -3.9455 -1.2136 -1.3028
  265MPD2    H1 4066   3.602   0.972  15.323  0.5977  0.8503  0.3368
  265MPD2    H2 4067   3.375   1.213  15.579 -0.8664  2.2142 -0.6028
  265MPD2    H3 4068   3.478   1.006  15.531  0.7374 -0.2354 -0.0404
  265MPD2     N 4069   3.617   1.136  15.122 -0.1048  0.0535  0.2503
  265MPD2    H5 4070   3.677   1.054  15.123 -0.7147 -0.4124 -1.9185
  265MPD2    N1 4071   3.359   1.432  15.412  0.3351  0.1051  0.5841
  265MPD2    H7 4072   3.370   1.507  15.345 -2.0242 -0.9055 -0.9325
  266TMC3    C1 4073   3.243   1.603  15.523 -1.1150 -0.3879 -0.2015
  266TMC3    C2 4074   3.264   1.659  15.646  0.2865 -0.4276  0.5267
  266TMC3    C3 4075   3.282   1.795  15.656  0.5400  0.1979  0.0427
  266TMC3    C4 4076   3.237   1.671  15.407  0.4119 -0.3569 -0.1985
  266TMC3    C5 4077   3.256   1.809  15.422 -0.3494  0.1743  0.4106
  266TMC3    C6 4078   3.269   1.873  15.545  0.3066  0.0002  0.7732
  266TMC3     C 4079   3.274   1.462  15.521 -0.4434  0.1936  0.4684
  266TMC3     O 4080   3.247   1.402  15.627  0.3888 -0.3884  0.6361
  266TMC3     H 4081   3.307   1.594  15.722  0.7378 -1.5116 -0.6464
  266TMC3    H1 4082   3.230   1.615  15.314 -1.2633  0.5951 -0.6439
  266TMC3    H2 4083   3.263   1.981  15.555 -1.3704 -0.2338  2.1497
  266TMC3    C7 4084   3.237   1.892  15.304  0.4978  0.8082 -0.4213
  266TMC3    C8 4085   3.379   1.836  15.752 -0.0861 -0.5674  0.6046
  266TMC3    O1 4086   3.182   1.831  15.211 -0.1278  0.4920  0.6239
  266TMC3    O2 4087   3.438   1.746  15.818 -0.1564 -0.0493 -0.0503
  267MPD2     C 4088   1.369   3.219   0.311  0.6190  0.2564 -0.8951
  267MPD2    C1 4089   1.429   3.285   0.210  0.3411  0.7503  0.1820
  267MPD2    C2 4090   1.382   3.262   0.084 -0.4698  0.2397  0.0304
  267MPD2    C3 4091   1.273   3.181   0.062 -0.1259 -0.5777  0.5116
  267MPD2    C4 4092   1.204   3.121   0.167  0.0539 -0.1254  0.0701
  267MPD2    C5 4093   1.257   3.145   0.289 -0.5199 -0.2688 -0.6370
  267MPD2     H 4094   1.422   3.317  17.765 -2.5758 -0.7706 -1.6446
  267MPD2    H1 4095   1.115   3.061   0.154  0.0984 -0.4384  1.1742
  267MPD2    H2 4096   1.413   3.227   0.410 -1.5598  0.3840  0.0835
  267MPD2    H3 4097   1.200   3.097   0.368  2.4362 -0.6057  1.3060
  267MPD2     N 4098   1.226   3.153  17.698  0.3838 -0.1415  0.6965
  267MPD2    H5 4099   1.140   3.100  17.704 -0.1867  0.7840  0.7304
  267MPD2    N1 4100   1.532   3.369   0.245 -0.1969 -0.2073 -0.3395
  267MPD2    H7 4101   1.558   3.375   0.343 -2.2580  1.3830  0.0979
  268TMC3    C1 4102   1.718   3.511   0.228  0.9743  0.0112  0.0984
  268TMC3    C2 4103   1.792   3.590   0.149  0.3344 -0.5150  0.1109
  268TMC3    C3 4104   1.898   3.665   0.207  0.4243  0.3822  0.6673
  268TMC3    C4 4105   1.735   3.505   0.366 -0.2576  0.1507 -0.5682
  268TMC3    C5 4106   1.835   3.583   0.411  0.1891 -0.2983 -0.4470
  268TMC3    C6 4107   1.912   3.662   0.336  0.1040  0.7042  0.2756
  268TMC3     C 4108   1.608   3.443   0.157 -0.0647 -0.0661  0.8583
  268TMC3     O 4109   1.599   3.467   0.036 -0.3472  0.5016 -0.2673
  268TMC3     H 4110   1.770   3.605   0.044  0.9943 -2.0070 -0.2408
  268TMC3    H1 4111   1.684   3.436   0.432 -0.1994  1.4321  0.8130
  268TMC3    H2 4112   1.983   3.724   0.389  1.4312 -0.7613  0.1775
  268TMC3    C7 4113   1.867   3.577   0.549 -0.4997  0.1642  0.3083
  268TMC3    C8 4114   2.004   3.720   0.126 -0.5735 -0.1118  0.3021
  268TMC3    O1 4115   1.981   3.594   0.584 -0.0803 -0.1047 -0.8582
  268TMC3    O2 4116   2.081   3.790   0.187 -0.2623  0.1533  0.6188
  269MPD2     C 4117   1.510   1.994  15.558  0.0406 -0.1318 -0.2695
  269MPD2    C1 4118   1.467   2.041  15.674  0.3327 -0.2068 -0.4026
  269MPD2    C2 4119   1.467   2.178  15.699 -0.5851  0.4702  0.4577
  269MPD2    C3 4120   1.500   2.270  15.599 -0.2508  0.5683  0.8320
  269MPD2    C4 4121   1.554   2.213  15.486  0.6228  0.8606  1.1305
  269MPD2    C5 4122   1.551   2.079  15.464 -0.0417  0.4404  0.4596
  269MPD2     H 4123   1.419   2.220  15.786  0.0114  0.1847  0.9274
  269MPD2    H1 4124   1.594   2.273  15.405  0.9340 -0.6478  0.1734
  269MPD2    H2 4125   1.508   1.890  15.529 -0.9754  0.2123 -1.4203
  269MPD2    H3 4126   1.566   2.042  15.363 -0.4045  2.3274 -0.2877
  269MPD2     N 4127   1.494   2.411  15.636 -0.6420 -0.0073  0.1136
  269MPD2    H5 4128   1.472   2.438  15.731  0.2010  0.8047  0.0690
  269MPD2    N1 4129   1.417   1.946  15.763 -0.6543  0.1982  0.1846
  269MPD2    H7 4130   1.394   1.860  15.716 -1.6121  0.8270 -0.4730
  270TMC3    C1 4131   1.328   1.862  15.958 -0.2762  0.6359  0.1786
  270TMC3    C2 4132   1.219   1.815  15.887  0.0257 -0.4911 -0.2466
  270TMC3    C3 4133   1.180   1.686  15.915  0.1891 -0.0252  0.1985
  270TMC3    C4 4134   1.400   1.782  16.047 -0.0249 -0.0633  0.1941
  270TMC3    C5 4135   1.351   1.659  16.079 -0.5623  0.1578  0.5370
  270TMC3    C6 4136   1.241   1.606  16.005  0.5238 -0.0555  0.3267
  270TMC3     C 4137   1.385   1.974  15.894 -0.2238  0.3377 -0.0350
  270TMC3     O 4138   1.425   2.066  15.963 -0.3623  0.6187  0.1782
  270TMC3     H 4139   1.175   1.864  15.802 -1.7141  1.3870  1.7568
  270TMC3    H1 4140   1.498   1.817  16.077  0.4256 -0.8425 -0.3613
  270TMC3    H2 4141   1.214   1.501  16.005 -1.9435  0.5897  2.3061
  270TMC3    C7 4142   1.453   1.561  16.107  0.0797 -0.2072 -0.8953
  270TMC3    C8 4143   1.106   1.615  15.805  0.0783 -0.0889 -0.3101
  270TMC3    O1 4144   1.462   1.470  16.028 -0.0213 -0.0867  0.4423
  270TMC3    O2 4145   1.164   1.518  15.759  0.1605  0.0148 -0.2358
  271MPD2     C 4146   0.432   1.295  14.030  0.0358 -0.0021 -0.8095
  271MPD2    C1 4147   0.442   1.405  14.112 -0.7489  0.0577 -0.0141
  271MPD2    C2 4148   0.372   1.522  14.073  0.1207 -0.1950 -0.2804
  271MPD2    C3 4149   0.292   1.531  13.958 -0.5106  0.2918 -0.1849
  271MPD2    C4 4150   0.286   1.414  13.881  0.2347 -0.1391 -0.0802
  271MPD2    C5 4151   0.352   1.306  13.917 -0.3508 -0.3002  0.3906
  271MPD2     H 4152   0.384   1.614  14.130 -0.9697 -0.0653 -0.2626
  271MPD2    H1 4153   0.231   1.410  13.788  2.1869 -1.4315 -1.1636
  271MPD2    H2 4154   0.480   1.200  14.051  0.6278  0.1113 -1.6532
  271MPD2    H3 4155   0.352   1.219  13.854 -0.1989 -0.8630  1.1662
  271MPD2     N 4156   0.221   1.643  13.923 -0.5901 -0.0175  0.0918
  271MPD2    H5 4157   0.178   1.633  13.832 -2.4809 -0.9817  1.0755
  271MPD2    N1 4158   0.513   1.400  14.236 -0.6398 -0.1123  0.2264
  271MPD2    H7 4159   0.533   1.489  14.281  0.4692  0.1584 -0.8180
  272TMC3    C1 4160   0.634   1.312  14.418  0.2239 -0.2618  0.7082
  272TMC3    C2 4161   0.731   1.227  14.452  0.2663 -0.7519 -0.4163
  272TMC3    C3 4162   0.782   1.244  14.579 -0.9088 -0.0279 -0.6571
  272TMC3    C4 4163   0.580   1.408  14.497  0.0853 -0.6129  0.0615
  272TMC3    C5 4164   0.637   1.423  14.619 -1.0068  0.1271  0.3461
  272TMC3    C6 4165   0.742   1.352  14.662  0.2755  0.1764 -0.1144
  272TMC3     C 4166   0.581   1.287  14.285  0.5548 -0.8202  0.7811
  272TMC3     O 4167   0.594   1.175  14.238  0.3298  0.2647 -0.1498
  272TMC3     H 4168   0.769   1.152  14.383  0.8882 -0.2004 -0.6711
  272TMC3    H1 4169   0.486   1.454  14.468  1.3815  0.2682 -2.7636
  272TMC3    H2 4170   0.776   1.361  14.765  1.2045 -0.4063 -0.3708
  272TMC3    C7 4171   0.569   1.506  14.725  0.4186  0.4556  0.5318
  272TMC3    C8 4172   0.872   1.146  14.636 -0.5068 -0.7590 -0.1143
  272TMC3    O1 4173   0.447   1.505  14.718  0.4550  0.3281 -0.9071
  272TMC3    O2 4174   0.880   1.157  14.760  0.7816  0.4290 -0.3368
  273MPD2     C 4175   1.744   0.195  11.943 -0.4306 -0.6838 -0.5519
  273MPD2    C1 4176   1.854   0.261  11.903  0.1387  0.5105  0.7677
  273MPD2    C2 4177   1.870   0.279  11.769  0.6343 -0.1183  0.5164
  273MPD2    C3 4178   1.770   0.253  11.679  0.1141  0.0206  0.0833
  273MPD2    C4 4179   1.656   0.193  11.715 -0.1519  0.0021  0.2426
  273MPD2    C5 4180   1.645   0.162  11.852  1.2173 -0.7635  0.6826
  273MPD2     H 4181   1.963   0.319  11.733 -0.6166  0.7619 -1.7245
  273MPD2    H1 4182   1.589   0.165  11.635 -0.9378 -0.6066  1.1146
  273MPD2    H2 4183   1.727   0.169  12.047  1.2950  0.0322 -0.0807
  273MPD2    H3 4184   1.558   0.112  11.894 -1.0267  2.8751  0.3613
  273MPD2     N 4185   1.788   0.260  11.541  0.4274 -0.0293  0.4760
  273MPD2    H5 4186   1.717   0.200  11.498 -0.0177  0.5922  0.3467
  273MPD2    N1 4187   1.956   0.287  11.998  0.3189  0.1051  0.0451
  273MPD2    H7 4188   1.921   0.277  12.093  1.0484 -0.7401  0.2327
  274TMC3    C1 4189   1.891   0.311  11.335 -0.3597  0.2703 -0.4647
  274TMC3    C2 4190   1.775   0.265  11.276  0.8749  0.1973 -0.1133
  274TMC3    C3 4191   1.783   0.279  11.141 -0.1566  0.3141  0.1397
  274TMC3    C4 4192   2.000   0.362  11.270 -0.2004 -0.3391 -0.1790
  274TMC3    C5 4193   2.002   0.361  11.133 -0.5869 -0.0293 -0.1120
  274TMC3    C6 4194   1.899   0.300  11.071  0.3593 -0.2392  0.1107
  274TMC3     C 4195   1.890   0.323  11.481  0.7888 -0.3003  0.3652
  274TMC3     O 4196   1.979   0.391  11.531  0.0712 -0.0567  0.1368
  274TMC3     H 4197   1.679   0.258  11.327  0.9006 -2.8386 -0.5124
  274TMC3    H1 4198   2.082   0.399  11.331 -0.7086 -1.0958  0.9427
  274TMC3    H2 4199   1.893   0.319  10.964 -2.5481 -0.0554  0.2909
  274TMC3    C7 4200   2.027   0.496  11.076 -0.4567 -0.0496 -0.5998
  274TMC3    C8 4201   1.656   0.305  11.065 -0.2230 -0.2801 -0.5457
  274TMC3    O1 4202   2.075   0.504  10.963 -0.4038 -0.1214 -0.1341
  274TMC3    O2 4203   1.673   0.356  10.957 -0.1804  0.1810  0.5172
  275MPD2     C 4204   1.844   2.717  14.403  0.1777 -0.0937 -0.1652
  275MPD2    C1 4205   1.873   2.582  14.426  0.6737  0.3984 -0.0421
  275MPD2    C2 4206   1.788   2.486  14.378 -0.6371 -0.5172 -0.3743
  275MPD2    C3 4207   1.678   2.522  14.303 -0.5450 -0.0055 -0.2681
  275MPD2    C4 4208   1.660   2.659  14.270 -0.8144 -0.1680 -0.7642
  275MPD2    C5 4209   1.742   2.761  14.325  0.1622 -0.7107  0.8145
  275MPD2     H 4210   1.811   2.381  14.394  0.3650 -0.4275 -1.2539
  275MPD2    H1 4211   1.582   2.698  14.206 -0.4457  0.8271 -0.6035
  275MPD2    H2 4212   1.894   2.801  14.450  0.1922  0.5924 -1.3832
  275MPD2    H3 4213   1.706   2.862  14.307  0.5546 -0.4389  1.5682
  275MPD2     N 4214   1.580   2.431  14.268  0.1829 -0.0440 -0.2048
  275MPD2    H5 4215   1.516   2.465  14.196  0.4509 -0.9642 -0.8750
  275MPD2    N1 4216   1.986   2.535  14.495 -0.1462 -0.0151 -0.3075
  275MPD2    H7 4217   1.994   2.435  14.512 -1.9863  0.0052  0.6394
  276TMC3    C1 4218   2.161   2.545  14.662 -0.2570  0.9870  0.1588
  276TMC3    C2 4219   2.156   2.414  14.674  0.4464 -0.2191 -0.1933
  276TMC3    C3 4220   2.229   2.354  14.778  0.5353 -0.3704  0.3257
  276TMC3    C4 4221   2.238   2.627  14.748 -0.4911  0.5368 -0.3023
  276TMC3    C5 4222   2.308   2.565  14.841  0.2341  0.9809 -0.4970
  276TMC3    C6 4223   2.303   2.427  14.867  0.3989  0.3604 -0.8537
  276TMC3     C 4224   2.075   2.617  14.564  1.0168  0.1544 -0.3601
  276TMC3     O 4225   2.094   2.737  14.553  0.0271 -0.9428  0.4111
  276TMC3     H 4226   2.119   2.345  14.598 -1.6206 -0.6673  1.2223
  276TMC3    H1 4227   2.223   2.734  14.733  1.1508  0.4947 -2.2518
  276TMC3    H2 4228   2.358   2.381  14.948 -0.4013 -1.0649 -1.1146
  276TMC3    C7 4229   2.409   2.639  14.907  0.5287  0.3970 -0.0693
  276TMC3    C8 4230   2.260   2.213  14.765  0.4970 -0.0134  0.1950
  276TMC3    O1 4231   2.385   2.754  14.934  0.1738 -0.4201  0.0098
  276TMC3    O2 4232   2.358   2.170  14.825 -0.3203  0.3562 -0.2070
  277MPD2     C 4233   4.013   1.840  12.962 -0.1170  0.5136  0.3771
  277MPD2    C1 4234   3.883   1.873  12.996 -0.4871 -0.2696  0.0038
  277MPD2    C2 4235   3.836   1.831  13.125  0.0652 -0.3688  0.5610
  277MPD2    C3 4236   3.917   1.759  13.210 -0.2041  0.2226  0.2219
  277MPD2    C4 4237   4.048   1.727  13.170  0.0578  0.0545  0.5338
  277MPD2    C5 4238   4.093   1.770  13.048  0.1704  0.1032  0.8165
  277MPD2     H 4239   3.735   1.851  13.160 -0.0872 -1.9524  1.0091
  277MPD2    H1 4240   4.107   1.670  13.240 -0.5640 -1.2910 -0.0332
  277MPD2    H2 4241   4.049   1.883  12.869  1.8474  0.5208  1.1486
  277MPD2    H3 4242   4.191   1.742  13.011 -0.3309  0.5583 -0.8309
  277MPD2     N 4243   3.854   1.712  13.323  0.6164 -0.2528  0.2474
  277MPD2    H5 4244   3.754   1.724  13.332  0.1731 -2.3131 -1.9309
  277MPD2    N1 4245   3.805   1.961  12.916 -0.2397  0.3754  0.2702
  277MPD2    H7 4246   3.845   2.010  12.836  1.5645 -2.0640 -0.3162
  278TMC3    C1 4247   3.807   1.605  13.517  0.2555 -0.4633 -0.1560
  278TMC3    C2 4248   3.797   1.480  13.569 -0.3502  0.6247  0.4322
  278TMC3    C3 4249   3.683   1.444  13.627  0.0851 -0.6138  0.1592
  278TMC3    C4 4250   3.704   1.702  13.527  1.2007 -0.1301  0.3668
  278TMC3    C5 4251   3.590   1.652  13.585  0.0157  0.2973  0.8053
  278TMC3    C6 4252   3.578   1.530  13.646 -0.2416 -0.1214 -0.0232
  278TMC3     C 4253   3.907   1.631  13.424 -0.0102 -0.1529 -0.1757
  278TMC3     O 4254   4.020   1.583  13.445  0.2193 -0.4328 -0.4440
  278TMC3     H 4255   3.877   1.408  13.558 -0.4536  0.7618 -1.2498
  278TMC3    H1 4256   3.701   1.805  13.495  1.1828 -0.2423 -0.0006
  278TMC3    H2 4257   3.492   1.498  13.704  1.3308  0.1733  2.4717
  278TMC3    C7 4258   3.470   1.738  13.576  0.3963 -0.1314 -0.1763
  278TMC3    C8 4259   3.645   1.308  13.663 -0.3467  0.2587  0.0839
  278TMC3    O1 4260   3.491   1.844  13.516  0.1054  0.3598 -0.3937
  278TMC3    O2 4261   3.724   1.248  13.732 -0.1121  0.1237  0.2726
  279MPD2     C 4262   3.277   1.561  17.634 -0.0604  0.1572  0.3788
  279MPD2    C1 4263   3.143   1.592  17.615 -0.1137  0.5790 -0.1573
  279MPD2    C2 4264   3.099   1.606  17.482  0.7134 -0.4501  0.0163
  279MPD2    C3 4265   3.191   1.603  17.377 -0.1425  0.1032 -0.4676
  279MPD2    C4 4266   3.322   1.568  17.404 -0.5264  0.3486 -0.3162
  279MPD2    C5 4267   3.362   1.542  17.527 -0.0065 -0.0780 -0.2023
  279MPD2     H 4268   2.998   1.642  17.469  1.4171  0.9736 -1.5737
  279MPD2    H1 4269   3.386   1.566  17.316  2.3710 -3.2401  1.8505
  279MPD2    H2 4270   3.328   1.556  17.729 -0.4171  1.4169  0.6385
  279MPD2    H3 4271   3.465   1.512  17.541  0.0369 -0.6850 -1.8066
  279MPD2     N 4272   3.151   1.627  17.248 -0.6962 -0.0994  0.2124
  279MPD2    H5 4273   3.219   1.636  17.174  0.2668 -1.0265  0.9920
  279MPD2    N1 4274   3.059   1.605  17.726  0.1327 -0.2877 -0.3860
  279MPD2    H7 4275   3.104   1.615   0.051 -1.2975 -4.3575  0.7493
  280TMC3    C1 4276   2.879   1.648   0.095  0.4332 -0.0714  0.2485
  280TMC3    C2 4277   2.767   1.581   0.127  0.0987 -0.7873 -0.3781
  280TMC3    C3 4278   2.668   1.652   0.187  0.4764 -0.3636 -0.6851
  280TMC3    C4 4279   2.889   1.784   0.102  0.4193  0.2433  0.1961
  280TMC3    C5 4280   2.785   1.854   0.153 -0.3504 -0.2266 -0.7137
  280TMC3    C6 4281   2.678   1.786   0.205  0.0947  0.1087 -0.0269
  280TMC3     C 4282   2.922   1.602  17.731  0.3961  0.7064  0.0330
  280TMC3     O 4283   2.831   1.597  17.647  0.0713  0.3474  0.6471
  280TMC3     H 4284   2.758   1.474   0.111 -1.2284 -0.9217  1.3063
  280TMC3    H1 4285   2.979   1.824   0.057  0.7778 -1.5389 -0.6773
  280TMC3    H2 4286   2.594   1.843   0.243  0.4960  0.0637  0.9246
  280TMC3    C7 4287   2.772   1.987   0.102  0.3252 -0.3005 -0.4062
  280TMC3    C8 4288   2.539   1.591   0.226  0.1858  0.2402 -0.4506
  280TMC3    O1 4289   2.878   2.047   0.093 -0.9013 -0.0917 -0.6414
  280TMC3    O2 4290   2.481   1.648   0.318 -0.6869  0.0612 -0.1602
  281TMC3    C1 4291   1.026   2.667  13.264  0.3212 -0.2387 -0.2027
  281TMC3    C2 4292   1.081   2.609  13.153 -0.2962 -0.5877 -0.2319
  281TMC3    C3 4293   1.200   2.540  13.174 -0.5816  0.0040  0.3187
  281TMC3    C4 4294   1.089   2.654  13.388  0.9530 -0.0055  0.5993
  281TMC3    C5 4295   1.202   2.585  13.400 -0.2186  0.5841  0.2010
  281TMC3    C6 4296   1.258   2.521  13.298 -0.1989 -0.0171 -1.0374
  281TMC3     C 4297   0.902   2.746  13.262  0.1329 -0.1683 -0.3080
  281TMC3     O 4298   0.891   2.833  13.346 -0.1658  0.4211 -0.2562
  281TMC3     H 4299   1.028   2.616  13.058  1.2175  2.9904 -0.7992
  281TMC3    H1 4300   1.049   2.702  13.476  0.2310  2.9261 -1.3458
  281TMC3    H2 4301   1.347   2.460  13.308  0.3112  0.9419  0.2557
  281TMC3    C7 4302   1.219   2.528  13.532 -0.4321 -0.4622  0.5916
  281TMC3    C8 4303   1.270   2.467  13.075 -0.1945  0.3412 -0.7396
  281TMC3    O1 4304   1.180   2.599  13.623  0.7528  0.1935 -0.0741
  281TMC3    O2 4305   1.389   2.438  13.082  0.4037  0.4952  0.2796
  282MPD2     C 4306   3.668   3.028  14.812 -0.2991 -0.0718 -1.2964
  282MPD2    C1 4307   3.539   3.077  14.821 -0.8785  0.1747  0.3179
  282MPD2    C2 4308   3.452   3.048  14.725 -0.2761  0.3249  0.5532
  282MPD2    C3 4309   3.483   2.977  14.615  0.4160 -0.5690  0.3459
  282MPD2    C4 4310   3.599   2.911  14.609  0.9595 -0.2342  0.9278
  282MPD2    C5 4311   3.692   2.943  14.709  0.0880  0.2221  0.5353
  282MPD2     H 4312   3.358   3.103  14.724 -0.3971  0.1280  1.0613
  282MPD2    H1 4313   3.622   2.832  14.539  2.6108 -0.0427  1.2420
  282MPD2    H2 4314   3.748   3.040  14.884 -0.6384  3.1578 -1.4715
  282MPD2    H3 4315   3.794   2.906  14.708  0.0512  0.0843  2.3002
  282MPD2     N 4316   3.389   2.955  14.514 -0.4794  0.8423 -0.6249
  282MPD2    H5 4317   3.292   2.979  14.534 -0.3549 -0.4425  1.5364
  282MPD2    N1 4318   3.496   3.164  14.918 -0.1912 -0.7047 -0.1938
  282MPD2    H7 4319   3.400   3.196  14.909  0.6977  2.0589  0.0949
  283TMC3    C1 4320   3.495   3.247  15.134 -0.2419 -0.2791  0.7756
  283TMC3    C2 4321   3.558   3.346  15.216 -0.4664 -0.0532  0.2848
  283TMC3    C3 4322   3.516   3.359  15.344 -0.4758  0.4316  0.1553
  283TMC3    C4 4323   3.398   3.168  15.190  0.2400 -0.1151  0.0596
  283TMC3    C5 4324   3.361   3.185  15.319 -0.6415 -0.5265  0.7909
  283TMC3    C6 4325   3.413   3.287  15.397 -0.0357 -0.7862 -0.2771
  283TMC3     C 4326   3.573   3.197  15.024 -0.3063 -0.9081 -0.0000
  283TMC3     O 4327   3.696   3.196  15.042  0.0600  0.4317 -0.7034
  283TMC3     H 4328   3.635   3.413  15.182  0.3165 -0.8057  0.5777
  283TMC3    H1 4329   3.349   3.106  15.117  1.7950  0.2810 -1.3229
  283TMC3    H2 4330   3.379   3.307  15.498  1.3984  1.4233 -0.2351
  283TMC3    C7 4331   3.300   3.074  15.389  0.6424 -0.7904 -0.5858
  283TMC3    C8 4332   3.551   3.471  15.420 -0.0078  0.6332  0.6914
  283TMC3    O1 4333   3.263   3.115  15.500  0.1074 -0.0417  0.4797
  283TMC3    O2 4334   3.544   3.461  15.541 -0.2909 -0.2048 -0.2149
  284MPD2     C 4335   1.885   3.317  11.814 -1.1708  0.3484 -0.2870
  284MPD2    C1 4336   1.808   3.240  11.731  0.1532  0.0202  0.1457
  284MPD2    C2 4337   1.821   3.103  11.723  0.7740 -1.1464 -0.1261
  284MPD2    C3 4338   1.944   3.052  11.779 -0.4108 -0.3853  0.0859
  284MPD2    C4 4339   2.045   3.137  11.826  0.2796 -0.6188  0.5365
  284MPD2    C5 4340   2.001   3.262  11.857 -0.5255  0.5499  0.0133
  284MPD2     H 4341   1.770   3.049  11.644  2.3988  0.2197 -2.1405
  284MPD2    H1 4342   2.141   3.096  11.855 -0.2201 -0.3447  2.5656
  284MPD2    H2 4343   1.878   3.424  11.832 -2.6015  0.2877 -0.4764
  284MPD2    H3 4344   2.071   3.317  11.919 -3.1574  0.7477  2.8208
  284MPD2     N 4345   1.977   2.915  11.778  0.3816 -0.3674 -0.7217
  284MPD2    H5 4346   2.069   2.905  11.818  0.5380  2.9041 -0.1997
  284MPD2    N1 4347   1.712   3.300  11.645  0.4812  0.3360  0.5453
  284MPD2    H7 4348   1.674   3.234  11.578 -1.1821  1.2506  0.5926
  285TMC3    C1 4349   1.612   3.451  11.500  0.6241  0.4319  0.3750
  285TMC3    C2 4350   1.525   3.348  11.472  0.0597  0.2905  1.2905
  285TMC3    C3 4351   1.473   3.347  11.349  0.2695 -0.2192  0.1986
  285TMC3    C4 4352   1.646   3.537  11.408 -0.4101 -0.4443  0.1720
  285TMC3    C5 4353   1.591   3.528  11.279 -0.2869 -0.8059  0.5222
  285TMC3    C6 4354   1.505   3.430  11.248  0.3405  0.0794  0.3949
  285TMC3     C 4355   1.707   3.430  11.612  0.3846  0.3681 -0.5502
  285TMC3     O 4356   1.771   3.531  11.648 -0.2744 -0.5523 -0.0258
  285TMC3     H 4357   1.486   3.285  11.551  1.4851 -1.2584  0.7558
  285TMC3    H1 4358   1.712   3.618  11.434 -2.8343  1.4576  0.4048
  285TMC3    H2 4359   1.467   3.409  11.148 -0.3193  0.6460  0.5246
  285TMC3    C7 4360   1.630   3.631  11.173  0.4478  0.0136  0.3477
  285TMC3    C8 4361   1.402   3.225  11.309 -0.0853  0.0225  0.1308
  285TMC3    O1 4362   1.726   3.696  11.201  0.1005  0.1946  0.0469
  285TMC3    O2 4363   1.406   3.196  11.192  0.1428 -0.6128  0.3976
  286MPD2     C 4364   2.081   2.090   1.300  0.6977 -0.3086  0.0477
  286MPD2    C1 4365   2.075   2.097   1.162 -0.4988  0.4480  0.3379
  286MPD2    C2 4366   2.169   2.037   1.080 -0.1795 -0.1843 -0.0264
  286MPD2    C3 4367   2.280   1.983   1.139 -0.3117  0.6455  0.5965
  286MPD2    C4 4368   2.298   1.994   1.278  0.3955 -0.2714  0.7203
  286MPD2    C5 4369   2.200   2.044   1.355 -0.2082  0.5933  0.1202
  286MPD2     H 4370   2.152   2.033   0.973 -0.1944 -0.2332 -0.0224
  286MPD2    H1 4371   2.382   1.958   1.335  2.4586  0.5036 -1.8002
  286MPD2    H2 4372   2.008   2.134   1.367  0.0499  0.1523 -0.9567
  286MPD2    H3 4373   2.215   2.054   1.462  0.1953  0.5965  0.0615
  286MPD2     N 4374   2.384   1.923   1.066  0.0153  0.4482 -0.0691
  286MPD2    H5 4375   2.472   1.907   1.114 -0.5643 -0.8113  0.6013
  286MPD2    N1 4376   1.967   2.147   1.094 -0.3099  0.0750 -0.0958
  286MPD2    H7 4377   1.979   2.148   0.993 -0.6894 -2.6377 -0.1730
  287TMC3    C1 4378   2.487   1.806   0.890 -0.3678 -0.3009  0.3148
  287TMC3    C2 4379   2.476   1.724   0.788  0.0019  0.8096  0.2877
  287TMC3    C3 4380   2.574   1.635   0.753 -0.3388 -0.4408 -0.5697
  287TMC3    C4 4381   2.608   1.811   0.958  0.8985  0.3411 -0.0619
  287TMC3    C5 4382   2.717   1.742   0.914 -0.0633  0.0281 -0.3304
  287TMC3    C6 4383   2.698   1.656   0.812  0.5258 -0.0844 -0.3426
  287TMC3     C 4384   2.368   1.869   0.943  0.3012  0.3963 -0.1184
  287TMC3     O 4385   2.265   1.836   0.883 -0.3836  0.2368  0.0545
  287TMC3     H 4386   2.386   1.720   0.729 -1.4902  1.0629  2.5578
  287TMC3    H1 4387   2.615   1.892   1.029  0.8411 -0.0765  0.4217
  287TMC3    H2 4388   2.785   1.599   0.783  1.5891  0.1937  2.2939
  287TMC3    C7 4389   2.807   1.727   1.034  0.2241 -0.5688  0.7354
  287TMC3    C8 4390   2.547   1.542   0.650 -0.0589 -0.3283  0.1225
  287TMC3    O1 4391   2.805   1.814   1.121 -0.3268  0.2504 -1.0027
  287TMC3    O2 4392   2.437   1.503   0.621 -0.0890 -0.4046 -0.5211
  288TMC3    C1 4393   3.725   0.984  14.384 -0.1649 -0.1528  0.5432
  288TMC3    C2 4394   3.629   0.967  14.484  0.6183 -0.3192  0.7349
  288TMC3    C3 4395   3.560   1.083  14.515 -0.1594 -0.2055  0.0389
  288TMC3    C4 4396   3.746   1.096  14.305  0.0292 -0.0518  1.3965
  288TMC3    C5 4397   3.670   1.205  14.334 -1.0126  0.5099  0.1129
  288TMC3    C6 4398   3.581   1.197  14.439 -0.6184  0.1284 -0.0031
  288TMC3     C 4399   3.807   0.872  14.350  0.4204 -0.2835  0.3106
  288TMC3     O 4400   3.898   0.902  14.271 -0.0280 -0.4834 -0.1599
  288TMC3     H 4401   3.623   0.873  14.538  1.2555 -0.3264  0.7925
  288TMC3    H1 4402   3.811   1.093  14.218 -0.5323  2.1817  0.8918
  288TMC3    H2 4403   3.531   1.287  14.473 -2.6486 -0.5651 -1.1667
  288TMC3    C7 4404   3.652   1.322  14.243 -0.2098 -0.7716  0.5493
  288TMC3    C8 4405   3.482   1.109  14.641 -0.0999 -0.2510  0.4471
  288TMC3    O1 4406   3.537   1.354  14.243  0.1580  0.0844 -0.1238
  288TMC3    O2 4407   3.464   1.223  14.681  0.2700 -0.3869  0.4038
  289MPD2     C 4408   3.873   0.472  13.933  0.1521  0.3832 -0.3694
  289MPD2    C1 4409   3.825   0.604  13.916 -0.4138 -0.4475  0.4448
  289MPD2    C2 4410   3.687   0.615  13.908  0.1554  0.3377 -0.3088
  289MPD2    C3 4411   3.604   0.504  13.940 -0.2041 -0.3716 -0.1897
  289MPD2    C4 4412   3.656   0.383  13.976  0.3676  0.2133  0.0589
  289MPD2    C5 4413   3.794   0.369  13.964 -0.6357 -0.8602  0.4091
  289MPD2     H 4414   3.643   0.710  13.881  2.1696  1.9215  2.0738
  289MPD2    H1 4415   3.595   0.302  14.014  1.0851 -0.6710 -0.6602
  289MPD2    H2 4416   3.980   0.456  13.933  0.0518 -0.2968 -1.3964
  289MPD2    H3 4417   3.835   0.272  13.992  2.2582  0.4734  0.6767
  289MPD2     N 4418   3.463   0.509  13.936  0.4315 -0.5012  0.3758
  289MPD2    H5 4419   3.414   0.421  13.944 -1.2444  0.6606  3.1731
  289MPD2    N1 4420   3.915   0.709  13.900 -0.7510  0.7345 -0.0748
  289MPD2    H7 4421   4.015   0.694  13.901 -0.3557  3.3736  1.2997
  290TMC3    C1 4422   3.242   0.579  13.898  0.1285  0.5139  0.1948
  290TMC3    C2 4423   3.179   0.650  13.797 -0.2124  0.2089  0.2264
  290TMC3    C3 4424   3.061   0.599  13.747  0.6704 -0.1707  0.4169
  290TMC3    C4 4425   3.213   0.449  13.926 -0.1642  0.1221 -0.2650
  290TMC3    C5 4426   3.098   0.406  13.867  0.1913  0.8363  0.2017
  290TMC3    C6 4427   3.025   0.474  13.778  0.5893 -0.1730  0.5202
  290TMC3     C 4428   3.382   0.620  13.922 -0.2225 -0.3575  0.2345
  290TMC3     O 4429   3.413   0.738  13.922 -0.4836 -0.1149  0.0051
  290TMC3     H 4430   3.209   0.752  13.777  0.3649  0.1694  0.8897
  290TMC3    H1 4431   3.249   0.394  14.013 -0.0936 -0.6649 -0.7959
  290TMC3    H2 4432   2.921   0.451  13.755  0.2595  1.2192  0.6327
  290TMC3    C7 4433   3.043   0.285  13.921  0.5810  0.2820  1.1430
  290TMC3    C8 4434   2.953   0.692  13.715 -0.1798 -0.1731 -0.2570
  290TMC3    O1 4435   2.922   0.272  13.902  0.3757  0.1452  0.5186
  290TMC3    O2 4436   2.853   0.654  13.659 -0.0234 -0.2315 -0.4116
  291MPD2     C 4437   3.882   0.002  17.622 -0.1730  0.4160  0.5537
  291MPD2    C1 4438   3.764   0.084  17.631 -1.1214  0.0209  0.4108
  291MPD2    C2 4439   3.778   0.216  17.648 -1.0256  0.1399 -0.2230
  291MPD2    C3 4440   3.900   0.282  17.647 -0.6586  0.1901 -0.1971
  291MPD2    C4 4441   4.012   0.203  17.637 -0.0610 -0.6332 -0.3156
  291MPD2    C5 4442   4.001   0.069  17.636 -0.2212  0.0224 -0.4928
  291MPD2     H 4443   3.685   0.268  17.661 -2.0738 -1.9234  0.5586
  291MPD2    H1 4444   4.111   0.246  17.644  0.1795 -1.0908 -0.9025
  291MPD2    H2 4445   3.880   4.637  17.606  1.0438  0.8137 -2.2664
  291MPD2    H3 4446   4.087   0.002  17.628 -2.2930 -2.5963 -0.7283
  291MPD2     N 4447   3.923   0.420  17.644  0.8315 -0.4872 -0.5689
  291MPD2    H5 4448   4.020   0.450  17.638  1.0886 -1.0810  0.6208
  291MPD2    N1 4449   3.633   0.035  17.615  0.3750 -0.2084 -0.0255
  291MPD2    H7 4450   3.555   0.097  17.630 -1.2545 -2.4097  0.6599
  292TMC3    C1 4451   3.468   4.610  17.587 -0.5816  0.2331 -0.4942
  292TMC3    C2 4452   3.378   4.684  17.665  0.4295 -0.3757 -0.1327
  292TMC3    C3 4453   3.246   4.678  17.634 -0.4242  0.7237 -0.6863
  292TMC3    C4 4454   3.426   4.550  17.472  1.6134  0.3880  0.0981
  292TMC3    C5 4455   3.294   4.551  17.437 -0.5008  0.0921 -0.5039
  292TMC3    C6 4456   3.201   4.618  17.521  0.1055 -0.1382 -0.5611
  292TMC3     C 4457   3.609   4.644  17.580 -0.1721  0.9139 -0.6965
  292TMC3     O 4458   3.688   4.569  17.523 -0.1524 -0.2193 -0.5126
  292TMC3     H 4459   3.413   4.740  17.751 -2.2868 -1.4096  1.6467
  292TMC3    H1 4460   3.502   4.503  17.410  1.6183  2.3881 -1.3992
  292TMC3    H2 4461   3.098   4.627  17.486  0.3998 -1.2905 -1.7200
  292TMC3    C7 4462   3.244   4.447  17.345  0.1231  0.1032 -0.4211
  292TMC3    C8 4463   3.166   0.023  17.709 -0.3199 -0.2185  0.1608
  292TMC3    O1 4464   3.329   4.375  17.296 -0.1921 -0.1539 -0.1835
  292TMC3    O2 4465   3.230   0.113  17.761 -0.3739 -0.0114  0.2418
  293MPD2     C 4466   0.086   1.530  12.257  0.4243 -0.0402  0.3079
  293MPD2    C1 4467   4.708   1.527  12.324 -1.0661 -0.1876  0.5105
  293MPD2    C2 4468   4.705   1.520  12.464  0.1473  0.6086 -0.1698
  293MPD2    C3 4469   0.086   1.524  12.530  0.5977  0.9496 -0.2681
  293MPD2    C4 4470   0.205   1.546  12.462 -1.0584  0.0202  1.1575
  293MPD2    C5 4471   0.203   1.545  12.327 -0.2795 -0.4617  0.3531
  293MPD2     H 4472   4.611   1.509  12.517 -0.2848  2.8228 -0.5168
  293MPD2    H1 4473   0.300   1.559  12.511 -0.2843  1.1185 -0.6421
  293MPD2    H2 4474   0.085   1.536  12.148  2.3093 -0.0610  0.2924
  293MPD2    H3 4475   0.297   1.552  12.273 -0.9096 -0.8336 -0.8042
  293MPD2     N 4476   0.103   1.532  12.668 -0.5034 -0.5076 -0.4323
  293MPD2    H5 4477   0.197   1.537  12.705 -0.3347 -2.4948 -0.5509
  293MPD2    N1 4478   4.591   1.530  12.236 -0.3396 -0.8046  0.6241
  293MPD2    H7 4479   4.609   1.541  12.137 -0.3214 -0.9754  0.6083
  294TMC3    C1 4480   4.363   1.507  12.176  0.4678  0.7670 -0.4226
  294TMC3    C2 4481   4.249   1.445  12.207 -0.8628 -0.9821 -0.3709
  294TMC3    C3 4482   4.181   1.399  12.103  0.0565  0.1677  0.3971
  294TMC3    C4 4483   4.409   1.530  12.045  0.3147 -0.7254 -0.0644
  294TMC3    C5 4484   4.335   1.476  11.946 -0.1281 -0.3383  0.1280
  294TMC3    C6 4485   4.221   1.419  11.969  0.8361  0.4397 -0.4845
  294TMC3     C 4486   4.464   1.507  12.278  0.7547 -0.2572  0.3960
  294TMC3     O 4487   4.423   1.488  12.391 -0.0774  0.6774  0.1957
  294TMC3     H 4488   4.205   1.445  12.306  1.2355  0.3606  0.5612
  294TMC3    H1 4489   4.491   1.598  12.025 -0.4104  0.6758  1.6970
  294TMC3    H2 4490   4.168   1.386  11.880 -0.1894  2.1267 -0.4895
  294TMC3    C7 4491   4.372   1.500  11.807 -0.6346 -0.3461 -0.4478
  294TMC3    C8 4492   4.064   1.325  12.142 -0.2483 -0.3177 -0.1642
  294TMC3    O1 4493   4.344   1.414  11.724  0.0553 -0.1025 -0.4449
  294TMC3    O2 4494   4.026   1.335  12.256  0.1467 -0.0600  0.1775
  295MPD2     C 4495   0.325   0.052   0.725 -0.6660  0.1228 -0.1144
  295MPD2    C1 4496   0.262   0.161   0.670  0.1673  0.0418 -0.2812
  295MPD2    C2 4497   0.151   0.216   0.740  0.1291  0.0877 -0.7775
  295MPD2    C3 4498   0.108   0.172   0.862  0.2997 -0.2351  0.8266
  295MPD2    C4 4499   0.180   0.072   0.926 -0.1371  0.6196 -0.1997
  295MPD2    C5 4500   0.282   0.010   0.848  0.5378 -0.3434 -0.1179
  295MPD2     H 4501   0.095   0.295   0.690  0.7916  0.4181 -1.0020
  295MPD2    H1 4502   0.154   0.036   1.024 -1.2409  1.3601 -0.2248
  295MPD2    H2 4503   0.398   4.728   0.678 -1.9896  0.0590 -2.1125
  295MPD2    H3 4504   0.331   4.666   0.892  0.5631  0.9062  2.2772
  295MPD2     N 4505   0.011   0.236   0.934  0.4574  0.1320  0.1772
  295MPD2    H5 4506   4.723   0.191   1.020 -0.8907  0.2289 -0.2445
  295MPD2    N1 4507   0.285   0.205   0.540  0.0862 -0.2775 -0.0780
  295MPD2    H7 4508   0.230   0.282   0.504  2.8663  1.6422 -0.1961
  296TMC3    C1 4509   4.612   0.404   1.016  0.1015  0.0315 -0.3130
  296TMC3    C2 4510   4.560   0.525   0.997 -0.8533 -0.0415 -0.4704
  296TMC3    C3 4511   4.447   0.559   1.072  0.3780 -0.1127  0.5718
  296TMC3    C4 4512   4.567   0.312   1.110  0.2966  0.5168  0.3028
  296TMC3    C5 4513   4.463   0.359   1.192 -0.2400 -0.5124  0.1248
  296TMC3    C6 4514   4.391   0.470   1.157  0.5368 -0.0207 -0.1040
  296TMC3     C 4515   4.714   0.359   0.918 -0.7756  0.0270  0.2834
  296TMC3     O 4516   0.001   0.438   0.827 -0.0807  1.6975  0.4548
  296TMC3     H 4517   4.592   0.592   0.918  1.5415  1.4061  1.7026
  296TMC3    H1 4518   4.628   0.224   1.128 -0.9526 -0.4362 -0.1505
  296TMC3    H2 4519   4.298   0.490   1.210 -0.2541  0.1722 -1.5630
  296TMC3    C7 4520   4.410   0.266   1.289 -0.0164 -0.2984 -0.0154
  296TMC3    C8 4521   4.400   0.704   1.084 -0.2561 -0.3121  0.4165
  296TMC3    O1 4522   4.299   0.296   1.331  0.4106 -0.6066 -0.2472
  296TMC3    O2 4523   4.300   0.723   1.151  0.0446  0.1543 -0.6640
  297MPD2     C 4524   2.672   1.789  16.105  0.1351 -0.4431 -0.0372
  297MPD2    C1 4525   2.624   1.881  16.014  1.0670 -0.5151  0.1769
  297MPD2    C2 4526   2.703   1.987  15.965 -0.4982  0.4417 -0.5909
  297MPD2    C3 4527   2.814   2.020  16.041  0.7721 -0.3589  0.3534
  297MPD2    C4 4528   2.853   1.936  16.147  0.6885  0.2337  0.6764
  297MPD2    C5 4529   2.779   1.827  16.182  0.3438  0.0870 -0.1392
  297MPD2     H 4530   2.679   2.049  15.879 -2.3508 -2.5822 -2.2321
  297MPD2    H1 4531   2.947   1.946  16.199  1.9622 -3.0954 -1.0482
  297MPD2    H2 4532   2.605   1.718  16.152 -1.0435 -0.2040 -1.3990
  297MPD2    H3 4533   2.817   1.769  16.266  2.0673 -0.2035 -1.1268
  297MPD2     N 4534   2.892   2.127  15.993 -0.1848 -0.0330  0.0923
  297MPD2    H5 4535   2.858   2.175  15.910  1.0136 -1.4301 -1.2047
  297MPD2    N1 4536   2.497   1.862  15.951 -0.0981 -0.2319  0.1181
  297MPD2    H7 4537   2.466   1.948  15.906 -0.3521 -0.7776 -0.7563
  298TMC3    C1 4538   2.285   1.790  15.902 -0.0466 -0.2121  0.0918
  298TMC3    C2 4539   2.275   1.777  15.768  0.4279  0.2810  0.3635
  298TMC3    C3 4540   2.208   1.876  15.702  0.2255  0.3656  0.1408
  298TMC3    C4 4541   2.246   1.903  15.970 -0.1995  0.2081 -1.0882
  298TMC3    C5 4542   2.190   2.009  15.904 -0.5484 -0.2968 -0.1258
  298TMC3    C6 4543   2.166   1.993  15.766 -0.4215 -0.4610 -0.3337
  298TMC3     C 4544   2.414   1.752  15.950  0.7155  1.0066  0.4050
  298TMC3     O 4545   2.434   1.638  15.987  0.4230 -0.1005  0.4408
  298TMC3     H 4546   2.324   1.706  15.702 -0.1204 -1.6890  2.0941
  298TMC3    H1 4547   2.270   1.921  16.074 -0.0505  0.8540 -1.2327
  298TMC3    H2 4548   2.106   2.070  15.720  3.0542  2.7664  0.5190
  298TMC3    C7 4549   2.194   2.142  15.980 -0.4013 -0.1073  0.9033
  298TMC3    C8 4550   2.206   1.861  15.553  0.4471 -0.4530 -0.5528
  298TMC3    O1 4551   2.197   2.140  16.099 -0.5277 -0.3981  0.1416
  298TMC3    O2 4552   2.225   1.750  15.501 -0.2578 -0.2381 -0.2440
  299MPD2     C 4553   2.474   2.769  10.734  0.5349  0.2548 -0.1108
  299MPD2    C1 4554   2.513   2.749  10.603 -0.0284 -0.1757  0.2085
  299MPD2    C2 4555   2.429   2.692  10.509 -0.8440  0.1326 -0.1593
  299MPD2    C3 4556   2.312   2.635  10.549 -0.3499  0.5978 -0.2443
  299MPD2    C4 4557   2.277   2.648  10.681  0.0287  0.4158  1.2209
  299MPD2    C5 4558   2.357   2.708  10.771 -0.1734  0.3877 -0.2365
  299MPD2     H 4559   2.478   2.670  10.415 -0.3991 -0.1763  0.1427
  299MPD2    H1 4560   2.187   2.600  10.718  0.2392 -1.6197 -0.8784
  299MPD2    H2 4561   2.539   2.811  10.810  0.0844  1.4224 -0.3747
  299MPD2    H3 4562   2.325   2.705  10.874 -0.5751 -1.2699 -0.4183
  299MPD2     N 4563   2.244   2.568  10.451 -0.2690  0.2044  0.2763
  299MPD2    H5 4564   2.272   2.582  10.355  2.3283 -3.6458  0.5074
  299MPD2    N1 4565   2.639   2.806  10.579 -0.7696  0.5053 -0.5883
  299MPD2    H7 4566   2.687   2.842  10.661 -0.6834 -0.7683 -0.0779
  300TMC3    C1 4567   2.063   2.437  10.356  0.1737 -0.1846  0.0412
  300TMC3    C2 4568   2.133   2.416  10.237 -0.2811 -0.3729 -0.3140
  300TMC3    C3 4569   2.058   2.366  10.141  0.4578  0.2335  0.6640
  300TMC3    C4 4570   1.926   2.416  10.368 -0.1691  0.5288  0.0637
  300TMC3    C5 4571   1.865   2.358  10.258 -0.3245  0.2542  0.4565
  300TMC3    C6 4572   1.931   2.334  10.143  0.9661  0.4754  0.6581
  300TMC3     C 4573   2.122   2.509  10.470  0.3671 -0.2963  0.3425
  300TMC3     O 4574   2.064   2.483  10.573  0.2500 -0.2253  0.1381
  300TMC3     H 4575   2.238   2.438  10.220 -0.0966 -0.1046  1.2266
  300TMC3    H1 4576   1.885   2.410  10.468 -3.8527 -2.0077 -1.5797
  300TMC3    H2 4577   1.884   2.273  10.066  0.8605  0.0533  1.0565
  300TMC3    C7 4578   1.724   2.316  10.271 -0.0730 -0.4711 -0.3639
  300TMC3    C8 4579   2.112   2.356  10.010 -0.1780 -0.7043  0.4261
  300TMC3    O1 4580   1.668   2.267  10.171  0.3188  0.0499  0.0085
  300TMC3    O2 4581   2.073   2.270   9.932 -0.3163  0.2447 -0.2013
  301MPD2     C 4582   4.633   3.985   0.875  0.5473 -0.2206 -0.7401
  301MPD2    C1 4583   4.595   3.865   0.926 -0.0690  0.3652  0.2579
  301MPD2    C2 4584   4.674   3.749   0.895 -0.5083 -0.1845  0.3900
  301MPD2    C3 4585   0.055   3.764   0.841  0.5292 -0.1622 -0.7704
  301MPD2    C4 4586   0.101   3.892   0.810  0.0141  0.3893 -0.2896
  301MPD2    C5 4587   0.016   4.002   0.815 -1.2735  0.5449  0.5667
  301MPD2     H 4588   4.644   3.654   0.939 -2.4769  0.5675  0.7005
  301MPD2    H1 4589   0.201   3.905   0.771 -0.5933  0.9882 -1.6305
  301MPD2    H2 4590   4.565   4.069   0.871 -2.6356 -2.6985  1.5534
  301MPD2    H3 4591   0.054   4.099   0.785  1.6105 -0.2958  1.4207
  301MPD2     N 4592   0.145   3.662   0.808 -0.3894  0.3960  0.0806
  301MPD2    H5 4593   0.240   3.680   0.778 -0.5272 -2.5993 -2.1150
  301MPD2    N1 4594   4.471   3.844   0.991 -0.0779  0.5836 -0.5011
  301MPD2    H7 4595   4.440   3.748   1.007  2.7623 -0.6586 -2.3361
  302TMC3    C1 4596   0.213   3.430   0.824 -0.6314  0.5304  0.1525
  302TMC3    C2 4597   0.345   3.454   0.838  0.0548  0.1795 -0.1436
  302TMC3    C3 4598   0.423   3.349   0.884 -0.1204 -0.4403 -0.3073
  302TMC3    C4 4599   0.165   3.311   0.867 -0.4997 -0.2525  0.0638
  302TMC3    C5 4600   0.245   3.209   0.912  0.3964  0.4197  0.3606
  302TMC3    C6 4601   0.375   3.223   0.921 -0.5034 -0.0023 -0.8131
  302TMC3     C 4602   0.104   3.531   0.815  0.5226 -0.2782  0.0809
  302TMC3     O 4603   4.729   3.493   0.793  0.4311  0.2114 -0.3370
  302TMC3     H 4604   0.388   3.554   0.842  0.0221  0.1488  0.8864
  302TMC3    H1 4605   0.059   3.298   0.886 -0.0850 -1.5521  1.4977
  302TMC3    H2 4606   0.440   3.148   0.963 -0.3531  0.9201  0.6335
  302TMC3    C7 4607   0.197   3.122   1.006 -0.4961 -0.0731 -0.6472
  302TMC3    C8 4608   0.571   3.382   0.878 -0.6864 -0.5474  0.4224
  302TMC3    O1 4609   0.271   3.109   1.104  0.7832 -0.6234  0.3499
  302TMC3    O2 4610   0.600   3.502   0.880  0.8805 -0.1434 -0.0078
  303MPD2     C 4611   0.038   1.854  10.545 -0.1026 -0.2094 -0.2740
  303MPD2    C1 4612   4.673   1.776  10.511 -0.2104 -0.0321  0.6233
  303MPD2    C2 4613   4.578   1.836  10.424  0.1831 -0.4456 -0.4108
  303MPD2    C3 4614   4.601   1.955  10.356 -0.2024  1.2331 -0.1927
  303MPD2    C4 4615   4.711   2.029  10.403 -0.1134  0.4297  0.1676
  303MPD2    C5 4616   0.050   1.982  10.500  0.6264  0.2687  0.1361
  303MPD2     H 4617   4.498   1.771  10.391  0.7717 -2.4313  2.0822
  303MPD2    H1 4618   0.015   2.104  10.339 -0.8231  1.8539  1.3089
  303MPD2    H2 4619   0.112   1.814  10.613  1.2095  0.8165 -1.1062
  303MPD2    H3 4620   0.142   2.035  10.524 -0.6665  2.7541 -0.3142
  303MPD2     N 4621   4.527   2.006  10.251 -0.2518 -0.2824 -0.2699
  303MPD2    H5 4622   4.565   2.085  10.200 -0.9511  0.2301  0.0025
  303MPD2    N1 4623   4.664   1.647  10.558 -0.2076 -0.4084  0.0535
  303MPD2    H7 4624   4.738   1.603  10.612  0.3479 -0.0287 -0.3995
  304TMC3    C1 4625   4.582   1.425  10.565 -0.1195  1.4098  0.2240
  304TMC3    C2 4626   4.468   1.353  10.606  0.8829  0.4848  0.9114
  304TMC3    C3 4627   4.434   1.233  10.554  0.8792 -0.0281  0.4723
  304TMC3    C4 4628   4.645   1.372  10.455 -0.5084  0.1366 -0.1112
  304TMC3    C5 4629   4.616   1.253  10.399 -0.0534 -0.0464  0.1343
  304TMC3    C6 4630   4.517   1.183  10.465  0.1118 -0.0862  0.0203
  304TMC3     C 4631   4.558   1.568  10.559 -0.0999 -0.3391 -0.2930
  304TMC3     O 4632   4.438   1.604  10.544  0.2442 -0.3374 -0.0118
  304TMC3     H 4633   4.411   1.402  10.683 -0.5183  0.8059 -0.3192
  304TMC3    H1 4634   4.724   1.431  10.410  0.5870 -1.5447 -0.3891
  304TMC3    H2 4635   4.501   1.083  10.426  2.6020 -0.4424 -0.0956
  304TMC3    C7 4636   4.635   1.240  10.252  0.3630 -0.1416 -0.3588
  304TMC3    C8 4637   4.295   1.205  10.512 -0.9908 -0.0124  0.5063
  304TMC3    O1 4638   4.727   1.297  10.186 -0.2305  0.3976  0.3300
  304TMC3    O2 4639   4.276   1.168  10.397  0.3551 -0.0987 -0.2163
  305MPD2     C 4640   3.330   3.372  13.800  0.2305 -0.0096 -0.8000
  305MPD2    C1 4641   3.412   3.260  13.798  0.2013  0.2606  0.0491
  305MPD2    C2 4642   3.422   3.182  13.685 -1.0937 -0.0490 -0.6305
  305MPD2    C3 4643   3.360   3.234  13.570 -0.0950  0.0258  0.4596
  305MPD2    C4 4644   3.297   3.360  13.572 -0.3006 -0.5033  0.8494
  305MPD2    C5 4645   3.268   3.420  13.691 -0.0494 -0.0556 -0.2228
  305MPD2     H 4646   3.484   3.094  13.681 -0.1532  0.6056 -0.3213
  305MPD2    H1 4647   3.262   3.403  13.479  1.1235 -1.0517  0.0671
  305MPD2    H2 4648   3.308   3.423  13.893  2.3908 -0.6228  0.0556
  305MPD2    H3 4649   3.216   3.515  13.697 -1.3950 -0.7986 -0.0658
  305MPD2     N 4650   3.362   3.172  13.443  0.8566  0.4414  0.5804
  305MPD2    H5 4651   3.313   3.220  13.367 -2.0435 -0.6808  1.7606
  305MPD2    N1 4652   3.480   3.233  13.921 -0.0087  0.3529 -0.4746
  305MPD2    H7 4653   3.449   3.287  14.001  2.2244 -0.3370  0.8333
  306TMC3    C1 4654   3.623   3.144  14.067  0.4948  0.0297  0.1356
  306TMC3    C2 4655   3.744   3.088  14.083  0.0997 -0.1981  0.4243
  306TMC3    C3 4656   3.788   3.094  14.210  0.2556  1.0802  0.4567
  306TMC3    C4 4657   3.565   3.222  14.159  0.8027  0.4373 -0.2578
  306TMC3    C5 4658   3.622   3.232  14.288 -0.1415 -0.5552 -0.5154
  306TMC3    C6 4659   3.737   3.164  14.313  0.4237 -0.4463 -0.0667
  306TMC3     C 4660   3.586   3.146  13.933 -0.2440  0.1287 -0.1211
  306TMC3     O 4661   3.651   3.085  13.848  0.0644 -0.3376  0.2885
  306TMC3     H 4662   3.803   3.047  14.001 -0.9740  1.1308 -1.0198
  306TMC3    H1 4663   3.462   3.256  14.152  1.7921  3.5995  0.8342
  306TMC3    H2 4664   3.754   3.138  14.417 -3.1691 -0.9692  0.4105
  306TMC3    C7 4665   3.560   3.317  14.387  0.2359  0.3424 -0.0504
  306TMC3    C8 4666   3.908   3.013  14.237  0.1843  0.3729  0.3831
  306TMC3    O1 4667   3.439   3.327  14.390 -0.0967  0.0478  0.1954
  306TMC3    O2 4668   3.933   2.927  14.154  0.3253 -0.2496 -0.4131
  307MPD2     C 4669   2.030   2.004   0.745  0.4533  0.3158 -0.7558
  307MPD2    C1 4670   2.000   2.118   0.682  0.8693 -0.2126  0.0894
  307MPD2    C2 4671   1.880   2.128   0.624 -0.7373 -0.2179  0.2282
  307MPD2    C3 4672   1.778   2.041   0.640  0.4488 -0.3437 -0.2577
  307MPD2    C4 4673   1.808   1.919   0.697  0.2857 -0.1812 -0.2404
  307MPD2    C5 4674   1.936   1.908   0.752  0.2317  0.3215  0.6017
  307MPD2     H 4675   1.858   2.224   0.578 -1.2814 -1.1115 -1.3927
  307MPD2    H1 4676   1.731   1.844   0.715  1.4285 -1.6073 -1.2847
  307MPD2    H2 4677   2.133   1.986   0.775 -0.3105 -3.2342 -0.2525
  307MPD2    H3 4678   1.972   1.815   0.795  1.6212  0.6520  0.1614
  307MPD2     N 4679   1.655   2.090   0.591  0.3189 -0.2403  0.2005
  307MPD2    H5 4680   1.661   2.175   0.535  0.8273  0.5158  1.4065
  307MPD2    N1 4681   2.079   2.233   0.666 -0.5354  0.4355  0.0000
  307MPD2    H7 4682   2.042   2.287   0.588  1.1143  0.5876 -0.6689
  308TMC3    C1 4683   1.218   2.072   0.430  0.1932 -0.3160  1.0116
  308TMC3    C2 4684   1.195   2.209   0.451  0.7514 -0.1192 -0.6195
  308TMC3    C3 4685   1.299   2.281   0.503  0.2025 -0.2489 -0.1005
  308TMC3    C4 4686   1.326   2.010   0.478 -0.2954 -0.0672 -0.3686
  308TMC3    C5 4687   1.434   2.086   0.520  0.2722  0.2610 -0.1609
  308TMC3    C6 4688   1.419   2.219   0.524  0.1187 -0.1522  0.4373
  308TMC3     C 4689   1.119   1.997   0.357  1.0725 -0.3859  0.0831
  308TMC3     O 4690   1.077   1.896   0.414  0.1537  0.4061 -0.0353
  308TMC3     H 4691   1.101   2.260   0.432 -0.4285 -2.0122  0.1117
  308TMC3    H1 4692   1.343   1.906   0.452 -1.7274 -1.0488  2.6043
  308TMC3    H2 4693   1.499   2.279   0.567  1.1874 -0.4881 -1.0822
  308TMC3    C7 4694   1.541   2.023   0.590 -0.5689 -0.5036  0.3878
  308TMC3    C8 4695   1.313   2.416   0.460  0.1976  0.5648  1.2483
  308TMC3    O1 4696   1.511   1.920   0.650 -0.0246 -0.5475  0.0238
  308TMC3    O2 4697   1.269   2.444   0.346 -0.5175  0.3483  0.2170
  309MPD2     C 4698   0.061   1.741  16.717 -0.3727 -0.0545  0.4885
  309MPD2    C1 4699   0.103   1.869  16.758 -0.4198  0.7227 -0.3636
  309MPD2    C2 4700   0.014   1.953  16.825  0.1664 -1.2986 -0.5533
  309MPD2    C3 4701   4.629   1.910  16.863  0.9695  0.0302  0.5771
  309MPD2    C4 4702   4.590   1.785  16.824  0.4321 -0.2571  0.6616
  309MPD2    C5 4703   4.673   1.706  16.748  0.8864 -0.4855  0.5776
  309MPD2     H 4704   0.042   2.056  16.844  1.5293 -1.8456  0.3259
  309MPD2    H1 4705   4.498   1.732  16.847  1.7089 -2.6288  0.3115
  309MPD2    H2 4706   0.120   1.672  16.658  1.6387  1.7204  0.4321
  309MPD2    H3 4707   4.638   1.607  16.718  2.2971 -0.1764 -2.1043
  309MPD2     N 4708   4.540   1.992  16.937 -0.3388 -0.0625  0.1463
  309MPD2    H5 4709   4.448   1.951  16.940  0.8927 -2.8523  0.1600
  309MPD2    N1 4710   0.232   1.915  16.721 -0.3740 -0.8819  0.1406
  309MPD2    H7 4711   0.245   2.015  16.709 -1.0061 -0.7325  0.6988
  310TMC3    C1 4712   0.442   1.903  16.619 -0.1017  0.2602 -0.4776
  310TMC3    C2 4713   0.394   1.956  16.497 -0.2437 -0.1696 -0.5059
  310TMC3    C3 4714   0.462   1.944  16.381  0.1881 -0.3735  0.4589
  310TMC3    C4 4715   0.562   1.841  16.620  0.2662  0.0453 -0.3235
  310TMC3    C5 4716   0.618   1.816  16.498 -0.2244  0.2963  0.0189
  310TMC3    C6 4717   0.571   1.865  16.379 -0.4325 -0.0127  0.0737
  310TMC3     C 4718   0.338   1.835  16.690  0.6036  0.1914  0.2062
  310TMC3     O 4719   0.359   1.717  16.706 -0.3992  0.1195  0.8224
  310TMC3     H 4720   0.300   2.009  16.503 -0.4358 -0.5247 -0.3448
  310TMC3    H1 4721   0.599   1.797  16.712  1.2315  0.8403 -0.3348
  310TMC3    H2 4722   0.631   1.846  16.291 -1.1670  0.5818 -0.5589
  310TMC3    C7 4723   0.737   1.733  16.494  0.2882  0.4613  0.5287
  310TMC3    C8 4724   0.415   1.983  16.249 -0.2646 -0.8151  0.2644
  310TMC3    O1 4725   0.752   1.662  16.393  0.0042  0.4702 -0.2760
  310TMC3    O2 4726   0.478   1.939  16.152 -0.2536 -0.6364  0.6767
  311MPD2     C 4727   2.318   3.093  12.558 -0.8328  0.0718  0.4142
  311MPD2    C1 4728   2.323   3.189  12.652  0.2514 -0.5837 -0.3244
  311MPD2    C2 4729   2.223   3.198  12.745 -0.2656  0.3612  0.2711
  311MPD2    C3 4730   2.118   3.111  12.738 -0.3675 -0.7255  0.0494
  311MPD2    C4 4731   2.118   3.010  12.646  0.2498  0.2224 -0.1796
  311MPD2    C5 4732   2.217   3.000  12.560 -0.7411  0.0920  0.7156
  311MPD2     H 4733   2.224   3.272  12.825  3.2737  1.4415 -0.7968
  311MPD2    H1 4734   2.031   2.947  12.632  0.1998  0.6854 -1.9827
  311MPD2    H2 4735   2.391   3.077  12.480 -2.3210 -0.5286 -0.8758
  311MPD2    H3 4736   2.216   2.921  12.486 -0.9071  2.3886 -1.7218
  311MPD2     N 4737   2.015   3.130  12.832 -0.3541 -0.0012 -0.1578
  311MPD2    H5 4738   2.024   3.219  12.882  3.8854 -0.2720 -0.4324
  311MPD2    N1 4739   2.410   3.295  12.647  0.2580 -0.4447 -0.2425
  311MPD2    H7 4740   2.403   3.357  12.728 -1.2928 -1.5589  0.4814
  312TMC3    C1 4741   1.798   3.112  12.939 -0.8608 -0.0212 -0.3593
  312TMC3    C2 4742   1.669   3.085  12.910 -0.0563 -0.1582  0.5461
  312TMC3    C3 4743   1.565   3.151  12.970  0.0628  0.0887  0.0323
  312TMC3    C4 4744   1.825   3.207  13.039 -0.3530 -0.1375 -0.1232
  312TMC3    C5 4745   1.717   3.269  13.102 -0.5388  0.2238 -0.0607
  312TMC3    C6 4746   1.585   3.247  13.068 -0.4438  0.6768 -0.4260
  312TMC3     C 4747   1.904   3.047  12.857  0.2853 -0.4949  0.1379
  312TMC3     O 4748   1.868   2.940  12.806  0.2480 -0.2593 -0.4688
  312TMC3     H 4749   1.640   3.018  12.830  1.3563  0.2023 -0.2532
  312TMC3    H1 4750   1.920   3.258  13.046 -0.0846 -0.6408 -0.0972
  312TMC3    H2 4751   1.508   3.294  13.128  0.3059  0.2541  0.8451
  312TMC3    C7 4752   1.734   3.379  13.193 -0.1160  1.0145 -0.2153
  312TMC3    C8 4753   1.432   3.144  12.907 -0.1811 -0.5585 -0.8445
  312TMC3    O1 4754   1.642   3.463  13.192  0.2199  0.3563  0.0236
  312TMC3    O2 4755   1.405   3.053  12.830  0.3104  0.0969 -0.1840
  313MPD2     C 4756   1.721   3.144  10.155  0.2546 -0.0173 -0.5163
  313MPD2    C1 4757   1.653   3.070  10.253 -0.1314 -0.3930 -0.0646
  313MPD2    C2 4758   1.564   2.973  10.209  0.1960  0.1534 -0.1307
  313MPD2    C3 4759   1.549   2.938  10.072  0.6927  1.1092 -0.5442
  313MPD2    C4 4760   1.618   3.015   9.972  0.7291 -0.3834 -0.4127
  313MPD2    C5 4761   1.700   3.115  10.020 -0.4754  0.2516 -0.4090
  313MPD2     H 4762   1.515   2.912  10.284  1.0439 -2.6832 -1.8808
  313MPD2    H1 4763   1.616   2.994   9.866 -0.5125 -1.2911 -0.2098
  313MPD2    H2 4764   1.789   3.222  10.186 -1.7477  0.7682  1.9083
  313MPD2    H3 4765   1.758   3.179   9.953 -1.0505 -0.6403 -1.7657
  313MPD2     N 4766   1.475   2.815  10.044 -0.1480  0.2632 -0.1895
  313MPD2    H5 4767   1.443   2.758  10.121  1.2221  3.2736  2.6071
  313MPD2    N1 4768   1.663   3.091  10.393  0.3151  0.3729  0.0531
  313MPD2    H7 4769   1.593   3.063  10.460 -0.3355 -4.1454 -2.4938
  314TMC3    C1 4770   1.769   3.172  10.589 -0.1591  0.6525  0.3554
  314TMC3    C2 4771   1.879   3.232  10.640 -0.1049  0.4552  1.0355
  314TMC3    C3 4772   1.863   3.343  10.716 -0.1075 -0.1754  0.8785
  314TMC3    C4 4773   1.647   3.208  10.632  0.3631 -0.6072  0.0712
  314TMC3    C5 4774   1.629   3.326  10.710 -0.0878 -0.4811  0.1345
  314TMC3    C6 4775   1.739   3.397  10.745 -0.5118 -0.0456 -0.3849
  314TMC3     C 4776   1.777   3.149  10.443 -0.1462  0.0456  0.7971
  314TMC3     O 4777   1.879   3.185  10.387  0.2034  0.8864 -0.6140
  314TMC3     H 4778   1.981   3.206  10.613 -0.5830 -1.3770  1.0080
  314TMC3    H1 4779   1.561   3.171  10.578 -1.1213 -0.0486  2.0410
  314TMC3    H2 4780   1.731   3.487  10.805  0.0773  1.7422 -3.0012
  314TMC3    C7 4781   1.530   3.409  10.643 -0.4191  0.0895  0.3775
  314TMC3    C8 4782   1.977   3.436  10.729 -0.4493 -0.4452 -0.3376
  314TMC3    O1 4783   1.418   3.370  10.632  0.3075 -0.3127  0.2763
  314TMC3    O2 4784   1.950   3.560  10.727 -0.0824  0.3191  0.0612
  315MPD2     C 4785   1.629   1.879   0.202 -0.0300 -0.6321 -0.0966
  315MPD2    C1 4786   1.758   1.919   0.231  0.8049 -0.2297 -0.0946
  315MPD2    C2 4787   1.814   2.011   0.149 -0.3700  0.2426 -0.0007
  315MPD2    C3 4788   1.747   2.056   0.035  0.5946 -0.1445  0.1191
  315MPD2    C4 4789   1.612   2.032   0.019 -0.0193  0.2574  1.2026
  315MPD2    C5 4790   1.548   1.948   0.105  0.0602  0.0620 -0.1840
  315MPD2     H 4791   1.919   2.035   0.152 -0.5338  0.8654  0.8000
  315MPD2    H1 4792   1.546   2.080  17.713  0.3790 -0.8022  0.1290
  315MPD2    H2 4793   1.579   1.799   0.256 -0.5047  0.0364  0.4518
  315MPD2    H3 4794   1.447   1.910   0.092  0.1647 -1.5995  3.9712
  315MPD2     N 4795   1.829   2.109  17.697 -0.0119  0.1749  0.7944
  315MPD2    H5 4796   1.921   2.144  17.720  0.4195 -0.5799  0.2258
  315MPD2    N1 4797   1.840   1.866   0.329 -0.1743 -0.9653 -0.4776
  315MPD2    H7 4798   1.929   1.915   0.333 -0.9546  0.5674 -1.7189
  316TMC3    C1 4799   1.881   2.217  17.492  0.0741 -0.0307 -0.4951
  316TMC3    C2 4800   2.008   2.254  17.547 -0.5288 -0.9819  0.2476
  316TMC3    C3 4801   2.097   2.307  17.457 -0.4407  0.5041 -0.6753
  316TMC3    C4 4802   1.860   2.220  17.354  0.4845  0.0389 -0.5877
  316TMC3    C5 4803   1.940   2.303  17.276  1.0230  0.3036 -0.5108
  316TMC3    C6 4804   2.063   2.346  17.326 -0.2342 -0.8511 -0.4867
  316TMC3     C 4805   1.792   2.134  17.564 -0.3815 -0.0028 -0.9206
  316TMC3     O 4806   1.687   2.101  17.516 -0.3768 -0.0365 -0.1515
  316TMC3     H 4807   2.018   2.265  17.654 -2.4022 -1.2938  0.4487
  316TMC3    H1 4808   1.768   2.178  17.316  0.3241  0.9505 -1.2347
  316TMC3    H2 4809   2.129   2.409  17.268 -1.2460  0.2786 -0.4067
  316TMC3    C7 4810   1.920   2.289  17.139 -0.0791 -0.0058 -0.0163
  316TMC3    C8 4811   2.230   2.350  17.499  0.4712  0.1069  0.2440
  316TMC3    O1 4812   1.840   2.204  17.100 -0.0522 -0.6302 -0.1968
  316TMC3    O2 4813   2.266   2.456  17.454  1.2172  0.0503 -0.4635
  317MPD2     C 4814   3.285   0.206  12.497  0.4096  0.3626 -0.5958
  317MPD2    C1 4815   3.403   0.161  12.440  0.1245  0.2617 -0.5620
  317MPD2    C2 4816   3.504   0.105  12.518 -0.0651 -1.0488 -0.3720
  317MPD2    C3 4817   3.496   0.110  12.658 -0.6733 -0.0343 -0.5324
  317MPD2    C4 4818   3.372   0.130  12.709  0.1104  0.2996  0.2080
  317MPD2    C5 4819   3.263   0.168  12.629  0.2353 -0.3410 -0.7432
  317MPD2     H 4820   3.597   0.083  12.467 -2.1840 -1.6977 -3.9427
  317MPD2    H1 4821   3.346   0.113  12.813 -0.2639 -0.2234  0.0309
  317MPD2    H2 4822   3.199   0.240  12.440 -0.5400  0.1206  0.6874
  317MPD2    H3 4823   3.173   0.194  12.683  0.6729  0.0008 -0.1749
  317MPD2     N 4824   3.608   0.071  12.735  0.1151 -1.0915  0.4560
  317MPD2    H5 4825   3.693   0.043  12.687  0.2995 -3.4100  2.1459
  317MPD2    N1 4826   3.436   0.174  12.303 -0.1860 -0.0718 -0.0588
  317MPD2    H7 4827   3.506   0.108  12.270 -1.3701 -1.0943 -0.5183
  318TMC3    C1 4828   3.745   0.001  12.919  0.1092  0.6903 -0.6154
  318TMC3    C2 4829   3.783   4.626  12.858 -0.8311 -0.6608  0.3761
  318TMC3    C3 4830   3.851   4.524  12.934  0.6395 -0.8171  0.7629
  318TMC3    C4 4831   3.790   0.027  13.044 -0.7444  0.3177 -0.0637
  318TMC3    C5 4832   3.870   4.684  13.110  0.2744  0.2342  0.4587
  318TMC3    C6 4833   3.908   4.561  13.056 -0.0291 -0.4922  0.7224
  318TMC3     C 4834   3.623   0.073  12.875  0.3072  0.0290 -0.1482
  318TMC3     O 4835   3.557   0.137  12.954 -0.2230  0.7181 -0.3509
  318TMC3     H 4836   3.747   4.599  12.759 -0.0830  1.6501 -0.5408
  318TMC3    H1 4837   3.761   0.117  13.098 -1.9831  1.8881 -3.3684
  318TMC3    H2 4838   3.957   4.486  13.116  3.3176  0.8511 -0.3728
  318TMC3    C7 4839   3.966   4.741  13.200  0.0829 -0.4313  0.1250
  318TMC3    C8 4840   3.779   4.393  12.943  0.1901 -0.2322 -0.2398
  318TMC3    O1 4841   3.962   0.120  13.204 -0.1995 -0.0506 -0.2242
  318TMC3    O2 4842   3.831   4.301  13.009  0.4230 -0.1714 -0.5091
  319MPD2     C 4843   4.628   1.479  16.427  0.3125 -1.1875 -0.2784
  319MPD2    C1 4844   4.615   1.357  16.490 -0.1850  1.2335 -0.8746
  319MPD2    C2 4845   4.512   1.275  16.445  0.3203  0.0666  0.1506
  319MPD2    C3 4846   4.438   1.312  16.330 -0.3395  0.2279 -1.1589
  319MPD2    C4 4847   4.460   1.429  16.270 -0.0277  0.3079  0.1044
  319MPD2    C5 4848   4.555   1.515  16.319 -0.9002  0.0726  0.7275
  319MPD2     H 4849   4.509   1.178  16.494  0.6291  0.4351  0.8998
  319MPD2    H1 4850   4.403   1.459  16.184 -1.8546 -1.9223  0.5331
  319MPD2    H2 4851   4.714   1.537  16.458 -0.2851 -0.2780 -0.3194
  319MPD2    H3 4852   4.577   1.601  16.258  1.0891 -1.0082 -0.0757
  319MPD2     N 4853   4.346   1.227  16.266 -0.5762  0.3119  0.1860
  319MPD2    H5 4854   4.302   1.258  16.180  0.4014 -0.2075 -0.5066
  319MPD2    N1 4855   4.692   1.324  16.615  0.3477 -0.7562 -0.4235
  319MPD2    H7 4856   4.660   1.257  16.684  2.3429 -2.3584 -1.0347
  320TMC3    C1 4857   4.190   1.049  16.230  0.3858  0.4196  0.3458
  320TMC3    C2 4858   4.142   1.123  16.126  0.1228 -0.4105  0.0625
  320TMC3    C3 4859   4.026   1.089  16.063 -0.5138  0.1253  0.7563
  320TMC3    C4 4860   4.123   0.937  16.272  0.0262  0.4196  0.4256
  320TMC3    C5 4861   4.005   0.904  16.210 -0.0195 -0.2999 -0.6425
  320TMC3    C6 4862   3.954   0.982  16.101 -0.5078 -0.1416  0.0763
  320TMC3     C 4863   4.297   1.104  16.318 -0.4249  0.4185  0.1494
  320TMC3     O 4864   4.344   1.031  16.407 -0.0036 -0.2231  0.5917
  320TMC3     H 4865   4.190   1.205  16.073 -1.6104  0.1600 -0.6310
  320TMC3    H1 4866   4.171   0.878  16.350  1.2847 -1.1156 -1.5189
  320TMC3    H2 4867   3.866   0.952  16.046 -1.5933 -1.9500  2.7584
  320TMC3    C7 4868   3.980   0.761  16.185  0.1488 -0.1236  0.1679
  320TMC3    C8 4869   3.985   1.164  15.942  0.4859 -0.0591 -0.0233
  320TMC3    O1 4870   3.889   0.728  16.110 -1.1416 -0.0049 -0.1199
  320TMC3    O2 4871   4.071   1.242  15.905 -0.7409 -0.1182  0.0848
  321TMC3    C1 4872   0.107   1.392  16.773  0.2174  0.5232  0.6042
  321TMC3    C2 4873   0.001   1.379  16.862 -0.5648  0.8179 -0.7544
  321TMC3    C3 4874   0.009   1.449  16.980 -0.7646 -0.2896  1.1368
  321TMC3    C4 4875   0.218   1.468  16.796  0.5610 -0.7001 -0.6857
  321TMC3    C5 4876   0.229   1.533  16.921  0.5210  0.0223 -0.2662
  321TMC3    C6 4877   0.118   1.531  17.000  0.6666 -0.1672 -0.2496
  321TMC3     C 4878   0.074   1.380  16.636  0.2764 -0.1308  0.7036
  321TMC3     O 4879   0.142   1.438  16.551 -0.2096  0.2262  0.1406
  321TMC3     H 4880   4.673   1.297  16.860 -0.2551  0.6146 -3.1713
  321TMC3    H1 4881   0.295   1.484  16.722 -0.6493 -1.5263 -2.1025
  321TMC3    H2 4882   0.125   1.587  17.092  2.8484  0.7065 -0.9344
  321TMC3    C7 4883   0.343   1.495  16.997 -0.6433  1.0360 -0.2930
  321TMC3    C8 4884   4.698   1.384  17.098  0.3697  0.8464 -0.4675
  321TMC3    O1 4885   0.313   1.430  17.099 -0.1167  0.1289  0.2075
  321TMC3    O2 4886   4.582   1.347  17.097 -0.8644  0.6500  0.4809
  322MPD2     C 4887   3.323   2.703  13.423 -0.2720  0.5496 -0.2360
  322MPD2    C1 4888   3.376   2.658  13.540 -0.4454  0.0727  0.1326
  322MPD2    C2 4889   3.414   2.523  13.543  0.7249  0.6581  0.4965
  322MPD2    C3 4890   3.429   2.446  13.422 -0.1772 -0.8195  0.3928
  322MPD2    C4 4891   3.383   2.500  13.306 -0.1041  0.2575  0.3922
  322MPD2    C5 4892   3.325   2.626  13.314  0.2273 -0.9671 -0.9893
  322MPD2     H 4893   3.447   2.472  13.633  1.7444  0.1025 -0.1934
  322MPD2    H1 4894   3.398   2.444  13.214 -1.1913 -0.1584  0.4688
  322MPD2    H2 4895   3.298   2.807  13.408  0.0835  0.2769 -2.7317
  322MPD2    H3 4896   3.285   2.663  13.220  0.4975 -1.0997 -1.1571
  322MPD2     N 4897   3.512   2.337  13.434 -0.1355  0.5115 -0.3923
  322MPD2    H5 4898   3.541   2.315  13.529 -0.4522 -0.1617 -0.4515
  322MPD2    N1 4899   3.390   2.749  13.646 -0.4631 -0.3134  0.2829
  322MPD2    H7 4900   3.380   2.847  13.622 -1.0775 -0.0091  1.7670
  323TMC3    C1 4901   3.502   2.798  13.851  0.0115 -0.7541  0.1579
  323TMC3    C2 4902   3.619   2.829  13.783 -0.1983  0.3430  0.0283
  323TMC3    C3 4903   3.742   2.821  13.851  0.0628  0.2663 -0.0570
  323TMC3    C4 4904   3.501   2.764  13.986  0.0744  0.3920  0.5519
  323TMC3    C5 4905   3.624   2.738  14.042  0.2628  0.7063 -0.1416
  323TMC3    C6 4906   3.746   2.770  13.981  0.7050  0.1593 -0.2408
  323TMC3     C 4907   3.419   2.706  13.774  0.0121 -0.0163 -0.0099
  323TMC3     O 4908   3.382   2.600  13.831 -0.5737  0.8469  0.1344
  323TMC3     H 4909   3.612   2.856  13.678 -0.3115 -0.4401 -0.1579
  323TMC3    H1 4910   3.414   2.715  14.029 -0.4026 -0.3065 -1.2198
  323TMC3    H2 4911   3.843   2.754  14.027  1.5443  0.0964 -2.0222
  323TMC3    C7 4912   3.630   2.655  14.161 -0.0981 -0.2952 -0.7758
  323TMC3    C8 4913   3.871   2.804  13.779  0.7404  0.7326 -0.6848
  323TMC3    O1 4914   3.546   2.569  14.186 -0.4920  0.0142  0.0757
  323TMC3    O2 4915   3.959   2.745  13.836 -0.5545  0.3113 -0.0635
  324MPD2     C 4916   0.466   3.577  14.347  0.0926  0.6859  0.2063
  324MPD2    C1 4917   0.465   3.710  14.381  0.2666 -0.1889  0.3523
  324MPD2    C2 4918   0.346   3.776  14.396 -0.0468 -0.1808 -0.2275
  324MPD2    C3 4919   0.228   3.715  14.356 -0.0026 -0.8754 -0.1240
  324MPD2    C4 4920   0.230   3.581  14.321 -0.7057 -0.8283 -0.6768
  324MPD2    C5 4921   0.350   3.511  14.325  0.0863 -0.9918 -0.2887
  324MPD2     H 4922   0.345   3.871  14.447  0.1758  0.1880 -0.9154
  324MPD2    H1 4923   0.140   3.528  14.290  0.4545 -3.8161  1.0172
  324MPD2    H2 4924   0.559   3.521  14.343  0.1827  0.9456 -1.0961
  324MPD2    H3 4925   0.349   3.405  14.301 -1.2258 -0.9425 -0.4593
  324MPD2     N 4926   0.101   3.780  14.357  0.3323  0.4150  0.2416
  324MPD2    H5 4927   0.021   3.729  14.323  0.2374  1.4583 -1.0813
  324MPD2    N1 4928   0.576   3.788  14.383 -0.0654  0.2338 -0.0560
  324MPD2    H7 4929   0.556   3.887  14.387  0.3545  0.2632  1.4248
  325TMC3    C1 4930   4.690   3.950  14.328 -0.1039 -0.2078 -0.4772
  325TMC3    C2 4931   4.569   3.873  14.337  0.0171  0.6436 -0.1654
  325TMC3    C3 4932   4.457   3.921  14.279  0.0747 -0.0572  0.4023
  325TMC3    C4 4933   4.690   4.071  14.264 -0.0337  0.4801 -0.5581
  325TMC3    C5 4934   4.577   4.111  14.197 -0.4693  0.0469 -0.0133
  325TMC3    C6 4935   4.467   4.031  14.207 -0.5336  0.1619  0.3786
  325TMC3     C 4936   0.071   3.915  14.384  0.0193 -0.3207 -0.0050
  325TMC3     O 4937   0.144   4.002  14.433 -0.3707  0.4718 -0.0090
  325TMC3     H 4938   4.568   3.770  14.373  0.4372  0.1147 -1.6618
  325TMC3    H1 4939   0.042   4.125  14.267 -0.0703  0.5003  0.2729
  325TMC3    H2 4940   4.383   4.058  14.144 -1.1895  2.2250  2.1389
  325TMC3    C7 4941   4.575   4.220  14.104  0.3738  0.3808  0.2289
  325TMC3    C8 4942   4.349   3.841  14.250  0.2883  0.0265  0.6784
  325TMC3    O1 4943   4.687   4.262  14.069 -0.0932 -0.0613 -0.7517
  325TMC3    O2 4944   4.359   3.725  14.233 -0.3046 -0.2360 -0.2086
  326MPD2     C 4945   1.469   1.089  10.843 -0.0471  0.2627 -0.2929
  326MPD2    C1 4946   1.483   1.002  10.741  0.7719 -0.0022 -0.3219
  326MPD2    C2 4947   1.614   0.993  10.685  0.0567 -0.4959  0.3570
  326MPD2    C3 4948   1.718   1.075  10.719 -0.6511 -0.2584 -0.6671
  326MPD2    C4 4949   1.697   1.165  10.825  0.7680  0.0473 -0.2384
  326MPD2    C5 4950   1.570   1.170  10.881 -0.0481 -0.4874 -0.3008
  326MPD2     H 4951   1.625   0.906  10.621  1.2331 -0.9980  1.2474
  326MPD2    H1 4952   1.775   1.226  10.869 -0.2360 -0.6180  2.5236
  326MPD2    H2 4953   1.373   1.102  10.890 -0.1393  0.8105 -0.6376
  326MPD2    H3 4954   1.550   1.230  10.969  3.8292  1.3628 -0.6701
  326MPD2     N 4955   1.846   1.066  10.662  0.1019  0.2082 -0.1552
  326MPD2    H5 4956   1.921   1.127  10.694 -0.4848  1.0014 -0.2928
  326MPD2    N1 4957   1.382   0.917  10.685 -0.2358 -0.0395  0.1006
  326MPD2    H7 4958   1.411   0.848  10.615 -1.1737 -0.7538  0.4067
  327TMC3    C1 4959   1.180   0.821  10.650  0.1184  0.6727 -0.0195
  327TMC3    C2 4960   1.059   0.849  10.595 -0.4148 -0.2713  0.5617
  327TMC3    C3 4961   0.957   0.752  10.583  0.2278  0.3626 -0.0248
  327TMC3    C4 4962   1.192   0.698  10.707 -0.5539  0.3550 -0.9577
  327TMC3    C5 4963   1.090   0.601  10.700  0.4449 -0.3146  0.1544
  327TMC3    C6 4964   0.966   0.626  10.635  0.1268  0.9551  0.9654
  327TMC3     C 4965   1.250   0.917  10.721  0.4332  0.3100 -0.2674
  327TMC3     O 4966   1.180   0.981  10.795 -0.3039 -0.3154 -0.1567
  327TMC3     H 4967   1.044   0.946  10.549 -0.5865 -1.2160 -1.3568
  327TMC3    H1 4968   1.280   0.680  10.768 -0.7294  4.5128  0.5150
  327TMC3    H2 4969   0.887   0.553  10.631 -0.0498  1.1777  0.3011
  327TMC3    C7 4970   1.087   0.479  10.782 -0.6389 -0.6784 -0.4055
  327TMC3    C8 4971   0.830   0.813  10.550  0.1254  0.0557 -0.3699
  327TMC3    O1 4972   0.974   0.432  10.809  0.4475  0.4854  0.8798
  327TMC3    O2 4973   0.843   0.903  10.466  0.0707  0.4420  0.7123
  328MPD2     C 4974   0.162   0.759  16.794  0.8236  0.5088 -0.3152
  328MPD2    C1 4975   0.095   0.676  16.883 -0.1808 -0.2145 -0.4206
  328MPD2    C2 4976   4.704   0.642  16.847 -0.0024 -0.0097 -0.1637
  328MPD2    C3 4977   4.641   0.696  16.737  0.2813  0.1348  0.5468
  328MPD2    C4 4978   4.709   0.768  16.641  0.4213 -0.6969  0.5095
  328MPD2    C5 4979   0.097   0.791  16.673 -0.7105  0.2755 -0.4784
  328MPD2     H 4980   4.651   0.575  16.913 -0.3087  0.7422  0.3598
  328MPD2    H1 4981   4.678   0.791  16.540 -2.3278  1.0387  1.7522
  328MPD2    H2 4982   0.267   0.781  16.809  0.6483 -0.2226  1.9849
  328MPD2    H3 4983   0.164   0.852  16.613  0.5238  0.5363  1.1780
  328MPD2     N 4984   4.515   0.652  16.697 -0.6209 -0.1499  0.2940
  328MPD2    H5 4985   4.482   0.688  16.608  2.4736  1.9020 -0.0413
  328MPD2    N1 4986   0.162   0.652  17.012 -0.0787 -0.0294  1.1070
  328MPD2    H7 4987   0.254   0.694  17.022  1.2065 -2.9083  1.2298
  329TMC3    C1 4988   0.189   0.571  17.232  0.1554  0.0994  0.0438
  329TMC3    C2 4989   0.116   0.540  17.344  0.0321 -0.2315 -0.1768
  329TMC3    C3 4990   0.182   0.552  17.466  0.2159 -0.1582  0.3827
  329TMC3    C4 4991   0.322   0.608  17.236 -0.1476 -0.8264 -0.1219
  329TMC3    C5 4992   0.394   0.589  17.354  0.4806 -0.6162  0.5443
  329TMC3    C6 4993   0.322   0.571  17.471 -0.3005 -1.1209 -0.0610
  329TMC3     C 4994   0.104   0.582  17.118  0.1775  0.2222 -0.5296
  329TMC3     O 4995   4.728   0.544  17.125 -0.0038 -0.4015 -0.2108
  329TMC3     H 4996   0.012   0.514  17.330 -0.3624  0.6549  1.1194
  329TMC3    H1 4997   0.370   0.618  17.140 -1.0011  1.3604 -0.3112
  329TMC3    H2 4998   0.382   0.573  17.561  0.7750 -1.4589 -0.7613
  329TMC3    C7 4999   0.538   0.597  17.367  0.1625 -0.3957  0.8113
  329TMC3    C8 5000   0.111   0.614  17.573  0.4599 -0.2774  0.1332
  329TMC3    O1 5001   0.597   0.662  17.285  0.1137 -0.1613  0.5837
  329TMC3    O2 5002   0.176   0.650  17.673  0.6874  0.9304 -0.1258
  330TMC3    C1 5003   1.162   4.301   8.734  0.4826 -0.7904 -0.0669
  330TMC3    C2 5004   1.037   4.260   8.774  0.8696  0.1618 -0.1077
  330TMC3    C3 5005   1.027   4.193   8.894 -0.0452  0.2387  0.3291
  330TMC3    C4 5006   1.271   4.274   8.813 -0.2419 -0.5816 -0.4870
  330TMC3    C5 5007   1.255   4.200   8.928 -0.1095  0.8259 -0.7214
  330TMC3    C6 5008   1.137   4.150   8.971  0.0653  0.5010 -0.8295
  330TMC3     C 5009   1.185   4.412   8.647 -0.3155  0.1566 -0.7553
  330TMC3     O 5010   1.289   4.414   8.585 -0.0074  0.5342 -0.1234
  330TMC3     H 5011   0.953   4.294   8.714  1.0533  0.5231 -0.1648
  330TMC3    H1 5012   1.361   4.329   8.787  0.2773 -3.1335 -4.0141
  330TMC3    H2 5013   1.130   4.137   9.079  0.2686  0.8107 -0.7806
  330TMC3    C7 5014   1.373   4.155   9.000  0.4899  0.1870  0.4783
  330TMC3    C8 5015   0.892   4.153   8.939  0.8839  0.2767 -0.0732
  330TMC3    O1 5016   1.483   4.210   8.974 -0.3890  0.1110 -0.3726
  330TMC3    O2 5017   0.799   4.198   8.880  0.3088 -0.8365 -0.4773
  331MPD2     C 5018   0.409   3.411  12.557  0.2703  0.1573 -0.1803
  331MPD2    C1 5019   0.469   3.429  12.442  0.6542 -0.1700 -0.0722
  331MPD2    C2 5020   0.400   3.425  12.320  0.3732  0.0834 -1.1116
  331MPD2    C3 5021   0.257   3.419  12.321 -0.4612  0.1403 -0.4328
  331MPD2    C4 5022   0.199   3.404  12.448  0.5003  0.0121  0.3660
  331MPD2    C5 5023   0.272   3.396  12.560  0.0753  0.5089 -0.3337
  331MPD2     H 5024   0.447   3.434  12.223  0.4076  0.9421 -1.0152
  331MPD2    H1 5025   0.092   3.400  12.467  0.1860  0.3212 -1.2895
  331MPD2    H2 5026   0.468   3.426  12.647 -1.0701 -1.1470  0.9069
  331MPD2    H3 5027   0.218   3.378  12.652 -0.8660 -0.0705 -0.9945
  331MPD2     N 5028   0.187   3.431  12.197 -0.5016 -0.6102 -0.4975
  331MPD2    H5 5029   0.241   3.440  12.112  1.2950  2.4203  0.9484
  331MPD2    N1 5030   0.606   3.446  12.453  0.3282 -0.1861 -0.1948
  331MPD2    H7 5031   0.649   3.400  12.533  0.3408  0.2075  0.0219
  332TMC3    C1 5032   0.017   3.382  12.051 -0.3790 -0.1578 -0.0378
  332TMC3    C2 5033   0.093   3.445  11.960 -0.7983 -0.4197  0.0570
  332TMC3    C3 5034   0.096   3.400  11.832  0.0494 -0.5316  0.5806
  332TMC3    C4 5035   4.713   3.261  12.032  0.3709  0.9309  1.0017
  332TMC3    C5 5036   0.000   3.201  11.911  0.0211  0.3368 -1.0396
  332TMC3    C6 5037   0.045   3.274  11.796  0.1068  0.3411 -0.3901
  332TMC3     C 5038   0.053   3.397  12.190 -0.5007 -1.0357 -1.4054
  332TMC3     O 5039   4.717   3.356  12.272 -0.0027  0.3156  0.3001
  332TMC3     H 5040   0.110   3.552  11.965 -0.5467 -0.4817  0.5306
  332TMC3    H1 5041   4.671   3.207  12.116 -0.8802 -0.4012 -0.4858
  332TMC3    H2 5042   0.075   3.222  11.707 -1.4381 -2.7424  0.8875
  332TMC3    C7 5043   0.048   3.062  11.920 -0.0168 -0.6339  0.0937
  332TMC3    C8 5044   0.141   3.492  11.730 -0.0188  0.0980  0.0639
  332TMC3    O1 5045   0.074   3.004  11.816  0.0337 -0.3130 -0.9485
  332TMC3    O2 5046   0.234   3.573  11.754 -0.1729  0.5179  0.3253
  333MPD2     C 5047   4.545   3.895  10.860  0.1289 -0.4289 -0.4883
  333MPD2    C1 5048   4.596   3.793  10.790 -0.1109 -0.2258  0.7657
  333MPD2    C2 5049   4.558   3.663  10.822 -0.2908 -0.6624  0.3741
  333MPD2    C3 5050   4.487   3.634  10.935 -0.5246  0.5142  0.0873
  333MPD2    C4 5051   4.436   3.740  11.010  0.0270  0.2346 -0.6820
  333MPD2    C5 5052   4.461   3.867  10.962  0.4234 -0.1694  0.5708
  333MPD2     H 5053   4.587   3.577  10.763 -3.2233 -1.3391 -0.1018
  333MPD2    H1 5054   4.383   3.737  11.105 -0.5696 -1.1755 -1.0527
  333MPD2    H2 5055   4.578   3.998  10.853  1.8827 -1.1661 -3.0136
  333MPD2    H3 5056   4.427   3.949  11.024  1.6406  1.1372 -0.5295
  333MPD2     N 5057   4.461   3.499  10.963  0.4824  0.6021  0.0641
  333MPD2    H5 5058   4.506   3.432  10.903  0.8662 -0.3775  1.4362
  333MPD2    N1 5059   4.680   3.835  10.687  0.0779 -0.2519  0.2032
  333MPD2    H7 5060   4.698   3.935  10.685 -2.8345  0.2699  0.1634
  334TMC3    C1 5061   0.123   3.811  10.536 -0.3521 -0.4929  0.8487
  334TMC3    C2 5062   0.253   3.765  10.550 -0.0718  0.0609  0.2135
  334TMC3    C3 5063   0.362   3.845  10.511  0.8608  0.3133  0.9614
  334TMC3    C4 5064   0.097   3.941  10.498  0.4265 -0.3831  0.2443
  334TMC3    C5 5065   0.213   4.021  10.477 -0.4764  0.4636  0.6843
  334TMC3    C6 5066   0.342   3.983  10.489 -0.0506  0.5864  0.4172
  334TMC3     C 5067   0.024   3.747  10.622 -0.0338  0.7187  0.1585
  334TMC3     O 5068   0.051   3.627  10.648  0.0613  0.1602 -0.2123
  334TMC3     H 5069   0.273   3.660  10.569  1.6901  0.4109  0.3335
  334TMC3    H1 5070   4.737   3.975  10.485 -0.1867 -2.0534  0.7336
  334TMC3    H2 5071   0.425   4.054  10.489 -1.5781  2.3546 -0.4766
  334TMC3    C7 5072   0.192   4.163  10.450 -0.3264 -0.0912  0.2540
  334TMC3    C8 5073   0.491   3.796  10.546 -0.4372 -0.9503 -0.9746
  334TMC3    O1 5074   0.286   4.238  10.461  0.1317  0.1161 -0.4734
  334TMC3    O2 5075   0.492   3.685  10.599 -0.5015 -0.0239  0.3859
  335TMC3    C1 5076   4.714   4.270  17.102 -0.2394  0.2050 -0.0186
  335TMC3    C2 5077   4.604   4.295  17.032 -0.1797  0.2650 -0.4424
  335TMC3    C3 5078   4.589   4.413  16.963 -0.3186  0.4977  0.1368
  335TMC3    C4 5079   0.074   4.360  17.111  0.1298  0.1382 -0.6109
  335TMC3    C5 5080   0.062   4.474  17.029  0.3978 -0.1884  0.5644
  335TMC3    C6 5081   4.690   4.501  16.960 -0.7062  0.0088 -0.0794
  335TMC3     C 5082   4.733   4.150  17.166 -0.4007 -0.0187  0.0929
  335TMC3     O 5083   0.105   4.116  17.201 -0.3759 -0.3850 -0.1786
  335TMC3     H 5084   4.533   4.217  17.008  0.8926 -0.8902  0.1513
  335TMC3    H1 5085   0.152   4.334  17.181 -0.1740 -0.1272 -0.3734
  335TMC3    H2 5086   4.686   4.596  16.908  0.6766  1.0255  1.6440
  335TMC3    C7 5087   0.169   4.569  17.026  0.0957  0.0021 -0.3818
  335TMC3    C8 5088   4.485   4.428  16.859 -0.3470 -0.0270 -0.1937
  335TMC3    O1 5089   0.161   4.676  16.966 -0.2505  0.3706 -0.1613
  335TMC3    O2 5090   4.508   4.502  16.765 -0.3752 -0.1146  0.3386
  336MPD2     C 5091   4.417   2.511  16.110  0.2620 -0.8171  0.2884
  336MPD2    C1 5092   4.414   2.496  15.968  0.4272  0.6911  1.1497
  336MPD2    C2 5093   4.449   2.376  15.917  0.3719  0.1099  0.4582
  336MPD2    C3 5094   4.470   2.260  15.989 -0.9088 -0.2642 -0.6809
  336MPD2    C4 5095   4.462   2.275  16.123 -0.7331  0.1093  0.5882
  336MPD2    C5 5096   4.426   2.393  16.184 -0.5216 -0.1589  0.6113
  336MPD2     H 5097   4.454   2.372  15.809  0.6711 -1.1819  0.5262
  336MPD2    H1 5098   4.483   2.194  16.191 -0.2463  1.9084  2.5745
  336MPD2    H2 5099   4.404   2.607  16.158 -1.7424 -0.6056 -0.6727
  336MPD2    H3 5100   4.426   2.399  16.293  2.0682 -0.4881  0.6187
  336MPD2     N 5101   4.493   2.134  15.933  0.2435 -0.3575  0.2660
  336MPD2    H5 5102   4.508   2.061  16.001  2.2083 -1.3662 -1.2432
  336MPD2    N1 5103   4.390   2.591  15.867 -0.8843  0.6909  0.6300
  336MPD2    H7 5104   4.395   2.558  15.772 -1.5011  2.0561  0.1210
  337TMC3    C1 5105   4.361   2.799  15.766 -0.6287 -0.4398  0.0878
  337TMC3    C2 5106   4.258   2.886  15.747 -0.8888 -0.1185 -0.2304
  337TMC3    C3 5107   4.218   2.923  15.621 -0.0596  0.7352 -0.1729
  337TMC3    C4 5108   4.434   2.759  15.656 -0.4520 -0.2483  0.1193
  337TMC3    C5 5109   4.385   2.799  15.533 -0.2781  1.2199  0.0835
  337TMC3    C6 5110   4.277   2.876  15.510 -0.1767  0.2294 -0.3380
  337TMC3     C 5111   4.363   2.725  15.891 -0.7459  0.2972  0.7593
  337TMC3     O 5112   4.347   2.780  16.001 -0.2547  0.1529 -0.3389
  337TMC3     H 5113   4.205   2.922  15.835 -1.2375 -0.4268 -0.3147
  337TMC3    H1 5114   4.524   2.701  15.669 -0.2020  0.3626  1.1794
  337TMC3    H2 5115   4.241   2.905  15.412  1.6988  0.4816 -0.9627
  337TMC3    C7 5116   4.483   2.799  15.424  0.1151  0.4682  0.1101
  337TMC3    C8 5117   4.080   2.961  15.616  0.8187 -0.3842  0.5297
  337TMC3    O1 5118   4.596   2.784  15.458 -0.1395 -0.1725  0.4736
  337TMC3    O2 5119   4.047   3.053  15.690  0.3858  0.1444 -0.0844
  338MPD2     C 5120   0.662   2.928   0.184 -1.0020  0.6850 -0.5970
  338MPD2    C1 5121   0.553   2.846   0.160 -0.1182 -0.8000 -1.0154
  338MPD2    C2 5122   0.451   2.842   0.256  0.0568  0.6055  0.5093
  338MPD2    C3 5123   0.464   2.901   0.378 -0.5725  0.2668 -0.6199
  338MPD2    C4 5124   0.571   2.989   0.396  0.2453 -0.0321  0.3706
  338MPD2    C5 5125   0.667   3.001   0.301  0.1477 -0.9796 -0.4934
  338MPD2     H 5126   0.365   2.776   0.254  0.9550 -0.5358 -0.7752
  338MPD2    H1 5127   0.584   3.048   0.486 -1.9324 -1.1277  1.3995
  338MPD2    H2 5128   0.739   2.943   0.110  0.0912  3.7520  1.1258
  338MPD2    H3 5129   0.755   3.058   0.328  0.4411 -0.4364 -2.6461
  338MPD2     N 5130   0.366   2.871   0.471 -0.0333 -0.1488 -0.8182
  338MPD2    H5 5131   0.304   2.798   0.439 -0.3305 -0.3766  0.2886
  338MPD2    N1 5132   0.535   2.758   0.052 -0.4130  0.0832  0.3020
  338MPD2    H7 5133   0.443   2.718   0.042  0.9035 -2.3039 -2.2551
  339TMC3    C1 5134   0.246   2.865   0.675  0.1300  0.3679 -0.1634
  339TMC3    C2 5135   0.264   2.831   0.806 -0.1266  0.3144  0.1048
  339TMC3    C3 5136   0.172   2.751   0.876 -0.2370  0.3059  0.1417
  339TMC3    C4 5137   0.129   2.821   0.612  0.0860 -0.3555 -0.4586
  339TMC3    C5 5138   0.037   2.745   0.686  0.2211 -0.1960  0.6664
  339TMC3    C6 5139   0.053   2.716   0.819  0.5468 -0.7054 -0.3942
  339TMC3     C 5140   0.358   2.918   0.605  0.2683 -0.1920 -0.7948
  339TMC3     O 5141   0.433   2.992   0.667 -0.4400 -0.5820  0.1276
  339TMC3     H 5142   0.363   2.844   0.848  0.4559  0.2401 -1.2417
  339TMC3    H1 5143   0.109   2.840   0.507  1.4157 -0.7761 -0.7838
  339TMC3    H2 5144   4.729   2.640   0.859 -0.9818  1.0240  0.3758
  339TMC3    C7 5145   4.684   2.671   0.596  0.4115 -0.0574 -0.4773
  339TMC3    C8 5146   0.189   2.732   1.021 -0.3621 -0.0396  0.1155
  339TMC3    O1 5147   4.645   2.730   0.492 -0.1435 -0.9062  0.3699
  339TMC3    O2 5148   0.299   2.760   1.069 -0.3506  0.1878 -0.2734
  340MPD2     C 5149   4.333   0.258   9.635 -0.4863  0.7088  0.3960
  340MPD2    C1 5150   4.405   0.138   9.663  0.0562 -0.0912 -1.1256
  340MPD2    C2 5151   4.469   0.126   9.782  0.4131  0.1363 -0.0838
  340MPD2    C3 5152   4.468   0.229   9.879  0.6990  0.0381 -0.2141
  340MPD2    C4 5153   4.389   0.340   9.857 -0.2267  1.0137 -0.0348
  340MPD2    C5 5154   4.334   0.359   9.728  0.0140  0.0782 -0.3365
  340MPD2     H 5155   4.535   0.041   9.794  0.4584  0.3105  0.9327
  340MPD2    H1 5156   4.393   0.421   9.928  0.8049 -0.4217  1.5579
  340MPD2    H2 5157   4.283   0.265   9.539  2.3756 -2.0152 -1.2927
  340MPD2    H3 5158   4.287   0.454   9.706 -1.7213 -0.5809  0.5453
  340MPD2     N 5159   4.543   0.220   9.999 -0.4014  0.4437  0.2860
  340MPD2    H5 5160   4.547   0.307  10.051 -1.2232  1.4554 -1.3376
  340MPD2    N1 5161   4.401   0.032   9.570 -0.0799  0.8634  0.4897
  340MPD2    H7 5162   4.356   0.061   9.483 -0.7038  0.7993  0.7854
  341TMC3    C1 5163   4.423   4.550   9.490 -0.4931 -0.0203 -0.4301
  341TMC3    C2 5164   4.423   4.415   9.511 -0.0371  0.3269  0.4347
  341TMC3    C3 5165   4.474   4.340   9.413  0.5303 -1.3610 -0.0350
  341TMC3    C4 5166   4.462   4.593   9.366  0.4761 -0.1112 -1.1324
  341TMC3    C5 5167   4.493   4.512   9.265 -0.2102  0.2644  0.3202
  341TMC3    C6 5168   4.506   4.380   9.281  0.2265  0.3998 -0.5160
  341TMC3     C 5169   4.435   4.642   9.601 -0.4340  0.3469  0.1008
  341TMC3     O 5170   4.473   4.592   9.708 -0.2521 -0.0522 -0.0467
  341TMC3     H 5171   4.385   4.373   9.604  0.8018 -0.3779  0.4613
  341TMC3    H1 5172   4.471   4.701   9.353  2.1854 -0.4256 -2.5867
  341TMC3    H2 5173   4.563   4.321   9.211  2.8288  2.3328 -0.0035
  341TMC3    C7 5174   4.587   4.579   9.178 -0.3325  0.5665 -0.1931
  341TMC3    C8 5175   4.480   4.193   9.426 -0.1488  0.1147  0.4930
  341TMC3    O1 5176   4.600   4.566   9.057  0.2227  0.3118  0.4791
  341TMC3    O2 5177   4.490   4.131   9.317  0.0878  0.0387 -0.2063
  342MPD2     C 5178   2.887   2.993  17.366  0.2770  0.0209 -0.2340
  342MPD2    C1 5179   2.963   2.996  17.248  0.2789 -0.0244 -0.7923
  342MPD2    C2 5180   3.021   3.112  17.209  0.5465 -0.1745 -0.3216
  342MPD2    C3 5181   3.003   3.233  17.292  0.2016  0.4273 -0.1263
  342MPD2    C4 5182   2.919   3.227  17.399  0.0200  0.2426 -0.2497
  342MPD2    C5 5183   2.864   3.112  17.434 -1.0035  0.3303  0.0315
  342MPD2     H 5184   3.085   3.106  17.122 -0.2213  0.1293 -0.9064
  342MPD2    H1 5185   2.903   3.309  17.468  1.0524  0.3996 -0.1956
  342MPD2    H2 5186   2.835   2.906  17.403  1.5685 -1.3804 -1.6569
  342MPD2    H3 5187   2.800   3.105  17.522 -2.0509 -1.5394 -0.8778
  342MPD2     N 5188   3.056   3.355  17.256 -0.3786 -0.4378  0.2801
  342MPD2    H5 5189   3.024   3.434  17.310 -0.2201 -0.0016 -0.2700
  342MPD2    N1 5190   2.996   2.887  17.171 -0.2548  0.2420 -0.3861
  342MPD2    H7 5191   3.051   2.903  17.087  0.3785  0.5232  0.0913
  343TMC3    C1 5192   3.002   2.648  17.112 -0.2285 -0.1693  0.1852
  343TMC3    C2 5193   3.043   2.675  16.980 -0.4508  0.3429  0.6279
  343TMC3    C3 5194   3.058   2.567  16.894 -0.1170 -0.4122  0.3295
  343TMC3    C4 5195   2.963   2.520  17.152 -0.9603  0.3355 -0.0667
  343TMC3    C5 5196   2.987   2.418  17.058 -0.2517  0.7079 -0.0019
  343TMC3    C6 5197   3.030   2.437  16.927 -0.1850 -0.3337 -0.3626
  343TMC3     C 5198   2.949   2.758  17.199  0.2053  0.4747  0.2850
  343TMC3     O 5199   2.874   2.719  17.289  0.2106  0.3115  0.0176
  343TMC3     H 5200   3.063   2.776  16.947 -1.4131  1.2253  2.7010
  343TMC3    H1 5201   2.916   2.496  17.247 -0.9908 -1.1752 -0.4642
  343TMC3    H2 5202   3.026   2.354  16.857 -1.3500 -1.6051  1.2087
  343TMC3    C7 5203   2.919   2.294  17.081 -0.2271  0.2657  0.0663
  343TMC3    C8 5204   3.125   2.601  16.770 -0.4823 -0.2815 -0.2620
  343TMC3    O1 5205   2.859   2.240  16.991  0.1865 -0.0819 -1.0113
  343TMC3    O2 5206   3.195   2.698  16.771  0.4484  0.1766 -0.1028
  344MPD2     C 5207   3.202   2.978   9.944  0.0709 -0.0068  0.1004
  344MPD2    C1 5208   3.252   3.025  10.067  0.5960 -0.0355 -0.2183
  344MPD2    C2 5209   3.365   3.108  10.068  0.1143  1.0033  0.2450
  344MPD2    C3 5210   3.404   3.169   9.948 -0.0206  0.5571  0.0185
  344MPD2    C4 5211   3.352   3.127   9.830 -0.1806 -0.9569 -0.5948
  344MPD2    C5 5212   3.257   3.027   9.827 -0.0094  0.2607  0.0871
  344MPD2     H 5213   3.408   3.127  10.166 -1.2333 -2.1849  1.4478
  344MPD2    H1 5214   3.386   3.167   9.736  1.2123  0.0114  0.3227
  344MPD2    H2 5215   3.122   2.905   9.937  2.1677 -2.2087 -0.8916
  344MPD2    H3 5216   3.225   2.991   9.729 -0.3951 -0.0969  0.3457
  344MPD2     N 5217   3.500   3.276   9.943 -0.1176  0.1634  0.4871
  344MPD2    H5 5218   3.540   3.298   9.853  1.4003 -1.6930  0.7136
  344MPD2    N1 5219   3.193   2.982  10.191  0.8595 -1.1012 -0.1537
  344MPD2    H7 5220   3.245   3.000  10.277 -1.0990  1.6140  0.4625
  345TMC3    C1 5221   3.699   3.384  10.016  0.1553  0.1660  0.7348
  345TMC3    C2 5222   3.792   3.402  10.118  0.1836 -0.1591  0.2699
  345TMC3    C3 5223   3.907   3.465  10.078 -0.5750  0.1394  0.6597
  345TMC3    C4 5224   3.724   3.419   9.887 -0.1529 -0.4458 -0.0150
  345TMC3    C5 5225   3.842   3.469   9.848 -0.5479  0.3206  0.1018
  345TMC3    C6 5226   3.935   3.493   9.945 -0.2440  0.0539  0.7178
  345TMC3     C 5227   3.571   3.320  10.053 -0.4924  0.4303  0.7223
  345TMC3     O 5228   3.551   3.291  10.169  0.0008  0.4516  0.0038
  345TMC3     H 5229   3.762   3.372  10.217 -2.6243  0.8210 -0.2813
  345TMC3    H1 5230   3.634   3.439   9.831  0.3437 -3.8234 -1.9853
  345TMC3    H2 5231   4.024   3.552   9.924 -1.8368  2.2523  0.0804
  345TMC3    C7 5232   3.833   3.563   9.743 -0.9216 -0.4125 -0.4338
  345TMC3    C8 5233   3.959   3.566  10.171  0.5473  0.2175 -0.8486
  345TMC3    O1 5234   3.885   3.670   9.773  0.4586 -0.4592  0.2448
  345TMC3    O2 5235   4.027   3.658  10.137 -0.0854  0.3674 -0.1022
  346MPD2     C 5236   3.399   4.412  13.610  0.7874 -0.0273  0.4624
  346MPD2    C1 5237   3.503   4.339  13.660 -0.2414 -0.2209  0.1595
  346MPD2    C2 5238   3.585   4.400  13.753 -0.6462 -0.4968  0.2704
  346MPD2    C3 5239   3.562   4.529  13.799 -0.4460  0.6586  0.2586
  346MPD2    C4 5240   3.449   4.596  13.751  0.2552  0.7418  0.7912
  346MPD2    C5 5241   3.374   4.537  13.654 -0.6086  0.4365  1.0110
  346MPD2     H 5242   3.679   4.356  13.783  0.3061  2.0221  0.9332
  346MPD2    H1 5243   3.421   4.697  13.780  0.1094  0.4164  1.7634
  346MPD2    H2 5244   3.336   4.376  13.528 -1.1761  3.0119  0.6441
  346MPD2    H3 5245   3.302   4.602  13.604 -0.0417 -0.0559 -0.4520
  346MPD2     N 5246   3.662   4.588  13.876  0.0107  0.8660 -0.0453
  346MPD2    H5 5247   3.746   4.534  13.892  0.2487  0.9613 -0.9927
  346MPD2    N1 5248   3.517   4.216  13.590  0.1806 -0.7465 -0.1689
  346MPD2    H7 5249   3.463   4.200  13.506  0.7473  0.5117 -0.7817
  347TMC3    C1 5250   3.751   4.734  14.024  0.4480  0.4870  0.0701
  347TMC3    C2 5251   3.879   4.695  13.992 -0.0717 -0.2022 -0.2442
  347TMC3    C3 5252   3.969   4.701  14.095 -0.0887  0.2027 -0.4472
  347TMC3    C4 5253   3.708   0.036  14.147  0.5224 -0.2081 -0.0565
  347TMC3    C5 5254   3.804   0.035  14.247 -0.6593 -0.7415 -0.6597
  347TMC3    C6 5255   3.925   4.724  14.221  0.5547 -0.8115  0.2684
  347TMC3     C 5256   3.645   4.711  13.931 -0.5741 -0.1836 -0.9938
  347TMC3     O 5257   3.548   0.042  13.938 -0.3624 -0.7415  0.0144
  347TMC3     H 5258   3.904   4.688  13.887  0.0868 -0.4564 -0.1899
  347TMC3    H1 5259   3.607   0.071  14.166  0.6526  0.7638 -1.1291
  347TMC3    H2 5260   4.006   4.724  14.293  1.1935  1.6325 -0.4413
  347TMC3    C7 5261   3.760   0.050  14.387  0.5028 -0.5232  0.4798
  347TMC3    C8 5262   4.083   4.616  14.083  0.6416  0.4533 -0.0132
  347TMC3    O1 5263   3.842   0.019  14.474 -0.1609 -0.3044 -0.2031
  347TMC3    O2 5264   4.108   4.554  14.184 -0.4902  0.0682 -0.1760
  348MPD2     C 5265   2.116   4.181  11.810 -0.6968  0.1717 -0.2121
  348MPD2    C1 5266   2.204   4.195  11.707 -1.5114  0.2938  0.5858
  348MPD2    C2 5267   2.159   4.269  11.603 -0.1639 -0.1588 -0.0315
  348MPD2    C3 5268   2.032   4.318  11.586  0.6377  0.0181  0.1933
  348MPD2    C4 5269   1.948   4.299  11.691  0.1942 -0.1865 -0.5120
  348MPD2    C5 5270   1.989   4.234  11.801  0.2963 -0.4705 -0.7445
  348MPD2     H 5271   2.227   4.275  11.518  0.4425  1.3366  0.5570
  348MPD2    H1 5272   1.847   4.339  11.684  0.9544  1.9609  1.0804
  348MPD2    H2 5273   2.139   4.139  11.907  0.5667  0.9125 -0.1842
  348MPD2    H3 5274   1.925   4.232  11.888  2.4083 -1.4131  0.8052
  348MPD2     N 5275   1.998   4.387  11.469 -0.1883 -0.3490  0.3145
  348MPD2    H5 5276   2.070   4.417  11.404  1.3254 -0.4612  1.9237
  348MPD2    N1 5277   2.325   4.135  11.704  0.7553 -0.5977  0.2304
  348MPD2    H7 5278   2.375   4.139  11.615 -0.4878  0.5522 -0.4069
  349TMC3    C1 5279   2.477   3.959  11.746  0.0535  0.4336 -0.2644
  349TMC3    C2 5280   2.503   3.840  11.811 -0.9773  0.0073  0.1713
  349TMC3    C3 5281   2.584   3.742  11.756 -0.1479 -0.2247  0.1023
  349TMC3    C4 5282   2.543   3.985  11.636 -0.9047 -0.3894  0.4382
  349TMC3    C5 5283   2.629   3.884  11.584 -0.3379 -0.0066 -0.2780
  349TMC3    C6 5284   2.654   3.764  11.643  0.2565 -0.6331  0.3812
  349TMC3     C 5285   2.365   4.040  11.795 -0.2593 -0.2006  0.3573
  349TMC3     O 5286   2.319   3.999  11.902  0.0875  0.5966 -0.4400
  349TMC3     H 5287   2.468   3.815  11.910 -1.4126  2.9553  0.7372
  349TMC3    H1 5288   2.540   4.085  11.594 -0.2162  0.9386  3.5610
  349TMC3    H2 5289   2.705   3.685  11.590  0.4365 -0.1339 -0.1879
  349TMC3    C7 5290   2.672   3.902  11.451  0.1367 -0.2318 -1.0352
  349TMC3    C8 5291   2.620   3.630  11.836 -0.2479  0.0793 -0.7257
  349TMC3    O1 5292   2.792   3.885  11.428  0.0451  0.3718 -0.4975
  349TMC3    O2 5293   2.532   3.578  11.903  0.0514  0.0858 -0.3193
  350MPD2     C 5294   0.519   2.608   9.852 -0.0800 -0.0607  0.9108
  350MPD2    C1 5295   0.576   2.490   9.878 -0.6601 -0.4223 -0.1023
  350MPD2    C2 5296   0.710   2.465   9.857  0.3473  0.2839 -0.1501
  350MPD2    C3 5297   0.792   2.563   9.794 -0.6982 -0.0809 -0.1485
  350MPD2    C4 5298   0.734   2.685   9.764  0.1764  0.0891  0.2300
  350MPD2    C5 5299   0.602   2.707   9.798  0.3721  0.2201 -0.8716
  350MPD2     H 5300   0.755   2.368   9.879  0.2141  0.5245  1.1407
  350MPD2    H1 5301   0.801   2.763   9.729  2.9311 -3.1172 -1.6503
  350MPD2    H2 5302   0.417   2.635   9.875  0.3117  0.1871  2.3659
  350MPD2    H3 5303   0.548   2.797   9.773  1.6162  1.4458  0.8805
  350MPD2     N 5304   0.930   2.528   9.801 -0.2884 -0.6065 -0.0761
  350MPD2    H5 5305   0.956   2.438   9.840 -0.2851  0.2337  1.8732
  350MPD2    N1 5306   0.510   2.385   9.943  0.9144 -0.6952  0.2006
  350MPD2    H7 5307   0.564   2.299   9.945  1.1463 -0.5810 -1.2418
  351TMC3    C1 5308   0.363   2.248  10.052 -0.0837 -0.4102 -0.4281
  351TMC3    C2 5309   0.457   2.166  10.096 -0.2025  0.1706 -0.3143
  351TMC3    C3 5310   0.422   2.047  10.158 -0.4417  0.3477 -0.2768
  351TMC3    C4 5311   0.231   2.203  10.058  0.4057 -0.1118 -0.6408
  351TMC3    C5 5312   0.199   2.079  10.112 -0.0103  0.5939 -0.4850
  351TMC3    C6 5313   0.294   1.992  10.166  0.5437 -0.1292  0.1222
  351TMC3     C 5314   0.386   2.375   9.990  0.7715 -0.1444 -0.3393
  351TMC3     O 5315   0.289   2.444   9.968  0.1629  0.2131 -0.2875
  351TMC3     H 5316   0.562   2.194  10.090  0.7771 -3.1338  0.9328
  351TMC3    H1 5317   0.154   2.267  10.016 -0.9738 -0.9896  0.5818
  351TMC3    H2 5318   0.278   1.892  10.202  0.8849  0.3029  1.4646
  351TMC3    C7 5319   0.064   2.022  10.063  0.4526 -0.0002 -0.6261
  351TMC3    C8 5320   0.538   1.952  10.148 -0.2744  0.2115 -0.0460
  351TMC3    O1 5321   4.713   2.100  10.032 -0.0278  0.6739  0.1704
  351TMC3    O2 5322   0.630   1.994  10.082 -0.5590  0.1713 -0.0765
  352MPD2     C 5323   3.890   4.453   0.879 -0.5288 -0.0264  0.3100
  352MPD2    C1 5324   3.862   4.321   0.848  0.4016 -0.5671  0.6774
  352MPD2    C2 5325   3.890   4.229   0.949 -0.6752 -0.3402 -0.3887
  352MPD2    C3 5326   3.969   4.255   1.056  0.2910  0.2627 -0.0494
  352MPD2    C4 5327   4.005   4.385   1.077 -0.4760  0.4380 -0.7243
  352MPD2    C5 5328   3.966   4.483   0.989 -0.1514  0.2611 -0.6014
  352MPD2     H 5329   3.876   4.125   0.922  0.8098 -0.5528 -0.2996
  352MPD2    H1 5330   4.077   4.415   1.152 -0.3999  1.8179 -1.3632
  352MPD2    H2 5331   3.857   4.537   0.819 -0.5658 -0.9030 -0.8891
  352MPD2    H3 5332   3.990   4.588   1.006  0.2994 -0.2037  1.6214
  352MPD2     N 5333   4.019   4.161   1.144 -0.4541 -0.0383 -0.0153
  352MPD2    H5 5334   4.094   4.200   1.200  1.7430 -0.6575 -2.5364
  352MPD2    N1 5335   3.795   4.272   0.732 -1.1328 -0.6392 -0.2272
  352MPD2    H7 5336   3.780   4.172   0.726  2.4689 -1.4775  5.5958
  353TMC3    C1 5337   4.074   3.944   1.200  0.5239  0.9004 -0.1526
  353TMC3    C2 5338   4.204   3.978   1.175  0.5243  0.0351 -0.5963
  353TMC3    C3 5339   4.288   3.887   1.131  0.2146  0.0920 -0.7884
  353TMC3    C4 5340   4.039   3.809   1.195  0.3310  0.0053 -0.2442
  353TMC3    C5 5341   4.136   3.719   1.171  1.0262  0.0132  0.3261
  353TMC3    C6 5342   4.262   3.754   1.133  0.3064 -0.1514  0.0908
  353TMC3     C 5343   3.974   4.029   1.145  1.0911  0.1466 -0.2826
  353TMC3     O 5344   3.875   3.978   1.094  0.1457  0.2208 -0.0765
  353TMC3     H 5345   4.235   4.082   1.181  0.1962  0.2395 -2.5032
  353TMC3    H1 5346   3.937   3.780   1.216  0.3271  0.7997  0.8611
  353TMC3    H2 5347   4.334   3.678   1.106  0.5779  0.2677 -0.3621
  353TMC3    C7 5348   4.094   3.590   1.118 -0.9250 -0.0146  0.1551
  353TMC3    C8 5349   4.397   3.936   1.046 -0.0424  0.2339 -0.3381
  353TMC3    O1 5350   4.187   3.529   1.060  0.6218 -0.5480  0.4586
  353TMC3    O2 5351   4.413   4.054   1.046  0.2947  0.9882  0.1583
  354TMC3    C1 5352   1.594   0.292  13.200  0.1753  0.4091 -0.1906
  354TMC3    C2 5353   1.726   0.313  13.243 -0.0948  0.4609  0.9793
  354TMC3    C3 5354   1.836   0.314  13.154 -0.7711 -0.0590  0.4766
  354TMC3    C4 5355   1.573   0.263  13.070 -1.4324 -0.0146 -0.0709
  354TMC3    C5 5356   1.680   0.246  12.991 -0.2694  0.1854 -0.3662
  354TMC3    C6 5357   1.808   0.263  13.031 -0.5439  0.2200  0.3126
  354TMC3     C 5358   1.513   0.218  13.294 -0.8583  0.0562  0.2482
  354TMC3     O 5359   1.566   0.160  13.387 -0.2036 -0.5233  0.2116
  354TMC3     H 5360   1.741   0.351  13.343  1.8757 -0.0056  0.8612
  354TMC3    H1 5361   1.479   0.249  13.018 -1.8920  1.0054  0.4898
  354TMC3    H2 5362   1.889   0.263  12.959 -0.1494  1.3747  0.7623
  354TMC3    C7 5363   1.652   0.251  12.847  0.5658  0.2000 -0.1892
  354TMC3    C8 5364   1.868   0.456  13.139  0.1648 -0.2857 -0.1954
  354TMC3    O1 5365   1.545   0.211  12.807  0.2844  0.5662 -0.1202
  354TMC3    O2 5366   1.786   0.536  13.176 -0.1162  0.4077 -0.3207
  355MPD2     C 5367   1.491   1.607  11.516 -0.5625 -0.1679 -0.6286
  355MPD2    C1 5368   1.608   1.619  11.446 -0.1908 -0.2023 -0.3283
  355MPD2    C2 5369   1.713   1.557  11.501 -0.1506  0.5601  0.6677
  355MPD2    C3 5370   1.709   1.488  11.622  0.0659 -0.1849 -0.3336
  355MPD2    C4 5371   1.604   1.501  11.709  0.5521 -0.2878 -0.2115
  355MPD2    C5 5372   1.496   1.555  11.647 -0.0258  0.2258 -0.2881
  355MPD2     H 5373   1.808   1.562  11.450 -0.8310  0.6603 -0.6007
  355MPD2    H1 5374   1.610   1.458  11.808 -0.3150 -2.4351 -1.0922
  355MPD2    H2 5375   1.398   1.636  11.469  0.6971  1.9426 -1.7938
  355MPD2    H3 5376   1.402   1.551  11.701 -0.0382 -0.5058 -0.3665
  355MPD2     N 5377   1.831   1.435  11.667  0.2030  0.2472 -0.0231
  355MPD2    H5 5378   1.917   1.452  11.614  0.7145 -0.6573  0.5129
  355MPD2    N1 5379   1.619   1.688  11.321  0.0023 -0.0046  0.6343
  355MPD2    H7 5380   1.541   1.745  11.292 -0.9123 -1.0357  1.0768
  356TMC3    C1 5381   2.010   1.332  11.774 -0.0396  0.2262  0.4243
  356TMC3    C2 5382   2.067   1.368  11.655 -0.4211 -0.5066 -0.2388
  356TMC3    C3 5383   2.172   1.462  11.647  0.5818  0.6791  0.5546
  356TMC3    C4 5384   2.065   1.375  11.884 -0.9168  0.6008  0.1345
  356TMC3    C5 5385   2.164   1.473  11.880  0.7915 -0.3809 -0.6320
  356TMC3    C6 5386   2.216   1.518  11.765  0.3651  0.6339 -0.4958
  356TMC3     C 5387   1.869   1.363  11.781  0.1316  0.2689 -0.0917
  356TMC3     O 5388   1.801   1.330  11.875 -0.3034 -0.1372  0.0811
  356TMC3     H 5389   2.030   1.321  11.564  0.1541 -0.3997 -0.5250
  356TMC3    H1 5390   2.021   1.348  11.980 -0.7563  1.9766  0.5996
  356TMC3    H2 5391   2.296   1.590  11.775 -0.3453  1.2567  0.7034
  356TMC3    C7 5392   2.241   1.472  12.002  0.0796  0.2595  0.3402
  356TMC3    C8 5393   2.170   1.526  11.521  0.0658 -0.0702 -0.3922
  356TMC3    O1 5394   2.271   1.361  12.040 -0.3704  1.0448  0.2435
  356TMC3    O2 5395   2.088   1.489  11.436  0.0978  0.5586  0.0285
  357MPD2     C 5396   1.893   1.769   1.113  0.2219 -0.5919 -0.3292
  357MPD2    C1 5397   1.805   1.706   1.027 -0.4939  0.5125 -0.4207
  357MPD2    C2 5398   1.671   1.748   1.032  0.5240  0.0448  0.3751
  357MPD2    C3 5399   1.620   1.837   1.129  0.5581  0.0917 -0.1364
  357MPD2    C4 5400   1.710   1.882   1.220 -0.2942  0.1728  0.2349
  357MPD2    C5 5401   1.846   1.856   1.211 -0.0628 -0.1827 -0.2621
  357MPD2     H 5402   1.601   1.707   0.960  1.0395  0.2000 -0.2128
  357MPD2    H1 5403   1.677   1.941   1.305 -1.1713  0.3197 -0.2101
  357MPD2    H2 5404   2.000   1.750   1.111  0.4394  0.7022 -0.5481
  357MPD2    H3 5405   1.917   1.900   1.280  0.2596  1.6618 -1.7730
  357MPD2     N 5406   1.483   1.874   1.118 -0.4068 -0.1869 -0.7442
  357MPD2    H5 5407   1.422   1.827   1.052  0.0777 -3.3565  1.0815
  357MPD2    N1 5408   1.858   1.614   0.933 -0.2063  0.2877 -0.6610
  357MPD2    H7 5409   1.958   1.598   0.920 -0.0762  0.6674 -0.1276
  358TMC3    C1 5410   1.861   1.430   0.783 -0.1540  0.1711  0.4525
  358TMC3    C2 5411   1.817   1.391   0.664  0.6236  0.5095 -0.1931
  358TMC3    C3 5412   1.877   1.280   0.611  0.4732 -0.0042  0.4454
  358TMC3    C4 5413   1.958   1.367   0.857  1.0588 -0.4247 -0.0325
  358TMC3    C5 5414   2.002   1.255   0.802 -0.1202  0.2632 -0.2694
  358TMC3    C6 5415   1.982   1.216   0.670  0.7861  0.2718  0.0244
  358TMC3     C 5416   1.784   1.537   0.848 -0.6871 -0.2120  0.1013
  358TMC3     O 5417   1.664   1.529   0.827 -0.0761  0.1945 -0.7666
  358TMC3     H 5418   1.745   1.450   0.608 -1.0239 -0.5313  0.8231
  358TMC3    H1 5419   1.977   1.384   0.962  0.8391  1.3925 -0.2753
  358TMC3    H2 5420   2.007   1.115   0.641  0.7480  0.1258  0.5050
  358TMC3    C7 5421   2.098   1.172   0.882  0.0575  0.3514 -0.3225
  358TMC3    C8 5422   1.861   1.249   0.473 -0.1747 -0.2578  0.4601
  358TMC3    O1 5423   2.115   1.211   0.996 -0.0772 -0.2813 -0.5287
  358TMC3    O2 5424   1.947   1.174   0.434  0.2319 -0.5939  0.1792
  359MPD2     C 5425   2.021   0.090  12.652 -0.0486 -0.7147 -0.5037
  359MPD2    C1 5426   1.952   0.141  12.541 -0.5172  0.2296 -0.0969
  359MPD2    C2 5427   1.820   0.113  12.532  0.0152 -0.7732 -0.1881
  359MPD2    C3 5428   1.757   0.020  12.615 -0.2859 -0.0383 -0.3194
  359MPD2    C4 5429   1.827   4.711  12.717  0.2403 -0.5507  0.6700
  359MPD2    C5 5430   1.959   0.003  12.734  0.1621  0.0120 -0.2536
  359MPD2     H 5431   1.764   0.165  12.454 -0.6285  0.3140  1.0037
  359MPD2    H1 5432   1.781   4.639  12.784  0.1292 -2.1184 -1.0901
  359MPD2    H2 5433   2.118   0.131  12.680  0.1315 -1.6431  0.2563
  359MPD2    H3 5434   2.006   4.706  12.824  1.2079 -0.4235 -0.9794
  359MPD2     N 5435   1.641   4.699  12.587  0.0015  0.3355 -0.3464
  359MPD2    H5 5436   1.618   4.616  12.641  0.3667  1.0459  0.9012
  359MPD2    N1 5437   2.011   0.233  12.453  0.4208 -0.1374 -0.9786
  359MPD2    H7 5438   1.950   0.298  12.404  2.3926  1.9377 -0.6965
  360TMC3    C1 5439   2.172   0.336  12.327 -0.3536 -0.3400  0.4739
  360TMC3    C2 5440   2.312   0.359  12.308  0.8028  0.4817 -0.0575
  360TMC3    C3 5441   2.355   0.391  12.185 -0.6180 -0.1495  0.2757
  360TMC3    C4 5442   2.087   0.342  12.220  0.3701 -0.7102 -0.6162
  360TMC3    C5 5443   2.138   0.383  12.099  0.5872 -0.2914  0.7428
  360TMC3    C6 5444   2.272   0.413  12.081  0.1676 -0.5111 -0.1571
  360TMC3     C 5445   2.143   0.244  12.433  0.1575 -0.0042 -0.0515
  360TMC3     O 5446   2.235   0.173  12.477 -0.0415  0.6249  0.2749
  360TMC3     H 5447   2.376   0.320  12.387 -0.5404 -0.5218  0.5350
  360TMC3    H1 5448   1.983   0.313  12.230  0.0132  1.2181  1.3176
  360TMC3    H2 5449   2.302   0.458  11.986 -0.8886  0.2009 -0.1615
  360TMC3    C7 5450   2.065   0.368  11.974 -0.3382 -0.3505 -0.0250
  360TMC3    C8 5451   2.500   0.397  12.158  0.0242  0.0678 -0.0418
  360TMC3    O1 5452   2.107   0.414  11.873  0.5057 -0.9953 -0.3799
  360TMC3    O2 5453   2.572   0.415  12.253 -0.4016  0.2980 -0.2835
  361MPD2     C 5454   3.460   3.045  16.607  0.6527 -0.2681  0.6163
  361MPD2    C1 5455   3.536   3.159  16.603  0.2803  0.0770 -0.8181
  361MPD2    C2 5456   3.662   3.140  16.551 -0.8053 -0.8552  0.2642
  361MPD2    C3 5457   3.711   3.025  16.500  1.5780  0.0613 -0.7092
  361MPD2    C4 5458   3.631   2.912  16.508 -0.1887  0.0223  0.6944
  361MPD2    C5 5459   3.503   2.926  16.554  0.6034 -0.2885 -0.2893
  361MPD2     H 5460   3.726   3.227  16.536  0.2646 -1.5743  0.6151
  361MPD2    H1 5461   3.659   2.815  16.469  0.2458  0.0760  0.8731
  361MPD2    H2 5462   3.357   3.054  16.637  0.0045 -0.2120 -1.6370
  361MPD2    H3 5463   3.441   2.837  16.553 -0.7910  0.7136 -1.5445
  361MPD2     N 5464   3.842   3.002  16.456 -0.5155 -0.4261  0.0308
  361MPD2    H5 5465   3.867   2.911  16.419 -0.6537  0.4768 -2.2521
  361MPD2    N1 5466   3.484   3.291  16.614 -0.1637 -0.3786 -0.0803
  361MPD2    H7 5467   3.545   3.363  16.577 -0.7784  0.0999 -0.1662
  362TMC3    C1 5468   3.333   3.461  16.652 -0.5966 -0.4983 -0.6803
  362TMC3    C2 5469   3.229   3.504  16.728  0.2138 -0.1496 -0.2391
  362TMC3    C3 5470   3.165   3.615  16.692  0.3198  0.1148 -0.1277
  362TMC3    C4 5471   3.372   3.527  16.538  0.5815 -0.4798 -0.1311
  362TMC3    C5 5472   3.292   3.629  16.496  0.2014  0.2100  0.4947
  362TMC3    C6 5473   3.193   3.680  16.574 -0.2474 -0.0769 -0.6273
  362TMC3     C 5474   3.360   3.321  16.663  0.2069  0.7445 -0.0209
  362TMC3     O 5475   3.299   3.253  16.737  0.1482 -0.0723  0.7685
  362TMC3     H 5476   3.188   3.444  16.808  0.3953 -0.7849 -0.6291
  362TMC3    H1 5477   3.447   3.493  16.467 -0.3714 -1.7219 -0.5524
  362TMC3    H2 5478   3.136   3.770  16.550 -1.3527 -0.4713  0.4880
  362TMC3    C7 5479   3.347   3.734  16.415 -0.1948 -0.4383 -0.2024
  362TMC3    C8 5480   3.045   3.640  16.757 -0.6404 -0.2219  0.0540
  362TMC3    O1 5481   3.334   3.851  16.446 -0.0535  0.6299  0.0983
  362TMC3    O2 5482   2.978   3.550  16.810  0.0001 -0.3139  0.0896
  363TMC3    C1 5483   1.592   1.674   9.737 -0.1996  0.0667 -0.0495
  363TMC3    C2 5484   1.617   1.572   9.826 -0.3563 -0.2106 -1.0504
  363TMC3    C3 5485   1.546   1.560   9.941  0.2307  0.3676 -0.0608
  363TMC3    C4 5486   1.491   1.757   9.761  0.1161  0.7375  0.2434
  363TMC3    C5 5487   1.424   1.745   9.874  0.0022  0.1839 -0.0235
  363TMC3    C6 5488   1.443   1.650   9.970 -0.9457 -0.3433  0.1207
  363TMC3     C 5489   1.683   1.696   9.629 -0.1867 -0.1036 -0.1122
  363TMC3     O 5490   1.762   1.609   9.599  0.1789 -0.3595 -0.4801
  363TMC3     H 5491   1.700   1.507   9.803  2.4958  3.1028 -0.0716
  363TMC3    H1 5492   1.453   1.828   9.689  0.4745  1.0956  0.4099
  363TMC3    H2 5493   1.395   1.665  10.066 -1.5403  1.2653 -0.4248
  363TMC3    C7 5494   1.298   1.819   9.889 -0.3425 -0.4818 -0.1093
  363TMC3    C8 5495   1.575   1.459  10.045  0.1090  0.2954 -0.5220
  363TMC3    O1 5496   1.218   1.773   9.972 -0.0126  0.4253 -0.6771
  363TMC3    O2 5497   1.520   1.479  10.149  0.8373  0.3583  0.1068
  364MPD2     C 5498   0.330   0.888  10.533 -0.3269  0.0999 -0.2020
  364MPD2    C1 5499   0.433   0.975  10.510 -0.3500 -0.2870  0.2049
  364MPD2    C2 5500   0.560   0.924  10.514  0.2701 -0.1452 -0.1023
  364MPD2    C3 5501   0.589   0.789  10.557 -0.2952 -0.4921 -0.2597
  364MPD2    C4 5502   0.478   0.714  10.589  0.3605  0.1430  0.9589
  364MPD2    C5 5503   0.350   0.758  10.561  0.4601 -0.5296  0.3652
  364MPD2     H 5504   0.633   1.001  10.489  0.8777 -1.0496 -1.1154
  364MPD2    H1 5505   0.486   0.614  10.630  3.3480  0.7074  1.7513
  364MPD2    H2 5506   0.231   0.925  10.509  0.1595  1.7835  0.4050
  364MPD2    H3 5507   0.266   0.692  10.579 -1.0157  1.0920 -0.5388
  364MPD2     N 5508   0.715   0.745  10.593  0.2295  0.5651  0.7340
  364MPD2    H5 5509   0.715   0.658  10.646  1.6815 -0.1318 -0.4140
  364MPD2    N1 5510   0.419   1.109  10.470  0.1515  0.0625  0.4127
  364MPD2    H7 5511   0.503   1.153  10.434  1.1198 -2.1668 -0.0576
  365TMC3    C1 5512   0.306   1.298  10.388 -0.0737  0.4389 -0.0488
  365TMC3    C2 5513   0.381   1.294  10.275  0.0934  0.0323  0.2745
  365TMC3    C3 5514   0.415   1.419  10.220  0.3466 -0.2300  0.2141
  365TMC3    C4 5515   0.269   1.413  10.444 -0.3858 -0.0784  0.2431
  365TMC3    C5 5516   0.303   1.534  10.385 -0.7868  0.4711  0.0226
  365TMC3    C6 5517   0.376   1.540  10.269 -0.5699 -0.4164 -0.5534
  365TMC3     C 5518   0.303   1.182  10.468  0.4636  0.3505 -0.4860
  365TMC3     O 5519   0.191   1.160  10.521  0.4025 -0.2230 -0.5122
  365TMC3     H 5520   0.404   1.200  10.226 -0.5274 -0.4860  0.9882
  365TMC3    H1 5521   0.205   1.400  10.530 -1.0347  0.1550 -0.2046
  365TMC3    H2 5522   0.376   1.635  10.217  0.4792 -0.1756 -0.0974
  365TMC3    C7 5523   0.325   1.651  10.464 -0.3380 -0.3168 -0.4348
  365TMC3    C8 5524   0.496   1.416  10.100  0.2673  0.0523  0.1372
  365TMC3    O1 5525   0.330   1.758  10.403  0.4986  0.2615 -0.3692
  365TMC3    O2 5526   0.487   1.516  10.028 -0.1944  0.1842  0.2963
  366MPD2     C 5527   4.041   1.241  15.141 -0.2927  0.6404  0.5689
  366MPD2    C1 5528   4.139   1.324  15.187 -0.5774 -0.7470  0.3428
  366MPD2    C2 5529   4.268   1.309  15.132  0.2751  0.5517 -0.2450
  366MPD2    C3 5530   4.286   1.221  15.023 -0.2745 -0.4957 -0.0098
  366MPD2    C4 5531   4.187   1.125  14.991  0.1546 -0.3945 -0.2864
  366MPD2    C5 5532   4.066   1.143  15.055 -0.5991 -0.8347  0.1005
  366MPD2     H 5533   4.341   1.382  15.164  1.2494 -1.8076  2.9989
  366MPD2    H1 5534   4.194   1.039  14.925  1.3835  1.2880 -2.3836
  366MPD2    H2 5535   3.938   1.258  15.171 -0.0514 -0.2492  1.8740
  366MPD2    H3 5536   3.987   1.070  15.040 -0.9397 -0.8060  1.8016
  366MPD2     N 5537   4.398   1.245  14.931 -0.2039  0.1261  0.0655
  366MPD2    H5 5538   4.460   1.322  14.951 -0.2535 -0.5532  2.7669
  366MPD2    N1 5539   4.112   1.446  15.251 -0.5397  0.7240  0.5052
  366MPD2    H7 5540   4.193   1.504  15.270  0.2129  0.2363 -1.2058
  367TMC3    C1 5541   4.016   1.631  15.335 -0.0351 -0.3427 -0.5930
  367TMC3    C2 5542   4.148   1.669  15.353 -0.0031 -0.7336  0.0752
  367TMC3    C3 5543   4.185   1.794  15.329 -0.3356  0.2214 -0.4302
  367TMC3    C4 5544   3.934   1.714  15.268  0.1646 -1.1047  0.9937
  367TMC3    C5 5545   3.972   1.843  15.242 -0.0794 -0.2060 -0.1180
  367TMC3    C6 5546   4.096   1.886  15.282 -0.3501 -0.3361  0.0724
  367TMC3     C 5547   3.998   1.495  15.295 -0.2576 -0.5982  0.5103
  367TMC3     O 5548   3.882   1.446  15.291  0.1556  0.1973  0.9752
  367TMC3     H 5549   4.222   1.609  15.403  1.4278  0.7541 -0.2782
  367TMC3    H1 5550   3.836   1.671  15.247  0.9664 -2.5531  0.2399
  367TMC3    H2 5551   4.127   1.988  15.264 -1.6596 -0.2060 -1.4384
  367TMC3    C7 5552   3.883   1.933  15.181 -0.1575  0.4727  0.4002
  367TMC3    C8 5553   4.328   1.815  15.307  0.1400 -0.4517  0.0169
  367TMC3    O1 5554   3.920   2.052  15.169 -0.4265  0.1552 -0.2239
  367TMC3    O2 5555   4.405   1.736  15.361  0.4670 -0.4428  0.2324
  368MPD2     C 5556   0.118   3.624  13.145  0.4397 -0.0371 -0.2619
  368MPD2    C1 5557   0.085   3.740  13.076  0.7346 -0.4021  0.3171
  368MPD2    C2 5558   0.190   3.815  13.031  0.4774 -0.1540 -0.2741
  368MPD2    C3 5559   0.321   3.777  13.036  0.8438 -0.1571 -1.1596
  368MPD2    C4 5560   0.349   3.661  13.103 -0.0839  0.0075  0.6325
  368MPD2    C5 5561   0.248   3.587  13.160  0.6506  0.4396  0.1500
  368MPD2     H 5562   0.164   3.908  12.981 -0.8269  0.6680  1.9606
  368MPD2    H1 5563   0.454   3.635  13.111 -1.2040 -3.8491  2.8986
  368MPD2    H2 5564   0.042   3.564  13.195  0.8172 -1.3841 -1.3150
  368MPD2    H3 5565   0.282   3.498  13.212 -0.4018  1.3885  2.4471
  368MPD2     N 5566   0.418   3.856  12.978 -0.1362 -0.5018 -0.8282
  368MPD2    H5 5567   0.516   3.829  12.988 -0.4608 -1.3837 -0.0146
  368MPD2    N1 5568   4.688   3.772  13.075 -0.7503  0.1643  0.4241
  368MPD2    H7 5569   4.621   3.701  13.105 -1.3109  0.7410  0.5625
  369TMC3    C1 5570   4.507   3.877  12.963  0.4518 -0.3412 -0.2813
  369TMC3    C2 5571   4.470   3.945  12.852 -0.2404  0.7635  0.1929
  369TMC3    C3 5572   4.343   3.984  12.838 -0.2828  0.6447 -1.0280
  369TMC3    C4 5573   4.417   3.831  13.062 -0.5904  0.1399 -0.1867
  369TMC3    C5 5574   4.286   3.871  13.041 -0.6291  1.2568  0.3084
  369TMC3    C6 5575   4.247   3.944  12.930 -0.1123  0.4924 -0.2229
  369TMC3     C 5576   4.642   3.884  13.015  0.4184  0.7596 -0.1945
  369TMC3     O 5577   4.706   3.981  12.974  0.5676 -0.1165  0.8577
  369TMC3     H 5578   4.555   3.967  12.789  0.3424  2.5357  1.5826
  369TMC3    H1 5579   4.451   3.783  13.153  3.6692  0.3452 -1.6683
  369TMC3    H2 5580   4.141   3.966  12.920 -0.3900  0.0169  1.6059
  369TMC3    C7 5581   4.190   3.812  13.133  0.1494 -0.1541  0.2138
  369TMC3    C8 5582   4.319   4.087  12.736  0.3689 -0.0655 -0.3203
  369TMC3    O1 5583   4.235   3.744  13.226 -0.0110 -0.1068  0.1068
  369TMC3    O2 5584   4.210   4.095  12.685  0.2906 -0.1054  0.3237
  370TMC3    C1 5585   4.622   4.328  16.042  0.0276  0.0371  0.8082
  370TMC3    C2 5586   4.539   4.243  16.104  0.3946 -0.6528  0.5678
  370TMC3    C3 5587   4.514   4.119  16.039  0.7020 -0.1376  0.0155
  370TMC3    C4 5588   4.686   4.295  15.924  0.4687 -0.3647 -0.5128
  370TMC3    C5 5589   4.662   4.174  15.868  0.1071 -0.5015  0.4798
  370TMC3    C6 5590   4.585   4.080  15.925  0.6141 -0.6824 -0.0299
  370TMC3     C 5591   4.658   4.449  16.107 -0.3623  0.3276  0.2060
  370TMC3     O 5592   4.628   4.457  16.224 -0.2399 -0.0091 -0.7297
  370TMC3     H 5593   4.484   4.287  16.186  2.1913  0.4445  1.2046
  370TMC3    H1 5594   0.002   4.359  15.858 -1.8389  1.2489 -0.9436
  370TMC3    H2 5595   4.562   3.985  15.877 -1.3796 -0.9902  1.5199
  370TMC3    C7 5596   0.009   4.112  15.766 -0.5021 -0.1905 -0.2235
  370TMC3    C8 5597   4.483   4.007  16.124 -1.0977  0.9248 -0.1391
  370TMC3    O1 5598   0.081   4.193  15.706 -0.6099 -0.3358 -0.0492
  370TMC3    O2 5599   4.531   3.897  16.096 -0.4130 -0.0833 -0.5324
  371TMC3    C1 5600   1.513   2.644  15.600 -0.2514 -0.1117  0.5148
  371TMC3    C2 5601   1.442   2.662  15.709  0.5211  0.6900 -0.0856
  371TMC3    C3 5602   1.351   2.768  15.707  0.2783 -0.2504  0.1538
  371TMC3    C4 5603   1.531   2.741  15.507 -0.0347 -0.0301 -0.5829
  371TMC3    C5 5604   1.455   2.853  15.518  0.0627 -0.3542  0.2075
  371TMC3    C6 5605   1.362   2.869  15.616 -0.3010  0.0718 -0.0487
  371TMC3     C 5606   1.530   2.512  15.550 -0.1936  0.5060 -0.0453
  371TMC3     O 5607   1.571   2.516  15.434 -0.7802  0.1715  0.0491
  371TMC3     H 5608   1.411   2.587  15.781  0.2086  0.8538 -0.0524
  371TMC3    H1 5609   1.607   2.736  15.430  1.7911 -0.7698  1.2391
  371TMC3    H2 5610   1.301   2.958  15.621 -0.9195 -0.4126  0.8790
  371TMC3    C7 5611   1.450   2.944  15.405 -0.2644 -0.2783 -0.2451
  371TMC3    C8 5612   1.217   2.714  15.716  0.3277  0.2199  0.1839
  371TMC3    O1 5613   1.483   3.058  15.433  0.0323  0.8344 -0.0135
  371TMC3    O2 5614   1.204   2.596  15.696  0.3460  0.5251  0.0986
  372MPD2     C 5615   4.585   3.987  13.393  0.4023 -0.1384  0.1311
  372MPD2    C1 5616   4.709   3.925  13.385 -0.1854  0.2975  0.6927
  372MPD2    C2 5617   4.707   3.789  13.412  0.0126  0.8973 -0.1218
  372MPD2    C3 5618   4.598   3.723  13.456 -0.7617 -0.2471  0.4518
  372MPD2    C4 5619   4.473   3.786  13.450  0.2580  0.0927  0.6904
  372MPD2    C5 5620   4.469   3.915  13.414 -0.7129  0.0605  0.7071
  372MPD2     H 5621   0.051   3.724  13.399 -1.9121 -1.4529 -1.1642
  372MPD2    H1 5622   4.378   3.740  13.478  0.7065 -0.6755  0.9555
  372MPD2    H2 5623   4.561   4.092  13.381  1.0372  0.0170  0.2050
  372MPD2    H3 5624   4.375   3.968  13.423  0.3570  1.9903  0.5039
  372MPD2     N 5625   4.612   3.588  13.499 -0.2519  0.1533 -0.1128
  372MPD2    H5 5626   4.702   3.552  13.526 -0.2656 -0.6307 -1.1123
  372MPD2    N1 5627   0.082   3.987  13.326  0.3077 -0.6926  0.4176
  372MPD2    H7 5628   0.163   3.927  13.315  0.3420 -0.4225 -0.8380
  373TMC3    C1 5629   4.541   3.363  13.515 -0.3010  0.1990  0.4215
  373TMC3    C2 5630   4.646   3.359  13.602 -0.2394 -0.1420 -0.5897
  373TMC3    C3 5631   4.741   3.260  13.591  0.1589 -0.5391  1.1235
  373TMC3    C4 5632   4.526   3.276  13.410  0.0058  0.0246  0.2908
  373TMC3    C5 5633   4.635   3.188  13.396 -0.0809 -0.1861  0.1577
  373TMC3    C6 5634   4.740   3.176  13.483  0.4287 -0.2320 -0.2391
  373TMC3     C 5635   4.513   3.498  13.479 -0.4096 -0.2787 -0.4260
  373TMC3     O 5636   4.403   3.505  13.420 -0.0258  0.1632  0.3311
  373TMC3     H 5637   4.644   3.426  13.687  0.3156  1.1417 -1.5742
  373TMC3    H1 5638   4.465   3.303  13.324 -0.1368 -0.0418  0.3715
  373TMC3    H2 5639   0.065   3.091  13.479 -1.9387 -2.1140 -0.0067
  373TMC3    C7 5640   4.650   3.101  13.282 -0.3095 -0.4351  0.1072
  373TMC3    C8 5641   0.108   3.262  13.687  0.2274 -0.1877  0.3563
  373TMC3    O1 5642   0.018   3.049  13.270 -0.7602 -0.5497 -0.2429
  373TMC3    O2 5643   0.106   3.353  13.763 -0.4554  0.2969 -0.0633
  374TMC3    C1 5644   1.019   4.105   9.483 -0.0449  1.0477 -0.2361
  374TMC3    C2 5645   1.153   4.121   9.449 -0.5058  0.4408  0.1100
  374TMC3    C3 5646   1.180   4.217   9.353 -0.0946 -0.7055  0.0852
  374TMC3    C4 5647   0.918   4.180   9.420  0.2462  0.1455  0.2568
  374TMC3    C5 5648   0.954   4.280   9.328  1.0101  0.0108  0.5978
  374TMC3    C6 5649   1.086   4.305   9.303 -0.6455  0.5930  0.2296
  374TMC3     C 5650   0.987   4.038   9.614 -0.4462  0.0712  0.1490
  374TMC3     O 5651   0.873   4.055   9.656 -0.2109 -0.2769  0.4725
  374TMC3     H 5652   1.231   4.056   9.487  0.1753  0.9026 -0.4892
  374TMC3    H1 5653   0.815   4.162   9.446 -0.3210 -0.6090 -2.5395
  374TMC3    H2 5654   1.116   4.359   9.215 -1.5636 -0.7822 -0.9259
  374TMC3    C7 5655   0.853   4.338   9.244  0.5725 -0.6778 -0.2807
  374TMC3    C8 5656   1.316   4.274   9.351 -0.1561 -0.0873 -0.3232
  374TMC3    O1 5657   0.907   4.377   9.142  0.5311  0.1329 -0.8066
  374TMC3    O2 5658   1.348   4.342   9.258  0.0307  0.3275 -0.1580
  375MPD2     C 5659   1.441   0.167  16.824  0.5466  0.4759  0.6819
  375MPD2    C1 5660   1.368   0.066  16.758  0.1092  0.3319  0.0292
  375MPD2    C2 5661   1.424   4.679  16.746 -0.0684 -0.0562 -0.7880
  375MPD2    C3 5662   1.548   4.644  16.798 -0.5598 -0.1185 -0.3782
  375MPD2    C4 5663   1.618   0.004  16.866 -0.1585  0.6281  0.0052
  375MPD2    C5 5664   1.562   0.130  16.881  0.3215 -0.2961  0.2289
  375MPD2     H 5665   1.365   4.604  16.697 -0.9952  0.0219  0.2010
  375MPD2    H1 5666   1.708   4.712  16.916  0.6189  1.5230 -0.8003
  375MPD2    H2 5667   1.412   0.269  16.842  2.5455  1.3237 -0.9067
  375MPD2    H3 5668   1.621   0.197  16.942 -3.0693  3.1342 -0.2699
  375MPD2     N 5669   1.590   4.510  16.790  0.1910 -0.5422  0.1034
  375MPD2    H5 5670   1.675   4.495  16.844  0.4455  2.1715  0.4598
  375MPD2    N1 5671   1.234   0.085  16.722  0.4642  0.4543 -0.3413
  375MPD2    H7 5672   1.180   0.004  16.691 -0.9112  1.3945 -0.4031
  376TMC3    C1 5673   1.606   4.282  16.747  0.2710  0.7549  0.3529
  376TMC3    C2 5674   1.732   4.290  16.698  0.5947 -0.5190 -0.3893
  376TMC3    C3 5675   1.798   4.180  16.641 -0.5530  0.6434  0.3440
  376TMC3    C4 5676   1.528   4.177  16.709 -0.5301  0.0778  0.0329
  376TMC3    C5 5677   1.589   4.079  16.636 -0.3525 -0.5951  0.4188
  376TMC3    C6 5678   1.723   4.075  16.601  0.7369  0.2567  0.1639
  376TMC3     C 5679   1.525   4.401  16.734 -0.0378  0.6317 -0.0605
  376TMC3     O 5680   1.421   4.388  16.668 -0.2612  0.0043 -0.0599
  376TMC3     H 5681   1.786   4.384  16.698 -2.0964  1.0745  3.6164
  376TMC3    H1 5682   1.425   4.167  16.740 -0.4078 -3.3531 -0.6848
  376TMC3    H2 5683   1.765   3.987  16.552 -0.4431 -0.6857  0.8469
  376TMC3    C7 5684   1.515   4.054  16.518 -0.0444  0.4721 -0.8085
  376TMC3    C8 5685   1.931   4.194  16.584 -0.2013 -0.3937 -0.3997
  376TMC3    O1 5686   1.553   3.965  16.449 -1.0619 -0.3601 -0.7886
  376TMC3    O2 5687   1.966   4.310  16.563  0.8168 -0.1903 -0.0143
  377MPD2     C 5688   0.086   3.682  12.696 -0.5412  0.3548 -0.5654
  377MPD2    C1 5689   4.731   3.753  12.631  0.4057 -0.1135  0.5973
  377MPD2    C2 5690   4.602   3.717  12.646 -0.3827 -0.7440 -0.0382
  377MPD2    C3 5691   4.563   3.617  12.737  0.1828  0.1465  0.3783
  377MPD2    C4 5692   4.666   3.557  12.812  0.1049 -0.1241  0.3914
  377MPD2    C5 5693   0.052   3.582  12.783 -0.1376  0.1971 -0.3723
  377MPD2     H 5694   4.526   3.769  12.588  1.5586  1.2705 -0.7570
  377MPD2    H1 5695   4.648   3.478  12.884  1.1878 -0.9789 -0.2837
  377MPD2    H2 5696   0.193   3.700  12.687 -0.5147  2.0058  3.0665
  377MPD2    H3 5697   0.123   3.518  12.835 -0.9140 -1.0183 -0.8205
  377MPD2     N 5698   4.430   3.576  12.771 -0.7662  0.0381 -0.1433
  377MPD2    H5 5699   4.415   3.506  12.843 -0.1521  1.3058  1.2148
  377MPD2    N1 5700   0.036   3.857  12.553 -0.2227 -0.8054 -0.3953
  377MPD2    H7 5701   0.138   3.859  12.546 -0.1775 -0.0578  0.4768
  378TMC3    C1 5702   0.069   4.154  12.208  0.4878  0.0635 -0.1937
  378TMC3    C2 5703   4.730   4.082  12.294 -0.3124  0.3297 -0.2543
  378TMC3    C3 5704   0.050   4.029  12.401 -0.8032  0.1693 -0.2088
  378TMC3    C4 5705   0.206   4.176  12.228  0.3430 -0.5890 -0.4763
  378TMC3    C5 5706   0.259   4.128  12.344 -0.1175 -0.0601 -0.1821
  378TMC3    C6 5707   0.184   4.043  12.418  0.0559 -0.2023  0.3593
  378TMC3     C 5708   0.006   4.204  12.090  0.0431 -0.4598  0.6053
  378TMC3     O 5709   4.626   4.211  12.089  0.1907 -0.1566  0.2969
  378TMC3     H 5710   4.624   4.066  12.279  0.1352 -1.7551 -1.1897
  378TMC3    H1 5711   0.265   4.232  12.157 -1.8734  0.1602 -1.7248
  378TMC3    H2 5712   0.225   4.006  12.511  1.7638  1.7318  0.3776
  378TMC3    C7 5713   0.406   4.112  12.360 -0.2362 -0.1230 -0.1756
  378TMC3    C8 5714   4.708   3.948  12.488  0.3376 -0.4819  0.2910
  378TMC3    O1 5715   0.436   4.047  12.460 -0.0449  0.0510 -0.0448
  378TMC3    O2 5716   4.591   3.962  12.486 -0.4200 -0.2634 -0.2194
  379MPD2     C 5717   0.080   2.180  15.911  0.2656 -0.1995  0.1236
  379MPD2    C1 5718   0.175   2.076  15.893 -0.2690 -0.5981  0.9087
  379MPD2    C2 5719   0.236   2.026  16.007 -0.1532  0.0216  0.3530
  379MPD2    C3 5720   0.215   2.086  16.135  0.2438 -0.8684 -0.2410
  379MPD2    C4 5721   0.118   2.176  16.149 -0.3214 -0.4860  0.1191
  379MPD2    C5 5722   0.054   2.230  16.038  0.3919  0.2485  0.5916
  379MPD2     H 5723   0.294   1.935  16.004  0.6565  0.5185  1.1039
  379MPD2    H1 5724   0.098   2.209  16.250  0.6277 -3.0049  1.1181
  379MPD2    H2 5725   0.034   2.229  15.826 -0.8337  0.0691  0.8653
  379MPD2    H3 5726   4.730   2.314  16.055 -0.9109 -0.9515  1.4897
  379MPD2     N 5727   0.292   2.045  16.250  0.0014  0.1212  0.0879
  379MPD2    H5 5728   0.261   2.079  16.340 -1.7846  0.4434 -0.6523
  379MPD2    N1 5729   0.217   2.038  15.764 -0.1078  0.1918 -0.6005
  379MPD2    H7 5730   0.148   2.062  15.694  0.8468  0.4078 -1.4710
  380TMC3    C1 5731   0.358   1.967  15.597  1.4408 -0.1664  0.1954
  380TMC3    C2 5732   0.493   1.989  15.564  0.1057  0.2450  0.1030
  380TMC3    C3 5733   0.527   2.046  15.439  0.1822  0.2590 -0.8810
  380TMC3    C4 5734   0.260   1.994  15.507 -0.1464 -1.0431  0.0581
  380TMC3    C5 5735   0.299   2.048  15.384  0.8798 -1.0133 -0.8193
  380TMC3    C6 5736   0.433   2.074  15.345  0.2862 -0.2054 -0.0454
  380TMC3     C 5737   0.336   1.972  15.736 -0.3906  0.4891 -0.1227
  380TMC3     O 5738   0.435   1.963  15.812 -0.3370  0.7696 -0.0561
  380TMC3     H 5739   0.570   1.957  15.632 -0.3353  0.9437  0.9325
  380TMC3    H1 5740   0.157   1.967  15.527 -0.8484  2.6734  1.2738
  380TMC3    H2 5741   0.452   2.124  15.250 -0.4731 -0.1013 -0.1449
  380TMC3    C7 5742   0.205   2.100  15.290  0.1627 -0.2611 -0.7166
  380TMC3    C8 5743   0.665   2.099  15.408  0.4730 -0.3726  0.1269
  380TMC3    O1 5744   0.240   2.191  15.213  0.3331 -0.4973  0.1939
  380TMC3    O2 5745   0.680   2.157  15.300  0.1401  0.4582 -0.4491
  381TMC3    C1 5746   4.695   3.331  15.956  0.0915 -0.3846 -0.3812
  381TMC3    C2 5747   4.737   3.462  15.925 -0.3977  0.7496 -0.4598
  381TMC3    C3 5748   4.710   3.563  16.015 -0.4352  0.5408 -0.5776
  381TMC3    C4 5749   4.636   3.303  16.077  0.0790 -0.0921  0.8915
  381TMC3    C5 5750   4.604   3.410  16.150 -0.0203  0.0116 -0.7234
  381TMC3    C6 5751   4.630   3.542  16.128 -0.3986  0.3094 -0.3393
  381TMC3     C 5752   4.733   3.228  15.864 -0.3702  0.1299  0.0071
  381TMC3     O 5753   0.081   3.263  15.786  0.0335  0.3280 -0.1376
  381TMC3     H 5754   0.038   3.478  15.827  2.3069 -2.0077  0.2918
  381TMC3    H1 5755   4.624   3.201  16.113  1.5742  0.2101  2.2414
  381TMC3    H2 5756   4.585   3.616  16.192  1.5839 -0.1335  1.5591
  381TMC3    C7 5757   4.576   3.374  16.290 -0.2888 -0.7986  0.1686
  381TMC3    C8 5758   0.080   3.652  16.035  0.7327  0.0531 -0.0648
  381TMC3    O1 5759   4.627   3.270  16.331 -0.1880 -0.8997  0.0003
  381TMC3    O2 5760   0.195   3.615  16.002  0.0459 -0.1068  0.1552
  382MPD2     C 5761   3.872   1.324  16.397  0.0301  0.0928  0.0132
  382MPD2    C1 5762   3.949   1.404  16.478 -0.1125 -0.0198  0.5802
  382MPD2    C2 5763   4.057   1.347  16.537  0.6195  0.5782  0.6294
  382MPD2    C3 5764   4.062   1.210  16.554 -0.0527 -0.0307  0.0956
  382MPD2    C4 5765   3.981   1.132  16.483 -0.0487  0.6482  0.2971
  382MPD2    C5 5766   3.885   1.184  16.398 -0.1270  0.1670  0.4379
  382MPD2     H 5767   4.128   1.401  16.600  1.6013  1.2441 -1.0572
  382MPD2    H1 5768   3.997   1.024  16.483 -1.2029  0.4671 -1.0085
  382MPD2    H2 5769   3.791   1.370  16.342 -0.9929 -0.4084  1.1098
  382MPD2    H3 5770   3.819   1.117  16.343  0.7300 -0.9749  0.7977
  382MPD2     N 5771   4.161   1.138  16.632 -0.4730 -0.3191  0.1236
  382MPD2    H5 5772   4.158   1.037  16.638 -0.5686 -0.3684 -0.7095
  382MPD2    N1 5773   3.926   1.547  16.497  0.2842  0.3684 -0.5115
  382MPD2    H7 5774   4.001   1.588  16.553 -1.7527  0.0253  2.4714
  383TMC3    C1 5775   4.325   1.101  16.796 -0.6060  0.2934  0.3251
  383TMC3    C2 5776   4.237   1.009  16.853 -0.1260  0.2268  0.9792
  383TMC3    C3 5777   4.292   0.904  16.926 -0.2139 -0.0380  0.0884
  383TMC3    C4 5778   4.458   1.087  16.808 -0.5249 -0.0528  0.1158
  383TMC3    C5 5779   4.508   0.983  16.881  0.5849  0.3432 -0.6892
  383TMC3    C6 5780   4.427   0.884  16.939 -0.2372  0.7777 -0.3592
  383TMC3     C 5781   4.264   1.195  16.706 -0.1345 -0.9510  0.5612
  383TMC3     O 5782   4.313   1.308  16.703 -0.7587 -0.0419  0.2891
  383TMC3     H 5783   4.130   1.019  16.839 -0.4067 -1.9693  1.6599
  383TMC3    H1 5784   4.519   1.162  16.758  1.3752 -0.1795  2.2539
  383TMC3    H2 5785   4.456   0.816  17.018  0.9515  1.7891  0.0726
  383TMC3    C7 5786   4.639   1.004  16.935  0.1314  0.6295  0.5255
  383TMC3    C8 5787   4.200   0.811  16.980 -0.7325  0.3838  0.1415
  383TMC3    O1 5788   4.716   1.071  16.870  0.3820  0.0472  0.2509
  383TMC3    O2 5789   4.090   0.866  17.000  0.2692 -0.4133 -0.5421
  384MPD2     C 5790   0.425   2.319  11.938 -0.6139 -0.3021 -0.4654
  384MPD2    C1 5791   0.469   2.197  11.900  0.3164  0.4717  0.3257
  384MPD2    C2 5792   0.594   2.186  11.832  0.0639  0.5762  0.1604
  384MPD2    C3 5793   0.662   2.301  11.801 -0.3430 -0.2459 -0.1980
  384MPD2    C4 5794   0.598   2.421  11.824  0.1818  0.5523 -0.2741
  384MPD2    C5 5795   0.483   2.432  11.893 -0.1820 -0.3935 -0.9353
  384MPD2     H 5796   0.646   2.093  11.810  0.0762  0.7711 -0.6052
  384MPD2    H1 5797   0.653   2.512  11.804  2.0970 -0.0295  2.2810
  384MPD2    H2 5798   0.334   2.329  11.996  0.9827  0.4690  1.9023
  384MPD2    H3 5799   0.449   2.532  11.917  1.7027  0.3567 -1.4241
  384MPD2     N 5800   0.794   2.309  11.759  0.0665  0.3986  0.6473
  384MPD2    H5 5801   0.838   2.400  11.767  1.0646 -0.1607  1.5446
  384MPD2    N1 5802   0.394   2.086  11.941  0.4822 -0.0502 -0.0435
  384MPD2    H7 5803   0.311   2.099  11.998  1.2264  0.0718  0.9871
  385TMC3    C1 5804   1.014   2.241  11.789  0.7439  0.0503  0.3479
  385TMC3    C2 5805   1.102   2.160  11.716  0.3388 -0.2611 -0.1553
  385TMC3    C3 5806   1.183   2.083  11.793  0.1870 -0.1946  0.4027
  385TMC3    C4 5807   1.012   2.250  11.927 -0.1820 -0.7803  0.1098
  385TMC3    C5 5808   1.095   2.172  11.998 -0.2833  0.1356  0.1566
  385TMC3    C6 5809   1.187   2.094  11.929 -0.2035 -0.2559 -0.3038
  385TMC3     C 5810   0.881   2.215  11.732  0.3481  0.1233 -0.6989
  385TMC3     O 5811   0.878   2.094  11.703 -0.2943  0.4719 -0.2896
  385TMC3     H 5812   1.092   2.125  11.614 -0.0667  1.4855 -0.7037
  385TMC3    H1 5813   0.929   2.294  11.981 -0.8065 -2.3857  0.4560
  385TMC3    H2 5814   1.252   2.033  11.991 -0.2879  0.5237  0.5659
  385TMC3    C7 5815   1.019   2.100  12.094 -0.0583 -0.2584  0.3518
  385TMC3    C8 5816   1.203   1.940  11.755 -0.9079  0.2730  0.5964
  385TMC3    O1 5817   0.928   2.155  12.146 -0.9470 -0.4696 -0.5819
  385TMC3    O2 5818   1.288   1.886  11.820 -0.0863  0.1914  0.0019
  386TMC3    C1 5819   0.418   4.553  11.572  0.3169 -0.3799 -0.0742
  386TMC3    C2 5820   0.456   4.585  11.445 -0.1910 -0.4758  0.4450
  386TMC3    C3 5821   0.365   4.662  11.378 -0.1192 -0.0484 -0.7295
  386TMC3    C4 5822   0.298   4.577  11.619  0.1338  0.1262  0.0782
  386TMC3    C5 5823   0.203   4.649  11.543  0.4112  0.2093 -0.6576
  386TMC3    C6 5824   0.242   4.697  11.421 -0.8482 -1.1766 -0.3227
  386TMC3     C 5825   0.504   4.484  11.670 -0.4475  0.5101  0.3083
  386TMC3     O 5826   0.443   4.427  11.755 -0.5681 -0.6627 -0.6958
  386TMC3     H 5827   0.550   4.550  11.404  0.1493  0.8993  0.0693
  386TMC3    H1 5828   0.261   4.547  11.716 -0.6764  1.5156  0.1915
  386TMC3    H2 5829   0.186   0.021  11.358  1.9356  1.4853 -0.0165
  386TMC3    C7 5830   0.063   4.673  11.588  0.2641 -0.2371 -0.1829
  386TMC3    C8 5831   0.393   4.707  11.245  0.2600 -0.1210  0.0226
  386TMC3    O1 5832   0.049   4.690  11.708  0.2659 -0.1557  0.4387
  386TMC3    O2 5833   0.303   4.725  11.161  0.0664  0.5002  0.2587
  387MPD2     C 5834   3.225   0.249   9.473  0.1676 -0.5297  0.6470
  387MPD2    C1 5835   3.351   0.242   9.521 -0.2829  0.0713 -0.2896
  387MPD2    C2 5836   3.417   0.129   9.493  0.2570 -0.9137 -0.0455
  387MPD2    C3 5837   3.361   0.022   9.432 -0.1873  0.2824 -0.4833
  387MPD2    C4 5838   3.228   0.031   9.394 -0.0607 -0.3356  0.4067
  387MPD2    C5 5839   3.165   0.150   9.410  0.2687  0.0834 -1.0021
  387MPD2     H 5840   3.518   0.114   9.530  1.1451  0.9486 -1.6788
  387MPD2    H1 5841   3.169   4.696   9.346 -1.1081  1.0144 -0.4815
  387MPD2    H2 5842   3.158   0.335   9.470  0.6248 -0.2045 -0.2641
  387MPD2    H3 5843   3.062   0.159   9.377 -0.1532 -0.6806  0.0718
  387MPD2     N 5844   3.438   4.637   9.447  0.0577 -0.0475  0.0578
  387MPD2    H5 5845   3.536   4.650   9.468  0.0654 -0.3049  0.1851
  387MPD2    N1 5846   3.409   0.337   9.604 -0.2372 -0.7016  0.3037
  387MPD2    H7 5847   3.505   0.311   9.626 -0.0473 -0.9567 -0.8297
  388TMC3    C1 5848   3.408   0.453   9.816 -0.1127  0.3873  0.8628
  388TMC3    C2 5849   3.355   0.556   9.883 -0.0691 -0.5216 -0.0286
  388TMC3    C3 5850   3.401   0.569  10.012  0.0453 -0.8798 -0.1276
  388TMC3    C4 5851   3.503   0.370   9.863  0.1567  0.1420  0.1128
  388TMC3    C5 5852   3.548   0.393   9.990  0.5405 -1.3073  0.3186
  388TMC3    C6 5853   3.492   0.489  10.069  0.2238  0.3092  0.5177
  388TMC3     C 5854   3.344   0.430   9.687 -0.6088  0.3138 -0.0566
  388TMC3     O 5855   3.249   0.502   9.655 -0.5287 -0.4418  0.1469
  388TMC3     H 5856   3.268   0.611   9.850  0.4367  1.2320  1.5514
  388TMC3    H1 5857   3.528   0.285   9.800  0.5819 -0.3845  0.9956
  388TMC3    H2 5858   3.535   0.504  10.168  2.2909 -1.0034 -0.1750
  388TMC3    C7 5859   3.645   0.303  10.046  0.0234 -0.3928  0.7243
  388TMC3    C8 5860   3.348   0.683  10.093  0.4264 -0.9806  0.2865
  388TMC3    O1 5861   3.674   0.314  10.162 -0.3005 -0.8469  0.1306
  388TMC3    O2 5862   3.359   0.675  10.211 -0.1059 -0.7991 -0.5067
  389MPD2     C 5863   1.895   2.704   9.808 -0.1591 -0.4099  0.3403
  389MPD2    C1 5864   1.982   2.790   9.875  0.1308  0.2697 -0.5479
  389MPD2    C2 5865   1.972   2.801  10.012  0.5413 -0.2114 -0.4607
  389MPD2    C3 5866   1.877   2.731  10.090 -0.7917  0.4353 -0.1009
  389MPD2    C4 5867   1.790   2.646  10.020 -0.7635 -0.0674  0.4947
  389MPD2    C5 5868   1.803   2.631   9.882  0.2699 -0.6568 -0.2010
  389MPD2     H 5869   2.041   2.872  10.057  1.7275  0.0988 -2.7679
  389MPD2    H1 5870   1.712   2.597  10.077 -1.0013  1.0410  1.1249
  389MPD2    H2 5871   1.892   2.688   9.701  1.0402 -1.0173  0.3949
  389MPD2    H3 5872   1.739   2.568   9.822  0.9685 -1.1974 -0.3845
  389MPD2     N 5873   1.851   2.750  10.232  0.0395 -0.2101  0.0865
  389MPD2    H5 5874   1.772   2.704  10.276  0.3532 -1.5380 -0.7528
  389MPD2    N1 5875   2.057   2.867   9.785 -0.7281  0.0189  0.1075
  389MPD2    H7 5876   2.031   2.850   9.688  0.3447 -1.1568  0.0224
  390TMC3    C1 5877   1.913   2.822  10.452 -0.3089 -0.8445 -0.4825
  390TMC3    C2 5878   1.816   2.740  10.503 -0.1996  0.5734 -0.6414
  390TMC3    C3 5879   1.795   2.730  10.635 -0.2193  0.0558  0.2440
  390TMC3    C4 5880   2.006   2.881  10.536  0.1377  0.7946  0.0042
  390TMC3    C5 5881   1.996   2.852  10.671 -0.4311 -0.3761  0.0306
  390TMC3    C6 5882   1.889   2.781  10.717  0.4721 -0.1374 -0.1270
  390TMC3     C 5883   1.944   2.819  10.309 -0.2773 -0.1601 -0.7393
  390TMC3     O 5884   2.053   2.876  10.278  0.1174  0.1047  0.0974
  390TMC3     H 5885   1.736   2.702  10.441 -0.6736 -2.7043  1.9957
  390TMC3    H1 5886   2.091   2.941  10.503 -0.1883  0.7161 -0.9793
  390TMC3    H2 5887   1.870   2.778  10.824 -2.2217  0.5949 -0.5887
  390TMC3    C7 5888   2.081   2.913  10.774  0.1277  0.0163  0.0130
  390TMC3    C8 5889   1.724   2.615  10.686 -0.3624  0.5170  0.1735
  390TMC3    O1 5890   2.136   3.016  10.735 -0.2566 -0.6398  0.2403
  390TMC3    O2 5891   1.748   2.508  10.629  0.4241 -0.1093  0.0407
  391MPD2     C 5892   1.528   4.247  10.879 -0.4689  0.2022 -0.4316
  391MPD2    C1 5893   1.573   4.374  10.875  0.1485  0.1399  0.0422
  391MPD2    C2 5894   1.600   4.430  10.747 -0.0531 -0.3569 -0.3452
  391MPD2    C3 5895   1.562   4.361  10.632  0.5048  0.0279 -0.0434
  391MPD2    C4 5896   1.503   4.241  10.637  0.4416 -0.0131 -0.1348
  391MPD2    C5 5897   1.495   4.181  10.760  0.3778 -0.0713  0.0223
  391MPD2     H 5898   1.651   4.525  10.739 -2.4453  0.9797  0.3177
  391MPD2    H1 5899   1.472   4.193  10.545  0.6847 -0.6024  0.0907
  391MPD2    H2 5900   1.528   4.189  10.970  0.2328 -0.6864 -0.9963
  391MPD2    H3 5901   1.454   4.081  10.764 -1.3624  0.5924 -1.5058
  391MPD2     N 5902   1.588   4.433  10.508 -0.1149  0.0805  0.6990
  391MPD2    H5 5903   1.646   4.516  10.511  1.0477 -0.6329 -1.4635
  391MPD2    N1 5904   1.611   4.434  10.996  0.2137 -0.1546 -0.3878
  391MPD2    H7 5905   1.601   4.371  11.075 -0.0320  1.7907  1.1300
  392TMC3    C1 5906   1.623   4.455  10.272  0.5463 -0.2961 -0.1363
  392TMC3    C2 5907   1.568   4.451  10.152  0.0049  0.0139 -0.3033
  392TMC3    C3 5908   1.655   4.469  10.047  0.1239 -0.5851  0.4934
  392TMC3    C4 5909   1.757   4.479  10.292  1.0081  0.1747 -0.0351
  392TMC3    C5 5910   1.837   4.507  10.187 -0.0876  0.0410 -0.1683
  392TMC3    C6 5911   1.793   4.507  10.057  0.5471 -0.1927  0.3715
  392TMC3     C 5912   1.537   4.400  10.384 -0.2346  0.2089  1.0914
  392TMC3     O 5913   1.445   4.322  10.358 -0.0609 -0.0003 -0.0572
  392TMC3     H 5914   1.468   4.410  10.151 -0.4765  1.1799  0.5132
  392TMC3    H1 5915   1.801   4.476  10.391  0.8446 -1.6634 -0.0222
  392TMC3    H2 5916   1.865   4.528   9.979  0.3953 -0.4155  0.1701
  392TMC3    C7 5917   1.973   4.548  10.220  0.2755 -0.3566 -0.2258
  392TMC3    C8 5918   1.597   4.419   9.923  0.1027  0.1845 -0.3327
  392TMC3    O1 5919   1.988   4.593  10.335  0.4351 -0.1961 -0.1431
  392TMC3    O2 5920   1.492   4.359   9.922  0.7125 -0.5255  0.3618
  393TMC3    C1 5921   0.583   2.446  10.709 -0.0510 -1.4858  0.1900
  393TMC3    C2 5922   0.467   2.392  10.655  0.8538 -0.1172 -0.4817
  393TMC3    C3 5923   0.480   2.310  10.542 -0.7119 -0.8639 -0.4480
  393TMC3    C4 5924   0.700   2.392  10.669 -0.0079 -0.2297  0.3698
  393TMC3    C5 5925   0.709   2.316  10.558  0.2864 -0.2955  0.3650
  393TMC3    C6 5926   0.599   2.272  10.484 -0.2592  0.8650 -0.8355
  393TMC3     C 5927   0.588   2.561  10.794 -0.4090  0.4021  0.4871
  393TMC3     O 5928   0.484   2.579  10.863 -0.0264 -0.3692  0.5688
  393TMC3     H 5929   0.375   2.433  10.694 -0.3252 -2.0953 -1.1552
  393TMC3    H1 5930   0.794   2.420  10.716  0.1152  0.2982 -0.1957
  393TMC3    H2 5931   0.602   2.217  10.391  2.1847  0.9887 -0.8397
  393TMC3    C7 5932   0.847   2.302  10.497  0.1814 -0.3749 -0.4254
  393TMC3    C8 5933   0.381   2.323  10.439 -0.1066  0.2010  0.0713
  393TMC3    O1 5934   0.940   2.380  10.516 -0.1119 -0.1831  0.1534
  393TMC3    O2 5935   0.426   2.355  10.330  0.1911  0.0645  0.6681
  394TMC3    C1 5936   2.225   3.023   9.698  0.1192 -0.1243 -0.5811
  394TMC3    C2 5937   2.243   2.938   9.591 -0.2053  0.5267 -0.3144
  394TMC3    C3 5938   2.364   2.935   9.520  0.4512  0.2194 -0.4823
  394TMC3    C4 5939   2.327   3.111   9.726  0.4314  0.2928  0.2186
  394TMC3    C5 5940   2.440   3.120   9.643  0.3997 -0.0691 -0.3547
  394TMC3    C6 5941   2.469   3.027   9.547 -0.0524  0.1470  0.0366
  394TMC3     C 5942   2.147   2.965   9.811 -0.5927 -0.0246 -0.3741
  394TMC3     O 5943   2.178   3.004   9.920 -0.4422  0.1496  0.3531
  394TMC3     H 5944   2.173   2.858   9.572  0.2911 -0.4969  2.2525
  394TMC3    H1 5945   2.312   3.189   9.800  1.4109 -0.1245  0.8595
  394TMC3    H2 5946   2.568   3.032   9.504  0.7725 -1.4208  1.7518
  394TMC3    C7 5947   2.556   3.188   9.692 -0.8411  0.1563 -0.7968
  394TMC3    C8 5948   2.411   2.801   9.522  0.6190 -0.3580 -0.4186
  394TMC3    O1 5949   2.627   3.241   9.610  0.2205 -0.4092 -0.2446
  394TMC3    O2 5950   2.412   2.741   9.414  0.3309  0.1148 -0.2424
  395TMC3    C1 5951   2.688   4.047  15.042 -0.0023 -0.2511  0.0902
  395TMC3    C2 5952   2.725   3.953  14.947 -0.1518 -0.6347  0.1257
  395TMC3    C3 5953   2.823   3.992  14.858  0.4215 -0.3967 -0.2127
  395TMC3    C4 5954   2.728   4.179  15.031 -0.0117 -0.1806 -0.7675
  395TMC3    C5 5955   2.812   4.218  14.923  0.1613 -0.0851  0.4336
  395TMC3    C6 5956   2.870   4.118  14.850 -0.1719 -0.1193  1.0130
  395TMC3     C 5957   2.634   3.990  15.159 -0.5747 -0.2400 -1.0412
  395TMC3     O 5958   2.641   3.863  15.162  0.3633  0.6557  0.8121
  395TMC3     H 5959   2.706   3.848  14.961 -1.7163 -0.5527 -1.4882
  395TMC3    H1 5960   2.692   4.248  15.107  1.7812 -1.2033  1.0306
  395TMC3    H2 5961   2.951   4.150  14.786 -0.2362 -1.3690  0.3106
  395TMC3    C7 5962   2.840   4.356  14.915  0.2017  0.7743 -0.2469
  395TMC3    C8 5963   2.851   3.907  14.745  0.7861 -0.5297 -0.5075
  395TMC3    O1 5964   2.783   4.427  14.997 -0.7351  0.3247  0.1537
  395TMC3    O2 5965   2.947   3.947  14.678  0.1034 -0.3593  0.3980
  396MPD2     C 5966   2.805   0.594  16.643  0.5930 -0.8938 -0.1741
  396MPD2    C1 5967   2.753   0.682  16.730 -0.3208  0.3441  0.0012
  396MPD2    C2 5968   2.660   0.766  16.684  0.6850  0.1080 -0.2010
  396MPD2    C3 5969   2.604   0.768  16.556  0.1293 -0.3861 -0.0411
  396MPD2    C4 5970   2.655   0.675  16.466 -0.4154  0.1754  0.0629
  396MPD2    C5 5971   2.753   0.591  16.513 -0.4486 -0.4505  0.1780
  396MPD2     H 5972   2.631   0.845  16.753  0.7648 -1.3792  1.5173
  396MPD2    H1 5973   2.602   0.665  16.372 -0.7237 -1.6847  0.4405
  396MPD2    H2 5974   2.885   0.528  16.677 -0.0942 -1.1701  0.9209
  396MPD2    H3 5975   2.785   0.511  16.447  2.5311  1.1024 -0.2455
  396MPD2     N 5976   2.502   0.864  16.532 -0.5189 -0.0599 -0.2970
  396MPD2    H5 5977   2.492   0.939  16.600 -0.7753  1.0251 -1.5334
  396MPD2    N1 5978   2.810   0.685  16.862  0.2947 -0.2038  0.2243
  396MPD2    H7 5979   2.891   0.625  16.873  0.1136 -0.8003 -1.7019
  397TMC3    C1 5980   2.823   0.696  17.093  0.2499  0.2611 -0.2724
  397TMC3    C2 5981   2.927   0.618  17.054  0.6682  0.0398  0.0181
  397TMC3    C3 5982   2.946   0.494  17.107  0.6711  0.2272 -0.7555
  397TMC3    C4 5983   2.726   0.646  17.171  0.6538  0.0543  0.1306
  397TMC3    C5 5984   2.733   0.511  17.212 -0.7604 -0.1738 -0.5124
  397TMC3    C6 5985   2.845   0.431  17.176 -0.2704  0.1634  0.8955
  397TMC3     C 5986   2.759   0.743  16.978 -0.2333  0.1762  0.1389
  397TMC3     O 5987   2.662   0.822  16.992 -0.2510 -0.0487  0.4602
  397TMC3     H 5988   3.015   0.659  17.005  2.2596 -1.6074  1.4602
  397TMC3    H1 5989   2.637   0.705  17.188 -0.3242 -1.5003  0.4844
  397TMC3    H2 5990   2.841   0.324  17.194  1.5933 -0.3163 -1.5077
  397TMC3    C7 5991   2.620   0.458  17.286  0.2933 -0.2925  0.1441
  397TMC3    C8 5992   3.022   0.422  17.014 -0.0899  0.6263 -0.6812
  397TMC3    O1 5993   2.598   0.338  17.268  0.1878  0.4881 -0.2132
  397TMC3    O2 5994   3.132   0.465  16.987 -0.2210 -0.1646 -0.0618
  398MPD2     C 5995   1.132   2.424  17.213 -0.1444  0.1302  0.1894
  398MPD2    C1 5996   1.137   2.389  17.342 -0.3559  0.7709 -0.3803
  398MPD2    C2 5997   1.208   2.471  17.429  0.6710  0.1170  0.3759
  398MPD2    C3 5998   1.282   2.577  17.388  0.7609  0.4609 -0.2243
  398MPD2    C4 5999   1.285   2.602  17.252  0.2560  0.1098  0.2576
  398MPD2    C5 6000   1.208   2.525  17.166 -0.1994  0.1403 -0.1006
  398MPD2     H 6001   1.212   2.462  17.537  1.1290  1.3860  0.4766
  398MPD2    H1 6002   1.347   2.677  17.206 -2.2762  1.3309 -1.1326
  398MPD2    H2 6003   1.091   2.366  17.131  0.0280 -1.8261  1.4866
  398MPD2    H3 6004   1.204   2.531  17.057  0.1672 -0.6785 -0.1601
  398MPD2     N 6005   1.363   2.648  17.490 -0.0719  0.1030 -0.6158
  398MPD2    H5 6006   1.343   2.622  17.586  0.9104  0.0902 -0.4184
  398MPD2    N1 6007   1.065   2.287  17.398  0.2445 -0.2191 -0.3301
  398MPD2    H7 6008   1.073   2.260  17.495  2.8466 -0.1716 -0.5463
  399TMC3    C1 6009   0.925   2.091  17.400  0.2988 -0.4218 -0.2940
  399TMC3    C2 6010   1.019   2.024  17.471  0.1322  0.2472  0.7277
  399TMC3    C3 6011   0.979   1.910  17.535 -0.0047 -0.6303 -0.0211
  399TMC3    C4 6012   0.806   2.036  17.369  0.9099 -0.7313  0.7064
  399TMC3    C5 6013   0.765   1.926  17.439 -0.2615  0.6208  0.0265
  399TMC3    C6 6014   0.854   1.856  17.521  0.4571  0.1458  0.2204
  399TMC3     C 6015   0.976   2.204  17.320  0.4609  0.6705  0.4609
  399TMC3     O 6016   0.943   2.213  17.203 -0.0691  0.0449  0.1425
  399TMC3     H 6017   1.120   2.062  17.483 -0.0319  1.6511 -2.1799
  399TMC3    H1 6018   0.737   2.095  17.310  0.8962  0.6704  2.1262
  399TMC3    H2 6019   0.827   1.771  17.582  1.2163  0.2431  0.7020
  399TMC3    C7 6020   0.629   1.891  17.436 -0.2109 -0.1131  0.3956
  399TMC3    C8 6021   1.079   1.862  17.631  0.2099 -1.0696  0.7001
  399TMC3    O1 6022   0.576   1.842  17.536 -0.1260 -0.4725  0.0120
  399TMC3    O2 6023   1.147   1.949  17.677  0.0600 -0.1521  0.2408
  400TMC3    C1 6024   4.314   0.536  16.682 -0.2121  0.9210  0.3613
  400TMC3    C2 6025   4.257   0.412  16.691 -0.2227  0.5314  0.2574
  400TMC3    C3 6026   4.123   0.389  16.670 -0.0463 -0.3785 -0.3313
  400TMC3    C4 6027   4.232   0.641  16.667  0.0161  0.0827  0.2984
  400TMC3    C5 6028   4.097   0.615  16.659 -0.0144 -0.2607 -0.4265
  400TMC3    C6 6029   4.042   0.493  16.643 -0.0111 -0.9361  0.1473
  400TMC3     C 6030   4.436   0.561  16.760 -0.0377 -0.0288  0.6239
  400TMC3     O 6031   4.448   0.499  16.861 -0.0940  0.1524 -0.2052
  400TMC3     H 6032   4.318   0.332  16.732 -0.1110 -0.2899 -1.4952
  400TMC3    H1 6033   4.265   0.741  16.696 -1.4768  0.7091 -0.1695
  400TMC3    H2 6034   3.935   0.479  16.638 -0.2200  0.1770  1.4566
  400TMC3    C7 6035   4.021   0.739  16.636  0.1415 -0.2383  0.5628
  400TMC3    C8 6036   4.075   0.252  16.690  0.6959 -0.3103 -0.0454
  400TMC3    O1 6037   4.075   0.842  16.650  0.6877  0.7241  0.0835
  400TMC3    O2 6038   4.134   0.190  16.774  0.4021  0.2918  0.0595
  401MPD2     C 6039   2.048   4.075  17.551 -0.1446 -0.3614 -0.5351
  401MPD2    C1 6040   2.017   4.139  17.666 -0.6483 -0.1627 -0.2591
  401MPD2    C2 6041   1.906   4.098  17.739 -0.5667 -0.5687 -0.1058
  401MPD2    C3 6042   1.818   4.006  17.690  0.2053 -0.3115  0.1144
  401MPD2    C4 6043   1.851   3.941  17.574  0.0734  0.5657 -0.2159
  401MPD2    C5 6044   1.971   3.976  17.505 -0.4787 -0.4982  0.0635
  401MPD2     H 6045   1.885   4.161   0.059 -2.8492 -3.0218  1.1339
  401MPD2    H1 6046   1.789   3.864  17.528  0.0048  0.1299  0.6088
  401MPD2    H2 6047   2.147   4.091  17.508 -0.3162 -0.3704 -0.9360
  401MPD2    H3 6048   1.996   3.921  17.415  0.5496 -0.1441  0.1277
  401MPD2     N 6049   1.702   3.975  17.763 -0.0384  0.4023 -0.1070
  401MPD2    H5 6050   1.682   4.045   0.068 -1.4237 -0.8729  0.7698
  401MPD2    N1 6051   2.095   4.248  17.717 -0.1768  0.8169 -0.0952
  401MPD2    H7 6052   2.056   4.296   0.032  3.9808  1.4870  1.4900
  402TMC3    C1 6053   1.525   3.854   0.096 -0.1245 -0.1144 -0.1876
  402TMC3    C2 6054   1.551   3.916   0.218 -0.0991 -0.3392 -0.6841
  402TMC3    C3 6055   1.477   3.876   0.321  0.0877  0.1560 -0.0722
  402TMC3    C4 6056   1.424   3.766   0.080  0.3012 -0.0883  0.3486
  402TMC3    C5 6057   1.363   3.726   0.192 -0.4272 -0.4028 -0.6409
  402TMC3    C6 6058   1.391   3.774   0.312  0.4074 -0.2207  0.2813
  402TMC3     C 6059   1.616   3.871  17.747  0.6394  0.0900 -0.3118
  402TMC3     O 6060   1.605   3.797  17.649 -0.1080 -0.0156 -0.5188
  402TMC3     H 6061   1.622   3.995   0.238  0.7361 -1.0649 -0.7870
  402TMC3    H1 6062   1.412   3.718  17.749  0.1921  1.4791 -0.4186
  402TMC3    H2 6063   1.346   3.740   0.404 -2.2337 -0.7665 -1.2056
  402TMC3    C7 6064   1.262   3.619   0.185 -0.1898  0.1110 -0.6161
  402TMC3    C8 6065   1.536   3.906   0.449 -0.0433  0.5240 -0.0323
  402TMC3    O1 6066   1.240   3.577   0.295 -0.0887  0.2981  0.4258
  402TMC3    O2 6067   1.662   3.916   0.442  0.4448  0.0019 -0.8228
  403MPD2     C 6068   0.629   1.574  13.005 -0.7142  0.1319 -0.2056
  403MPD2    C1 6069   0.534   1.622  13.094 -0.3777 -0.0797  0.2518
  403MPD2    C2 6070   0.584   1.657  13.220  0.1273 -0.5008 -0.2908
  403MPD2    C3 6071   0.720   1.634  13.258  0.1873  0.2532  0.0715
  403MPD2    C4 6072   0.801   1.567  13.177 -0.7682 -0.2426 -0.0077
  403MPD2    C5 6073   0.758   1.551  13.046 -0.1945  1.1587 -0.2817
  403MPD2     H 6074   0.517   1.695  13.296  1.3573  1.4562 -0.2013
  403MPD2    H1 6075   0.906   1.549  13.199 -0.6079  0.2321 -0.3895
  403MPD2    H2 6076   0.608   1.550  12.901 -0.5436 -0.2554 -0.1522
  403MPD2    H3 6077   0.835   1.508  12.983 -0.1618  2.6754 -1.2772
  403MPD2     N 6078   0.761   1.690  13.381 -0.3350  0.1750  0.3527
  403MPD2    H5 6079   0.687   1.729  13.439  0.1375  1.9626 -0.2386
  403MPD2    N1 6080   0.397   1.615  13.055 -0.4845  0.3467  0.0900
  403MPD2    H7 6081   0.381   1.569  12.966  0.1524 -1.2816  0.8077
  404TMC3    C1 6082   0.165   1.635  13.071  0.6316  0.0565  0.2239
  404TMC3    C2 6083   0.090   1.574  13.169 -0.6357 -0.4045 -0.0100
  404TMC3    C3 6084   0.004   1.477  13.131 -0.1117 -0.3367  0.3473
  404TMC3    C4 6085   0.162   1.593  12.940 -0.3196 -1.0377 -0.3641
  404TMC3    C5 6086   0.068   1.503  12.904  0.6810 -1.5471  0.8609
  404TMC3    C6 6087   4.733   1.436  13.002  0.7942  0.0885  0.0004
  404TMC3     C 6088   0.293   1.664  13.127  0.6807 -0.1226  0.5777
  404TMC3     O 6089   0.292   1.708  13.241  0.3990 -0.1912  0.2457
  404TMC3     H 6090   0.087   1.609  13.272  0.3864  0.6673 -0.3354
  404TMC3    H1 6091   0.218   1.649  12.866 -0.2565 -1.2248 -0.4579
  404TMC3    H2 6092   4.660   1.356  12.989 -1.3614  1.6407  2.5195
  404TMC3    C7 6093   0.011   1.493  12.766 -0.6184 -0.1405 -0.3316
  404TMC3    C8 6094   0.021   1.356  13.218 -0.1891  0.0594 -0.2199
  404TMC3    O1 6095   4.640   1.452  12.756  0.1064  0.1295 -0.0775
  404TMC3    O2 6096   0.055   1.253  13.157  0.1183  0.4039  0.4071
  405MPD2     C 6097   0.876   2.453  14.472 -0.0473  0.3034  0.0037
  405MPD2    C1 6098   0.872   2.341  14.402  0.8300 -0.2721 -0.5329
  405MPD2    C2 6099   0.839   2.343  14.270 -0.0161  0.2346 -0.0133
  405MPD2    C3 6100   0.821   2.461  14.207  0.8206  0.0879 -0.2652
  405MPD2    C4 6101   0.837   2.579  14.275 -0.5538  0.8291  0.8963
  405MPD2    C5 6102   0.869   2.575  14.411 -0.6062 -0.2458 -0.1777
  405MPD2     H 6103   0.800   2.251  14.228 -0.8491  0.0882  1.0796
  405MPD2    H1 6104   0.852   2.669  14.215 -3.2266  1.3012  0.9528
  405MPD2    H2 6105   0.899   2.449  14.578  1.7494  2.7117 -0.2673
  405MPD2    H3 6106   0.877   2.672  14.459  1.0839 -0.5061  0.0880
  405MPD2     N 6107   0.785   2.454  14.072 -0.6533  0.0002 -0.4055
  405MPD2    H5 6108   0.784   2.359  14.035 -0.0920 -0.7703  1.5330
  405MPD2    N1 6109   0.871   2.218  14.475 -0.3822 -0.5767  0.4374
  405MPD2    H7 6110   0.863   2.228  14.576 -0.4604  1.3309  0.2480
  406TMC3    C1 6111   0.412   2.489  13.821  0.6934 -0.2412 -0.3631
  406TMC3    C2 6112   0.423   2.350  13.794  0.0782 -0.1873  0.0764
  406TMC3    C3 6113   0.546   2.295  13.818 -0.1242 -0.5453 -0.2320
  406TMC3    C4 6114   0.514   2.559  13.872 -0.1031 -0.2044  0.0403
  406TMC3    C5 6115   0.639   2.500  13.893 -0.1743 -0.1962 -0.0333
  406TMC3    C6 6116   0.653   2.362  13.872 -0.2651  0.2476  0.6750
  406TMC3     C 6117   0.293   2.558  13.832 -1.3747  0.5963  0.5002
  406TMC3     O 6118   0.299   2.677  13.808 -0.2705  0.0035 -0.2646
  406TMC3     H 6119   0.329   2.299  13.777 -0.1003  1.1320 -2.9446
  406TMC3    H1 6120   0.500   2.665  13.888  0.3272 -0.1942  0.3453
  406TMC3    H2 6121   0.743   2.303  13.884  1.3572  2.4698 -0.7040
  406TMC3    C7 6122   0.709   2.548  14.016  0.8740 -0.1687 -0.0398
  406TMC3    C8 6123   0.550   2.153  13.800  0.0560  0.4725 -0.1220
  406TMC3    O1 6124   0.673   2.659  14.056 -0.1667 -0.2674 -0.4794
  406TMC3    O2 6125   0.466   2.106  13.723  0.2158  0.5725  0.1181
  407MPD2     C 6126   2.898   4.185   9.452 -0.3648 -0.0236  0.1202
  407MPD2    C1 6127   2.990   4.294   9.429  0.2313 -0.1663  0.0140
  407MPD2    C2 6128   2.999   4.398   9.521 -0.2257 -0.7640  0.5668
  407MPD2    C3 6129   2.901   4.410   9.620  0.2866 -0.3475 -0.3456
  407MPD2    C4 6130   2.808   4.309   9.634  0.3213  0.2257 -0.6761
  407MPD2    C5 6131   2.804   4.195   9.550 -0.0368 -0.2496 -0.0006
  407MPD2     H 6132   3.062   4.480   9.490 -1.2246  0.1128  0.8904
  407MPD2    H1 6133   2.725   4.308   9.703  0.6127 -1.6951 -0.3525
  407MPD2    H2 6134   2.881   4.107   9.378 -2.5790 -0.0657  0.6646
  407MPD2    H3 6135   2.720   4.129   9.566 -0.0400 -0.0684  0.7237
  407MPD2     N 6136   2.900   4.522   9.708  0.3868 -0.1448 -0.5133
  407MPD2    H5 6137   2.977   4.589   9.705 -1.2474  1.6937 -1.4347
  407MPD2    N1 6138   3.086   4.289   9.318  0.0222  0.2661 -0.6052
  407MPD2    H7 6139   3.152   4.366   9.311 -1.6322  1.5753 -1.7883
  408TMC3    C1 6140   3.177   4.206   9.110 -0.7272  0.0229 -0.1135
  408TMC3    C2 6141   3.240   4.097   9.060  0.8933  0.2361 -0.0033
  408TMC3    C3 6142   3.367   4.109   9.013  0.1790 -0.2334  0.0575
  408TMC3    C4 6143   3.240   4.326   9.100 -0.0638  0.2065  0.3614
  408TMC3    C5 6144   3.367   4.337   9.058 -0.5561 -0.0161 -0.1133
  408TMC3    C6 6145   3.436   4.227   9.019 -0.5242  0.0254  0.0227
  408TMC3     C 6146   3.077   4.193   9.219  0.8734 -0.6598 -0.1857
  408TMC3     O 6147   3.020   4.086   9.220 -0.2138 -0.7723  0.3602
  408TMC3     H 6148   3.198   3.998   9.072  2.4355 -0.6004 -1.5086
  408TMC3    H1 6149   3.202   4.417   9.145 -0.2803 -0.3033  1.2025
  408TMC3    H2 6150   3.525   4.236   8.959  0.3282 -1.5388  1.0405
  408TMC3    C7 6151   3.435   4.463   9.069 -0.3115 -0.0684  0.1758
  408TMC3    C8 6152   3.440   3.983   9.003  0.1547  0.4445 -0.1266
  408TMC3    O1 6153   3.557   4.463   9.085 -0.0028 -0.3537  0.2200
  408TMC3    O2 6154   3.377   3.891   8.955 -0.4025 -0.0829 -0.0750
  409MPD2     C 6155   3.261   4.742  16.292 -0.1153 -0.3330 -0.1520
  409MPD2    C1 6156   3.301   4.720  16.424  0.6701 -0.5700 -0.0734
  409MPD2    C2 6157   3.392   0.063  16.478  0.1106  0.4728  0.1252
  409MPD2    C3 6158   3.444   0.166  16.398  0.1611 -0.0533  0.2909
  409MPD2    C4 6159   3.400   0.179  16.269 -0.4581  0.6238  0.0770
  409MPD2    C5 6160   3.313   0.093  16.214 -0.6771  0.4880  0.0725
  409MPD2     H 6161   3.409   0.051  16.584 -1.0593 -2.8332 -0.0760
  409MPD2    H1 6162   3.430   0.263  16.207 -0.2948 -0.6416 -1.5653
  409MPD2    H2 6163   3.176   4.690  16.249 -1.2119  3.0252 -2.0078
  409MPD2    H3 6164   3.263   0.117  16.120  0.6695  0.1217 -0.7424
  409MPD2     N 6165   3.532   0.261  16.458  0.1407 -0.4456 -0.1399
  409MPD2    H5 6166   3.557   0.342  16.402 -1.0222 -1.3667 -2.0169
  409MPD2    N1 6167   3.235   4.632  16.510  0.1571  0.2710  0.2660
  409MPD2    H7 6168   3.278   4.611  16.600  2.1573 -0.2261 -0.7960
  410TMC3    C1 6169   3.598   0.402  16.628  0.5790 -0.3687  0.5598
  410TMC3    C2 6170   3.682   0.408  16.735 -0.3434 -0.1305 -0.1508
  410TMC3    C3 6171   3.672   0.515  16.813  0.4166  1.2947 -0.2750
  410TMC3    C4 6172   3.500   0.488  16.609  0.3385 -0.2222 -0.4325
  410TMC3    C5 6173   3.498   0.594  16.692  0.2804  0.2453 -0.5075
  410TMC3    C6 6174   3.578   0.613  16.800  0.0299 -0.6315 -0.5143
  410TMC3     C 6175   3.571   0.267  16.587 -0.6149 -0.0876 -0.7323
  410TMC3     O 6176   3.562   0.184  16.678 -0.0753  0.6381 -0.0901
  410TMC3     H 6177   3.754   0.328  16.752 -1.5702 -1.1852  0.0291
  410TMC3    H1 6178   3.422   0.470  16.536  0.5740 -1.3397 -0.4175
  410TMC3    H2 6179   3.575   0.705  16.858 -0.8254  0.3005 -2.0495
  410TMC3    C7 6180   3.377   0.662  16.683  0.5321  0.1555  0.2308
  410TMC3    C8 6181   3.770   0.549  16.909  0.2243 -0.4960 -0.2707
  410TMC3    O1 6182   3.329   0.684  16.572 -0.5510 -0.6362 -0.3520
  410TMC3    O2 6183   3.777   0.664  16.950 -0.9866 -0.3742 -0.2595
  411MPD2     C 6184   2.755   0.164  14.575  0.0478 -0.0306 -0.1944
  411MPD2    C1 6185   2.709   0.241  14.472 -0.1873 -0.3999 -0.8172
  411MPD2    C2 6186   2.636   0.175  14.371  0.0942  0.5030  0.5183
  411MPD2    C3 6187   2.618   0.035  14.369  0.5218 -0.2534  0.8832
  411MPD2    C4 6188   2.673   4.708  14.473 -0.4986  0.0303  0.2281
  411MPD2    C5 6189   2.730   0.029  14.580  0.3996  0.1068  0.9201
  411MPD2     H 6190   2.578   0.234  14.302  0.4188 -0.5576 -0.6594
  411MPD2    H1 6191   2.662   4.602  14.494 -2.2463 -0.1775 -1.7256
  411MPD2    H2 6192   2.808   0.204  14.661  2.7877 -0.2331 -1.7763
  411MPD2    H3 6193   2.764   4.710  14.663 -0.8240 -1.5039  0.2475
  411MPD2     N 6194   2.547   4.708  14.267 -0.0226 -0.2354  0.5418
  411MPD2    H5 6195   2.540   4.609  14.285  0.4093 -1.2594 -5.1049
  411MPD2    N1 6196   2.726   0.380  14.472 -0.0166  0.0384 -0.3013
  411MPD2    H7 6197   2.786   0.416  14.545 -1.3647  1.3468  0.1654
  412TMC3    C1 6198   2.442   4.678  14.057 -0.2331 -0.4170  0.1276
  412TMC3    C2 6199   2.353   4.716  13.962 -0.6635  0.0350  0.2865
  412TMC3    C3 6200   2.360   4.679  13.828 -0.5330 -0.0558  0.6970
  412TMC3    C4 6201   2.530   4.581  14.021  0.2612 -0.2663 -0.7891
  412TMC3    C5 6202   2.529   4.526  13.897 -0.2199  0.7493  0.8311
  412TMC3    C6 6203   2.450   4.583  13.798  0.5896  0.0244 -0.0900
  412TMC3     C 6204   2.483   0.026  14.158 -0.0825  0.7436  0.2508
  412TMC3     O 6205   2.451   0.143  14.145 -0.3703 -0.0095 -0.0354
  412TMC3     H 6206   2.293   0.059  13.995 -3.8535 -1.7465 -0.8626
  412TMC3    H1 6207   2.608   4.550  14.090  0.0712  0.4898 -0.2370
  412TMC3    H2 6208   2.456   4.567  13.691  1.9283 -2.4739  0.3664
  412TMC3    C7 6209   2.660   4.503  13.849 -0.6133 -0.3750  0.2589
  412TMC3    C8 6210   2.377   0.058  13.749 -0.5186  0.4100  0.0491
  412TMC3    O1 6211   2.732   4.420  13.907  0.2048  0.2605 -0.0221
  412TMC3    O2 6212   2.466   0.057  13.665 -0.5286 -0.2862 -0.1075
  413MPD2     C 6213   4.569   3.924  15.179  0.0141 -0.1264  0.9761
  413MPD2    C1 6214   4.513   3.817  15.106 -0.4047  0.2648  0.5325
  413MPD2    C2 6215   4.593   3.707  15.074 -0.3550 -0.0600 -0.5377
  413MPD2    C3 6216   4.722   3.703  15.124  0.2683  0.2170  0.1631
  413MPD2    C4 6217   0.038   3.809  15.193 -0.1283 -0.1726  0.0492
  413MPD2    C5 6218   4.701   3.921  15.214 -0.1947  0.3232 -0.0028
  413MPD2     H 6219   4.550   3.615  15.037 -0.0234 -0.0485 -0.9452
  413MPD2    H1 6220   0.135   3.803  15.240  0.8321 -2.4158 -2.2133
  413MPD2    H2 6221   4.508   4.003  15.220  2.6277  2.0588  0.6496
  413MPD2    H3 6222   0.003   3.996  15.279  1.4138  0.3162 -1.0884
  413MPD2     N 6223   0.054   3.582  15.102 -0.0450 -0.2280 -0.2947
  413MPD2    H5 6224   0.012   3.506  15.049  0.2439 -0.0755 -0.7419
  413MPD2    N1 6225   4.373   3.825  15.091 -0.0086  0.0764 -0.4666
  413MPD2    H7 6226   4.327   3.904  15.135  0.9054  0.5564 -0.3853
  414TMC3    C1 6227   0.217   3.426  15.131  0.1872 -1.2775 -0.3757
  414TMC3    C2 6228   0.277   3.368  15.241  0.9952 -0.5813 -0.4198
  414TMC3    C3 6229   0.306   3.240  15.246 -0.1730 -0.1619  0.7801
  414TMC3    C4 6230   0.172   3.342  15.030  0.2454 -0.2499 -0.2909
  414TMC3    C5 6231   0.206   3.206  15.038 -0.0435  0.6439 -1.4953
  414TMC3    C6 6232   0.264   3.156  15.150  0.4428  0.5697 -0.2999
  414TMC3     C 6233   0.181   3.560  15.143  0.3297  0.3345 -0.1790
  414TMC3     O 6234   0.243   3.620  15.229 -0.6460 -0.3096 -0.3200
  414TMC3     H 6235   0.325   3.441  15.305  0.5323 -1.8535  1.3771
  414TMC3    H1 6236   0.150   3.386  14.934  1.8377  3.0970  0.8806
  414TMC3    H2 6237   0.287   3.050  15.153  2.1509  1.0048  1.8732
  414TMC3    C7 6238   0.278   3.163  14.921 -0.7481 -0.1155  1.0871
  414TMC3    C8 6239   0.443   3.218  15.287 -0.2299 -0.0627  0.4048
  414TMC3    O1 6240   0.236   3.194  14.812  0.1934  0.5222  0.6304
  414TMC3    O2 6241   0.488   3.127  15.221 -0.4130  0.1679  1.0081
  415TMC3    C1 6242   4.345   2.055  10.103 -0.5536  0.4516  0.2045
  415TMC3    C2 6243   4.413   2.162  10.049 -0.5640  0.6855  0.7789
  415TMC3    C3 6244   4.349   2.233   9.958 -0.1395  0.0505 -0.8222
  415TMC3    C4 6245   4.230   2.010  10.061  1.0099  0.0734  0.4572
  415TMC3    C5 6246   4.161   2.086   9.970 -0.6443  0.1536  0.3539
  415TMC3    C6 6247   4.222   2.200   9.928  0.7602 -0.8806 -0.2770
  415TMC3     C 6248   4.411   1.956  10.200 -0.3348  0.2816 -0.1598
  415TMC3     O 6249   4.348   1.861  10.239 -0.8965  0.4832  0.0515
  415TMC3     H 6250   4.510   2.193  10.088  0.3703 -0.8304 -0.3336
  415TMC3    H1 6251   4.181   1.924  10.106 -0.5001  0.5529 -0.2783
  415TMC3    H2 6252   4.172   2.263   9.855  1.3608  0.9373  0.8735
  415TMC3    C7 6253   4.050   2.031   9.897 -0.1028 -1.2112  0.2513
  415TMC3    C8 6254   4.419   2.336   9.876 -0.5256  0.3755  0.0652
  415TMC3    O1 6255   4.029   2.092   9.788  0.2933 -0.4847 -0.2833
  415TMC3    O2 6256   4.348   2.422   9.825 -0.3338  0.4093 -0.3574
  416MPD2     C 6257   2.025   1.021  11.163  0.2781 -0.8096 -0.0983
  416MPD2    C1 6258   1.952   0.948  11.261  0.3312  0.2380 -0.3468
  416MPD2    C2 6259   1.933   0.810  11.254  0.2263 -0.2304  0.3101
  416MPD2    C3 6260   1.991   0.740  11.152  0.0991 -0.4603  0.4872
  416MPD2    C4 6261   2.054   0.808  11.051 -0.3925 -0.1595 -0.3638
  416MPD2    C5 6262   2.073   0.945  11.056 -0.4016  0.3860 -0.2779
  416MPD2     H 6263   1.869   0.754  11.320 -0.2205 -2.7458 -2.2838
  416MPD2    H1 6264   2.119   0.755  10.983 -1.9522  0.0485 -2.0122
  416MPD2    H2 6265   2.027   1.128  11.179  2.1567 -1.0832  1.5033
  416MPD2    H3 6266   2.133   0.994  10.981 -1.1750 -0.2340 -1.3104
  416MPD2     N 6267   1.989   0.597  11.162 -0.1852 -0.3801  0.6503
  416MPD2    H5 6268   1.935   0.564  11.241 -0.2625 -0.4890  0.5522
  416MPD2    N1 6269   1.893   1.029  11.356 -0.0606  0.1873  0.1667
  416MPD2    H7 6270   1.912   1.129  11.353  0.5347  0.0850  0.4439
  417TMC3    C1 6271   1.771   1.071  11.553 -0.0950  0.1119 -0.3931
  417TMC3    C2 6272   1.763   1.018  11.681 -0.0329  0.2704  0.2012
  417TMC3    C3 6273   1.638   1.033  11.734 -0.2942 -0.4288 -0.2077
  417TMC3    C4 6274   1.661   1.125  11.486 -0.4118 -0.2508  0.5822
  417TMC3    C5 6275   1.543   1.135  11.551  0.7255  0.4525 -0.0873
  417TMC3    C6 6276   1.532   1.096  11.678 -0.3212  0.2090  0.1485
  417TMC3     C 6277   1.843   0.976  11.472  0.3772 -1.0631  0.0088
  417TMC3     O 6278   1.856   0.868  11.527 -0.3910 -0.2388  0.3270
  417TMC3     H 6279   1.838   0.958  11.731 -1.4780 -0.6377  1.3176
  417TMC3    H1 6280   1.667   1.156  11.382  0.1772  0.3663  0.8024
  417TMC3    H2 6281   1.438   1.095  11.731  0.0355  0.4655  0.8003
  417TMC3    C7 6282   1.431   1.188  11.481 -0.2327  0.9423  0.7085
  417TMC3    C8 6283   1.625   0.981  11.869  0.4582 -0.1518 -0.0577
  417TMC3    O1 6284   1.457   1.237  11.370  0.6207 -0.3585  0.5481
  417TMC3    O2 6285   1.726   0.999  11.939  0.4608  0.2210  0.3928
  418TMC3    C1 6286   1.672   2.925  17.700  0.0626 -0.4530  0.4574
  418TMC3    C2 6287   1.625   2.867  17.595  0.0887 -0.2780 -0.9419
  418TMC3    C3 6288   1.500   2.806  17.593  0.5538 -0.2890  0.0313
  418TMC3    C4 6289   1.596   2.922   0.049  0.1962 -1.2631 -0.3956
  418TMC3    C5 6290   1.476   2.866   0.048 -0.4138 -0.3826 -0.7671
  418TMC3    C6 6291   1.425   2.808  17.703  0.2405 -0.5419 -0.2606
  418TMC3     C 6292   1.813   2.950  17.709 -0.2042  0.0000 -0.1138
  418TMC3     O 6293   1.871   2.985  17.610 -0.2744 -0.1373  0.2697
  418TMC3     H 6294   1.687   2.868  17.507  1.2142  0.8774 -0.1412
  418TMC3    H1 6295   1.632   2.974   0.137 -3.1662 -0.8484  0.7313
  418TMC3    H2 6296   1.322   2.776  17.707  0.4658 -1.1717  0.4016
  418TMC3    C7 6297   1.400   2.834   0.163  0.2055 -0.5653  0.1994
  418TMC3    C8 6298   1.445   2.757  17.471  0.2885  0.2678 -0.0911
  418TMC3    O1 6299   1.294   2.776   0.150 -0.1963  0.3735 -0.7789
  418TMC3    O2 6300   1.497   2.801  17.369  0.3516 -1.0136 -0.3961
  419MPD2     C 6301   3.811   0.416  12.233  0.4621 -0.2268  0.3911
  419MPD2    C1 6302   3.702   0.475  12.182  0.1924 -0.5591 -0.2829
  419MPD2    C2 6303   3.599   0.510  12.265 -0.2307  0.0987  0.2711
  419MPD2    C3 6304   3.605   0.496  12.402 -0.5176 -0.1665 -0.3239
  419MPD2    C4 6305   3.719   0.434  12.451 -0.2881  0.3448  0.2113
  419MPD2    C5 6306   3.821   0.401  12.369  0.5972 -0.1110  0.1600
  419MPD2     H 6307   3.508   0.544  12.216 -1.9842 -1.8358  2.2012
  419MPD2    H1 6308   3.746   0.424  12.555  0.7788  0.1076 -0.0857
  419MPD2    H2 6309   3.892   0.384  12.169 -0.2840  2.2008 -1.7395
  419MPD2    H3 6310   3.915   0.362  12.405 -0.4043 -1.7961  0.9004
  419MPD2     N 6311   3.498   0.522  12.492 -0.2683  0.6681 -0.2198
  419MPD2    H5 6312   3.501   0.477  12.582 -1.4560 -0.2251 -0.6395
  419MPD2    N1 6313   3.687   0.502  12.044  0.6051 -0.1160  0.0993
  419MPD2    H7 6314   3.604   0.552  12.015  0.9526  0.3918 -0.0302
  420TMC3    C1 6315   3.295   0.625  12.576  0.6051  0.2840  0.6683
  420TMC3    C2 6316   3.210   0.731  12.548 -1.1330 -0.6252 -0.0122
  420TMC3    C3 6317   3.131   0.776  12.655 -0.2222  0.4521 -0.4076
  420TMC3    C4 6318   3.309   0.558  12.697  0.6543  0.0499 -0.2701
  420TMC3    C5 6319   3.233   0.616  12.797 -0.3389  0.1506 -0.0041
  420TMC3    C6 6320   3.147   0.718  12.780 -0.4563  0.1182  0.5531
  420TMC3     C 6321   3.389   0.598  12.465  0.1573 -0.0336  0.1715
  420TMC3     O 6322   3.359   0.648  12.353 -0.1257 -0.3151 -0.2455
  420TMC3     H 6323   3.213   0.789  12.457 -0.2985  0.1559  0.5047
  420TMC3    H1 6324   3.363   0.464  12.705  0.8926  0.2030 -0.0488
  420TMC3    H2 6325   3.096   0.765  12.864 -0.1225 -2.2190  2.0519
  420TMC3    C7 6326   3.274   0.584  12.930  0.7510 -0.3731  0.2262
  420TMC3    C8 6327   3.066   0.907  12.629 -0.3470  0.7126 -0.2449
  420TMC3    O1 6328   3.328   0.478  12.947 -0.9384  0.0268  0.5032
  420TMC3    O2 6329   3.100   0.968  12.531  0.9309 -0.5195  0.2227
  421TMC3    C1 6330   0.880   1.742  13.571 -0.2478  0.3219  0.9023
  421TMC3    C2 6331   0.847   1.874  13.563 -0.6766 -0.2097 -0.0664
  421TMC3    C3 6332   0.901   1.954  13.668 -0.1704  0.0366 -0.5372
  421TMC3    C4 6333   0.956   1.688  13.671  0.3256  0.2001 -0.7612
  421TMC3    C5 6334   1.012   1.765  13.764 -0.7258  0.1134  0.5987
  421TMC3    C6 6335   0.980   1.898  13.769 -0.3839 -0.3991 -0.3912
  421TMC3     C 6336   0.881   1.671  13.448  0.1259 -0.9069 -0.1997
  421TMC3     O 6337   0.995   1.637  13.415  0.2145  0.3221 -0.6756
  421TMC3     H 6338   0.794   1.919  13.480  0.4471  0.2055 -0.5537
  421TMC3    H1 6339   0.982   1.583  13.661  1.7163  0.3615  1.2574
  421TMC3    H2 6340   1.020   1.959  13.849 -1.5480  0.8596 -0.7628
  421TMC3    C7 6341   1.115   1.712  13.850 -0.4397  0.6555 -0.2077
  421TMC3    C8 6342   0.912   2.099  13.655 -0.2063  0.4486  0.4802
  421TMC3    O1 6343   1.196   1.792  13.897 -0.0923  0.0952  0.1318
  421TMC3    O2 6344   0.977   2.153  13.745  0.1988  0.3927 -0.1499
  422TMC3    C1 6345   2.695   3.619  12.446  0.7344  0.6325 -0.7083
  422TMC3    C2 6346   2.616   3.718  12.502 -0.7807  0.0259  0.3204
  422TMC3    C3 6347   2.519   3.684  12.595 -0.2257 -0.0443 -0.3581
  422TMC3    C4 6348   2.667   3.490  12.475  0.0312 -0.0825  0.3589
  422TMC3    C5 6349   2.557   3.458  12.558 -0.0571  0.0914  0.8824
  422TMC3    C6 6350   2.478   3.561  12.611  0.2353 -0.0925 -0.3890
  422TMC3     C 6351   2.770   3.649  12.333 -0.0178 -0.3283  0.1920
  422TMC3     O 6352   2.850   3.563  12.296 -0.0171  0.3618 -0.1243
  422TMC3     H 6353   2.650   3.821  12.498  4.3623 -1.7776 -1.6450
  422TMC3    H1 6354   2.719   3.409  12.424  0.8561 -0.0861  1.2028
  422TMC3    H2 6355   2.408   3.544  12.692  2.2604 -1.3669  1.0968
  422TMC3    C7 6356   2.501   3.323  12.549 -0.3004  0.6359 -0.2216
  422TMC3    C8 6357   2.458   3.776  12.685  0.1547  0.6392 -1.1053
  422TMC3    O1 6358   2.543   3.258  12.456  0.0152  0.1161 -0.1949
  422TMC3    O2 6359   2.339   3.775  12.700 -0.4724 -0.0321 -0.2532
  423MPD2     C 6360   3.944   3.709   0.280  0.1910 -0.4754 -0.1484
  423MPD2    C1 6361   3.911   3.813   0.194  0.2533 -0.0117 -0.1352
  423MPD2    C2 6362   3.946   3.807   0.063  0.0013 -0.6281 -0.0422
  423MPD2    C3 6363   4.013   3.690   0.009 -0.1150  0.0103  0.2793
  423MPD2    C4 6364   4.042   3.592   0.094 -0.7444 -0.1909 -1.0966
  423MPD2    C5 6365   4.003   3.594   0.227 -0.5767 -0.2794  1.1308
  423MPD2     H 6366   3.932   3.896   0.003 -2.2059  0.6959  2.4791
  423MPD2    H1 6367   4.085   3.499   0.060  2.5081  1.0352 -0.2740
  423MPD2    H2 6368   3.933   3.718   0.387  0.5527 -0.1295 -0.1413
  423MPD2    H3 6369   4.030   3.518   0.299 -0.9598  2.7638  4.5046
  423MPD2     N 6370   4.056   3.665  17.643  0.3283 -0.1217  0.1142
  423MPD2    H5 6371   4.118   3.585  17.629  1.4527  1.1135 -2.0016
  423MPD2    N1 6372   3.848   3.934   0.232 -0.7257 -0.4905  0.0880
  423MPD2    H7 6373   3.846   4.015   0.172 -1.2445  1.3457  2.5551
  424TMC3    C1 6374   3.780   4.105   0.375  1.1322  0.0953 -0.4838
  424TMC3    C2 6375   3.774   4.149   0.501  0.5700 -0.5643  0.3066
  424TMC3    C3 6376   3.709   4.267   0.519 -0.6990  0.2349 -0.5315
  424TMC3    C4 6377   3.705   4.161   0.269 -1.0228 -0.8475 -0.3798
  424TMC3    C5 6378   3.640   4.279   0.297  0.7419 -0.0534  0.4796
  424TMC3    C6 6379   3.645   4.338   0.421  0.0375  0.4530  1.1013
  424TMC3     C 6380   3.825   3.967   0.364  1.0391 -0.1825 -0.5585
  424TMC3     O 6381   3.851   3.907   0.466 -0.5077  0.4562 -0.0952
  424TMC3     H 6382   3.850   4.117   0.571  2.3316  0.9207 -0.9306
  424TMC3    H1 6383   3.702   4.129   0.166  0.3052 -0.5563 -0.5038
  424TMC3    H2 6384   3.609   4.437   0.449 -0.8906  0.5652 -0.5108
  424TMC3    C7 6385   3.546   4.317   0.188 -0.4762  0.0024 -0.0767
  424TMC3    C8 6386   3.752   4.349   0.629 -0.0551  0.2155  0.6471
  424TMC3    O1 6387   3.525   4.243   0.094  0.0123 -0.1774  0.2068
  424TMC3    O2 6388   3.747   4.468   0.615  0.0894 -0.0704 -0.2550
  425MPD2     C 6389   3.785   3.436  16.683 -0.5384  0.0886  0.5318
  425MPD2    C1 6390   3.775   3.377  16.808  0.2388  0.5069 -0.0107
  425MPD2    C2 6391   3.683   3.431  16.899 -0.2937 -0.2882 -0.2140
  425MPD2    C3 6392   3.631   3.550  16.874  0.2806  0.1630  0.8974
  425MPD2    C4 6393   3.656   3.619  16.753 -0.2850 -0.4488  0.2145
  425MPD2    C5 6394   3.727   3.559  16.654 -0.9719 -0.4303 -0.6159
  425MPD2     H 6395   3.650   3.379  16.988 -0.4339  0.8593  0.4076
  425MPD2    H1 6396   3.619   3.714  16.717  0.5442  0.4166  1.6320
  425MPD2    H2 6397   3.855   3.381  16.621 -0.0188  2.1716 -0.7252
  425MPD2    H3 6398   3.747   3.599  16.556  2.8716  1.0530  0.7847
  425MPD2     N 6399   3.544   3.593  16.976  1.0477  0.5187  0.1059
  425MPD2    H5 6400   3.549   3.536  17.060  1.3719  0.1464 -0.1635
  425MPD2    N1 6401   3.838   3.255  16.839 -0.3623  0.4355  1.2580
  425MPD2    H7 6402   3.883   3.204  16.763  0.9935  1.2235  1.5360
  426TMC3    C1 6403   3.887   3.062  16.976 -0.2736 -0.3620 -0.2062
  426TMC3    C2 6404   3.910   2.990  16.862  0.1135  0.2192  0.1171
  426TMC3    C3 6405   3.934   2.858  16.874 -0.6239  0.8104 -0.1257
  426TMC3    C4 6406   3.877   3.002  17.096  0.4889 -0.3064  0.3469
  426TMC3    C5 6407   3.890   2.868  17.106 -0.2506 -0.4494  0.2024
  426TMC3    C6 6408   3.917   2.796  16.990  0.2902 -0.7338  0.4202
  426TMC3     C 6409   3.865   3.208  16.963  0.5365  0.2630 -0.2791
  426TMC3     O 6410   3.883   3.275  17.062  0.1610  0.0135 -0.1065
  426TMC3     H 6411   3.911   3.038  16.765 -2.9419 -0.6284 -0.3188
  426TMC3    H1 6412   3.863   3.073  17.177 -1.6657  0.4117 -0.6290
  426TMC3    H2 6413   3.931   2.689  16.985 -0.1913 -0.7110 -1.4997
  426TMC3    C7 6414   3.833   2.799  17.216  0.1519  0.4155  0.2568
  426TMC3    C8 6415   3.906   2.780  16.756  0.7984  0.6042 -0.1336
  426TMC3    O1 6416   3.857   2.679  17.234  0.3329  0.1592  0.2123
  426TMC3    O2 6417   3.957   2.822  16.651  0.0157 -0.3965 -0.7981
  427MPD2     C 6418   2.023   0.546  14.788  0.1682  0.3752  0.0028
  427MPD2    C1 6419   2.019   0.575  14.924  0.1737 -0.1294 -0.1476
  427MPD2    C2 6420   1.904   0.629  14.985  0.2675  0.5132  0.0308
  427MPD2    C3 6421   1.792   0.640  14.911  0.1186  0.5528  0.4238
  427MPD2    C4 6422   1.791   0.601  14.778 -0.0500  0.2729  0.6416
  427MPD2    C5 6423   1.903   0.550  14.724  0.3003  1.1855  0.1226
  427MPD2     H 6424   1.909   0.659  15.089 -1.3454  2.0883 -0.3325
  427MPD2    H1 6425   1.715   0.622  14.704  0.3657  0.4870  0.2749
  427MPD2    H2 6426   2.114   0.512  14.739 -1.1514 -3.5444  0.2490
  427MPD2    H3 6427   1.895   0.517  14.621  1.5289  1.4139 -0.0525
  427MPD2     N 6428   1.672   0.702  14.962 -0.4612 -0.3494 -0.4725
  427MPD2    H5 6429   1.591   0.697  14.901  0.7236 -1.1213 -2.0109
  427MPD2    N1 6430   2.136   0.554  15.004  0.5446 -0.4881  0.2849
  427MPD2    H7 6431   2.129   0.568  15.104  0.7564  1.8911 -0.0250
  428TMC3    C1 6432   2.345   0.462  15.078  0.0582  0.3071  0.8103
  428TMC3    C2 6433   2.279   0.394  15.185  0.7009  0.0802  0.2071
  428TMC3    C3 6434   2.351   0.314  15.264  0.3497  0.3397  0.4958
  428TMC3    C4 6435   2.479   0.450  15.059  0.4011  0.4492  0.0521
  428TMC3    C5 6436   2.549   0.375  15.151  0.0255  0.1439 -0.2401
  428TMC3    C6 6437   2.488   0.301  15.248 -0.1682 -0.5416 -0.7176
  428TMC3     C 6438   2.259   0.502  14.963  0.0892 -0.1802  0.1320
  428TMC3     O 6439   2.306   0.490  14.847  0.1349  0.0318  0.2520
  428TMC3     H 6440   2.171   0.385  15.178  0.6130  0.5025  1.0054
  428TMC3    H1 6441   2.516   0.498  14.969  0.0984 -1.1826 -0.9397
  428TMC3    H2 6442   2.549   0.238  15.312 -0.0381  0.6528  0.3201
  428TMC3    C7 6443   2.662   0.444  15.216 -0.0149  0.1006  0.0270
  428TMC3    C8 6444   2.287   0.235  15.367 -1.1369 -0.1569 -0.4530
  428TMC3    O1 6445   2.649   0.434  15.340  0.2209  0.5700 -0.0817
  428TMC3    O2 6446   2.324   0.121  15.391 -0.5456  0.0013  0.5617
  429MPD2     C 6447   3.176   1.067  17.311  0.4659  0.0021 -0.5705
  429MPD2    C1 6448   3.298   1.008  17.270 -0.2766  0.8312 -0.6119
  429MPD2    C2 6449   3.400   1.088  17.221  0.2881 -1.0155  0.0656
  429MPD2    C3 6450   3.379   1.223  17.196 -0.2448 -0.1367  0.1610
  429MPD2    C4 6451   3.257   1.273  17.228  0.4779  0.0172  0.2928
  429MPD2    C5 6452   3.160   1.200  17.293  0.3546 -0.4565  0.4026
  429MPD2     H 6453   3.494   1.046  17.189  0.6757  0.3548 -0.5711
  429MPD2    H1 6454   3.239   1.377  17.206  0.1840 -0.5282 -2.0494
  429MPD2    H2 6455   3.092   1.011  17.350 -0.1853  1.2970 -0.1007
  429MPD2    H3 6456   3.072   1.246  17.336 -0.3164 -0.1421 -1.3211
  429MPD2     N 6457   3.485   1.291  17.133  0.3723 -0.3186 -0.1182
  429MPD2    H5 6458   3.572   1.241  17.119  0.2760  0.3451 -3.0185
  429MPD2    N1 6459   3.328   0.867  17.274  0.0321  0.1390 -0.2674
  429MPD2    H7 6460   3.426   0.841  17.263  0.1531  0.6140 -0.3036
  430TMC3    C1 6461   3.571   1.434  16.971 -0.4566  0.0329 -0.2750
  430TMC3    C2 6462   3.528   1.512  16.872 -0.5739 -0.4972  0.1091
  430TMC3    C3 6463   3.574   1.483  16.745 -0.3917  0.4092 -0.0366
  430TMC3    C4 6464   3.678   1.345  16.949 -0.4663  0.5483  0.4404
  430TMC3    C5 6465   3.728   1.335  16.818  0.1418 -0.3259  0.6690
  430TMC3    C6 6466   3.679   1.405  16.713  0.0980  0.1195  0.2439
  430TMC3     C 6467   3.472   1.411  17.067  0.1007 -0.0918 -0.4563
  430TMC3     O 6468   3.385   1.498  17.080 -0.8197  0.4926 -0.1777
  430TMC3     H 6469   3.444   1.578  16.886 -0.0866 -0.4614  2.8406
  430TMC3    H1 6470   3.710   1.275  17.025  2.5329  1.2485 -0.1723
  430TMC3    H2 6471   3.717   1.395  16.612 -1.6174  2.0669 -0.5918
  430TMC3    C7 6472   3.769   1.199  16.781 -0.2911 -0.2022 -0.0453
  430TMC3    C8 6473   3.465   1.471  16.654  0.1407 -0.7135  0.2121
  430TMC3    O1 6474   3.838   1.138  16.863  0.1465  0.7517  0.2488
  430TMC3    O2 6475   3.445   1.365  16.603  0.1544 -0.4779 -0.0621
  431MPD2     C 6476   3.794   1.232  12.126  0.5355  0.0869  0.3332
  431MPD2    C1 6477   3.885   1.207  12.027 -0.4286 -0.0687  0.6176
  431MPD2    C2 6478   3.858   1.113  11.925  0.1236  0.3266  0.0141
  431MPD2    C3 6479   3.733   1.050  11.927  0.3440  0.0002  0.6529
  431MPD2    C4 6480   3.644   1.089  12.020  0.5228  0.1561  0.4673
  431MPD2    C5 6481   3.675   1.176  12.119 -0.1592 -0.2385  0.5587
  431MPD2     H 6482   3.934   1.076  11.858 -1.3930 -0.6983 -1.1603
  431MPD2    H1 6483   3.550   1.035  12.029 -0.1312  1.0303 -0.9516
  431MPD2    H2 6484   3.802   1.296  12.213 -1.3048  0.9280 -0.1098
  431MPD2    H3 6485   3.600   1.204  12.193  0.9521 -2.3385  2.4509
  431MPD2     N 6486   3.697   0.937  11.857  0.6984  0.3092 -0.5958
  431MPD2    H5 6487   3.617   0.884  11.890 -0.3633  1.4440 -1.3541
  431MPD2    N1 6488   4.011   1.264  12.029  0.3480 -0.5263  1.1445
  431MPD2    H7 6489   4.085   1.244  11.962 -1.7304  0.3481 -1.3952
  432TMC3    C1 6490   3.711   0.755  11.712  0.2171 -0.0103 -0.6210
  432TMC3    C2 6491   3.764   0.712  11.598 -0.3787 -0.8525  0.9720
  432TMC3    C3 6492   3.804   0.582  11.599  0.0876  1.1557  0.3122
  432TMC3    C4 6493   3.705   0.670  11.825 -0.5478 -0.2194  0.1577
  432TMC3    C5 6494   3.743   0.542  11.813 -0.0408 -0.0082 -0.1836
  432TMC3    C6 6495   3.817   0.496  11.703 -0.5058 -0.2348  0.2526
  432TMC3     C 6496   3.758   0.888  11.744 -0.4741  0.2777 -0.1185
  432TMC3     O 6497   3.855   0.941  11.683 -0.1196 -0.3587 -0.0487
  432TMC3     H 6498   3.790   0.771  11.512 -0.2755  0.6982  2.0724
  432TMC3    H1 6499   3.686   0.705  11.926 -0.3180  0.7820 -0.1409
  432TMC3    H2 6500   3.840   0.391  11.692  1.9138  0.1898  1.3083
  432TMC3    C7 6501   3.782   0.475  11.942 -1.1185 -0.7701  0.0084
  432TMC3    C8 6502   3.899   0.547  11.491 -0.2221  0.2155 -0.4805
  432TMC3    O1 6503   3.894   0.423  11.940  0.8657 -0.0287  0.3877
  432TMC3    O2 6504   3.872   0.570  11.373 -0.6305  0.0447  0.4738
  433MPD2     C 6505   2.622   4.571  10.649  0.7788  0.2451  0.5246
  433MPD2    C1 6506   2.750   4.621  10.678  0.3297 -0.0620  0.2924
  433MPD2    C2 6507   2.764   4.688  10.798 -0.0367 -0.7358  0.4114
  433MPD2    C3 6508   2.663   4.679  10.892  0.5205 -0.1464  0.0078
  433MPD2    C4 6509   2.543   4.629  10.859 -0.6017  0.2769 -0.9758
  433MPD2    C5 6510   2.525   4.572  10.739 -0.3903  0.1947 -0.3759
  433MPD2     H 6511   2.858   4.738  10.818  0.1740 -0.3954 -1.3921
  433MPD2    H1 6512   2.468   4.625  10.937 -0.4713 -0.2834 -0.8747
  433MPD2    H2 6513   2.602   4.530  10.551  0.5715  2.0754 -0.1990
  433MPD2    H3 6514   2.430   4.526  10.715 -1.2155  0.5933  2.0764
  433MPD2     N 6515   2.699   4.726  11.021  0.5035  0.2982  0.2506
  433MPD2    H5 6516   2.795   0.016  11.027  2.4072 -5.3384  0.1422
  433MPD2    N1 6517   2.862   4.607  10.590 -0.3640  0.1927 -0.4334
  433MPD2    H7 6518   2.955   4.631  10.623 -0.3962  1.6934 -1.4420
  434TMC3    C1 6519   2.969   4.502  10.405  0.5400 -0.3301  0.0561
  434TMC3    C2 6520   3.052   4.432  10.493 -0.5186  0.2910  0.1009
  434TMC3    C3 6521   3.164   4.374  10.434 -0.0808  0.0166 -0.8323
  434TMC3    C4 6522   2.984   4.496  10.266  0.2698 -0.4068  0.2731
  434TMC3    C5 6523   3.082   4.421  10.224 -0.0906  0.0892 -0.0521
  434TMC3    C6 6524   3.175   4.357  10.299  0.3519  0.1286  0.2150
  434TMC3     C 6525   2.854   4.578  10.456 -0.1006  0.6891 -0.4476
  434TMC3     O 6526   2.758   4.586  10.382  0.1183  0.4730  0.0600
  434TMC3     H 6527   3.048   4.442  10.600 -1.4856  1.9920 -0.0998
  434TMC3    H1 6528   2.917   4.541  10.194  2.8305 -0.2889 -2.0434
  434TMC3    H2 6529   3.250   4.299  10.245  1.1031  0.9837  0.3415
  434TMC3    C7 6530   3.045   4.347  10.110  0.2365  0.1703 -0.0690
  434TMC3    C8 6531   3.268   4.313  10.528 -0.1115 -0.1433 -0.1677
  434TMC3    O1 6532   2.977   4.400  10.025  0.5117  0.1479 -0.2193
  434TMC3    O2 6533   3.271   4.360  10.642 -0.4299 -0.2043 -0.0293
  435MPD2     C 6534   0.324   4.259  15.067 -0.6406 -0.0538 -0.1804
  435MPD2    C1 6535   0.252   4.270  15.187  0.2756  0.0555  0.4615
  435MPD2    C2 6536   0.311   4.221  15.303 -0.2698 -0.4889 -0.0640
  435MPD2    C3 6537   0.440   4.171  15.306  0.3902 -0.3213  0.6694
  435MPD2    C4 6538   0.505   4.163  15.183 -0.2809  0.9420  0.5347
  435MPD2    C5 6539   0.450   4.204  15.069 -0.3639 -0.8554  1.1052
  435MPD2     H 6540   0.264   4.228  15.400 -0.2368 -3.2458  0.1498
  435MPD2    H1 6541   0.608   4.130  15.173 -0.1560  1.1290  1.1945
  435MPD2    H2 6542   0.289   4.296  14.970  1.3622  1.5621 -0.2930
  435MPD2    H3 6543   0.502   4.186  14.976 -1.9905 -0.0453  0.0379
  435MPD2     N 6544   0.505   4.127  15.428 -0.5943 -0.4612 -0.2127
  435MPD2    H5 6545   0.455   4.146  15.514  0.9905  0.4678  0.5126
  435MPD2    N1 6546   0.116   4.315  15.203  0.2164 -0.2660  0.2732
  435MPD2    H7 6547   0.070   4.321  15.293  0.7623 -1.3165  0.6150
  436TMC3    C1 6548   4.561   4.487  15.346  0.7286  0.1827 -0.0112
  436TMC3    C2 6549   4.666   4.487  15.260 -0.1372 -0.1598  0.2137
  436TMC3    C3 6550   4.652   4.414  15.146 -0.3789 -0.0477 -0.2541
  436TMC3    C4 6551   4.444   4.419  15.315 -0.0980 -1.0004 -0.2255
  436TMC3    C5 6552   4.430   4.355  15.196 -0.3426  0.3786  0.6019
  436TMC3    C6 6553   4.533   4.351  15.105  0.4479 -0.0672 -0.0265
  436TMC3     C 6554   4.590   4.554  15.472  0.2303  0.3959  0.3289
  436TMC3     O 6555   4.692   4.617  15.480 -0.4695 -0.6537 -0.4465
  436TMC3     H 6556   0.017   4.539  15.281  1.3200 -1.8466 -2.0208
  436TMC3    H1 6557   4.365   4.402  15.388 -0.1833  1.2261  0.1964
  436TMC3    H2 6558   4.531   4.281  15.022 -2.9140  2.1466 -1.7824
  436TMC3    C7 6559   4.323   4.259  15.183 -0.0607  0.1203 -0.4620
  436TMC3    C8 6560   0.026   4.347  15.097 -0.7989 -0.5161  0.2072
  436TMC3    O1 6561   4.282   4.209  15.285  0.1393  0.4630 -0.2809
  436TMC3    O2 6562   0.041   4.352  14.970 -0.1264  0.2927 -0.1659
  437TMC3    C1 6563   3.193   1.338  12.791 -0.3280  0.3268  0.0633
  437TMC3    C2 6564   3.085   1.354  12.873 -0.4885  0.4340 -0.2066
  437TMC3    C3 6565   3.043   1.485  12.890 -0.2249 -0.8104 -0.1932
  437TMC3    C4 6566   3.261   1.435  12.737  0.1279 -1.0997  1.0987
  437TMC3    C5 6567   3.219   1.567  12.765 -0.0495 -0.9091 -0.6607
  437TMC3    C6 6568   3.116   1.591  12.846 -0.3020  0.0148  0.2711
  437TMC3     C 6569   3.258   1.205  12.807  0.3280  0.1544  0.3594
  437TMC3     O 6570   3.223   1.139  12.901 -0.1001  0.1474  0.0737
  437TMC3     H 6571   3.024   1.269  12.905  0.5739 -0.6665 -1.1151
  437TMC3    H1 6572   3.338   1.415  12.663  0.6031  2.7779  0.5055
  437TMC3    H2 6573   3.081   1.692  12.864 -0.7432 -0.0419 -0.2635
  437TMC3    C7 6574   3.280   1.672  12.685  0.7209 -0.0941  0.1601
  437TMC3    C8 6575   2.906   1.526  12.928 -0.0451  0.3738  0.5839
  437TMC3    O1 6576   3.209   1.753  12.627  0.2889  0.5361  0.1958
  437TMC3    O2 6577   2.856   1.633  12.896  0.0458  0.3864  0.2319
  438MPD2     C 6578   1.867   2.520  16.659  0.3975 -0.9234  0.2834
  438MPD2    C1 6579   1.794   2.404  16.666  0.4685 -0.3742  0.0286
  438MPD2    C2 6580   1.718   2.379  16.777 -0.8436 -0.0943  0.1064
  438MPD2    C3 6581   1.728   2.452  16.893 -0.5765 -0.2796  0.0729
  438MPD2    C4 6582   1.802   2.564  16.885 -0.3061 -0.1089  0.8115
  438MPD2    C5 6583   1.876   2.597  16.775  0.3752 -0.4688 -0.2703
  438MPD2     H 6584   1.659   2.288  16.776 -1.4485  0.3015 -0.2090
  438MPD2    H1 6585   1.794   2.633  16.969  2.4632  0.9220  0.2215
  438MPD2    H2 6586   1.919   2.545  16.568  0.6982  1.5814  1.1229
  438MPD2    H3 6587   1.929   2.691  16.768 -0.4559 -0.0364 -0.6997
  438MPD2     N 6588   1.641   2.434  17.010  0.1733  0.1283  0.1665
  438MPD2    H5 6589   1.668   2.497  17.086 -1.1986 -0.1699  0.8949
  438MPD2    N1 6590   1.778   2.310  16.562  0.3939  0.1007 -0.1554
  438MPD2    H7 6591   1.721   2.227  16.580 -1.4428  1.2398 -0.7549
  439TMC3    C1 6592   1.796   2.179  16.372  0.4524  0.2764 -0.1213
  439TMC3    C2 6593   1.814   2.178  16.236  0.0883 -0.0644  0.4710
  439TMC3    C3 6594   1.862   2.059  16.183 -0.4485 -0.3994 -0.0144
  439TMC3    C4 6595   1.814   2.068  16.461  0.0680  0.3356 -0.1157
  439TMC3    C5 6596   1.849   1.954  16.400  0.5851  0.1218  0.1519
  439TMC3    C6 6597   1.866   1.948  16.263 -0.2067 -0.4902 -0.6606
  439TMC3     C 6598   1.831   2.303  16.434 -0.7243  0.0366  0.0267
  439TMC3     O 6599   1.891   2.396  16.378  0.2556 -0.1321  0.1292
  439TMC3     H 6600   1.805   2.274  16.187  2.7982  0.2707  0.6568
  439TMC3    H1 6601   1.797   2.074  16.567  1.4429  0.5278  0.0935
  439TMC3    H2 6602   1.888   1.855  16.213 -0.0742 -1.3320  0.9848
  439TMC3    C7 6603   1.900   1.855  16.487  0.4793 -0.4589  0.0386
  439TMC3    C8 6604   1.854   2.028  16.042  0.3232 -0.1006  0.0220
  439TMC3    O1 6605   1.875   1.871  16.607 -0.8290 -0.2694 -0.1374
  439TMC3    O2 6606   1.860   1.911  16.021 -0.8153  0.3336 -0.3867
  440MPD2     C 6607   0.441   2.596  14.801  0.2090  0.1910 -0.6634
  440MPD2    C1 6608   0.447   2.650  14.928  0.7912 -0.1522  0.3096
  440MPD2    C2 6609   0.556   2.721  14.976  0.3895 -0.4484  0.8124
  440MPD2    C3 6610   0.672   2.722  14.897 -0.0314 -0.1682 -0.9204
  440MPD2    C4 6611   0.666   2.659  14.773  0.2727  0.0744  0.3766
  440MPD2    C5 6612   0.553   2.600  14.719 -0.1305  0.1074  0.0404
  440MPD2     H 6613   0.562   2.782  15.065 -3.0255 -0.5232  1.0858
  440MPD2    H1 6614   0.759   2.657  14.716 -0.4772  2.2626 -0.9393
  440MPD2    H2 6615   0.358   2.534  14.769 -1.6706  2.3838 -0.0455
  440MPD2    H3 6616   0.543   2.549  14.624 -3.1019  0.6178  0.0584
  440MPD2     N 6617   0.798   2.745  14.948  0.6304  0.2451 -0.6248
  440MPD2    H5 6618   0.877   2.724  14.887  2.1004 -0.0402  1.3800
  440MPD2    N1 6619   0.342   2.641  15.021 -0.3930  0.2422  0.1219
  440MPD2    H7 6620   0.340   2.692  15.109 -1.9108 -2.1454  1.5031
  441TMC3    C1 6621   0.966   2.777  15.104 -0.7725 -0.2997  0.2526
  441TMC3    C2 6622   0.999   2.882  15.185 -0.5483 -0.1885  0.8583
  441TMC3    C3 6623   1.046   2.859  15.309  0.0756 -0.3148 -0.3403
  441TMC3    C4 6624   1.000   2.653  15.150 -0.9668  0.3337  0.0107
  441TMC3    C5 6625   1.057   2.634  15.269  0.0370  0.0966 -0.1953
  441TMC3    C6 6626   1.074   2.734  15.357 -0.0156  0.3012 -0.6521
  441TMC3     C 6627   0.826   2.792  15.077 -0.0471 -0.2114  0.0342
  441TMC3     O 6628   0.755   2.837  15.162 -0.5207 -0.2299  0.1403
  441TMC3     H 6629   0.984   2.982  15.146 -2.3828 -0.5423  0.6467
  441TMC3    H1 6630   0.996   2.564  15.089  1.3549  0.0552  0.2428
  441TMC3    H2 6631   1.119   2.731  15.456 -2.2719  0.6417  0.4056
  441TMC3    C7 6632   0.997   2.508  15.321  0.3283  0.8256 -0.2700
  441TMC3    C8 6633   1.019   2.973  15.404  0.4976 -1.1511 -0.7120
  441TMC3    O1 6634   0.894   2.472  15.261 -0.7460 -0.2047 -0.5990
  441TMC3    O2 6635   1.099   3.005  15.491  0.1536  0.5544 -0.0517
  442MPD2     C 6636   3.354   3.078  16.244 -0.3057  0.0920 -0.8228
  442MPD2    C1 6637   3.240   3.022  16.289  0.4208  0.1754 -0.4324
  442MPD2    C2 6638   3.197   2.901  16.230 -0.2165  0.0964  0.2270
  442MPD2    C3 6639   3.266   2.845  16.125 -0.4874  0.3473 -0.5623
  442MPD2    C4 6640   3.388   2.903  16.089 -0.1412 -0.5895 -0.0749
  442MPD2    C5 6641   3.426   3.023  16.147 -0.1582  0.1053  0.0766
  442MPD2     H 6642   3.098   2.861  16.247 -0.3707  0.8058  1.0582
  442MPD2    H1 6643   3.447   2.856  16.011 -0.3945 -3.9248  1.7286
  442MPD2    H2 6644   3.388   3.167  16.294  0.5687 -1.6179  1.6338
  442MPD2    H3 6645   3.518   3.072  16.119 -0.8182  0.8510 -0.7963
  442MPD2     N 6646   3.225   2.727  16.052  0.1501 -0.3423 -0.4968
  442MPD2    H5 6647   3.286   2.705  15.974  0.0752 -1.5794 -0.2028
  442MPD2    N1 6648   3.153   3.085  16.376 -0.4978 -0.0232  0.0976
  442MPD2    H7 6649   3.066   3.039  16.399 -1.8632  1.4216 -2.3069
  443TMC3    C1 6650   3.063   3.240  16.521 -0.2073  0.2629 -0.2243
  443TMC3    C2 6651   2.971   3.335  16.492  0.1137 -0.3145 -0.0487
  443TMC3    C3 6652   2.845   3.330  16.567 -0.4229  0.0322  0.8818
  443TMC3    C4 6653   3.037   3.150  16.621  0.6365  0.1380  0.0313
  443TMC3    C5 6654   2.923   3.155  16.697  1.1612 -0.1252  0.0157
  443TMC3    C6 6655   2.818   3.231  16.654 -0.7281 -0.2941  0.0952
  443TMC3     C 6656   3.161   3.213  16.422  0.1931 -0.2201 -0.3524
  443TMC3     O 6657   3.229   3.305  16.389  0.2401 -0.3214  0.8671
  443TMC3     H 6658   2.997   3.419  16.429 -1.1738  0.1220 -0.0086
  443TMC3    H1 6659   3.089   3.056  16.632  0.6528 -0.0742 -1.9925
  443TMC3    H2 6660   2.723   3.219  16.704 -0.8644 -1.0596 -0.3467
  443TMC3    C7 6661   2.882   3.038  16.774  0.4516 -0.8440  0.6923
  443TMC3    C8 6662   2.735   3.424  16.538 -0.1972  0.3733  0.5846
  443TMC3    O1 6663   2.941   2.932  16.766  0.3141  0.5956  0.4459
  443TMC3    O2 6664   2.697   3.472  16.642 -0.0028  0.6630 -0.5850
  444MPD2     C 6665   3.230   2.625  16.495  0.2690  0.3427  0.4439
  444MPD2    C1 6666   3.191   2.503  16.546  0.0438  0.0948  0.4163
  444MPD2    C2 6667   3.224   2.392  16.475  0.5658 -0.4313 -0.5250
  444MPD2    C3 6668   3.314   2.400  16.371  0.0007 -0.5154 -0.0696
  444MPD2    C4 6669   3.360   2.521  16.324  0.0998 -1.1876 -0.0780
  444MPD2    C5 6670   3.308   2.637  16.387  0.9368  0.1085  0.8825
  444MPD2     H 6671   3.191   2.293  16.505 -1.4591 -0.2910 -2.2844
  444MPD2    H1 6672   3.433   2.532  16.245  1.9130 -0.2261  1.7269
  444MPD2    H2 6673   3.197   2.719  16.538 -0.4283 -1.0742  3.0117
  444MPD2    H3 6674   3.347   2.734  16.360 -1.5403  0.5359 -1.1169
  444MPD2     N 6675   3.352   2.282  16.311  0.1717  0.1138 -0.2883
  444MPD2    H5 6676   3.304   2.196  16.335 -0.6729  0.2060 -1.6446
  444MPD2    N1 6677   3.117   2.500  16.670 -0.2357 -0.4064 -0.5159
  444MPD2    H7 6678   3.064   2.414  16.684 -1.9909  1.2750  3.1123
  445TMC3    C1 6679   3.473   2.136  16.186 -0.8687  0.4156  0.3124
  445TMC3    C2 6680   3.363   2.050  16.174 -0.3615 -0.2908  0.0002
  445TMC3    C3 6681   3.368   1.915  16.165  0.1996  1.6308  0.1718
  445TMC3    C4 6682   3.593   2.077  16.181  0.0869  0.3105 -0.2109
  445TMC3    C5 6683   3.602   1.940  16.186  0.1549 -0.0040 -0.0548
  445TMC3    C6 6684   3.494   1.855  16.178  0.4741 -0.5739  0.7244
  445TMC3     C 6685   3.458   2.270  16.226 -0.3991  0.3377  0.2282
  445TMC3     O 6686   3.553   2.345  16.213 -0.0700  0.5152 -0.7829
  445TMC3     H 6687   3.265   2.089  16.148 -1.6431 -3.0683  0.6657
  445TMC3    H1 6688   3.678   2.144  16.168  0.3003  0.3016  1.1781
  445TMC3    H2 6689   3.503   1.749  16.159 -1.8242 -1.3961  4.0843
  445TMC3    C7 6690   3.736   1.897  16.148 -0.5056 -0.7568  0.0638
  445TMC3    C8 6691   3.262   1.845  16.096  0.1975  0.3441  0.5191
  445TMC3    O1 6692   3.832   1.969  16.174 -0.0037 -0.1085  0.2670
  445TMC3    O2 6693   3.182   1.914  16.034 -0.4851 -0.5160  0.5000
  446MPD2     C 6694   2.889   4.063  10.531 -0.0988 -0.1844  0.3146
  446MPD2    C1 6695   2.793   4.145  10.590  1.0990 -0.6817 -0.3086
  446MPD2    C2 6696   2.823   4.203  10.711 -0.8898  0.0273  0.4837
  446MPD2    C3 6697   2.948   4.206  10.758  0.1631  0.0752 -0.0993
  446MPD2    C4 6698   3.043   4.133  10.698  0.0856 -0.2189 -0.3263
  446MPD2    C5 6699   3.012   4.061  10.591  0.6016  0.1521 -0.4298
  446MPD2     H 6700   2.763   4.284  10.751  0.9244  1.5137  0.1795
  446MPD2    H1 6701   3.147   4.142  10.728 -0.1208 -2.3470  1.0039
  446MPD2    H2 6702   2.866   4.011  10.439  0.5863 -0.4097  0.2768
  446MPD2    H3 6703   3.093   4.018  10.533  1.1691 -1.1229  1.2865
  446MPD2     N 6704   2.992   4.302  10.849 -0.6251  0.3408 -0.0993
  446MPD2    H5 6705   2.925   4.368  10.887 -0.7641  0.4299 -0.4970
  446MPD2    N1 6706   2.663   4.174  10.540  0.0012 -0.5895  0.3417
  446MPD2    H7 6707   2.591   4.223  10.593  1.5870 -0.3912  2.2993
  447TMC3    C1 6708   3.149   4.443  10.960 -0.3621  0.2901 -0.4624
  447TMC3    C2 6709   3.118   4.535  10.859 -0.1499  0.1486 -0.3274
  447TMC3    C3 6710   3.224   4.616  10.813  0.2627 -0.6856 -0.1770
  447TMC3    C4 6711   3.268   4.444  11.027  0.3257 -0.4328  0.5106
  447TMC3    C5 6712   3.367   4.527  10.984 -0.0674 -0.1086 -0.1186
  447TMC3    C6 6713   3.348   4.609  10.872 -0.2986  0.5429  0.1271
  447TMC3     C 6714   3.108   4.304  10.929 -0.7544 -0.2840 -0.1678
  447TMC3     O 6715   3.180   4.208  10.968 -0.0799 -0.4144 -0.4605
  447TMC3     H 6716   3.020   4.545  10.815 -0.0165  0.7092 -0.4941
  447TMC3    H1 6717   3.289   4.369  11.103  0.3090 -1.9325 -0.9491
  447TMC3    H2 6718   3.423   4.679  10.838  0.5080 -0.5750 -0.4085
  447TMC3    C7 6719   3.505   4.476  11.008  0.1473  0.4699  0.5736
  447TMC3    C8 6720   3.207   4.688  10.689  0.6819  0.1513  0.0287
  447TMC3    O1 6721   3.579   4.477  10.914  0.4151  0.2213 -0.1457
  447TMC3    O2 6722   3.090   4.714  10.656 -0.1406 -0.1111  0.2677
  448TMC3    C1 6723   2.032   3.518  16.969  0.1013 -0.9940 -0.0896
  448TMC3    C2 6724   2.106   3.490  16.854  0.1010 -0.1532  0.3030
  448TMC3    C3 6725   2.241   3.498  16.865  0.5691 -0.6350 -0.8400
  448TMC3    C4 6726   2.085   3.564  17.086  0.4031 -0.7213  0.0178
  448TMC3    C5 6727   2.220   3.570  17.092 -0.3244  0.7399 -0.1363
  448TMC3    C6 6728   2.301   3.534  16.987  0.4683  0.5747  0.2149
  448TMC3     C 6729   1.889   3.506  16.960  0.1210  0.1012  0.4544
  448TMC3     O 6730   1.845   3.576  16.870 -0.2534  0.2530  0.2601
  448TMC3     H 6731   2.061   3.461  16.759 -1.9105  1.9897  0.5964
  448TMC3    H1 6732   2.023   3.596  17.169 -0.5515  1.7008 -1.6303
  448TMC3    H2 6733   2.408   3.536  16.997  0.4415  0.7015  0.4713
  448TMC3    C7 6734   2.288   3.610  17.215  0.2657 -0.6055  0.3281
  448TMC3    C8 6735   2.315   3.414  16.774  1.2643 -0.2916 -0.3379
  448TMC3    O1 6736   2.387   3.677  17.190  0.2810 -0.3056 -0.2079
  448TMC3    O2 6737   2.390   3.332  16.830 -0.4260  0.0611  0.1856
  449MPD2     C 6738   2.951   2.078  13.864 -0.0153 -0.1942 -0.0399
  449MPD2    C1 6739   2.851   2.175  13.854  0.0166  0.7072 -0.8228
  449MPD2    C2 6740   2.725   2.147  13.918 -0.5851 -0.0719 -0.1063
  449MPD2    C3 6741   2.707   2.026  13.972  0.2592 -0.7257  0.0643
  449MPD2    C4 6742   2.809   1.933  13.983  0.5183 -0.0534  0.1735
  449MPD2    C5 6743   2.926   1.961  13.929  0.2067 -0.8419 -0.1756
  449MPD2     H 6744   2.643   2.218  13.926  0.2738  1.0675 -1.4308
  449MPD2    H1 6745   2.797   1.835  14.029  2.4574  0.1218  1.0557
  449MPD2    H2 6746   3.048   2.091  13.817  0.3193 -1.2721  0.3469
  449MPD2    H3 6747   2.997   1.882  13.951  0.3895 -0.6012  0.1094
  449MPD2     N 6748   2.574   1.995  13.999  0.2618  0.1624 -0.2684
  449MPD2    H5 6749   2.505   2.062  13.965 -0.4045 -0.1479  0.4779
  449MPD2    N1 6750   2.869   2.295  13.781  0.2188 -0.6445 -0.3179
  449MPD2    H7 6751   2.790   2.359  13.784  1.0845  0.2976  2.9595
  450TMC3    C1 6752   2.944   2.466  13.642  0.1194  0.7031 -0.5295
  450TMC3    C2 6753   2.941   2.470  13.504 -0.0807 -0.1665 -0.0794
  450TMC3    C3 6754   2.840   2.540  13.447 -0.0811 -0.1249 -0.1478
  450TMC3    C4 6755   2.854   2.525  13.719  1.0093 -0.7684  1.0215
  450TMC3    C5 6756   2.745   2.587  13.653 -0.0560  0.0807  0.6925
  450TMC3    C6 6757   2.738   2.592  13.515  0.1220 -0.2818 -0.0953
  450TMC3     C 6758   2.981   2.339  13.710  0.1641 -0.8520 -0.3130
  450TMC3     O 6759   3.081   2.274  13.685 -0.1442 -0.4175 -0.3219
  450TMC3     H 6760   3.032   2.438  13.454 -1.7856 -2.3756 -1.7728
  450TMC3    H1 6761   2.866   2.524  13.827  1.3367  0.2739  0.9924
  450TMC3    H2 6762   2.653   2.642  13.470 -1.7999 -0.0007  3.8409
  450TMC3    C7 6763   2.621   2.551  13.721  0.7232  0.3231  0.0057
  450TMC3    C8 6764   2.854   2.593  13.311 -0.2702 -0.0430  0.9779
  450TMC3    O1 6765   2.639   2.444  13.778 -0.0037 -0.6170 -0.7130
  450TMC3    O2 6766   2.774   2.675  13.274  0.6724  0.0145  0.1085
  451MPD2     C 6767   4.300   0.432   0.770 -0.5216 -0.0383  0.4600
  451MPD2    C1 6768   4.363   0.539   0.707 -0.0307 -0.2095 -0.0996
  451MPD2    C2 6769   4.472   0.508   0.632  0.8928 -0.4695 -0.5717
  451MPD2    C3 6770   4.510   0.373   0.610 -0.2621 -0.0917  0.1396
  451MPD2    C4 6771   4.452   0.280   0.697 -0.3673 -0.0025  0.1175
  451MPD2    C5 6772   4.342   0.308   0.761  0.0608  0.2781 -0.2544
  451MPD2     H 6773   4.531   0.589   0.592  1.6303 -0.4008  0.6363
  451MPD2    H1 6774   4.490   0.179   0.691 -0.0089  0.0223  2.0239
  451MPD2    H2 6775   4.209   0.448   0.827  0.9552  2.1572  2.2319
  451MPD2    H3 6776   4.274   0.235   0.803  0.7140  0.9579  1.9861
  451MPD2     N 6777   4.618   0.343   0.529  0.1151  0.3369 -0.5529
  451MPD2    H5 6778   4.645   0.245   0.519 -1.2968 -0.0906 -0.2172
  451MPD2    N1 6779   4.293   0.663   0.713  0.5322  0.4510  0.2722
  451MPD2    H7 6780   4.209   0.669   0.770 -0.3501  2.8735 -1.2708
  452TMC3    C1 6781   4.625   0.532   0.376  0.0462 -0.1507  0.0388
  452TMC3    C2 6782   4.490   0.509   0.345 -0.1261 -0.1993 -0.6799
  452TMC3    C3 6783   4.411   0.614   0.305 -0.0524 -0.5169  0.2730
  452TMC3    C4 6784   4.669   0.659   0.374  0.3926  0.3614 -1.2361
  452TMC3    C5 6785   4.592   0.758   0.320  0.3132 -0.4234  0.1078
  452TMC3    C6 6786   4.467   0.738   0.283 -0.1800  0.0687  0.2899
  452TMC3     C 6787   4.697   0.432   0.457  0.3781  0.8846  0.8063
  452TMC3     O 6788   0.072   0.420   0.421 -0.1207 -0.8896 -0.6087
  452TMC3     H 6789   4.453   0.410   0.366  3.8414 -1.4625  0.2906
  452TMC3    H1 6790   0.020   0.685   0.422  0.1748 -0.3556 -0.4194
  452TMC3    H2 6791   4.412   0.822   0.243 -0.4192 -1.5838 -2.9250
  452TMC3    C7 6792   4.643   0.895   0.320  0.7456 -0.3878 -0.0391
  452TMC3    C8 6793   4.277   0.620   0.352 -0.7105  0.0171 -0.1232
  452TMC3    O1 6794   4.568   0.992   0.326 -0.3276 -0.3134  0.3871
  452TMC3    O2 6795   4.225   0.728   0.333  0.0180  0.2266  0.1005
  453TMC3    C1 6796   0.472   3.114  11.917  0.6446 -0.8592  0.8921
  453TMC3    C2 6797   0.450   2.982  11.885 -0.0108 -0.2057  0.3562
  453TMC3    C3 6798   0.388   2.955  11.768  0.3780  0.0844 -0.0103
  453TMC3    C4 6799   0.423   3.205  11.831  0.1317 -1.0235 -0.0119
  453TMC3    C5 6800   0.377   3.176  11.713  0.3618 -0.2034  0.5558
  453TMC3    C6 6801   0.346   3.049  11.677 -0.2891  0.7582  0.2343
  453TMC3     C 6802   0.583   3.155  11.993  1.0350  0.3321  0.6114
  453TMC3     O 6803   0.592   3.271  12.016 -0.0339  0.8406  0.0849
  453TMC3     H 6804   0.465   2.903  11.958  0.4317 -0.7010 -0.2720
  453TMC3    H1 6805   0.441   3.309  11.856 -0.7231 -0.7541 -0.5189
  453TMC3    H2 6806   0.297   3.019  11.585 -2.0779 -0.9528  1.7548
  453TMC3    C7 6807   0.372   3.268  11.609  0.4434 -0.6461 -0.0373
  453TMC3    C8 6808   0.356   2.813  11.750 -0.4027  0.1154 -0.1319
  453TMC3    O1 6809   0.282   3.244  11.525 -0.2382 -0.6203  0.7378
  453TMC3    O2 6810   0.447   2.732  11.755  0.1320  0.3900 -0.3042
  454MPD2     C 6811   4.107   2.137  15.937 -0.2585 -0.1872 -0.2814
  454MPD2    C1 6812   4.079   2.200  15.825  0.9539 -0.4719  0.1885
  454MPD2    C2 6813   4.073   2.337  15.810 -0.4003 -0.2505  0.2028
  454MPD2    C3 6814   4.084   2.414  15.926  0.6131 -0.6507  0.3691
  454MPD2    C4 6815   4.124   2.349  16.038 -0.1976 -0.3905  0.1469
  454MPD2    C5 6816   4.130   2.212  16.046  0.3182  0.1308 -0.0253
  454MPD2     H 6817   4.027   2.373  15.719 -0.3521  0.9591  0.6634
  454MPD2    H1 6818   4.134   2.407  16.129  0.9087 -0.3633  0.0092
  454MPD2    H2 6819   4.095   2.031  15.956 -1.5108  0.0717  0.3918
  454MPD2    H3 6820   4.159   2.169  16.141  2.2934 -2.8518 -1.9683
  454MPD2     N 6821   4.030   2.540  15.942  0.3805 -0.0432  0.2600
  454MPD2    H5 6822   4.045   2.566  16.039  1.2328  0.3411  0.0194
  454MPD2    N1 6823   4.049   2.127  15.704 -0.2083  0.1091 -0.0968
  454MPD2    H7 6824   4.025   2.188  15.626  0.4823  1.0194  0.4053
  455TMC3    C1 6825   3.839   2.687  15.899 -0.7510  0.3672  0.0620
  455TMC3    C2 6826   3.843   2.707  16.034  0.0347  0.5741 -0.3252
  455TMC3    C3 6827   3.733   2.676  16.109 -0.3145 -0.5143 -0.4816
  455TMC3    C4 6828   3.730   2.630  15.848 -0.3150 -0.9505 -0.1857
  455TMC3    C5 6829   3.621   2.606  15.919 -0.3188  0.5315  0.3656
  455TMC3    C6 6830   3.620   2.627  16.054 -0.4106  0.0763  0.4575
  455TMC3     C 6831   3.959   2.616  15.851  0.0970 -0.0669  0.0499
  455TMC3     O 6832   3.954   2.592  15.731  0.1640  0.5885 -0.4749
  455TMC3     H 6833   3.936   2.718  16.090  1.4290 -2.6279 -2.0413
  455TMC3    H1 6834   3.721   2.612  15.741 -0.9181  1.4428 -0.5465
  455TMC3    H2 6835   3.530   2.597  16.106 -0.2602 -0.7375  0.2420
  455TMC3    C7 6836   3.555   2.476  15.889  0.2902  0.3241  0.2123
  455TMC3    C8 6837   3.739   2.683  16.251  0.4289 -1.0746  0.0564
  455TMC3    O1 6838   3.438   2.457  15.918  0.3018  0.1261  0.0007
  455TMC3    O2 6839   3.807   2.772  16.295  1.0382  0.1300  0.0047
  456MPD2     C 6840   2.227   2.475  15.815  0.2267 -0.1858  0.0828
  456MPD2    C1 6841   2.208   2.392  15.920 -0.4348  0.4807 -0.3536
  456MPD2    C2 6842   2.233   2.437  16.044 -0.0915 -0.0474 -0.3532
  456MPD2    C3 6843   2.279   2.564  16.073 -1.1044  0.2254  0.1390
  456MPD2    C4 6844   2.297   2.646  15.962  0.2179  0.3650 -0.2681
  456MPD2    C5 6845   2.274   2.604  15.836 -0.3730  0.2263 -0.1535
  456MPD2     H 6846   2.219   2.374  16.131 -0.6571  0.2115 -0.2549
  456MPD2    H1 6847   2.320   2.751  15.978  1.6541  0.1313 -0.7894
  456MPD2    H2 6848   2.215   2.443  15.712 -1.5014  0.1999  0.1670
  456MPD2    H3 6849   2.285   2.662  15.745  1.0163 -0.1433 -0.2265
  456MPD2     N 6850   2.313   2.594  16.210  0.1148 -0.0299 -0.5173
  456MPD2    H5 6851   2.285   2.524  16.278  2.9423  0.1455  0.8452
  456MPD2    N1 6852   2.184   2.251  15.898 -0.2293 -0.4182  0.1458
  456MPD2    H7 6853   2.182   2.224  15.800  0.9516  0.8817 -0.2315
  457TMC3    C1 6854   2.416   2.723  16.384 -0.1186  0.4330  0.1403
  457TMC3    C2 6855   2.505   2.814  16.408  0.1354  0.1739  0.5928
  457TMC3    C3 6856   2.542   2.838  16.542  0.2978 -0.6933 -0.3383
  457TMC3    C4 6857   2.348   2.659  16.483  0.1457 -0.6672  0.2480
  457TMC3    C5 6858   2.390   2.679  16.608 -0.2900 -0.3462 -0.4694
  457TMC3    C6 6859   2.492   2.765  16.640 -0.0263  0.2151 -0.1117
  457TMC3     C 6860   2.387   2.705  16.243 -0.8832 -0.0080 -0.2487
  457TMC3     O 6861   2.426   2.796  16.170 -0.1698  0.1117  0.0150
  457TMC3     H 6862   2.569   2.852  16.329  0.3884  0.9836  1.1902
  457TMC3    H1 6863   2.259   2.600  16.462  0.4675 -1.6153  1.5106
  457TMC3    H2 6864   2.524   2.789  16.741  1.5134 -0.9677 -0.3236
  457TMC3    C7 6865   2.319   2.616  16.717  0.1417 -0.4391  0.3328
  457TMC3    C8 6866   2.536   2.979  16.575  0.0534 -0.2467 -0.0475
  457TMC3    O1 6867   2.344   2.651  16.831  0.4302  1.0241 -0.7640
  457TMC3    O2 6868   2.492   3.005  16.684  0.0774  0.5937  0.0372
  458MPD2     C 6869   3.713   1.869  12.477 -0.6220  0.1015 -0.4118
  458MPD2    C1 6870   3.741   1.767  12.563 -0.9695  0.1004  0.0570
  458MPD2    C2 6871   3.645   1.690  12.625  0.4816 -0.0734  0.3115
  458MPD2    C3 6872   3.513   1.727  12.613  0.1296 -0.0575  0.7739
  458MPD2    C4 6873   3.481   1.828  12.527 -0.2109 -0.3736 -0.0173
  458MPD2    C5 6874   3.578   1.896  12.463  0.3456  0.3019 -0.0080
  458MPD2     H 6875   3.670   1.604  12.687 -1.1851 -1.5680 -1.0877
  458MPD2    H1 6876   3.379   1.865  12.514 -0.7391 -1.5774  0.7120
  458MPD2    H2 6877   3.793   1.919  12.423 -0.4983  1.1687  0.7571
  458MPD2    H3 6878   3.549   1.969  12.388  1.8384  0.6773 -0.2191
  458MPD2     N 6879   3.415   1.655  12.693  0.2531 -0.4612 -0.3017
  458MPD2    H5 6880   3.453   1.589  12.759  0.8949  1.0308  0.8271
  458MPD2    N1 6881   3.884   1.733  12.564  0.2862  0.1724  0.7393
  458MPD2    H7 6882   3.937   1.779  12.491  0.5062 -0.3872  0.5434
  459TMC3    C1 6883   4.074   1.610  12.613 -0.1826  0.6265  0.4643
  459TMC3    C2 6884   4.150   1.714  12.564  0.0784 -0.3021 -0.2778
  459TMC3    C3 6885   4.280   1.726  12.601  0.2406 -0.0531  0.6501
  459TMC3    C4 6886   4.130   1.505  12.689 -0.2296  0.0470  0.2863
  459TMC3    C5 6887   4.266   1.523  12.724 -0.0189  0.3070  0.3593
  459TMC3    C6 6888   4.342   1.628  12.680 -0.6471 -0.1047  0.3559
  459TMC3     C 6889   3.938   1.638  12.646 -0.3767 -0.3717 -0.5497
  459TMC3     O 6890   3.888   1.561  12.725  0.4496  0.0542  0.5368
  459TMC3     H 6891   4.102   1.795  12.510 -1.1457 -1.4689 -0.9453
  459TMC3    H1 6892   4.073   1.425  12.734  1.9125 -1.0998  0.9514
  459TMC3    H2 6893   4.449   1.621  12.701 -0.5145 -0.7957 -0.5442
  459TMC3    C7 6894   4.309   1.446  12.841 -0.1010  0.5563  0.1121
  459TMC3    C8 6895   4.382   1.791  12.522  0.2569 -0.0511  1.1085
  459TMC3    O1 6896   4.234   1.351  12.871  0.4657 -0.4224  0.4558
  459TMC3    O2 6897   4.487   1.809  12.586 -0.9745 -0.3596  0.5308
  460MPD2     C 6898   3.457   0.037  10.435 -0.1375 -0.3866 -0.0553
  460MPD2    C1 6899   3.331   0.005  10.494 -0.5143  0.8705  0.1504
  460MPD2    C2 6900   3.223   0.004  10.409 -0.0166  0.0701  0.5766
  460MPD2    C3 6901   3.239   0.042  10.273  0.1144  0.6160  0.1518
  460MPD2    C4 6902   3.360   0.084  10.224 -0.1070  0.1714  0.3327
  460MPD2    C5 6903   3.467   0.076  10.306 -0.9346  0.1597 -0.0684
  460MPD2     H 6904   3.120   4.729  10.439 -0.1030  2.5987  1.7213
  460MPD2    H1 6905   3.378   0.126  10.127  0.6448  3.0632  1.7333
  460MPD2    H2 6906   3.552   0.025  10.486 -0.6948 -0.9507  0.8407
  460MPD2    H3 6907   3.567   0.103  10.274 -1.5728  0.4675 -1.8447
  460MPD2     N 6908   3.124   0.052  10.195  0.3174  0.1565  0.6981
  460MPD2    H5 6909   3.033   0.038  10.239  0.1497  2.3630  1.0648
  460MPD2    N1 6910   3.324   4.704  10.627 -0.1922 -0.0667 -0.5279
  460MPD2    H7 6911   3.408   4.660  10.664  0.2361  0.8750 -0.3727
  461TMC3    C1 6912   2.999   0.044   9.999  0.2658 -0.2280  0.1911
  461TMC3    C2 6913   2.973   4.683   9.912 -0.1069  0.3227 -0.1519
  461TMC3    C3 6914   2.844   4.654   9.885 -0.3944 -0.7626  0.0713
  461TMC3    C4 6915   2.901   0.123  10.047 -0.1349  0.3671  0.3387
  461TMC3    C5 6916   2.775   0.085  10.023  0.2201 -0.1778 -0.3555
  461TMC3    C6 6917   2.748   4.726   9.940 -0.3401  0.2119 -0.3228
  461TMC3     C 6918   3.131   0.052  10.057  0.1805  1.6048  0.4056
  461TMC3     O 6919   3.225   0.032   9.978  0.0329  0.8576  0.4431
  461TMC3     H 6920   3.054   4.613   9.891 -0.7931 -1.5624  3.5023
  461TMC3    H1 6921   2.916   0.202  10.119 -1.9487  3.2610 -2.4947
  461TMC3    H2 6922   2.646   4.697   9.919 -0.1885 -0.0906 -0.6359
  461TMC3    C7 6923   2.663   0.181  10.045 -0.4954 -0.3368  0.0064
  461TMC3    C8 6924   2.805   4.541   9.807  0.5409 -0.0455 -0.0831
  461TMC3    O1 6925   2.554   0.148  10.001 -0.1895 -0.0025  0.4642
  461TMC3    O2 6926   2.688   4.500   9.820 -0.6051 -0.1881  0.3450
  462TMC3    C1 6927   3.829   0.878  17.550  0.3267  0.1216 -0.8662
  462TMC3    C2 6928   3.953   0.927  17.589  0.3471  0.6629  0.2669
  462TMC3    C3 6929   4.034   0.827  17.637  0.9227 -0.0533 -0.3129
  462TMC3    C4 6930   3.788   0.746  17.547  0.0936  0.5341  0.2888
  462TMC3    C5 6931   3.877   0.649  17.593  0.0370  0.2661  0.1201
  462TMC3    C6 6932   4.005   0.685  17.632 -0.1227 -0.1332  0.1708
  462TMC3     C 6933   3.724   0.965  17.544 -0.4609 -0.5676  0.3881
  462TMC3     O 6934   3.628   0.936  17.471 -0.1926 -0.5916 -0.2867
  462TMC3     H 6935   3.991   1.028  17.584 -1.0727  1.2325  0.9106
  462TMC3    H1 6936   3.684   0.724  17.531  0.1674  1.5291 -1.6109
  462TMC3    H2 6937   4.063   0.617  17.694 -0.9705 -0.7063  0.3202
  462TMC3    C7 6938   3.826   0.512  17.618 -0.1252  0.3741 -0.5388
  462TMC3    C8 6939   4.170   0.867  17.669 -0.0627 -0.5416  0.1981
  462TMC3    O1 6940   3.704   0.503  17.620 -0.0685  0.3437 -0.0777
  462TMC3    O2 6941   4.180   0.986  17.695 -0.1765  0.1125  0.1868
  463MPD2     C 6942   4.473   3.361   1.205 -0.2936 -0.6672 -0.2352
  463MPD2    C1 6943   4.406   3.442   1.288 -0.5811 -0.1706  0.6259
  463MPD2    C2 6944   4.454   3.569   1.317 -0.0891 -0.1616  0.5443
  463MPD2    C3 6945   4.571   3.617   1.252 -0.5895  0.3221 -0.2329
  463MPD2    C4 6946   4.640   3.530   1.170 -0.0002 -0.7895  0.4125
  463MPD2    C5 6947   4.592   3.399   1.151 -0.1619 -0.0961 -0.1946
  463MPD2     H 6948   4.397   3.627   1.388  0.5256 -0.6716  1.4538
  463MPD2    H1 6949   4.735   3.552   1.122  0.4121 -2.1121  0.6144
  463MPD2    H2 6950   4.444   3.259   1.180  1.1671 -1.3574  0.8755
  463MPD2    H3 6951   4.643   3.341   1.075  1.1492  0.7698  0.0247
  463MPD2     N 6952   4.628   3.744   1.282  0.2553  0.0590  0.4981
  463MPD2    H5 6953   4.719   3.750   1.238  1.0193  0.8284  2.1612
  463MPD2    N1 6954   4.271   3.405   1.344  0.0977 -0.4241  0.3491
  463MPD2    H7 6955   4.226   3.455   1.419 -1.6110 -1.3395 -0.0839
  464TMC3    C1 6956   4.059   3.291   1.346  0.4145  0.9549 -0.4530
  464TMC3    C2 6957   3.995   3.403   1.406  0.3094 -0.3688 -0.0519
  464TMC3    C3 6958   3.865   3.397   1.431  0.0102 -0.7168  0.4813
  464TMC3    C4 6959   3.985   3.177   1.328  0.1938  0.1991  0.0653
  464TMC3    C5 6960   3.849   3.171   1.359 -0.0783  0.2049 -0.2073
  464TMC3    C6 6961   3.789   3.281   1.415  0.2106 -0.3149 -0.9570
  464TMC3     C 6962   4.197   3.297   1.299  0.0798 -0.2645 -0.1300
  464TMC3     O 6963   4.229   3.212   1.213 -0.7217 -0.1824 -0.3500
  464TMC3     H 6964   4.039   3.500   1.426 -0.3886  0.2995 -1.8267
  464TMC3    H1 6965   4.037   3.098   1.274  0.4737 -0.0785  0.7491
  464TMC3    H2 6966   3.688   3.273   1.453  0.6343 -0.4380  0.1683
  464TMC3    C7 6967   3.780   3.062   1.301 -0.0749 -0.2019 -0.1776
  464TMC3    C8 6968   3.800   3.522   1.448  0.6867  0.2284  0.6286
  464TMC3    O1 6969   3.854   2.966   1.273  0.6734  0.6027  0.3381
  464TMC3    O2 6970   3.856   3.625   1.406  0.2960 -0.0088 -0.5709
  465MPD2     C 6971   1.179   2.259  16.104 -0.2144  0.1386 -0.1107
  465MPD2    C1 6972   1.165   2.349  16.210 -0.2421 -0.6159  0.2555
  465MPD2    C2 6973   1.039   2.390  16.247  0.1847 -0.2176 -0.6368
  465MPD2    C3 6974   0.924   2.339  16.201  0.1319 -0.2345  0.0725
  465MPD2    C4 6975   0.936   2.238  16.110  0.2940  0.7711 -0.0140
  465MPD2    C5 6976   1.063   2.204  16.055  0.4868 -0.4535  0.2204
  465MPD2     H 6977   1.028   2.471  16.319 -2.6093 -1.6175  0.4933
  465MPD2    H1 6978   0.846   2.202  16.063  0.4188 -1.0933  1.1599
  465MPD2    H2 6979   1.272   2.217  16.067  0.2885  0.3651  0.8818
  465MPD2    H3 6980   1.069   2.124  15.982 -0.3216 -0.6748  0.4016
  465MPD2     N 6981   0.802   2.402  16.237 -0.0521 -0.7259  0.4520
  465MPD2    H5 6982   0.801   2.495  16.279 -0.8313 -0.5518  0.0388
  465MPD2    N1 6983   1.270   2.404  16.282  0.0831  0.3211  0.5500
  465MPD2    H7 6984   1.234   2.467  16.353 -0.2572  1.5776 -0.7222
  466TMC3    C1 6985   0.345   2.451  16.331  0.3241  0.2023 -0.0041
  466TMC3    C2 6986   0.330   2.575  16.284 -0.4046 -0.0960 -0.4163
  466TMC3    C3 6987   0.446   2.630  16.230  0.6284  0.5393  0.2349
  466TMC3    C4 6988   0.462   2.380  16.307  0.7191 -0.5579  0.2504
  466TMC3    C5 6989   0.567   2.438  16.249 -0.5539 -0.4264  0.1850
  466TMC3    C6 6990   0.567   2.566  16.214 -0.0417  0.2410  0.0796
  466TMC3     C 6991   0.244   2.390  16.403 -0.1705  0.1236 -0.2845
  466TMC3     O 6992   0.260   2.280  16.453 -0.0251  0.2087  0.2535
  466TMC3     H 6993   0.235   2.628  16.290  1.0912  2.6202 -0.6555
  466TMC3    H1 6994   0.476   2.285  16.358 -0.8007 -0.4409  0.9042
  466TMC3    H2 6995   0.646   2.621  16.164  0.6992 -1.6367 -0.8039
  466TMC3    C7 6996   0.675   2.349  16.213  0.2749  0.0298  0.3133
  466TMC3    C8 6997   0.429   2.757  16.163 -0.6146 -0.1347  0.7970
  466TMC3    O1 6998   0.648   2.234  16.173 -0.0518  0.1144  0.3714
  466TMC3    O2 6999   0.505   2.789  16.073 -0.3447 -0.5484  0.3113
  467TMC3    C1 7000   1.611   1.675  13.658 -0.0206  0.1907 -0.2288
  467TMC3    C2 7001   1.539   1.785  13.648  0.9333 -0.3124 -0.4506
  467TMC3    C3 7002   1.410   1.763  13.605  0.3416 -0.0656  0.3079
  467TMC3    C4 7003   1.565   1.549  13.652  0.8833 -0.0623 -0.2537
  467TMC3    C5 7004   1.440   1.529  13.600  0.0547 -0.4486  0.3630
  467TMC3    C6 7005   1.361   1.639  13.578  0.1482 -0.5298 -0.2026
  467TMC3     C 7006   1.747   1.688  13.711 -0.0272  0.5361 -0.4124
  467TMC3     O 7007   1.799   1.598  13.774  0.1024  0.0428  0.4757
  467TMC3     H 7008   1.574   1.885  13.667  0.6457 -0.0241 -1.4728
  467TMC3    H1 7009   1.630   1.467  13.680  0.5899 -0.4951 -0.8256
  467TMC3    H2 7010   1.256   1.632  13.551  0.8303 -1.4451 -2.6329
  467TMC3    C7 7011   1.406   1.392  13.570 -0.1986  0.2909 -0.3521
  467TMC3    C8 7012   1.321   1.871  13.602  0.6309  0.1189  0.7896
  467TMC3    O1 7013   1.500   1.320  13.539  0.4890 -0.5235 -0.2793
  467TMC3    O2 7014   1.239   1.879  13.511  0.0614  0.0478 -1.0246
  468MPD2     C 7015   4.651   4.574  10.340  0.3231 -1.0991  0.1294
  468MPD2    C1 7016   0.029   4.559  10.414  0.1423 -0.4013  0.3286
  468MPD2    C2 7017   0.076   4.432  10.432  0.1149 -0.8603 -0.0061
  468MPD2    C3 7018   0.011   4.321  10.391 -0.3621 -0.2272  0.2030
  468MPD2    C4 7019   4.632   4.334  10.327 -0.1157  0.4967  0.0357
  468MPD2    C5 7020   4.584   4.458  10.304 -1.2852  0.4054 -0.3653
  468MPD2     H 7021   0.170   4.432  10.487 -0.1150  1.7309  0.4085
  468MPD2    H1 7022   4.580   4.250  10.283 -2.4020  1.1491  1.5309
  468MPD2    H2 7023   4.610   4.670  10.309  1.4058 -0.3671  0.9739
  468MPD2    H3 7024   4.487   4.466  10.257  0.5679  3.9402 -3.5675
  468MPD2     N 7025   0.070   4.194  10.393  0.0939 -0.0232 -0.5371
  468MPD2    H5 7026   0.019   4.120  10.346  1.3795 -1.0005 -0.3787
  468MPD2    N1 7027   0.106   4.662  10.473 -0.6330 -0.4829  0.4869
  468MPD2    H7 7028   0.187   4.621  10.521 -0.0958 -0.8291 -0.7260
  469TMC3    C1 7029   0.176   0.138  10.534 -0.1270 -0.8093 -0.2305
  469TMC3    C2 7030   0.308   0.110  10.525 -0.4207  0.1176 -0.4220
  469TMC3    C3 7031   0.404   0.195  10.570 -0.0302 -0.1785  0.0267
  469TMC3    C4 7032   0.140   0.259  10.586  0.1034  0.0527 -0.3015
  469TMC3    C5 7033   0.243   0.333  10.647 -0.8668  0.2872  0.2362
  469TMC3    C6 7034   0.374   0.305  10.643  0.3191  0.1449  0.0168
  469TMC3     C 7035   0.071   0.054  10.483 -1.2011  0.6580  0.1049
  469TMC3     O 7036   4.709   0.109  10.457 -0.3891 -0.8133  0.0071
  469TMC3     H 7037   0.343   0.016  10.485  0.2790  0.6615 -1.0774
  469TMC3    H1 7038   0.035   0.282  10.595 -0.0271 -0.5019 -0.3991
  469TMC3    H2 7039   0.456   0.367  10.677 -0.2471  0.2037  1.2722
  469TMC3    C7 7040   0.209   0.443  10.737 -0.1203 -0.4054  0.1035
  469TMC3    C8 7041   0.517   0.129  10.638 -0.0060 -0.2923 -0.2260
  469TMC3    O1 7042   0.304   0.513  10.762  0.0101  0.1177 -0.0392
  469TMC3    O2 7043   0.622   0.112  10.575  0.0878 -0.6675 -0.1803
  470TMC3    C1 7044   2.791   0.797   0.637  0.7595 -0.4107  0.6417
  470TMC3    C2 7045   2.867   0.905   0.617  0.0872 -0.6990  0.0137
  470TMC3    C3 7046   2.933   0.966   0.727 -0.1402 -0.2212  0.5822
  470TMC3    C4 7047   2.782   0.738   0.761 -0.2021  0.5753  0.3784
  470TMC3    C5 7048   2.838   0.810   0.866 -0.1026 -0.1347  0.0063
  470TMC3    C6 7049   2.909   0.920   0.854 -0.7096 -0.9818 -0.6690
  470TMC3     C 7050   2.705   0.731   0.534  0.4675  0.1443 -0.2978
  470TMC3     O 7051   2.625   0.646   0.578 -0.0270  0.0419 -0.0548
  470TMC3     H 7052   2.858   0.955   0.521 -0.9387 -2.0875 -0.6059
  470TMC3    H1 7053   2.715   0.654   0.774  0.3640 -0.0925 -1.0113
  470TMC3    H2 7054   2.961   0.961   0.940  0.0939 -2.1369 -0.6070
  470TMC3    C7 7055   2.805   0.767   1.003 -0.1761  0.6081  0.3110
  470TMC3    C8 7056   3.002   1.088   0.710 -0.0044  0.2420  0.3809
  470TMC3    O1 7057   2.743   0.661   1.005 -0.4096 -0.2670 -0.3608
  470TMC3    O2 7058   3.008   1.165   0.809 -0.1915 -0.1707  0.2735
  471MPD2     C 7059   3.011   1.632  16.460  0.1540 -0.4773 -0.2953
  471MPD2    C1 7060   3.050   1.502  16.491 -0.3905  0.1580 -0.0956
  471MPD2    C2 7061   3.176   1.490  16.554 -0.7773 -0.1407 -0.1471
  471MPD2    C3 7062   3.260   1.600  16.579 -0.5983  0.7728 -0.0768
  471MPD2    C4 7063   3.222   1.720  16.549 -0.6948 -0.3485 -0.2307
  471MPD2    C5 7064   3.103   1.738  16.486  0.3664  0.3418 -0.4477
  471MPD2     H 7065   3.209   1.391  16.583 -0.0526  0.3937  0.8303
  471MPD2    H1 7066   3.279   1.812  16.549 -2.0412  0.4792  0.6400
  471MPD2    H2 7067   2.910   1.654  16.430 -0.6650 -2.0353  1.2785
  471MPD2    H3 7068   3.078   1.841  16.468 -0.5345  0.1561 -0.2603
  471MPD2     N 7069   3.390   1.589  16.641 -0.8042 -0.0766  0.2127
  471MPD2    H5 7070   3.433   1.673  16.679  0.4982 -0.6980  0.1018
  471MPD2    N1 7071   2.989   1.382  16.459 -0.5344 -0.0312 -0.4916
  471MPD2    H7 7072   3.036   1.301  16.498  0.3728 -1.1110 -3.7704
  472TMC3    C1 7073   2.829   1.233  16.375  0.0072  0.0839  0.3304
  472TMC3    C2 7074   2.808   1.190  16.249  0.5136 -0.4649 -0.1946
  472TMC3    C3 7075   2.811   1.055  16.223 -0.3397 -0.0610 -0.5878
  472TMC3    C4 7076   2.874   1.153  16.472 -0.5047  0.4103  0.3703
  472TMC3    C5 7077   2.868   1.022  16.445  0.0855 -0.1767 -0.2746
  472TMC3    C6 7078   2.833   0.969  16.324 -0.2553 -0.0503 -0.6020
  472TMC3     C 7079   2.872   1.376  16.382 -0.2504 -0.0987  0.1703
  472TMC3     O 7080   2.812   1.462  16.315  0.0647  0.4368  0.2804
  472TMC3     H 7081   2.773   1.256  16.170  0.4165 -0.9505 -0.5564
  472TMC3    H1 7082   2.909   1.196  16.565  2.4652  1.0176 -1.0195
  472TMC3    H2 7083   2.843   0.862  16.310 -1.3276 -0.5773  2.4673
  472TMC3    C7 7084   2.947   0.925  16.528 -0.3359 -0.0116  0.3978
  472TMC3    C8 7085   2.725   1.007  16.116  0.8017  0.2391  0.4771
  472TMC3    O1 7086   3.002   0.829  16.480  0.6542 -0.2823 -0.7769
  472TMC3    O2 7087   2.669   1.091  16.048 -0.1546  0.3926 -0.2013
  473MPD2     C 7088   3.166   3.723  13.341  0.7659 -0.5126  0.1650
  473MPD2    C1 7089   3.086   3.820  13.397 -0.5805  0.4959 -0.4492
  473MPD2    C2 7090   3.128   3.882  13.516 -0.1243 -0.2533  0.7705
  473MPD2    C3 7091   3.244   3.845  13.583 -0.2133  0.3201  0.4288
  473MPD2    C4 7092   3.315   3.732  13.535 -0.2160  0.1591 -0.3468
  473MPD2    C5 7093   3.278   3.684  13.408 -0.8789 -0.3829 -0.1391
  473MPD2     H 7094   3.074   3.966  13.560  3.3867  2.2048  0.3854
  473MPD2    H1 7095   3.406   3.695  13.580 -0.2295 -1.7817 -1.9394
  473MPD2    H2 7096   3.158   3.672  13.246  1.5592 -2.9119  1.3673
  473MPD2    H3 7097   3.349   3.616  13.364  0.2304 -0.0716  1.1651
  473MPD2     N 7098   3.292   3.925  13.693  0.1943 -0.4294 -0.5023
  473MPD2    H5 7099   3.388   3.908  13.720 -0.6522 -2.1787  1.3043
  473MPD2    N1 7100   2.968   3.855  13.325  0.2554  0.2699  0.0449
  473MPD2    H7 7101   2.914   3.930  13.368  0.2552  0.8073 -0.8928
  474TMC3    C1 7102   3.319   4.089  13.876 -0.2397  0.0888 -0.5202
  474TMC3    C2 7103   3.303   4.217  13.911  0.3323  0.3232 -0.9871
  474TMC3    C3 7104   3.325   4.257  14.044 -0.1591 -0.0540  0.5738
  474TMC3    C4 7105   3.364   3.997  13.967 -0.2265  0.0414  0.0618
  474TMC3    C5 7106   3.403   4.044  14.091 -0.3656  0.0571  0.3580
  474TMC3    C6 7107   3.385   4.174  14.135 -0.1060  0.0057  0.1781
  474TMC3     C 7108   3.240   4.041  13.756  0.2469 -0.1034  0.2800
  474TMC3     O 7109   3.150   4.110  13.720 -0.1775  0.1348 -0.1866
  474TMC3     H 7110   3.229   4.274  13.856 -0.5886 -0.2080 -0.2920
  474TMC3    H1 7111   3.365   3.891  13.945  1.0215  0.1114 -0.2429
  474TMC3    H2 7112   3.417   4.212  14.231  1.9503  1.4537 -1.0791
  474TMC3    C7 7113   3.439   3.947  14.196 -0.3029  0.3938  0.5350
  474TMC3    C8 7114   3.239   4.357  14.094  0.2375  0.0558  0.2241
  474TMC3    O1 7115   3.414   3.830  14.175 -0.4175  0.4026 -1.1693
  474TMC3    O2 7116   3.180   4.329  14.200 -0.0124 -0.8548  0.3219
  475MPD2     C 7117   1.128   2.051  10.145  0.1041 -0.0450 -0.6946
  475MPD2    C1 7118   1.122   2.186  10.176 -0.7188  0.7806 -0.3762
  475MPD2    C2 7119   1.030   2.230  10.274 -0.0261 -0.2911  0.4546
  475MPD2    C3 7120   0.938   2.138  10.326  0.7949 -0.0133  1.3822
  475MPD2    C4 7121   0.932   2.010  10.280 -0.4657 -0.5697 -0.1964
  475MPD2    C5 7122   1.032   1.965  10.195  0.6709 -0.2618  0.0284
  475MPD2     H 7123   1.014   2.337  10.285  0.1307  0.0842 -2.8534
  475MPD2    H1 7124   0.881   1.923  10.319 -1.5802  0.4676  0.6818
  475MPD2    H2 7125   1.190   2.013  10.065 -1.2002 -0.8829 -1.3085
  475MPD2    H3 7126   1.025   1.867  10.149 -2.1318  0.0640 -0.2629
  475MPD2     N 7127   0.846   2.183  10.425  0.0610  0.1262 -0.4245
  475MPD2    H5 7128   0.772   2.119  10.453 -1.1894  0.9689 -1.8338
  475MPD2    N1 7129   1.195   2.277  10.096 -0.4398 -0.2955 -0.5280
  475MPD2    H7 7130   1.245   2.249  10.012  0.5688 -0.3059  0.0718
  476TMC3    C1 7131   1.257   2.478  10.002  0.2118 -0.2019  0.3313
  476TMC3    C2 7132   1.152   2.479   9.917 -0.2908 -0.2821  0.1261
  476TMC3    C3 7133   1.155   2.570   9.807  0.2825 -0.3545  0.1200
  476TMC3    C4 7134   1.357   2.571  10.002 -0.1573 -0.5657  0.9084
  476TMC3    C5 7135   1.351   2.661   9.902  0.3965 -0.6318  1.0615
  476TMC3    C6 7136   1.256   2.662   9.797  0.3220  0.1471 -0.1379
  476TMC3     C 7137   1.219   2.408  10.122 -0.0537  0.0492 -0.1385
  476TMC3     O 7138   1.182   2.483  10.214 -0.2893  0.2084 -0.2717
  476TMC3     H 7139   1.080   2.399   9.925  0.5816 -1.2885 -1.8731
  476TMC3    H1 7140   1.436   2.563  10.076  1.4924  0.3499 -0.7599
  476TMC3    H2 7141   1.256   2.741   9.723 -1.9452  0.8614  0.6302
  476TMC3    C7 7142   1.444   2.771   9.915 -0.7576 -0.2547  1.0895
  476TMC3    C8 7143   1.029   2.609   9.751 -0.2849  0.0524 -0.6084
  476TMC3    O1 7144   1.459   2.838   9.813 -0.4456  0.0817 -0.1874
  476TMC3    O2 7145   1.019   2.708   9.683 -0.0413  0.2579 -0.2739
  477MPD2     C 7146   3.322   3.550  11.623 -0.2423 -0.2948 -0.0642
  477MPD2    C1 7147   3.445   3.604  11.597  0.4050 -0.0411  0.0996
  477MPD2    C2 7148   3.548   3.590  11.691 -0.2994  0.2262 -0.4325
  477MPD2    C3 7149   3.536   3.503  11.799 -0.6862  0.4118  0.6866
  477MPD2    C4 7150   3.416   3.435  11.811  0.1409  0.6725 -0.1804
  477MPD2    C5 7151   3.310   3.466  11.734  0.4324 -0.0518  0.1524
  477MPD2     H 7152   3.646   3.633  11.673 -0.9811  2.7134  1.7679
  477MPD2    H1 7153   3.411   3.352  11.880  1.0959  2.3510  1.9455
  477MPD2    H2 7154   3.237   3.555  11.556 -0.6443 -1.2610  0.3826
  477MPD2    H3 7155   3.217   3.411  11.739  0.1997  0.2374 -0.8404
  477MPD2     N 7156   3.649   3.480  11.879 -0.5113 -0.2444 -0.3371
  477MPD2    H5 7157   3.737   3.522  11.849 -0.8063  1.0608  0.6187
  477MPD2    N1 7158   3.453   3.687  11.484 -0.2576  0.2354  0.9958
  477MPD2    H7 7159   3.366   3.708  11.435  0.4311 -1.0829 -0.7786
  478TMC3    C1 7160   3.533   3.861  11.357  0.5562 -0.0969 -0.3431
  478TMC3    C2 7161   3.428   3.927  11.402 -0.3344  0.8400 -0.4220
  478TMC3    C3 7162   3.360   3.998  11.310  1.0457  0.2141  0.1654
  478TMC3    C4 7163   3.571   3.866  11.223  1.4355  0.6542 -0.5603
  478TMC3    C5 7164   3.501   3.925  11.129 -0.0518 -0.4476 -0.0448
  478TMC3    C6 7165   3.392   3.997  11.176  0.3835 -0.3209 -0.3900
  478TMC3     C 7166   3.568   3.745  11.443 -0.3633 -0.3625 -0.0399
  478TMC3     O 7167   3.681   3.703  11.451 -0.1222 -0.1004  0.5273
  478TMC3     H 7168   3.386   3.918  11.501 -1.8673  0.1194 -1.1275
  478TMC3    H1 7169   3.656   3.806  11.195  1.9192  0.4821  1.3331
  478TMC3    H2 7170   3.328   4.059  11.115  1.4888  0.2967 -0.9141
  478TMC3    C7 7171   3.536   3.916  10.992  0.6273  0.8284 -0.0395
  478TMC3    C8 7172   3.274   4.105  11.356  0.2659  0.7824 -0.5120
  478TMC3    O1 7173   3.611   3.825  10.957 -0.2716  0.5840 -0.5250
  478TMC3    O2 7174   3.177   4.133  11.293 -0.0380 -0.5763  0.2678
  479MPD2     C 7175   2.861   0.717  15.085 -0.4686  0.5516  0.2522
  479MPD2    C1 7176   2.807   0.639  15.179 -0.0948  0.3195 -0.6047
  479MPD2    C2 7177   2.826   0.674  15.317  0.9467 -0.7726 -0.1754
  479MPD2    C3 7178   2.883   0.795  15.352 -0.1367  0.5254  0.5008
  479MPD2    C4 7179   2.947   0.866  15.253 -0.3636 -0.2879  0.4185
  479MPD2    C5 7180   2.935   0.825  15.120 -0.7988  0.7200  0.9334
  479MPD2     H 7181   2.789   0.608  15.394 -3.9024 -0.2536 -2.0923
  479MPD2    H1 7182   2.999   0.961  15.263  1.2154 -0.9562 -1.4217
  479MPD2    H2 7183   2.843   0.694  14.980  1.7510  0.4656 -0.1087
  479MPD2    H3 7184   2.978   0.888  15.043  0.5711 -1.2711  0.1023
  479MPD2     N 7185   2.887   0.857  15.482 -0.0264 -0.2638 -0.1668
  479MPD2    H5 7186   2.962   0.924  15.495  0.8090 -1.4028  0.7784
  479MPD2    N1 7187   2.729   0.532  15.132  0.1734 -0.5910  0.2839
  479MPD2    H7 7188   2.720   0.514  15.032 -0.7306  2.9054 -0.2336
  480TMC3    C1 7189   2.526   0.608  15.646 -0.0715 -0.9659 -0.1053
  480TMC3    C2 7190   2.441   0.645  15.542  0.1323 -0.0627  0.1409
  480TMC3    C3 7191   2.481   0.735  15.449 -1.1332  0.7480  0.8998
  480TMC3    C4 7192   2.644   0.669  15.660 -0.0558  0.1391  0.8567
  480TMC3    C5 7193   2.680   0.762  15.566  0.3604  0.8803  0.2182
  480TMC3    C6 7194   2.601   0.794  15.458 -0.1161  0.4924  0.4271
  480TMC3     C 7195   2.496   0.484  15.717  0.4557  0.5690 -0.3817
  480TMC3     O 7196   2.598   0.430  15.765 -0.0930  0.4781 -1.2463
  480TMC3     H 7197   2.349   0.592  15.522  0.4076  0.5519 -2.7494
  480TMC3    H1 7198   2.715   0.637  15.736  0.6709 -0.1805  0.0612
  480TMC3    H2 7199   2.632   0.865  15.382 -1.4966 -1.4557 -1.9358
  480TMC3    C7 7200   2.805   0.828  15.586 -0.3506  0.1611 -0.4873
  480TMC3    C8 7201   2.385   0.770  15.346  1.0827  0.7520  0.1841
  480TMC3    O1 7202   2.844   0.834  15.703 -0.4314 -0.0358 -0.4168
  480TMC3    O2 7203   2.267   0.777  15.380  0.1491 -0.5603  0.0119
  481MPD2     C 7204   4.344   0.364  13.636 -0.2180  0.1780 -0.2496
  481MPD2    C1 7205   4.239   0.304  13.710 -0.2245  0.5285 -0.5288
  481MPD2    C2 7206   4.262   0.268  13.843 -0.3066  0.3560 -0.7178
  481MPD2    C3 7207   4.387   0.279  13.898 -0.4759  0.6698 -0.0504
  481MPD2    C4 7208   4.486   0.330  13.824  0.0484 -0.5887 -0.1638
  481MPD2    C5 7209   4.472   0.365  13.697 -0.2980 -0.5243  0.5169
  481MPD2     H 7210   4.180   0.222  13.898 -0.2548 -0.0071 -0.9443
  481MPD2    H1 7211   4.582   0.355  13.868  0.4138 -1.2361 -0.5867
  481MPD2    H2 7212   4.326   0.417  13.543 -0.1894  1.5567  0.5217
  481MPD2    H3 7213   4.561   0.409  13.651 -0.1506 -0.4146  0.9103
  481MPD2     N 7214   4.422   0.243  14.034  0.5888 -0.7366 -0.0376
  481MPD2    H5 7215   4.519   0.241  14.063  0.7896 -0.5462 -0.7114
  481MPD2    N1 7216   4.109   0.306  13.649 -0.0304  0.0040 -0.3125
  481MPD2    H7 7217   4.103   0.335  13.552  0.3703  1.8504  0.2073
  482TMC3    C1 7218   3.888   0.255  13.615 -0.5757 -0.6174 -0.2709
  482TMC3    C2 7219   3.833   0.136  13.564  0.4369  0.3063  0.0182
  482TMC3    C3 7220   3.733   0.147  13.465 -0.3471  0.0036  0.5020
  482TMC3    C4 7221   3.853   0.384  13.570 -0.5568 -0.6199  0.9032
  482TMC3    C5 7222   3.767   0.386  13.471 -0.0408 -1.0151  0.1919
  482TMC3    C6 7223   3.699   0.273  13.418  0.3981 -0.1956 -0.1902
  482TMC3     C 7224   4.002   0.246  13.703 -0.2804 -0.2763 -0.1885
  482TMC3     O 7225   3.997   0.154  13.787 -0.2204  0.3320 -0.2080
  482TMC3     H 7226   3.875   0.042  13.598  1.6608  1.5864  2.0320
  482TMC3    H1 7227   3.897   0.472  13.615  2.2896 -1.0649 -1.0032
  482TMC3    H2 7228   3.637   0.276  13.330 -0.8905 -1.5073  0.6651
  482TMC3    C7 7229   3.709   0.515  13.437  0.1453  0.2426 -0.4402
  482TMC3    C8 7230   3.682   0.019  13.415  0.2254 -0.0261  0.1793
  482TMC3    O1 7231   3.718   0.600  13.525  0.0831  0.0270 -0.5747
  482TMC3    O2 7232   3.756   4.660  13.437  0.0499  0.2403  0.1515
  483TMC3    C1 7233   2.265   4.416  17.732  0.1091  0.5567 -0.1026
  483TMC3    C2 7234   2.349   4.503  17.668 -0.5398  0.2244 -0.0331
  483TMC3    C3 7235   2.422   4.590  17.746 -0.5573  0.3428  0.1931
  483TMC3    C4 7236   2.256   4.411   0.103  0.1086 -0.1566  0.2337
  483TMC3    C5 7237   2.328   4.497   0.179  0.6711 -0.5514  0.1498
  483TMC3    C6 7238   2.415   4.583   0.121 -0.1538  0.3423 -0.1213
  483TMC3     C 7239   2.205   4.302  17.659  0.1739  0.5910 -0.1334
  483TMC3     O 7240   2.260   4.281  17.552 -0.5335  0.2927  0.6851
  483TMC3     H 7241   2.364   4.506  17.561 -0.3113 -2.4903 -0.0812
  483TMC3    H1 7242   2.178   4.352   0.149  0.8354  1.3106  3.2968
  483TMC3    H2 7243   2.484   4.647   0.175 -0.5196  0.3466  0.3375
  483TMC3    C7 7244   2.367   4.435   0.304 -0.2530  0.6151  0.3988
  483TMC3    C8 7245   2.536   4.662  17.688  0.5617 -0.7056  0.0312
  483TMC3    O1 7246   2.352   4.313   0.317  0.1478 -0.3146 -0.2410
  483TMC3    O2 7247   2.591   4.628  17.585  0.2192  0.0070  0.2739
  484MPD2     C 7248   4.351   2.022  12.241  0.0767  0.2606  0.2646
  484MPD2    C1 7249   4.421   1.931  12.327  0.2813 -0.2963 -0.1397
  484MPD2    C2 7250   4.561   1.921  12.323 -0.4775 -0.3882  0.9667
  484MPD2    C3 7251   4.631   2.001  12.229 -0.6971 -0.1184 -0.3268
  484MPD2    C4 7252   4.560   2.085  12.144  0.3571 -0.0951 -0.0178
  484MPD2    C5 7253   4.421   2.097  12.157  0.6360 -0.3219  0.0341
  484MPD2     H 7254   4.621   1.849  12.376  0.1920 -0.6561 -0.1651
  484MPD2    H1 7255   4.611   2.152  12.075  0.9286 -0.3133  0.1948
  484MPD2    H2 7256   4.243   2.020  12.248  0.2570 -0.7457  2.9666
  484MPD2    H3 7257   4.379   2.168  12.088  0.7737 -0.0436  0.2363
  484MPD2     N 7258   0.030   1.990  12.208  0.0664  0.2579 -0.3633
  484MPD2    H5 7259   0.068   2.036  12.126 -0.8524 -1.2953 -1.6639
  484MPD2    N1 7260   4.339   1.852  12.407  0.6438  0.4189  0.0879
  484MPD2    H7 7261   4.241   1.847  12.379  0.8080  1.5190 -0.6673
  485TMC3    C1 7262   0.242   1.898  12.211  0.2959  0.6146  0.8190
  485TMC3    C2 7263   0.347   1.843  12.282  0.2287 -0.4999 -0.0256
  485TMC3    C3 7264   0.455   1.800  12.219 -0.2546  0.5468 -0.0394
  485TMC3    C4 7265   0.252   1.904  12.073 -0.1034 -0.1408  0.3806
  485TMC3    C5 7266   0.365   1.858  12.011  0.0208  0.1591 -0.2741
  485TMC3    C6 7267   0.465   1.803  12.081  0.0401  0.1230 -0.6582
  485TMC3     C 7268   0.115   1.919  12.279  0.1368  0.4252 -0.8016
  485TMC3     O 7269   0.111   1.880  12.396 -0.1655 -0.7107 -0.0121
  485TMC3     H 7270   0.349   1.847  12.390 -0.9299  1.8419 -0.0945
  485TMC3    H1 7271   0.177   1.941  12.005  1.9218  3.8811  0.3412
  485TMC3    H2 7272   0.568   1.800  12.047 -0.1681  0.3500 -1.3038
  485TMC3    C7 7273   0.428   1.948  11.917 -0.1927 -0.5704 -0.2427
  485TMC3    C8 7274   0.576   1.842  12.289  0.3863  0.3213 -0.7076
  485TMC3    O1 7275   0.505   1.897  11.835  0.4202 -0.2094 -0.1323
  485TMC3    O2 7276   0.601   1.960  12.308 -0.0780 -0.0303  0.2258
  486MPD2     C 7277   2.240   1.360  12.680  1.1631  0.0681 -0.4921
  486MPD2    C1 7278   2.204   1.293  12.564 -0.1872  0.6618  0.0770
  486MPD2    C2 7279   2.161   1.375  12.458  0.3637 -0.1198 -0.3920
  486MPD2    C3 7280   2.155   1.516  12.466  0.3298 -1.0093 -0.2820
  486MPD2    C4 7281   2.211   1.582  12.576  0.5348  0.6680  0.9034
  486MPD2    C5 7282   2.249   1.496  12.678  0.1175 -0.0004 -0.2085
  486MPD2     H 7283   2.131   1.326  12.366  0.2645  1.0278 -0.9620
  486MPD2    H1 7284   2.215   1.689  12.589  1.7755  0.4556  2.3324
  486MPD2    H2 7285   2.279   1.304  12.764 -1.3213 -0.8130  0.0666
  486MPD2    H3 7286   2.274   1.537  12.775  0.6246 -1.1065  0.1229
  486MPD2     N 7287   2.104   1.601  12.369  0.7022  0.2328  0.6392
  486MPD2    H5 7288   2.109   1.702  12.377  0.6240  0.2773  0.1149
  486MPD2    N1 7289   2.219   1.153  12.559 -1.0822 -0.3089 -0.1986
  486MPD2    H7 7290   2.266   1.114  12.640  0.3716 -0.2437 -1.0299
  487TMC3    C1 7291   2.218   0.928  12.476 -0.2309  0.0531  0.6106
  487TMC3    C2 7292   2.127   0.844  12.420 -0.8231 -0.5610  0.0952
  487TMC3    C3 7293   2.158   0.712  12.433 -0.5244 -0.1766 -0.4774
  487TMC3    C4 7294   2.346   0.894  12.512 -0.3989 -0.1230  0.4449
  487TMC3    C5 7295   2.376   0.761  12.517 -0.6597 -0.5302  0.1050
  487TMC3    C6 7296   2.283   0.674  12.456 -0.2901  0.2980 -0.6492
  487TMC3     C 7297   2.189   1.069  12.450  0.2731 -0.8823  0.5230
  487TMC3     O 7298   2.118   1.089  12.356 -0.1589 -0.3397  0.1431
  487TMC3     H 7299   2.025   0.869  12.394 -1.0609  1.3011  2.8217
  487TMC3    H1 7300   2.421   0.962  12.551 -0.3060  0.8177 -1.3612
  487TMC3    H2 7301   2.298   0.567  12.459  2.5592  0.7480  1.6995
  487TMC3    C7 7302   2.432   0.716  12.642 -0.8873 -0.0423 -0.0690
  487TMC3    C8 7303   2.057   0.617  12.486  0.3125  0.5642  1.4000
  487TMC3    O1 7304   2.526   0.772  12.692 -0.1131  0.2204 -0.2515
  487TMC3    O2 7305   2.105   0.535  12.563  0.1637  1.0052  0.3438
  488MPD2     C 7306   2.547   2.305  16.148 -0.4767  0.2518  0.2757
  488MPD2    C1 7307   2.593   2.421  16.213 -0.3157 -0.1708  0.1185
  488MPD2    C2 7308   2.576   2.434  16.351  0.2018  0.2752  0.0354
  488MPD2    C3 7309   2.526   2.325  16.422  0.4113 -0.0304 -0.1213
  488MPD2    C4 7310   2.488   2.207  16.352 -0.6892  0.4037 -0.1897
  488MPD2    C5 7311   2.494   2.205  16.219 -1.2622  0.2499  0.1570
  488MPD2     H 7312   2.614   2.516  16.409  2.0343 -0.8582  0.4470
  488MPD2    H1 7313   2.445   2.125  16.408 -0.0968  0.2377  0.0216
  488MPD2    H2 7314   2.558   2.295  16.041  1.5542 -0.2283  0.5211
  488MPD2    H3 7315   2.463   2.117  16.164 -0.2645  0.6042 -0.9854
  488MPD2     N 7316   2.523   2.333  16.566 -0.4954 -0.0480 -0.7056
  488MPD2    H5 7317   2.575   2.410  16.607 -1.7642 -1.1339  2.9567
  488MPD2    N1 7318   2.646   2.531  16.152 -0.0841  0.4177 -0.1762
  488MPD2    H7 7319   2.668   2.607  16.215 -0.1873  0.2500  0.0609
  489TMC3    C1 7320   2.532   2.259  16.790 -0.7450 -0.3359 -0.3878
  489TMC3    C2 7321   2.606   2.370  16.810  0.3441  0.7526  0.5525
  489TMC3    C3 7322   2.600   2.438  16.933 -0.2956  0.8003 -1.1174
  489TMC3    C4 7323   2.455   2.211  16.887 -0.0940  0.5711 -0.5008
  489TMC3    C5 7324   2.451   2.273  17.006  0.6335  0.2917  0.1899
  489TMC3    C6 7325   2.508   2.397  17.028  0.0641 -0.0401 -0.0644
  489TMC3     C 7326   2.492   2.230  16.655  0.8597  0.4754  0.1114
  489TMC3     O 7327   2.441   2.123  16.632 -0.0271  0.3079 -0.3152
  489TMC3     H 7328   2.682   2.397  16.738  2.7683 -2.2333  2.0147
  489TMC3    H1 7329   2.397   2.122  16.863  0.2266  0.2173  0.0411
  489TMC3    H2 7330   2.492   2.441  17.126  1.1882 -0.1485  0.1679
  489TMC3    C7 7331   2.401   2.207  17.125 -0.2315  0.1185  0.2546
  489TMC3    C8 7332   2.646   2.576  16.920  0.0701 -0.0260  0.0499
  489TMC3    O1 7333   2.450   2.238  17.233  0.2492  0.2862  0.0236
  489TMC3    O2 7334   2.703   2.607  16.818 -0.2430  0.4556 -0.1916
  490MPD2     C 7335   3.309   2.197  16.833 -0.0814 -0.9489 -0.1825
  490MPD2    C1 7336   3.273   2.148  16.954  0.3608  0.3803 -0.2408
  490MPD2    C2 7337   3.292   2.225  17.066  0.0046  0.1524 -0.7225
  490MPD2    C3 7338   3.340   2.361  17.054  0.3093 -0.1277 -0.1227
  490MPD2    C4 7339   3.383   2.402  16.928  0.3067  0.9885 -0.2076
  490MPD2    C5 7340   3.366   2.319  16.823 -0.6272 -0.2637  0.6670
  490MPD2     H 7341   3.264   2.189  17.165  1.0685  1.9979  0.2507
  490MPD2    H1 7342   3.430   2.498  16.914  0.3252  1.0598  0.3830
  490MPD2    H2 7343   3.289   2.148  16.739  1.5757 -1.7594 -0.1190
  490MPD2    H3 7344   3.406   2.353  16.728 -0.0535  0.9065  1.3162
  490MPD2     N 7345   3.360   2.443  17.162 -0.2361  0.2386 -0.4680
  490MPD2    H5 7346   3.414   2.527  17.146 -1.2794  1.0269  0.1442
  490MPD2    N1 7347   3.212   2.017  16.968  0.1694 -0.3357 -0.3897
  490MPD2    H7 7348   3.215   1.977  17.061 -0.9931 -0.0244 -0.2227
  491TMC3    C1 7349   3.092   1.824  16.901  0.3293  0.3643  0.3390
  491TMC3    C2 7350   3.107   1.775  17.034  0.1504  0.0583  0.7464
  491TMC3    C3 7351   3.017   1.685  17.074 -0.2788 -0.3896  0.5629
  491TMC3    C4 7352   2.987   1.795  16.818 -0.0515 -0.8620 -0.1319
  491TMC3    C5 7353   2.886   1.718  16.877  0.1328 -0.1126 -0.1360
  491TMC3    C6 7354   2.908   1.660  17.000 -0.0110 -0.3587  0.6568
  491TMC3     C 7355   3.171   1.937  16.859  0.1306 -0.6480 -0.9463
  491TMC3     O 7356   3.162   1.970  16.739 -0.5126  0.4565  0.0330
  491TMC3     H 7357   3.184   1.810  17.101 -1.1694  3.6472  0.3696
  491TMC3    H1 7358   2.979   1.843  16.721 -1.0529 -0.6123  0.0695
  491TMC3    H2 7359   2.829   1.596  17.039 -0.8411  1.3414  1.7667
  491TMC3    C7 7360   2.783   1.673  16.794  0.2825  0.0012 -0.0592
  491TMC3    C8 7361   3.023   1.640  17.208 -0.0094  1.0796  0.8099
  491TMC3    O1 7362   2.753   1.553  16.820  0.4491 -0.2430 -0.3503
  491TMC3    O2 7363   2.919   1.611  17.265 -1.2820  0.8840 -0.1477
  492MPD2     C 7364   3.459   2.776  10.736  0.2416  0.0284  0.4731
  492MPD2    C1 7365   3.334   2.724  10.734 -0.8562 -0.8127  0.3766
  492MPD2    C2 7366   3.303   2.619  10.819  0.0697  0.2896 -0.1682
  492MPD2    C3 7367   3.388   2.574  10.925  0.1359 -0.1876  0.6216
  492MPD2    C4 7368   3.510   2.640  10.929 -0.0677 -0.3791 -0.1759
  492MPD2    C5 7369   3.551   2.733  10.829  0.0278  0.3436  0.8743
  492MPD2     H 7370   3.208   2.568  10.804  0.7706 -2.0570  3.3501
  492MPD2    H1 7371   3.583   2.605  11.001 -1.9377  2.8138  3.2308
  492MPD2    H2 7372   3.484   2.859  10.671  3.0277 -1.4121 -0.2816
  492MPD2    H3 7373   3.653   2.770  10.826 -0.6028  1.7103 -3.2660
  492MPD2     N 7374   3.355   2.476  11.029  0.2389 -0.1992  0.0262
  492MPD2    H5 7375   3.413   2.457  11.110  2.4069  1.8788 -1.0541
  492MPD2    N1 7376   3.249   2.780  10.644 -0.1231  0.3038  0.0257
  492MPD2    H7 7377   3.289   2.856  10.589  2.7495 -1.4180 -0.2220
  493TMC3    C1 7378   3.043   2.835  10.546  0.0871 -0.6333  0.0440
  493TMC3    C2 7379   3.103   2.881  10.432 -0.4214  0.6323 -0.0461
  493TMC3    C3 7380   3.020   2.927  10.333 -0.5978  0.1494  0.1522
  493TMC3    C4 7381   2.913   2.844  10.562 -0.0464 -0.2817  0.5373
  493TMC3    C5 7382   2.833   2.872  10.456  0.3614  0.7777  0.4255
  493TMC3    C6 7383   2.885   2.922  10.342  0.8671 -0.5624  0.8686
  493TMC3     C 7384   3.119   2.743  10.626 -0.0539  0.5672  0.4536
  493TMC3     O 7385   3.041   2.666  10.685  0.3304 -0.2680 -0.1305
  493TMC3     H 7386   3.200   2.842  10.404 -0.6825 -1.5352  2.1356
  493TMC3    H1 7387   2.874   2.816  10.660 -1.2811 -1.2226 -0.2295
  493TMC3    H2 7388   2.826   2.949  10.255  0.3355  0.7379  1.6339
  493TMC3    C7 7389   2.697   2.823  10.454 -0.2764  0.5724  0.1462
  493TMC3    C8 7390   3.068   2.925  10.201 -0.3926 -0.4989 -0.5899
  493TMC3    O1 7391   2.651   2.803  10.338  0.3014  0.2304  0.6043
  493TMC3    O2 7392   2.985   2.897  10.117 -0.0583  0.3189  0.0611
  494TMC3    C1 7393   3.585   3.664   0.277 -0.2666 -0.0620 -0.3198
  494TMC3    C2 7394   3.639   3.548   0.332 -0.1482  0.1905  0.0752
  494TMC3    C3 7395   3.711   3.471   0.249  0.5637  0.2571 -0.0100
  494TMC3    C4 7396   3.597   3.694   0.147  0.0350  0.2274 -0.1055
  494TMC3    C5 7397   3.661   3.602   0.064  0.2278 -0.5436 -0.4752
  494TMC3    C6 7398   3.716   3.488   0.114  0.6607  0.8114  0.5108
  494TMC3     C 7399   3.524   3.752   0.377  0.1918  0.3858 -0.6224
  494TMC3     O 7400   3.542   3.726   0.497 -0.0686  0.3436  0.7074
  494TMC3     H 7401   3.629   3.525   0.437  1.2904 -2.0863 -0.2820
  494TMC3    H1 7402   3.552   3.786   0.112 -0.2615  1.1782  2.6934
  494TMC3    H2 7403   3.749   3.413   0.044  2.1828  1.0855  0.9280
  494TMC3    C7 7404   3.665   3.628  17.690 -0.0937 -0.0598 -0.0135
  494TMC3    C8 7405   3.760   3.345   0.303  0.0367  0.0567  0.2133
  494TMC3    O1 7406   3.739   3.556  17.622 -0.0823 -0.9541 -0.0733
  494TMC3    O2 7407   3.725   3.314   0.413 -0.1409 -0.3080  0.2787
  495TMC3    C1 7408   2.690   0.599  14.423 -0.4560  0.9130 -0.5756
  495TMC3    C2 7409   2.663   0.697  14.326  0.0800  0.6148  0.7043
  495TMC3    C3 7410   2.608   0.818  14.355 -0.1777  0.5977 -0.0345
  495TMC3    C4 7411   2.680   0.624  14.558 -0.1488 -0.7629  0.1163
  495TMC3    C5 7412   2.631   0.753  14.585  0.6113 -0.4557  0.4157
  495TMC3    C6 7413   2.595   0.851  14.490  0.2736  0.4166 -0.1702
  495TMC3     C 7414   2.680   0.466  14.370 -0.8163 -1.1470 -0.1978
  495TMC3     O 7415   2.632   0.449  14.255 -0.6892 -0.4921 -0.4825
  495TMC3     H 7416   2.690   0.674  14.224  0.0242  3.6178  0.0095
  495TMC3    H1 7417   2.700   0.550  14.634  0.6479 -0.4234  0.2371
  495TMC3    H2 7418   2.546   0.940  14.528 -0.0150 -0.6115  1.9079
  495TMC3    C7 7419   2.583   0.775  14.720 -0.1050  0.4598 -0.5137
  495TMC3    C8 7420   2.491   0.868  14.282 -0.1524  0.3510  1.2942
  495TMC3    O1 7421   2.665   0.741  14.806  0.0536 -0.4491  0.2577
  495TMC3    O2 7422   2.410   0.934  14.342 -0.2133 -0.5391  0.5653
  496MPD2     C 7423   0.159   1.328  15.386  0.4640 -0.5571 -0.3708
  496MPD2    C1 7424   0.133   1.277  15.260 -0.0328  0.0970 -0.3584
  496MPD2    C2 7425   0.010   1.223  15.236  0.6818  0.0343 -0.2317
  496MPD2    C3 7426   4.658   1.206  15.337 -0.2313  0.3158  0.3241
  496MPD2    C4 7427   4.688   1.249  15.466  0.6222  0.6356  0.9034
  496MPD2    C5 7428   0.070   1.313  15.489  0.3994  0.1975  0.7659
  496MPD2     H 7429   4.724   1.192  15.136  0.7834  1.0906 -0.5834
  496MPD2    H1 7430   4.632   1.233  15.557 -2.3613 -0.1680 -1.0566
  496MPD2    H2 7431   0.252   1.375  15.415 -1.4465  3.1407 -0.1598
  496MPD2    H3 7432   0.099   1.359  15.582  0.6761 -0.7077  1.1320
  496MPD2     N 7433   4.542   1.127  15.308  0.2028 -0.4751  1.0136
  496MPD2    H5 7434   4.533   1.063  15.230  0.6820 -0.4481  0.9355
  496MPD2    N1 7435   0.229   1.308  15.165 -0.4292 -0.4673 -0.5043
  496MPD2    H7 7436   0.299   1.374  15.195 -0.2400 -0.6124 -0.6296
  497TMC3    C1 7437   4.391   0.975  15.384 -0.2222  0.1250  0.2013
  497TMC3    C2 7438   4.320   0.927  15.279 -0.5052 -0.5246  0.0622
  497TMC3    C3 7439   4.222   0.834  15.306  0.0909  0.1282  0.1767
  497TMC3    C4 7440   4.356   0.951  15.514  0.2645  0.0217 -0.1617
  497TMC3    C5 7441   4.246   0.873  15.538  0.7417 -0.0434 -0.1403
  497TMC3    C6 7442   4.184   0.807  15.431  0.3204 -0.5603  0.5345
  497TMC3     C 7443   4.443   1.105  15.395 -0.6995  0.0065 -0.5369
  497TMC3     O 7444   4.406   1.176  15.488 -0.4894  0.4956  0.0166
  497TMC3     H 7445   4.330   0.976  15.183 -1.1827  3.3550  1.9538
  497TMC3    H1 7446   4.423   0.981  15.595  0.9037  2.1582 -1.4849
  497TMC3    H2 7447   4.105   0.735  15.448  1.0645 -1.8050 -1.2593
  497TMC3    C7 7448   4.224   0.825  15.668  0.1211  0.7314 -0.6351
  497TMC3    C8 7449   4.141   0.783  15.195  0.8382  0.9352 -0.0913
  497TMC3    O1 7450   4.163   0.718  15.682 -0.0012  0.0810 -0.6753
  497TMC3    O2 7451   4.048   0.709  15.218  0.1530 -0.9279  0.0768
  498MPD2     C 7452   0.066   2.541   9.618  0.0046  0.1028 -0.1990
  498MPD2    C1 7453   0.110   2.416   9.669 -0.2119  0.4273 -0.1815
  498MPD2    C2 7454   0.024   2.354   9.748  0.8825  0.5430  0.5363
  498MPD2    C3 7455   4.634   2.391   9.767 -0.4261  0.4267 -0.2612
  498MPD2    C4 7456   4.591   2.498   9.689 -0.2645 -0.8252 -0.1552
  498MPD2    C5 7457   4.681   2.573   9.624 -0.2928  0.1042  0.3617
  498MPD2     H 7458   0.061   2.260   9.789 -1.6641 -0.7869 -0.1943
  498MPD2    H1 7459   4.488   2.532   9.695  1.0768  2.7429  2.2478
  498MPD2    H2 7460   0.136   2.604   9.565  0.2570 -2.0188 -2.3819
  498MPD2    H3 7461   4.650   2.659   9.566  0.6227  0.4317  0.3490
  498MPD2     N 7462   4.548   2.313   9.850 -0.3010  0.1818  0.0610
  498MPD2    H5 7463   4.591   2.233   9.895  0.7426 -0.3727 -1.8884
  498MPD2    N1 7464   0.231   2.358   9.649  0.5614  0.9343 -0.0663
  498MPD2    H7 7465   0.244   2.263   9.683 -0.0768  1.0661  0.5576
  499TMC3    C1 7466   0.454   2.356   9.575 -0.6079  0.6413  0.2368
  499TMC3    C2 7467   0.433   2.237   9.512  0.4137  0.1105 -0.2357
  499TMC3    C3 7468   0.536   2.197   9.430 -0.2558 -0.7111  0.9919
  499TMC3    C4 7469   0.567   2.425   9.561 -0.3472  0.5708 -1.1517
  499TMC3    C5 7470   0.676   2.368   9.497 -0.4377  0.0155  0.1957
  499TMC3    C6 7471   0.659   2.257   9.424  0.3419  0.0171  0.0693
  499TMC3     C 7472   0.333   2.428   9.586  0.2990  0.1027 -0.1176
  499TMC3     O 7473   0.341   2.546   9.554  0.0967 -0.3357  0.4727
  499TMC3     H 7474   0.330   2.202   9.509  0.2943  0.5532 -1.1692
  499TMC3    H1 7475   0.583   2.517   9.616 -2.1987  0.7615 -0.9567
  499TMC3    H2 7476   0.733   2.205   9.363 -1.4859 -0.2147 -1.9367
  499TMC3    C7 7477   0.787   2.448   9.463 -0.3471 -0.4130 -0.7634
  499TMC3    C8 7478   0.519   2.063   9.371  0.0753  0.0001  0.6804
  499TMC3    O1 7479   0.764   2.565   9.461 -0.2569 -0.2477  0.0739
  499TMC3    O2 7480   0.619   2.005   9.342  0.0597 -0.3595  0.4770
  500MPD2     C 7481   2.351   3.420  10.380  0.1836 -0.2141 -0.1232
  500MPD2    C1 7482   2.421   3.505  10.291  0.2160 -0.5331  0.3278
  500MPD2    C2 7483   2.345   3.592  10.218 -0.4067 -0.2529 -0.3459
  500MPD2    C3 7484   2.202   3.587  10.221  0.5536  1.2322 -0.5248
  500MPD2    C4 7485   2.142   3.493  10.301 -0.3727 -0.2441  0.5507
  500MPD2    C5 7486   2.217   3.407  10.378 -0.0061  0.3456  0.8469
  500MPD2     H 7487   2.398   3.652  10.145 -0.6001  1.4101  0.8852
  500MPD2    H1 7488   2.034   3.487  10.300 -0.4880  1.5772  2.2314
  500MPD2    H2 7489   2.388   3.354  10.457 -1.1553 -2.3620 -1.3332
  500MPD2    H3 7490   2.165   3.345  10.450 -1.2624  1.1319  0.6064
  500MPD2     N 7491   2.122   3.662  10.130  0.3006  0.0257 -0.4607
  500MPD2    H5 7492   2.021   3.649  10.130  0.1130  1.4348  1.4591
  500MPD2    N1 7493   2.563   3.515  10.292  0.5328  0.0524 -0.1114
  500MPD2    H7 7494   2.604   3.602  10.259  1.0608 -0.1575 -0.0026
  501TMC3    C1 7495   2.782   3.463  10.343  0.6272 -0.1541  0.1638
  501TMC3    C2 7496   2.826   3.560  10.260 -0.0555 -0.1684 -0.1822
  501TMC3    C3 7497   2.965   3.576  10.253 -0.4631  0.3372  0.3515
  501TMC3    C4 7498   2.870   3.375  10.402  0.5104  0.3118 -0.3567
  501TMC3    C5 7499   3.004   3.396  10.394 -0.1797  0.3211 -0.2340
  501TMC3    C6 7500   3.054   3.508  10.329  0.2186  0.6473 -0.0592
  501TMC3     C 7501   2.646   3.429  10.358 -0.0319  0.1647 -0.0724
  501TMC3     O 7502   2.626   3.332  10.426  0.0100  0.5228  0.3139
  501TMC3     H 7503   2.758   3.625  10.206  0.9692  0.5880 -0.5719
  501TMC3    H1 7504   2.839   3.286  10.455 -1.8007  1.1869 -0.2355
  501TMC3    H2 7505   3.156   3.544  10.329  0.5872 -0.3948 -0.3768
  501TMC3    C7 7506   3.081   3.334  10.497 -0.0018  0.5236 -0.0548
  501TMC3    C8 7507   3.020   3.703  10.210  0.3019  0.5634 -0.9563
  501TMC3    O1 7508   3.021   3.246  10.562  0.8983  0.1092  0.2297
  501TMC3    O2 7509   3.111   3.761  10.268 -0.0313 -0.3668  0.0504
  502TMC3    C1 7510   1.741   1.486  14.490 -0.2887  0.1243 -0.3030
  502TMC3    C2 7511   1.757   1.605  14.417  0.0795  0.3419  0.1135
  502TMC3    C3 7512   1.708   1.728  14.470  0.0794  0.2842  0.0363
  502TMC3    C4 7513   1.656   1.483  14.594 -0.8894 -0.4857  0.2905
  502TMC3    C5 7514   1.592   1.598  14.630  0.1899 -0.4472  0.2464
  502TMC3    C6 7515   1.626   1.718  14.581 -0.0180 -0.5157  0.3656
  502TMC3     C 7516   1.873   1.451  14.540 -0.4021  0.4048  0.0359
  502TMC3     O 7517   1.966   1.481  14.464  0.4278 -0.0251 -1.1849
  502TMC3     H 7518   1.834   1.603  14.341  0.1854 -0.6739  0.2503
  502TMC3    H1 7519   1.616   1.385  14.620 -0.3368 -1.6736 -3.2848
  502TMC3    H2 7520   1.579   1.807  14.619  2.6825  1.2980 -0.5694
  502TMC3    C7 7521   1.571   1.593  14.771  0.0012  0.3330 -0.3453
  502TMC3    C8 7522   1.808   1.828  14.500  0.9334 -0.1288 -0.6166
  502TMC3    O1 7523   1.639   1.502  14.821 -0.3450 -0.1168 -0.0936
  502TMC3    O2 7524   1.765   1.934  14.547  0.5589  0.0184  0.0477
  503MPD2     C 7525   4.030   2.393  16.445 -0.5985 -0.1697  0.0695
  503MPD2    C1 7526   4.089   2.479  16.530  0.6911  0.3029  0.5164
  503MPD2    C2 7527   4.137   2.448  16.652  0.1601  0.5887  0.3608
  503MPD2    C3 7528   4.128   2.319  16.688  0.0842  0.2281  0.4652
  503MPD2    C4 7529   4.071   2.225  16.599 -1.3945  0.8194 -0.0423
  503MPD2    C5 7530   4.016   2.267  16.481 -0.3842  0.2929 -0.1396
  503MPD2     H 7531   4.179   2.520  16.722  0.6553  1.5677 -0.9285
  503MPD2    H1 7532   4.043   2.128  16.638 -1.5596  0.0092 -2.1981
  503MPD2    H2 7533   3.987   2.424  16.351 -0.6954 -0.8026 -0.0960
  503MPD2    H3 7534   3.960   2.196  16.421 -0.8715  0.1320  0.5020
  503MPD2     N 7535   4.179   2.266  16.805  1.0668  0.1401 -0.2325
  503MPD2    H5 7536   4.197   2.167  16.809 -1.3118 -0.3023 -0.4654
  503MPD2    N1 7537   4.099   2.615  16.504  0.3675  0.0168 -0.2592
  503MPD2    H7 7538   4.122   2.683  16.576  0.0597 -0.2781  0.1083
  504TMC3    C1 7539   4.252   2.266  17.029  0.1063 -0.1305  0.7229
  504TMC3    C2 7540   4.272   2.345  17.139 -1.0288  0.0146  0.0063
  504TMC3    C3 7541   4.393   2.347  17.201 -0.0933  0.1236 -0.0053
  504TMC3    C4 7542   4.340   2.165  16.989  0.2839 -0.0025  0.4951
  504TMC3    C5 7543   4.457   2.174  17.056  0.2199  0.6248 -0.3608
  504TMC3    C6 7544   4.487   2.261  17.159 -0.4269  0.1393 -0.0764
  504TMC3     C 7545   4.186   2.338  16.918  0.1133  0.7047 -0.6759
  504TMC3     O 7546   4.146   2.452  16.948 -0.0202 -0.0106 -0.5176
  504TMC3     H 7547   4.197   2.418  17.165 -0.0062  0.3197  2.1334
  504TMC3    H1 7548   4.329   2.108  16.897 -1.5539 -0.8959  1.2618
  504TMC3    H2 7549   4.582   2.248  17.209 -0.8808 -0.4400  0.6304
  504TMC3    C7 7550   4.572   2.111  16.993  0.2716  0.0060  0.0608
  504TMC3    C8 7551   4.417   2.462  17.285 -0.1181 -0.0067 -0.1890
  504TMC3    O1 7552   4.683   2.161  17.010 -0.5918 -0.1794 -0.3688
  504TMC3    O2 7553   4.338   2.556  17.295 -0.0147 -0.0314  0.5228
  505MPD2     C 7554   3.783   1.230  10.524 -0.8800 -0.6651  0.0820
  505MPD2    C1 7555   3.869   1.206  10.424 -0.3439  0.0494 -0.0040
  505MPD2    C2 7556   4.005   1.214  10.452  0.0677  0.1370  0.4769
  505MPD2    C3 7557   4.053   1.239  10.577  0.4540 -0.3468  0.7826
  505MPD2    C4 7558   3.964   1.254  10.677 -0.2355 -1.0516 -0.4782
  505MPD2    C5 7559   3.827   1.250  10.652 -0.1471  0.1489 -0.3055
  505MPD2     H 7560   4.070   1.226  10.366  0.5390 -2.3821  0.4767
  505MPD2    H1 7561   3.992   1.273  10.780 -3.2954 -0.0744  0.1797
  505MPD2    H2 7562   3.676   1.222  10.506 -0.8001  1.6935 -1.4587
  505MPD2    H3 7563   3.745   1.261  10.722 -1.2191  0.4118 -1.5851
  505MPD2     N 7564   4.193   1.238  10.604 -0.4623 -0.3182 -0.4428
  505MPD2    H5 7565   4.223   1.261  10.698 -0.2115 -0.2844 -0.5304
  505MPD2    N1 7566   3.814   1.172  10.301 -0.2391 -0.1629  0.3985
  505MPD2    H7 7567   3.718   1.199  10.284  0.4854  1.7868 -0.5866
  506TMC3    C1 7568   3.825   1.140  10.065  0.6082  0.3173  0.9365
  506TMC3    C2 7569   3.775   1.262  10.019  0.2901  0.0214  0.1313
  506TMC3    C3 7570   3.776   1.294   9.887 -0.4712  0.1160  0.1168
  506TMC3    C4 7571   3.903   1.067   9.982 -0.2204  0.5421  0.6790
  506TMC3    C5 7572   3.926   1.116   9.858  0.2679  0.3617  0.5027
  506TMC3    C6 7573   3.859   1.225   9.800  0.5056  0.3456  0.1935
  506TMC3     C 7574   3.894   1.133  10.196 -0.6892  0.0507  0.1137
  506TMC3     O 7575   4.014   1.093  10.193 -0.2111 -0.5158  0.2835
  506TMC3     H 7576   3.732   1.328  10.094 -0.7545 -0.7169  0.1834
  506TMC3    H1 7577   3.953   0.978  10.018 -1.3774 -0.7146 -0.8184
  506TMC3    H2 7578   3.862   1.262   9.698  0.5387  3.0249  1.1712
  506TMC3    C7 7579   4.062   1.114   9.821 -0.4420  0.7215 -0.0352
  506TMC3    C8 7580   3.724   1.423   9.844  0.1053 -0.2315 -0.2678
  506TMC3    O1 7581   4.100   1.126   9.702 -0.2500 -0.0979  0.0289
  506TMC3    O2 7582   3.709   1.429   9.725  1.2542 -0.8086  0.0633
  507TMC3    C1 7583   0.628   1.920  14.608 -0.3805 -0.2314 -0.5748
  507TMC3    C2 7584   0.635   1.798  14.540 -0.1753 -0.2380  0.2417
  507TMC3    C3 7585   0.749   1.777  14.465 -0.6343 -0.3486  0.5229
  507TMC3    C4 7586   0.722   2.020  14.603 -0.5073  0.5238  0.3081
  507TMC3    C5 7587   0.835   1.992  14.521 -0.6385 -0.4297 -0.0525
  507TMC3    C6 7588   0.852   1.868  14.457  0.0560 -0.2300  0.3701
  507TMC3     C 7589   0.507   1.944  14.681 -0.0396 -0.3221  0.4377
  507TMC3     O 7590   0.516   2.020  14.776 -0.1531 -0.4558 -0.6338
  507TMC3     H 7591   0.562   1.718  14.549  1.9167 -2.0219  1.5995
  507TMC3    H1 7592   0.705   2.120  14.641  2.0204  1.5397 -1.1568
  507TMC3    H2 7593   0.937   1.850  14.392  1.6935  1.7060  1.9576
  507TMC3    C7 7594   0.870   2.091  14.424  0.1150 -0.4961  0.2166
  507TMC3    C8 7595   0.714   1.717  14.337  0.1605 -1.0742  0.2309
  507TMC3    O1 7596   0.880   2.046  14.309  0.0273  0.4506 -0.6226
  507TMC3    O2 7597   0.628   1.628  14.326 -0.2613 -0.0849 -0.2782
  508MPD2     C 7598   1.325   4.078  16.278 -0.3918 -0.1005  0.5133
  508MPD2    C1 7599   1.378   4.181  16.354 -0.4198 -0.3286  0.1338
  508MPD2    C2 7600   1.374   4.302  16.289  0.3799 -0.7044  0.0948
  508MPD2    C3 7601   1.320   4.317  16.164  0.3237  0.4724  0.4613
  508MPD2    C4 7602   1.259   4.209  16.100  0.6626  0.0577 -0.4307
  508MPD2    C5 7603   1.257   4.086  16.164 -0.0219  0.0913 -0.5823
  508MPD2     H 7604   1.411   4.393  16.336 -1.1298  0.4000 -0.8831
  508MPD2    H1 7605   1.227   4.227  15.998 -1.3572  2.2190  0.5730
  508MPD2    H2 7606   1.330   3.979  16.321  1.7215 -0.0089  0.4735
  508MPD2    H3 7607   1.207   4.001  16.122  0.4889  0.4485 -1.9084
  508MPD2     N 7608   1.327   4.448  16.105  0.6811 -0.2067  0.1864
  508MPD2    H5 7609   1.364   4.523  16.163  3.5433 -2.0078  0.6591
  508MPD2    N1 7610   1.443   4.166  16.480 -0.4249 -0.5594  0.0736
  508MPD2    H7 7611   1.452   4.251  16.535 -0.4630 -0.4490 -0.0897
  509TMC3    C1 7612   1.268   0.082  15.863 -0.2332  0.2431  0.0903
  509TMC3    C2 7613   1.373   0.137  15.924 -0.1184  0.0698 -0.3683
  509TMC3    C3 7614   1.470   0.055  15.980 -0.5112  0.3887  0.4567
  509TMC3    C4 7615   1.250   4.685  15.863  0.4195 -0.1517  1.1192
  509TMC3    C5 7616   1.334   4.614  15.941  0.1562 -0.5363  0.1313
  509TMC3    C6 7617   1.444   4.664  15.999 -0.1252  0.0199 -0.6037
  509TMC3     C 7618   1.171   0.166  15.791 -0.8940 -0.4561 -0.6028
  509TMC3     O 7619   1.062   0.113  15.798 -0.1538  0.0718 -0.3567
  509TMC3     H 7620   1.382   0.244  15.938 -0.4504 -0.0003  0.4064
  509TMC3    H1 7621   1.176   4.632  15.806  2.3344 -0.4429 -1.1093
  509TMC3    H2 7622   1.517   4.605  16.055 -0.5799 -0.3875 -0.4415
  509TMC3    C7 7623   1.298   4.478  15.974  0.0895  0.4487  0.3708
  509TMC3    C8 7624   1.592   0.098  16.050  0.5705 -0.2568 -0.4424
  509TMC3    O1 7625   1.254   4.413  15.883 -0.5931  0.5598  0.1764
  509TMC3    O2 7626   1.654   0.011  16.108 -0.6026 -0.3579 -0.3683
  510MPD2     C 7627   3.965   1.457  14.433  0.1173 -0.0175 -0.6425
  510MPD2    C1 7628   4.000   1.333  14.477  0.3696  0.0735 -0.1393
  510MPD2    C2 7629   4.119   1.275  14.430 -0.1278 -0.3738  0.2758
  510MPD2    C3 7630   4.204   1.342  14.346 -0.2419 -0.7234  0.1665
  510MPD2    C4 7631   4.171   1.470  14.310 -1.0109  0.1998  0.9240
  510MPD2    C5 7632   4.054   1.527  14.358 -0.0908  0.1485  0.2686
  510MPD2     H 7633   4.149   1.177  14.465 -1.1443 -0.7462  0.0908
  510MPD2    H1 7634   4.229   1.536  14.246 -2.8541 -0.5249 -1.5257
  510MPD2    H2 7635   3.888   1.508  14.490 -0.3494 -1.2829 -0.1415
  510MPD2    H3 7636   4.040   1.633  14.342 -1.6459 -0.1095 -0.1476
  510MPD2     N 7637   4.326   1.283  14.305  0.6696  0.3950  0.5303
  510MPD2    H5 7638   4.341   1.191  14.344 -0.0730  0.4772  1.0121
  510MPD2    N1 7639   3.924   1.279  14.585 -0.4403 -0.8319  0.1588
  510MPD2    H7 7640   3.833   1.318  14.604 -0.0126  0.1795  0.1097
  511TMC3    C1 7641   3.849   1.102  14.741 -0.5607 -0.2103  0.1139
  511TMC3    C2 7642   3.772   1.188  14.814 -0.4741  0.0503  0.1209
  511TMC3    C3 7643   3.695   1.135  14.909  0.5881 -0.0320 -0.2094
  511TMC3    C4 7644   3.855   0.968  14.762 -0.5001  0.0769 -0.6467
  511TMC3    C5 7645   3.774   0.915  14.856 -0.6565 -0.6981 -0.3111
  511TMC3    C6 7646   3.694   0.997  14.934 -0.3065 -0.5448  0.1016
  511TMC3     C 7647   3.936   1.149  14.640  0.3182 -0.5079 -0.5690
  511TMC3     O 7648   4.019   1.065  14.613 -0.3317  0.7015  0.0583
  511TMC3     H 7649   3.779   1.295  14.797  0.9760 -0.3642 -1.9783
  511TMC3    H1 7650   3.908   0.909  14.689  1.5350 -0.1077  0.9998
  511TMC3    H2 7651   3.618   0.945  14.991 -0.6099 -0.0053  0.1904
  511TMC3    C7 7652   3.722   0.781  14.830 -0.4723  0.3199  0.3110
  511TMC3    C8 7653   3.631   1.211  15.006  0.0016 -0.0678 -0.1488
  511TMC3    O1 7654   3.710   0.754  14.712  0.5687  0.0914 -0.4975
  511TMC3    O2 7655   3.607   1.332  14.998  0.0474 -0.4139  0.6327
  512TMC3    C1 7656   2.772   0.945  13.375 -0.9587 -0.3918 -0.6435
  512TMC3    C2 7657   2.898   0.947  13.443  0.0753 -0.2746  0.6757
  512TMC3    C3 7658   2.998   0.861  13.395  0.1787  0.1888  0.1079
  512TMC3    C4 7659   2.750   0.849  13.280  0.1488 -0.2768 -0.0333
  512TMC3    C5 7660   2.859   0.777  13.232  0.3182 -0.3849  0.3686
  512TMC3    C6 7661   2.986   0.780  13.287  0.5178 -0.3220  0.3886
  512TMC3     C 7662   2.669   1.033  13.417 -0.8578  0.1818 -0.5709
  512TMC3     O 7663   2.562   1.010  13.366 -0.2753 -0.1855 -0.3175
  512TMC3     H 7664   2.913   0.997  13.538  0.8528 -0.5968  0.7288
  512TMC3    H1 7665   2.659   0.851  13.220  1.3961  2.4547 -1.8063
  512TMC3    H2 7666   3.067   0.715  13.256  1.4187  1.1720 -0.3654
  512TMC3    C7 7667   2.832   0.720  13.103  0.0878 -0.7290 -0.2639
  512TMC3    C8 7668   3.127   0.852  13.456 -0.2235  0.3011  0.3125
  512TMC3    O1 7669   2.720   0.726  13.050  0.3354 -0.5662 -0.1488
  512TMC3    O2 7670   3.177   0.742  13.475  0.3501  0.5083 -0.0662
  513MPD2     C 7671   0.149   0.760  13.213 -0.0003 -0.2208 -0.0143
  513MPD2    C1 7672   0.215   0.708  13.104  0.6293  0.1429  0.3885
  513MPD2    C2 7673   0.342   0.750  13.071  0.2946  0.9133  0.3753
  513MPD2    C3 7674   0.409   0.828  13.162 -0.3510  0.6157 -0.3741
  513MPD2    C4 7675   0.340   0.885  13.265 -0.5889  0.1733 -0.0353
  513MPD2    C5 7676   0.211   0.854  13.294 -0.0216 -0.1538 -0.1680
  513MPD2     H 7677   0.400   0.715  12.986 -1.1500 -1.4749  0.3480
  513MPD2    H1 7678   0.392   0.960  13.325  1.1374 -2.5735  1.9006
  513MPD2    H2 7679   0.052   0.733  13.253 -0.3383 -1.0255 -1.3750
  513MPD2    H3 7680   0.142   0.906  13.360 -0.4757  0.0589 -0.8043
  513MPD2     N 7681   0.537   0.876  13.120 -0.3530  0.1084  0.1084
  513MPD2    H5 7682   0.571   0.831  13.035  0.4457  0.4415  0.2531
  513MPD2    N1 7683   0.158   0.599  13.037  0.7164  0.2275 -0.1387
  513MPD2    H7 7684   0.213   0.550  12.967 -1.9536 -1.1729 -1.2703
  514TMC3    C1 7685   0.010   0.421  12.995  0.1627 -0.8394 -0.3737
  514TMC3    C2 7686   4.663   0.434  12.886  0.2993  0.2204  0.2871
  514TMC3    C3 7687   4.697   0.371  12.772  0.4762  0.9381  0.5742
  514TMC3    C4 7688   0.130   0.351  12.972  0.4244  0.2324 -0.9469
  514TMC3    C5 7689   0.160   0.299  12.856 -0.2553 -0.0816 -0.4012
  514TMC3    C6 7690   0.068   0.306  12.750  0.0847 -0.5901  0.2096
  514TMC3     C 7691   0.035   0.543  13.069  0.1032  0.3774  0.1113
  514TMC3     O 7692   4.679   0.599  13.108  0.1803 -0.7740 -0.0059
  514TMC3     H 7693   4.568   0.485  12.902 -1.1763 -1.2419 -3.6722
  514TMC3    H1 7694   0.205   0.341  13.049 -0.6633  0.5955  0.1593
  514TMC3    H2 7695   0.091   0.246  12.663  1.1022 -1.3487  1.0083
  514TMC3    C7 7696   0.293   0.353  12.820  0.8780  0.3609 -0.6711
  514TMC3    C8 7697   4.592   0.374  12.667 -0.4361  0.1266 -0.4305
  514TMC3    O1 7698   0.300   0.472  12.812 -0.0054  0.3578  0.2468
  514TMC3    O2 7699   4.484   0.406  12.696  0.1252 -0.5892 -0.4766
  515MPD2     C 7700   2.862   2.672  14.666  0.1283 -0.1305 -0.7113
  515MPD2    C1 7701   2.943   2.565  14.658 -0.8707  0.4295  0.5467
  515MPD2    C2 7702   3.077   2.576  14.679  0.3923 -0.4793 -0.3975
  515MPD2    C3 7703   3.126   2.699  14.724 -0.1550  0.3295  0.8960
  515MPD2    C4 7704   3.041   2.805  14.736 -0.0620  0.2330  0.3156
  515MPD2    C5 7705   2.913   2.796  14.703 -0.3144  0.0600 -0.0697
  515MPD2     H 7706   3.144   2.493  14.659 -1.2392 -1.5743 -1.3002
  515MPD2    H1 7707   3.083   2.895  14.780  1.3896 -0.5750  0.5812
  515MPD2    H2 7708   2.754   2.659  14.662 -0.1068  2.2667 -1.9711
  515MPD2    H3 7709   2.847   2.880  14.726  0.2879 -0.0198  2.0124
  515MPD2     N 7710   3.261   2.717  14.767 -0.7147 -0.3251  0.0658
  515MPD2    H5 7711   3.273   2.792  14.834 -0.7907  0.1786 -0.4821
  515MPD2    N1 7712   2.887   2.442  14.622  0.1935  0.6282 -0.3078
  515MPD2    H7 7713   2.798   2.453  14.573  0.1890  0.2160 -0.3966
  516TMC3    C1 7714   2.897   2.230  14.522 -0.0475 -0.9240 -0.3398
  516TMC3    C2 7715   2.872   2.282  14.399 -0.2569  0.0284 -0.3270
  516TMC3    C3 7716   2.787   2.206  14.326 -0.2583  0.6282  0.0020
  516TMC3    C4 7717   2.854   2.113  14.574 -0.9650 -0.5091 -0.2783
  516TMC3    C5 7718   2.764   2.047  14.497  0.0161  0.1190  0.3448
  516TMC3    C6 7719   2.739   2.088  14.371  0.2088  0.1744 -0.0769
  516TMC3     C 7720   2.955   2.323  14.619  0.1097  0.3428  1.6188
  516TMC3     O 7721   3.028   2.286  14.703 -0.1531 -0.3305 -0.5709
  516TMC3     H 7722   2.891   2.386  14.380 -1.3068  0.1636 -0.6414
  516TMC3    H1 7723   2.882   2.100  14.677  0.2398  0.2587 -0.5095
  516TMC3    H2 7724   2.658   2.037  14.320  0.4506 -0.2138 -0.0767
  516TMC3    C7 7725   2.724   1.916  14.547 -0.4996 -0.2444  0.1542
  516TMC3    C8 7726   2.704   2.284  14.239 -0.7453  0.4527  0.3646
  516TMC3    O1 7727   2.736   1.912  14.667  0.4566  0.1887  0.0938
  516TMC3    O2 7728   2.583   2.267  14.253 -0.2783  0.8763 -0.0730
  517MPD2     C 7729   2.885   4.107  17.209  0.4630  0.1633 -0.0406
  517MPD2    C1 7730   3.021   4.092  17.207 -0.5500 -0.3467 -0.8170
  517MPD2    C2 7731   3.096   4.203  17.235 -0.3200  0.1677 -0.2222
  517MPD2    C3 7732   3.033   4.321  17.281  0.6373  0.4776  0.8477
  517MPD2    C4 7733   2.899   4.328  17.287  0.1744  0.4888  0.2076
  517MPD2    C5 7734   2.824   4.221  17.248  0.2481  0.5816 -0.0645
  517MPD2     H 7735   3.203   4.197  17.217 -0.1074  0.0956  1.0352
  517MPD2    H1 7736   2.835   4.408  17.324 -0.4573  0.7010 -1.3399
  517MPD2    H2 7737   2.824   4.022  17.180 -1.2424  1.9401 -1.7038
  517MPD2    H3 7738   2.716   4.224  17.257  0.2752  2.2954 -0.2833
  517MPD2     N 7739   3.106   4.436  17.341  0.4372  0.0425  1.1875
  517MPD2    H5 7740   3.046   4.508  17.380 -1.9048 -0.9663 -0.5193
  517MPD2    N1 7741   3.094   3.974  17.168  0.0665 -0.2818  0.6210
  517MPD2    H7 7742   3.190   3.996  17.143 -0.9854  2.7266 -0.7331
  518TMC3    C1 7743   3.120   3.743  17.094 -0.0571 -0.4226  0.6058
  518TMC3    C2 7744   3.086   3.620  17.147 -0.0349  0.3045 -0.5123
  518TMC3    C3 7745   3.181   3.519  17.136  1.0382  0.0224  0.3467
  518TMC3    C4 7746   3.241   3.767  17.031  0.5308 -0.4141  0.1213
  518TMC3    C5 7747   3.334   3.662  17.029 -0.1546  0.5420 -0.0319
  518TMC3    C6 7748   3.302   3.536  17.070 -0.8322  0.1301 -0.4620
  518TMC3     C 7749   3.035   3.846  17.154  0.0713 -0.4409  0.4458
  518TMC3     O 7750   2.929   3.811  17.205  0.0803 -0.3303 -0.5596
  518TMC3     H 7751   2.988   3.594  17.187  0.5002 -0.5315  0.2783
  518TMC3    H1 7752   3.264   3.863  16.987 -1.6628  0.3731  0.6869
  518TMC3    H2 7753   3.374   3.456  17.079 -0.7823  0.2621  0.3926
  518TMC3    C7 7754   3.446   3.684  16.947  0.3243  0.1768  0.2658
  518TMC3    C8 7755   3.137   3.380  17.150 -0.0434  0.4975  0.2460
  518TMC3    O1 7756   3.446   3.775  16.869 -0.1029 -0.1740  0.0733
  518TMC3    O2 7757   3.197   3.306  17.073  0.1111  0.1498  0.1054
  519MPD2     C 7758   4.287   1.953  14.357  0.2069  0.7929  0.5042
  519MPD2    C1 7759   4.282   2.043  14.252  0.0580 -0.0398 -0.5006
  519MPD2    C2 7760   4.396   2.062  14.180  0.1656 -0.0002  0.3681
  519MPD2    C3 7761   4.517   1.993  14.207 -0.9956  0.1987  0.3707
  519MPD2    C4 7762   4.509   1.895  14.302 -0.0707 -1.3238  0.2341
  519MPD2    C5 7763   4.400   1.877  14.377 -0.7328 -0.4052 -0.1074
  519MPD2     H 7764   4.392   2.137  14.102  1.3956 -1.4557 -1.1102
  519MPD2    H1 7765   4.589   1.823  14.317  0.7519 -0.2687  0.9064
  519MPD2    H2 7766   4.199   1.940  14.420 -1.1570 -1.1532 -1.8033
  519MPD2    H3 7767   4.392   1.795  14.447  0.9611 -1.1777 -0.8236
  519MPD2     N 7768   4.633   2.005  14.134 -0.2414 -0.1905 -0.1137
  519MPD2    H5 7769   4.715   1.947  14.152 -1.3150 -1.4778  0.5581
  519MPD2    N1 7770   4.160   2.109  14.220 -0.8027 -0.1779 -0.5199
  519MPD2    H7 7771   4.086   2.086  14.285  1.5941 -1.2571  1.7891
  520TMC3    C1 7772   0.019   2.063  13.944 -0.2718  0.1300  0.2481
  520TMC3    C2 7773   4.724   2.063  13.811 -0.1262 -0.1558  0.1982
  520TMC3    C3 7774   0.021   1.953  13.741  0.0671 -0.6511 -0.5965
  520TMC3    C4 7775   0.102   1.971  13.995 -0.2210 -0.1706  0.7174
  520TMC3    C5 7776   0.142   1.864  13.919  0.7171 -0.0958  0.7717
  520TMC3    C6 7777   0.097   1.850  13.790  0.9498 -0.0004  0.0792
  520TMC3     C 7778   4.643   2.090  14.023  0.3518  0.1129  0.1960
  520TMC3     O 7779   4.553   2.144  13.959  0.0060 -0.2379  0.0089
  520TMC3     H 7780   4.657   2.132  13.761  2.2966  0.2650 -2.4417
  520TMC3    H1 7781   0.143   1.985  14.094 -0.8496 -0.7012  1.0530
  520TMC3    H2 7782   0.133   1.771  13.724  2.1780  0.6160  0.0202
  520TMC3    C7 7783   0.226   1.767  13.986 -0.2398  0.3079 -0.1019
  520TMC3    C8 7784   4.697   1.932  13.618 -0.8067 -0.1209 -0.6175
  520TMC3    O1 7785   0.259   1.793  14.103  0.1425 -0.6472 -0.2110
  520TMC3    O2 7786   0.016   1.875  13.531  0.3890  0.1979  0.1362
  521MPD2     C 7787   0.453   4.580  17.258 -0.0623 -0.3069  0.1253
  521MPD2    C1 7788   0.391   4.610  17.140  0.1726 -0.3851  0.8445
  521MPD2    C2 7789   0.456   4.686  17.042 -0.6132  0.7523 -0.1018
  521MPD2    C3 7790   0.584   4.732  17.052  0.1981 -0.5905  0.1436
  521MPD2    C4 7791   0.643   4.703  17.175  0.1561 -0.2891  0.0418
  521MPD2    C5 7792   0.579   4.639  17.281  0.3005  0.4970  0.0737
  521MPD2     H 7793   0.409   4.706  16.947 -1.7404 -0.6155  0.1667
  521MPD2    H1 7794   0.742   0.002  17.192  0.0400 -0.6337  1.5517
  521MPD2    H2 7795   0.398   4.536  17.340  0.9112  2.2030  2.1114
  521MPD2    H3 7796   0.628   4.618  17.375  0.2501  3.1712  0.7064
  521MPD2     N 7797   0.651   0.065  16.950  0.2112  0.1251  0.1905
  521MPD2    H5 7798   0.596   0.092  16.869  0.1420  1.5812  0.7115
  521MPD2    N1 7799   0.266   4.536  17.120 -0.0937 -0.2816 -0.2107
  521MPD2    H7 7800   0.232   4.484  17.200  1.0788 -0.3965  0.2181
  522TMC3    C1 7801   0.839   0.142  16.829  0.0237 -0.5875  0.0762
  522TMC3    C2 7802   0.966   0.111  16.786 -0.5119 -0.1292 -0.0810
  522TMC3    C3 7803   1.027   0.199  16.706  0.6062  0.5534  0.4334
  522TMC3    C4 7804   0.786   0.263  16.796  0.0181 -0.1253 -0.3536
  522TMC3    C5 7805   0.851   0.351  16.715 -0.1998  0.3288  0.8458
  522TMC3    C6 7806   0.974   0.326  16.672  0.4649 -0.7461  0.3826
  522TMC3     C 7807   0.787   0.083  16.949  0.1470 -0.6099 -0.2105
  522TMC3     O 7808   0.872   0.017  17.007  0.8799 -0.1542 -0.1530
  522TMC3     H 7809   1.017   0.034  16.842 -0.0785 -0.1903 -0.5601
  522TMC3    H1 7810   0.687   0.291  16.832  0.2372 -0.0375  0.1790
  522TMC3    H2 7811   1.036   0.395  16.617 -0.8144  0.3115  0.2690
  522TMC3    C7 7812   0.764   0.431  16.627  0.7994 -0.5580 -0.1537
  522TMC3    C8 7813   1.170   0.206  16.716 -0.4857  0.3505  0.1839
  522TMC3    O1 7814   0.642   0.416  16.628  0.3744  0.1596 -0.0394
  522TMC3    O2 7815   1.225   0.315  16.729 -0.0016 -0.3067  0.4377
  523MPD2     C 7816   2.671   0.497  10.227  0.0550  0.2119 -0.6222
  523MPD2    C1 7817   2.629   0.407  10.137 -0.2731 -0.1088  0.1399
  523MPD2    C2 7818   2.510   0.438  10.067 -1.1732  0.6302 -0.0631
  523MPD2    C3 7819   2.452   0.559  10.090 -0.0163 -0.0029 -0.5474
  523MPD2    C4 7820   2.484   0.640  10.195 -0.7301 -0.1422  0.9970
  523MPD2    C5 7821   2.601   0.604  10.263 -0.1322  0.0615  0.2718
  523MPD2     H 7822   2.485   0.377   9.982  0.1546 -0.3502  0.2509
  523MPD2    H1 7823   2.436   0.734  10.219 -3.1145 -0.6930 -1.7341
  523MPD2    H2 7824   2.761   0.491  10.287 -1.8873  1.4372  2.4148
  523MPD2    H3 7825   2.630   0.656  10.354  3.0897 -2.4311  0.6914
  523MPD2     N 7826   2.341   0.603  10.021  0.1150  0.5636  0.2084
  523MPD2    H5 7827   2.281   0.677  10.057 -0.7367 -0.1174  0.2060
  523MPD2    N1 7828   2.709   0.291  10.112  0.5286 -0.0891  0.2133
  523MPD2    H7 7829   2.807   0.291  10.138  0.4446 -2.2387  0.5066
  524TMC3    C1 7830   2.156   0.590   9.865 -0.2601  0.5528 -0.0468
  524TMC3    C2 7831   2.143   0.626   9.735 -1.1303  0.0425 -1.0394
  524TMC3    C3 7832   2.042   0.710   9.690 -0.4061 -0.2079  1.0431
  524TMC3    C4 7833   2.072   0.640   9.961  0.2776  0.6548  0.5834
  524TMC3    C5 7834   1.983   0.733   9.921 -0.2306 -0.2507 -0.1134
  524TMC3    C6 7835   1.962   0.767   9.784  0.3088 -0.9606  0.0722
  524TMC3     C 7836   2.293   0.544   9.905 -0.3159 -0.1319 -0.4841
  524TMC3     O 7837   2.356   0.480   9.820  0.3137 -0.4657 -0.1081
  524TMC3     H 7838   2.213   0.583   9.664 -1.1500  0.9709 -1.6203
  524TMC3    H1 7839   2.070   0.605  10.063  2.7576  1.5226  0.9317
  524TMC3    H2 7840   1.871   0.819   9.756 -0.4355 -0.7316  2.9285
  524TMC3    C7 7841   1.894   0.796  10.018  0.5378 -0.2068  0.3981
  524TMC3    C8 7842   2.004   0.727   9.544 -0.9620  0.0963  0.0018
  524TMC3    O1 7843   1.913   0.774  10.136  0.2778  0.4802 -0.0802
  524TMC3    O2 7844   1.916   0.810   9.523 -0.8630 -0.1775 -0.4709
  525MPD2     C 7845   1.279   1.438  14.485 -0.6976  0.1167 -0.5759
  525MPD2    C1 7846   1.263   1.535  14.575 -0.2909  0.4556 -0.7091
  525MPD2    C2 7847   1.280   1.663  14.533  0.4835 -0.0242 -0.0918
  525MPD2    C3 7848   1.336   1.690  14.407 -0.0875  0.3321 -0.0571
  525MPD2    C4 7849   1.364   1.584  14.320 -0.1231 -0.8087 -0.1120
  525MPD2    C5 7850   1.320   1.456  14.355 -0.5676 -0.1934  0.2480
  525MPD2     H 7851   1.257   1.749  14.595  1.1288  0.2793 -0.2810
  525MPD2    H1 7852   1.396   1.607  14.219 -3.4469  1.3619 -0.6895
  525MPD2    H2 7853   1.258   1.338  14.521  0.6201  0.2786  0.6449
  525MPD2    H3 7854   1.335   1.374  14.286  1.2073  0.0204  0.3908
  525MPD2     N 7855   1.350   1.825  14.381 -0.6115 -0.2847  0.2509
  525MPD2    H5 7856   1.326   1.889  14.456  2.4179 -0.0639  1.0188
  525MPD2    N1 7857   1.228   1.488  14.707  0.4794 -0.5214 -0.2690
  525MPD2    H7 7858   1.221   1.389  14.727  1.4278 -0.9999 -2.2862
  526TMC3    C1 7859   1.215   1.489  14.941  0.9727  0.0934 -0.2109
  526TMC3    C2 7860   1.159   1.548  15.055  0.8378  0.3085  0.2491
  526TMC3    C3 7861   1.210   1.503  15.168 -0.9264 -0.1758 -0.2381
  526TMC3    C4 7862   1.321   1.404  14.939 -0.0503  0.0918 -0.8015
  526TMC3    C5 7863   1.355   1.353  15.065  0.2977 -0.3127  0.3665
  526TMC3    C6 7864   1.320   1.420  15.179 -0.5144  0.5926  0.0477
  526TMC3     C 7865   1.207   1.569  14.816  0.2201  0.2417  0.7492
  526TMC3     O 7866   1.173   1.689  14.817 -0.0369  0.0835 -0.3601
  526TMC3     H 7867   1.074   1.615  15.049 -0.5779 -1.4013  1.3511
  526TMC3    H1 7868   1.371   1.374  14.847 -0.7116 -1.2324 -0.7278
  526TMC3    H2 7869   1.339   1.382  15.279 -1.6068  0.3296  0.1554
  526TMC3    C7 7870   1.468   1.263  15.089 -0.3717  0.7256  0.1341
  526TMC3    C8 7871   1.153   1.552  15.293  0.7550  0.3559 -0.3000
  526TMC3    O1 7872   1.519   1.251  15.200 -0.2585 -0.1898  0.7971
  526TMC3    O2 7873   1.231   1.552  15.388  0.3533 -0.3370  0.6626
  527MPD2     C 7874   3.068   4.505   0.127  0.1837 -0.2233 -0.2895
  527MPD2    C1 7875   3.122   4.572   0.232 -0.4519  0.4885 -0.2913
  527MPD2    C2 7876   3.254   4.550   0.263 -0.4741  0.1460  0.7418
  527MPD2    C3 7877   3.329   4.451   0.191  0.2681 -0.3675 -0.1529
  527MPD2    C4 7878   3.274   4.393   0.081  0.5147  0.3167 -0.0383
  527MPD2    C5 7879   3.143   4.414   0.052 -0.2287 -0.3190 -0.2884
  527MPD2     H 7880   3.302   4.609   0.341 -0.9693  3.7687 -1.7210
  527MPD2    H1 7881   3.316   4.311   0.025 -0.8241  0.5273 -1.3464
  527MPD2    H2 7882   2.962   4.507   0.109  0.1407  2.6469  0.2543
  527MPD2    H3 7883   3.098   4.384  17.723 -0.3141 -0.0856 -0.3229
  527MPD2     N 7884   3.461   4.410   0.241  0.0420 -0.4708  0.1384
  527MPD2    H5 7885   3.497   4.457   0.323  1.6777 -0.7593 -0.4188
  527MPD2    N1 7886   3.044   4.669   0.300  0.4090  0.5877 -0.6839
  527MPD2    H7 7887   3.104   4.731   0.354  3.1273 -1.2375 -1.5673
  528TMC3    C1 7888   2.866   0.061   0.377  0.2861 -0.2248  0.2665
  528TMC3    C2 7889   2.960   0.164   0.388  0.1574 -0.4254 -0.0313
  528TMC3    C3 7890   2.911   0.277   0.448  0.5481 -0.1956  0.0763
  528TMC3    C4 7891   2.735   0.070   0.412 -0.3798 -0.5776 -0.5785
  528TMC3    C5 7892   2.692   0.186   0.462 -0.0510 -0.4315  0.6404
  528TMC3    C6 7893   2.780   0.291   0.484  0.5545  0.3319 -0.1107
  528TMC3     C 7894   2.905   4.677   0.311 -0.3301  0.5230  0.4729
  528TMC3     O 7895   2.818   4.600   0.272  0.0360  0.5050 -0.4514
  528TMC3     H 7896   3.067   0.159   0.370 -0.2456 -0.8502 -2.3877
  528TMC3    H1 7897   2.662   4.734   0.391  0.1556 -1.3460  0.4133
  528TMC3    H2 7898   2.741   0.391   0.498 -0.3006 -0.2716  1.8509
  528TMC3    C7 7899   2.550   0.210   0.446  0.2382  0.6785 -0.4733
  528TMC3    C8 7900   3.005   0.366   0.505  0.9035 -0.8273 -0.3134
  528TMC3    O1 7901   2.469   0.143   0.379 -0.2008 -1.0345  0.4345
  528TMC3    O2 7902   3.107   0.386   0.442 -0.4842  0.1045 -0.6768
  529MPD2     C 7903   1.720   3.464   1.012  0.1975 -0.6608  0.1453
  529MPD2    C1 7904   1.846   3.455   0.958  0.6020  0.2256 -0.2611
  529MPD2    C2 7905   1.860   3.501   0.828  0.0054 -0.0127 -0.0244
  529MPD2    C3 7906   1.748   3.550   0.755 -0.5628  0.5627 -0.2531
  529MPD2    C4 7907   1.631   3.556   0.815 -0.2074 -0.0433 -0.1146
  529MPD2    C5 7908   1.613   3.516   0.945 -0.4488  0.0185  0.2832
  529MPD2     H 7909   1.959   3.487   0.787 -0.6895  0.8123 -1.9715
  529MPD2    H1 7910   1.545   3.586   0.756  1.3784 -0.7277 -2.7478
  529MPD2    H2 7911   1.695   3.440   1.114 -4.0272 -2.5637 -1.3634
  529MPD2    H3 7912   1.525   3.539   1.004 -1.1032 -0.7541 -0.4057
  529MPD2     N 7913   1.755   3.575   0.619 -0.1607 -0.5315  0.1830
  529MPD2    H5 7914   1.663   3.591   0.579 -1.1370  0.0450  2.6593
  529MPD2    N1 7915   1.967   3.414   1.025  0.1367 -0.8818 -0.1086
  529MPD2    H7 7916   2.048   3.423   0.964 -0.7866 -1.6124 -1.4448
  530TMC3    C1 7917   2.082   3.258   1.175 -0.2802 -0.4772  0.2596
  530TMC3    C2 7918   2.194   3.266   1.100 -0.0045 -0.3064  0.3664
  530TMC3    C3 7919   2.281   3.153   1.112 -0.3936  0.3055  0.6999
  530TMC3    C4 7920   2.038   3.140   1.229 -0.3356  0.0471 -0.1771
  530TMC3    C5 7921   2.116   3.029   1.226 -0.1552 -0.0991  0.3654
  530TMC3    C6 7922   2.241   3.042   1.168  0.4717 -0.4766 -0.0057
  530TMC3     C 7923   1.978   3.357   1.150 -0.0651 -0.4525 -0.9215
  530TMC3     O 7924   1.893   3.350   1.236  0.0814 -0.6439  0.1615
  530TMC3     H 7925   2.233   3.353   1.048 -1.1527  0.6002  1.0358
  530TMC3    H1 7926   1.947   3.142   1.289 -0.2388 -0.6607 -0.0049
  530TMC3    H2 7927   2.283   2.943   1.156  0.2906 -0.2401 -2.7511
  530TMC3    C7 7928   2.058   2.896   1.233  0.5138  0.2545 -0.1248
  530TMC3    C8 7929   2.390   3.142   1.013  0.8979  0.1525  0.3686
  530TMC3    O1 7930   2.138   2.808   1.264  0.3538 -0.5672 -0.0565
  530TMC3    O2 7931   2.371   3.202   0.909 -1.0150  0.1691  0.6321
  531MPD2     C 7932   0.802   0.339  12.928 -0.1181  0.1969  0.1158
  531MPD2    C1 7933   0.723   0.445  12.902 -0.4091  0.2415 -0.1342
  531MPD2    C2 7934   0.589   0.427  12.866 -0.3272 -0.5590 -0.5718
  531MPD2    C3 7935   0.539   0.299  12.845  0.0491  0.2645  0.8995
  531MPD2    C4 7936   0.617   0.193  12.886  0.2100  0.9045 -0.1202
  531MPD2    C5 7937   0.751   0.218  12.916 -0.5129  0.1304  0.2422
  531MPD2     H 7938   0.523   0.511  12.848 -0.9691 -0.8387  0.4465
  531MPD2    H1 7939   0.580   0.092  12.874 -2.1149  1.8082 -0.6077
  531MPD2    H2 7940   0.908   0.355  12.941 -0.6981  1.4736  3.5180
  531MPD2    H3 7941   0.817   0.132  12.924  1.1418  1.2533 -1.4439
  531MPD2     N 7942   0.401   0.267  12.835  0.1342 -0.7935 -0.2420
  531MPD2    H5 7943   0.371   0.171  12.851 -0.3544 -0.9615 -2.2081
  531MPD2    N1 7944   0.794   0.569  12.911 -0.0033 -0.4282 -0.2889
  531MPD2    H7 7945   0.891   0.573  12.940 -0.3469 -0.2487  0.8365
  532TMC3    C1 7946   0.829   0.801  12.947  0.0504 -0.3580  0.8893
  532TMC3    C2 7947   0.749   0.900  13.002  0.4639 -0.4210  0.0739
  532TMC3    C3 7948   0.764   0.926  13.130 -0.1574 -0.2791 -0.0159
  532TMC3    C4 7949   0.934   0.747  13.022 -0.6044 -0.1067 -0.7058
  532TMC3    C5 7950   0.953   0.778  13.150  0.1623 -0.0414  0.0966
  532TMC3    C6 7951   0.855   0.862  13.208  0.4010  0.3207 -0.0134
  532TMC3     C 7952   0.738   0.696  12.896  0.2862  0.2919 -0.1099
  532TMC3     O 7953   0.622   0.734  12.893 -0.4551 -0.6225  0.6215
  532TMC3     H 7954   0.679   0.958  12.943  0.8250  0.7468  0.7903
  532TMC3    H1 7955   1.005   0.687  12.967  1.1159 -0.8252  2.2922
  532TMC3    H2 7956   0.861   0.885  13.314 -0.7524  0.9898 -0.0967
  532TMC3    C7 7957   1.014   0.670  13.232 -0.5096  0.2919 -0.7327
  532TMC3    C8 7958   0.639   0.935  13.198  0.2883 -0.8832  0.3794
  532TMC3    O1 7959   1.108   0.606  13.179 -0.1326  0.3629 -0.0822
  532TMC3    O2 7960   0.632   0.972  13.316  0.6092  1.1576  0.0904
  533TMC3    C1 7961   1.391   2.019  14.265  0.4335 -0.6823 -0.3554
  533TMC3    C2 7962   1.490   2.093  14.225  0.2379  0.7902 -0.0220
  533TMC3    C3 7963   1.467   2.228  14.229  0.6583  0.0405  0.5071
  533TMC3    C4 7964   1.274   2.061  14.329 -0.3550 -1.2059  0.3663
  533TMC3    C5 7965   1.257   2.199  14.341 -0.0395 -0.3293 -0.5309
  533TMC3    C6 7966   1.357   2.282  14.293 -0.2722 -0.5301 -0.2765
  533TMC3     C 7967   1.414   1.878  14.273 -0.0729 -0.2509  0.5765
  533TMC3     O 7968   1.475   1.820  14.190 -0.5519  0.3274 -0.1597
  533TMC3     H 7969   1.583   2.056  14.183  0.3709  1.6010 -0.4415
  533TMC3    H1 7970   1.191   1.997  14.359 -2.1627  1.2457  0.6330
  533TMC3    H2 7971   1.352   2.390  14.297 -0.5250 -0.6324  2.4206
  533TMC3    C7 7972   1.204   2.214  14.477 -0.0464 -1.1750  0.1549
  533TMC3    C8 7973   1.589   2.293  14.267 -1.0451 -0.2881  0.3184
  533TMC3    O1 7974   1.192   2.107  14.541  0.4216 -0.6968 -0.0703
  533TMC3    O2 7975   1.672   2.217  14.301  0.7097 -0.8463  0.3199
  534MPD2     C 7976   3.614   2.904   1.105 -0.0350  0.0142  0.0559
  534MPD2    C1 7977   3.560   2.997   1.190 -0.6807 -0.6077 -0.3852
  534MPD2    C2 7978   3.425   3.026   1.183  0.6085 -0.3741  0.3665
  534MPD2    C3 7979   3.349   2.958   1.088 -1.1485  0.7623  0.6449
  534MPD2    C4 7980   3.407   2.869   1.006 -0.4781  0.2619 -0.0276
  534MPD2    C5 7981   3.539   2.854   1.005 -0.9333  0.2573 -0.9139
  534MPD2     H 7982   3.382   3.106   1.243 -1.5158 -1.5915  0.4926
  534MPD2    H1 7983   3.346   2.833   0.924  0.0801  0.9137 -0.7438
  534MPD2    H2 7984   3.720   2.884   1.096  0.1935  0.8723  0.7879
  534MPD2    H3 7985   3.590   2.798   0.928 -1.8729  0.3741 -1.6246
  534MPD2     N 7986   3.213   2.986   1.057  0.1991 -0.5989  0.4833
  534MPD2    H5 7987   3.169   2.937   0.980  0.4616  1.0653 -0.7551
  534MPD2    N1 7988   3.642   3.080   1.277 -0.0793  0.1109  0.2872
  534MPD2    H7 7989   3.591   3.157   1.319  0.3429 -0.7750  2.4334
  535TMC3    C1 7990   3.017   3.107   1.041  0.1782  0.3784  0.1043
  535TMC3    C2 7991   2.928   3.199   1.099 -0.2704  0.2682 -0.6920
  535TMC3    C3 7992   2.842   3.270   1.021 -0.9720  0.6285 -0.3383
  535TMC3    C4 7993   3.014   3.089   0.905  0.1982 -0.0122 -0.0854
  535TMC3    C5 7994   2.926   3.155   0.828  0.6282 -0.3039  0.0269
  535TMC3    C6 7995   2.843   3.250   0.884 -0.3280 -0.5285  0.0008
  535TMC3     C 7996   3.139   3.086   1.118 -0.3711 -0.7938  0.5713
  535TMC3     O 7997   3.166   3.164   1.213 -0.2784 -0.1760 -0.1987
  535TMC3     H 7998   2.936   3.221   1.205  0.3250 -0.9183 -0.4930
  535TMC3    H1 7999   3.102   3.049   0.855 -0.6246 -0.2961 -1.3161
  535TMC3    H2 8000   2.787   3.321   0.824  0.3572  0.2536  0.2963
  535TMC3    C7 8001   2.982   3.175   0.696  0.0050  0.4380 -0.7904
  535TMC3    C8 8002   2.737   3.350   1.079 -0.2139 -0.0291 -0.5011
  535TMC3    O1 8003   3.013   3.072   0.635  0.1093  0.1669  0.2813
  535TMC3    O2 8004   2.686   3.429   1.003 -0.3506 -0.6958 -0.1701
  536MPD2     C 8005   2.560   1.370  15.796  0.1255 -0.5092  0.4684
  536MPD2    C1 8006   2.444   1.318  15.848 -0.5274 -0.4122  0.1198
  536MPD2    C2 8007   2.329   1.336  15.775 -0.1294 -0.3396 -0.3422
  536MPD2    C3 8008   2.328   1.407  15.656 -0.0288  0.1687 -0.3237
  536MPD2    C4 8009   2.440   1.471  15.618  0.4357 -0.1485 -0.1189
  536MPD2    C5 8010   2.557   1.455  15.690  0.1278 -0.2739 -0.7309
  536MPD2     H 8011   2.240   1.286  15.813 -1.1475  0.0870 -2.1546
  536MPD2    H1 8012   2.437   1.544  15.538 -2.6285 -0.7942 -0.5802
  536MPD2    H2 8013   2.655   1.341  15.840  0.3273 -1.5718 -0.6626
  536MPD2    H3 8014   2.652   1.483  15.645  0.3590  0.9562  0.4998
  536MPD2     N 8015   2.208   1.433  15.579 -0.1065  0.0920 -0.1137
  536MPD2    H5 8016   2.215   1.503  15.505 -0.3514 -0.4530 -0.6503
  536MPD2    N1 8017   2.453   1.260  15.976 -0.0119 -0.4813 -0.0395
  536MPD2    H7 8018   2.540   1.284  16.022 -0.2372  0.6975 -0.2423
  537TMC3    C1 8019   2.391   1.161  16.186  0.5954 -0.4871 -0.1989
  537TMC3    C2 8020   2.452   1.261  16.255 -0.1046  0.5219 -0.0548
  537TMC3    C3 8021   2.470   1.236  16.393  0.3223 -1.0054 -0.2733
  537TMC3    C4 8022   2.364   1.039  16.245 -0.6596 -0.3503  0.7180
  537TMC3    C5 8023   2.399   1.006  16.377 -0.9351  0.1970  0.2583
  537TMC3    C6 8024   2.449   1.113  16.447  0.1170 -0.3036 -0.1575
  537TMC3     C 8025   2.362   1.177  16.043  0.6946 -0.8024  0.7023
  537TMC3     O 8026   2.278   1.112  15.980  0.2733 -0.3155 -0.1772
  537TMC3     H 8027   2.474   1.357  16.210 -0.6315  0.2009 -0.9787
  537TMC3    H1 8028   2.339   0.958  16.177  0.5024  0.1645 -0.3283
  537TMC3    H2 8029   2.491   1.108  16.547 -1.1448  1.3170  0.4519
  537TMC3    C7 8030   2.439   0.875  16.409  0.4905  0.2793 -0.4814
  537TMC3    C8 8031   2.501   1.343  16.485  0.0554  0.4122  0.0972
  537TMC3    O1 8032   2.402   0.786  16.334  0.3866 -0.3762 -0.2362
  537TMC3    O2 8033   2.569   1.318  16.586  0.3741 -0.6414  0.7536
  538TMC3    C1 8034   3.626   0.113  11.046  0.1129  0.5422  0.0823
  538TMC3    C2 8035   3.723   0.046  10.978 -0.6486  0.2542 -0.4906
  538TMC3    C3 8036   3.738   0.070  10.852 -0.3303 -0.2928  0.1340
  538TMC3    C4 8037   3.560   0.216  10.993 -0.0958 -0.1990  0.2729
  538TMC3    C5 8038   3.562   0.233  10.856  0.1854  0.4004 -0.0609
  538TMC3    C6 8039   3.660   0.163  10.785 -0.8760 -0.0833  0.0613
  538TMC3     C 8040   3.602   0.088  11.189 -0.9333  0.0485 -0.2761
  538TMC3     O 8041   3.486   0.104  11.226 -0.1420 -0.2352 -0.2105
  538TMC3     H 8042   3.777   4.704  11.020  1.0130  2.2720  1.4353
  538TMC3    H1 8043   3.474   0.249  11.050 -0.4758 -0.9933  0.1639
  538TMC3    H2 8044   3.666   0.171  10.677 -4.3080 -2.5514 -0.2976
  538TMC3    C7 8045   3.432   0.266  10.800  0.8755  0.4201 -0.5637
  538TMC3    C8 8046   3.814   4.720  10.769  1.2843  1.4587 -0.1654
  538TMC3    O1 8047   3.333   0.259  10.869 -0.2467  0.0183  0.3427
  538TMC3    O2 8048   3.849   4.617  10.823 -0.6239 -0.4743 -0.2455
  539MPD2     C 8049   3.318   4.311  11.658  0.0141 -0.0007  0.0524
  539MPD2    C1 8050   3.269   4.278  11.538  0.9490 -0.2909 -0.5847
  539MPD2    C2 8051   3.177   4.370  11.481  0.0516  0.1806 -0.0436
  539MPD2    C3 8052   3.130   4.477  11.555  0.0873  0.0748 -0.5928
  539MPD2    C4 8053   3.174   4.507  11.679  0.6051  0.0871  0.6679
  539MPD2    C5 8054   3.274   4.422  11.726  0.0868  0.2114 -0.1225
  539MPD2     H 8055   3.150   4.351  11.378 -0.2054  0.8526 -0.1004
  539MPD2    H1 8056   3.138   4.590  11.738 -2.3136 -0.9081  0.2989
  539MPD2    H2 8057   3.393   4.247  11.703 -3.0637 -0.8511  4.0103
  539MPD2    H3 8058   3.333   4.448  11.813  1.1638  0.1327 -0.8301
  539MPD2     N 8059   3.046   4.578  11.506 -0.1573  1.0668 -0.3309
  539MPD2    H5 8060   3.008   4.646  11.571  2.2102  0.3075  1.8417
  539MPD2    N1 8061   3.308   4.159  11.478 -0.0660 -0.2081  0.0732
  539MPD2    H7 8062   3.382   4.109  11.526 -0.0974 -0.0055  0.3327
  540TMC3    C1 8063   2.894   4.680  11.371  0.2128  0.1881  0.1672
  540TMC3    C2 8064   2.824   4.678  11.251  0.4985  0.3935  0.1274
  540TMC3    C3 8065   2.714   0.019  11.241  0.1453  0.1769 -0.3828
  540TMC3    C4 8066   2.857   0.017  11.478 -0.1812  0.5279 -0.0175
  540TMC3    C5 8067   2.749   0.099  11.461 -0.2908 -0.3921 -0.1858
  540TMC3    C6 8068   2.670   0.092  11.349 -0.2873  0.3446 -0.0093
  540TMC3     C 8069   3.012   4.598  11.373  0.5174 -0.3973  0.4243
  540TMC3     O 8070   3.036   4.526  11.281 -1.0829 -0.2806  0.0085
  540TMC3     H 8071   2.861   4.616  11.170  2.1334  0.1291  1.0755
  540TMC3    H1 8072   2.924   0.029  11.563  1.1544 -0.3001 -0.9370
  540TMC3    H2 8073   2.589   0.162  11.331 -0.6048 -0.3355 -1.2483
  540TMC3    C7 8074   2.697   0.175  11.568 -0.3003 -0.2967  0.0331
  540TMC3    C8 8075   2.623   4.733  11.134 -0.5641  0.4491  0.5377
  540TMC3    O1 8076   2.575   0.200  11.570 -0.0878 -0.2773 -0.2032
  540TMC3    O2 8077   2.502   4.718  11.156 -0.5836 -0.6825 -0.9040
  541MPD2     C 8078   2.133   0.628  12.938 -0.5636  0.2916 -0.0760
  541MPD2    C1 8079   2.003   0.602  12.984 -0.2446  0.3874 -0.3083
  541MPD2    C2 8080   1.900   0.681  12.941  0.3111 -0.3916  0.9910
  541MPD2    C3 8081   1.927   0.794  12.863  0.2565  0.0983  0.0023
  541MPD2    C4 8082   2.052   0.823  12.820  0.1339 -0.4867 -0.4367
  541MPD2    C5 8083   2.151   0.738  12.859 -0.6925 -0.5719  0.2989
  541MPD2     H 8084   1.799   0.651  12.968 -0.4484  0.3958 -0.9173
  541MPD2    H1 8085   2.071   0.909  12.757 -1.2759 -0.8782 -1.4021
  541MPD2    H2 8086   2.220   0.574  12.972 -1.2323 -0.5623  0.2936
  541MPD2    H3 8087   2.246   0.750  12.808 -1.6492  0.9464 -1.1202
  541MPD2     N 8088   1.825   0.886  12.829  0.6441  0.3115 -0.1848
  541MPD2    H5 8089   1.854   0.961  12.768  0.4991 -0.5382 -1.2831
  541MPD2    N1 8090   1.980   0.486  13.064 -0.0990 -0.1533  0.1253
  541MPD2    H7 8091   2.059   0.423  13.071 -0.7318 -0.9402  0.1698
  542TMC3    C1 8092   1.607   0.952  12.771  0.1024 -1.7895 -0.1156
  542TMC3    C2 8093   1.646   0.953  12.639  0.6424 -0.1387 -0.2384
  542TMC3    C3 8094   1.545   0.964  12.554  0.1334  0.1923  0.2807
  542TMC3    C4 8095   1.478   0.971  12.812 -0.1518 -0.3967  0.4188
  542TMC3    C5 8096   1.384   0.991  12.720 -0.4465 -0.3675 -0.2415
  542TMC3    C6 8097   1.417   0.987  12.587  0.8730  0.1240 -0.0279
  542TMC3     C 8098   1.693   0.874  12.859  0.2025 -0.2226 -0.2427
  542TMC3     O 8099   1.644   0.819  12.956 -0.0822  0.0834  0.0270
  542TMC3     H 8100   1.746   0.930  12.602  0.9718  2.2698 -0.8569
  542TMC3    H1 8101   1.462   0.956  12.918 -0.7321  0.9150  0.5192
  542TMC3    H2 8102   1.342   1.016  12.515  1.7850 -1.2359 -1.5431
  542TMC3    C7 8103   1.251   1.027  12.753  0.7385 -0.1016 -0.3403
  542TMC3    C8 8104   1.568   0.929  12.416 -0.2231  0.2961 -0.3026
  542TMC3    O1 8105   1.176   1.030  12.655 -0.1981 -0.1174 -0.3570
  542TMC3    O2 8106   1.682   0.930  12.374 -0.3711 -0.0337  0.3265
  543TMC3    C1 8107   1.513   2.310  17.170 -0.3496 -0.3921 -0.3329
  543TMC3    C2 8108   1.428   2.201  17.195 -0.0022 -0.0853  0.3381
  543TMC3    C3 8109   1.395   2.179  17.327 -0.1471 -0.1312  0.3296
  543TMC3    C4 8110   1.556   2.394  17.270 -0.1910 -0.6382 -0.9280
  543TMC3    C5 8111   1.524   2.360  17.395  0.1299  0.6849 -0.7947
  543TMC3    C6 8112   1.458   2.246  17.428  0.1297 -0.1337 -0.0135
  543TMC3     C 8113   1.547   2.338  17.030 -0.3255  0.4477  0.5153
  543TMC3     O 8114   1.492   2.260  16.953  0.0760  0.1497  0.3813
  543TMC3     H 8115   1.386   2.141  17.115 -0.0384  0.8027 -0.3153
  543TMC3    H1 8116   1.606   2.488  17.249 -1.3128  0.2142  0.2126
  543TMC3    H2 8117   1.448   2.219  17.532 -0.2628  1.5405  0.3863
  543TMC3    C7 8118   1.595   2.417  17.504  0.1424 -0.8176  0.0423
  543TMC3    C8 8119   1.348   2.042  17.356  0.5092 -0.2283 -0.3497
  543TMC3    O1 8120   1.575   2.374  17.618  0.1275 -0.1282 -0.3534
  543TMC3    O2 8121   1.268   2.002  17.273 -0.1588  0.4700  0.0507
  544MPD2     C 8122   1.455   1.578  17.535  0.5277 -0.0772 -0.1086
  544MPD2    C1 8123   1.358   1.621  17.446 -0.0958 -0.5674  0.5505
  544MPD2    C2 8124   1.350   1.749  17.405 -0.3065 -0.5788 -0.2422
  544MPD2    C3 8125   1.443   1.845  17.454  0.6275  0.1213  0.3052
  544MPD2    C4 8126   1.540   1.799  17.543  0.7377  0.2755 -0.2169
  544MPD2    C5 8127   1.542   1.669  17.586 -0.4637 -0.0666  0.3783
  544MPD2     H 8128   1.266   1.782  17.345 -1.2357 -0.8252  0.9201
  544MPD2    H1 8129   1.615   1.866  17.583  2.1698 -1.2635 -0.2998
  544MPD2    H2 8130   1.443   1.481  17.582 -0.0375 -0.9232 -1.9823
  544MPD2    H3 8131   1.625   1.636  17.647  0.0334 -1.1728 -0.9024
  544MPD2     N 8132   1.443   1.977  17.429 -0.2463  0.0003  0.3636
  544MPD2    H5 8133   1.527   2.026  17.459 -1.1363  1.3873  0.6155
  544MPD2    N1 8134   1.275   1.519  17.390 -0.9697 -0.6129 -0.3414
  544MPD2    H7 8135   1.303   1.428  17.426 -1.7605 -0.2170  1.2541
  545TMC3    C1 8136   1.080   1.414  17.299  0.5029  0.4625  0.6698
  545TMC3    C2 8137   0.990   1.395  17.199  0.4368 -0.3238 -0.1860
  545TMC3    C3 8138   0.914   1.279  17.195 -0.5722  0.4679  0.4355
  545TMC3    C4 8139   1.087   1.324  17.402  0.6019  0.3140  0.2008
  545TMC3    C5 8140   1.011   1.208  17.393 -0.3772  0.3084 -0.4809
  545TMC3    C6 8141   0.924   1.179  17.285 -0.4593 -0.0987  0.4483
  545TMC3     C 8142   1.175   1.527  17.294 -0.0013  0.5042  0.0864
  545TMC3     O 8143   1.145   1.623  17.225  0.3101 -0.3548  0.0264
  545TMC3     H 8144   0.981   1.477  17.128 -0.0792  0.0279  0.2871
  545TMC3    H1 8145   1.142   1.340  17.494  0.0752 -0.3112  0.6283
  545TMC3    H2 8146   0.866   1.088  17.286  1.7102 -1.4701  1.9566
  545TMC3    C7 8147   1.075   1.091  17.450 -0.4713 -1.5643  0.3365
  545TMC3    C8 8148   0.803   1.274  17.101  0.1140 -0.0650 -0.0819
  545TMC3    O1 8149   1.137   1.103  17.552 -0.1621  0.1443  0.0234
  545TMC3    O2 8150   0.705   1.209  17.126 -0.3459 -0.0252  0.1413
  546MPD2     C 8151   2.830   1.920  17.412  0.5457  0.2247  0.2006
  546MPD2    C1 8152   2.764   1.945  17.289 -0.6743  0.2625 -0.3830
  546MPD2    C2 8153   2.791   2.064  17.225  0.8269 -0.2395  0.7586
  546MPD2    C3 8154   2.888   2.149  17.282  0.1096 -0.6070 -0.3649
  546MPD2    C4 8155   2.939   2.130  17.408 -0.3664 -0.7318 -0.6000
  546MPD2    C5 8156   2.919   2.004  17.468  0.1806 -0.0695  0.1744
  546MPD2     H 8157   2.733   2.084  17.135 -0.1810  0.5253  1.5775
  546MPD2    H1 8158   3.007   2.200  17.455 -0.4736 -1.2419  0.3126
  546MPD2    H2 8159   2.812   1.829  17.467 -0.7691  0.3343 -0.0388
  546MPD2    H3 8160   2.977   1.985  17.558  0.7540  2.2695  0.3002
  546MPD2     N 8161   2.944   2.264  17.210 -0.1097  0.3623  0.5197
  546MPD2    H5 8162   3.033   2.298  17.244  0.6362  0.2120 -1.2871
  546MPD2    N1 8163   2.666   1.852  17.239  0.1880  0.4180  0.8950
  546MPD2    H7 8164   2.635   1.782  17.306 -0.4764 -0.0425  0.1094
  547TMC3    C1 8165   2.492   1.771  17.114  0.8844  0.2497 -0.2172
  547TMC3    C2 8166   2.435   1.752  16.991 -0.0116 -0.3909  0.2132
  547TMC3    C3 8167   2.318   1.682  16.984  0.7140  0.7768  0.4079
  547TMC3    C4 8168   2.420   1.734  17.227  0.0252  0.4880  0.7331
  547TMC3    C5 8169   2.301   1.662  17.215  0.3770  0.1044 -0.5949
  547TMC3    C6 8170   2.248   1.640  17.091  0.4440  0.0467  0.5216
  547TMC3     C 8171   2.601   1.858  17.118  0.0891  0.2265  0.9489
  547TMC3     O 8172   2.630   1.931  17.023  0.0915  0.3157  0.0454
  547TMC3     H 8173   2.472   1.798  16.900 -1.3238 -0.3188 -0.2800
  547TMC3    H1 8174   2.449   1.765  17.327  1.5593 -0.0312  0.4431
  547TMC3    H2 8175   2.146   1.604  17.083 -0.2966  2.3489 -0.6193
  547TMC3    C7 8176   2.236   1.614  17.335 -0.3151  1.1385 -0.8391
  547TMC3    C8 8177   2.239   1.691  16.859 -0.4475 -0.1048 -0.0455
  547TMC3    O1 8178   2.319   1.583  17.422  0.0234 -0.1535  0.4876
  547TMC3    O2 8179   2.234   1.806  16.815  0.0520  0.4391 -0.5663
  548MPD2     C 8180   2.123   2.732  12.804 -0.5735  0.1550 -0.2091
  548MPD2    C1 8181   2.063   2.635  12.743 -0.4315 -0.1056 -0.3947
  548MPD2    C2 8182   2.134   2.551  12.656  0.2396  0.7539  0.6763
  548MPD2    C3 8183   2.267   2.570  12.630 -1.0886  0.1957  0.3860
  548MPD2    C4 8184   2.322   2.685  12.683 -0.2919  0.6006  0.0736
  548MPD2    C5 8185   2.260   2.759  12.775 -0.1237 -0.1620 -0.1687
  548MPD2     H 8186   2.092   2.463  12.609 -1.0446 -0.5546  4.2128
  548MPD2    H1 8187   2.429   2.695  12.665 -0.4244 -0.8943 -1.5403
  548MPD2    H2 8188   2.073   2.787  12.883  2.4517  1.9820  0.4539
  548MPD2    H3 8189   2.313   2.833  12.834 -0.8910  0.0761  0.2100
  548MPD2     N 8190   2.323   2.473  12.549  0.5918 -0.1838 -0.1554
  548MPD2    H5 8191   2.270   2.389  12.529 -0.0725  0.6211 -1.7174
  548MPD2    N1 8192   1.925   2.621  12.759 -0.5325 -0.1194 -0.7370
  548MPD2    H7 8193   1.886   2.690  12.823 -2.7931 -2.6694  0.6389
  549TMC3    C1 8194   1.697   2.580  12.695  0.2644  0.2887 -1.0470
  549TMC3    C2 8195   1.679   2.716  12.674 -0.6408  0.4578 -0.2045
  549TMC3    C3 8196   1.566   2.758  12.611 -0.6677 -0.2002 -0.3884
  549TMC3    C4 8197   1.602   2.495  12.653  0.1888  0.9856 -0.3490
  549TMC3    C5 8198   1.485   2.543  12.603 -0.0184  0.4753  0.4175
  549TMC3    C6 8199   1.476   2.671  12.558  0.0313 -0.3337 -0.0738
  549TMC3     C 8200   1.837   2.524  12.708  0.5214  0.3003  1.1077
  549TMC3     O 8201   1.866   2.416  12.654 -0.0704 -0.3444 -0.2370
  549TMC3     H 8202   1.762   2.783  12.697  0.8996 -1.8338  0.8724
  549TMC3    H1 8203   1.613   2.391  12.684 -1.6978  1.3028  1.3968
  549TMC3    H2 8204   1.379   2.698  12.518  0.4259  1.2085  0.0047
  549TMC3    C7 8205   1.394   2.450  12.536  0.2543  0.0285 -0.6717
  549TMC3    C8 8206   1.546   2.900  12.582 -0.3870 -0.3468  0.2000
  549TMC3    O1 8207   1.285   2.494  12.504  0.6592  0.2037  0.2926
  549TMC3    O2 8208   1.439   2.932  12.541 -0.3224 -0.0105 -0.0517
  550TMC3    C1 8209   0.936   0.137  11.988  0.3780  0.8439  0.0618
  550TMC3    C2 8210   0.939   0.195  12.110  0.7394  0.2565 -0.5797
  550TMC3    C3 8211   0.980   0.324  12.120 -0.6744  0.3268 -0.1760
  550TMC3    C4 8212   1.000   0.190  11.880 -0.1367  0.0071  0.1395
  550TMC3    C5 8213   1.041   0.322  11.894  0.1192  0.1419 -0.0715
  550TMC3    C6 8214   1.029   0.387  12.009 -0.0184  0.4354 -0.4883
  550TMC3     C 8215   0.804   0.092  11.956 -0.3946 -0.2937 -0.2286
  550TMC3     O 8216   0.731   0.102  12.050 -0.2098  0.1648 -0.4424
  550TMC3     H 8217   0.909   0.138  12.197  0.1579  0.2671 -0.7684
  550TMC3    H1 8218   1.010   0.132  11.789 -0.5135  0.9935 -0.5296
  550TMC3    H2 8219   1.068   0.486  12.031  1.9676 -0.2087 -1.0683
  550TMC3    C7 8220   0.992   0.399  11.780  0.0901  0.4471 -0.0630
  550TMC3    C8 8221   0.887   0.411  12.188 -0.0415  0.3682  0.4706
  550TMC3    O1 8222   1.040   0.400  11.669 -0.0077 -0.0032 -0.2078
  550TMC3    O2 8223   0.922   0.525  12.230 -0.4650  0.2886  0.5391
  551TMC3    C1 8224   3.336   3.009  13.055 -0.3579  0.0728 -0.4142
  551TMC3    C2 8225   3.432   2.929  13.005  0.4569 -0.1626 -0.1327
  551TMC3    C3 8226   3.534   2.896  13.090 -0.2886 -0.4196  0.0416
  551TMC3    C4 8227   3.340   3.067  13.179 -0.5047  0.2925 -0.6994
  551TMC3    C5 8228   3.441   3.033  13.259  1.3180  0.4490  0.0490
  551TMC3    C6 8229   3.543   2.955  13.211 -0.0966  0.1307  0.1821
  551TMC3     C 8230   3.216   3.012  12.969 -0.5931 -0.0269 -0.0422
  551TMC3     O 8231   3.252   2.996  12.855 -0.0531  0.0641  0.1065
  551TMC3     H 8232   3.435   2.877  12.910 -0.2948 -0.3128 -0.0733
  551TMC3    H1 8233   3.267   3.144  13.205 -1.4221 -1.5191  2.1110
  551TMC3    H2 8234   3.622   2.921  13.277 -0.1261 -1.7008 -0.7353
  551TMC3    C7 8235   3.431   3.057  13.409  0.0201 -0.0092  0.1673
  551TMC3    C8 8236   3.652   2.837  13.029 -1.3083 -0.1527 -0.0019
  551TMC3    O1 8237   3.518   3.001  13.474  0.0195 -0.2398  0.0402
  551TMC3    O2 8238   3.638   2.770  12.925  0.1302  0.3588 -0.3153
  552MPD2     C 8239   0.244   4.511  14.649  0.2716 -0.6620  0.7051
  552MPD2    C1 8240   0.327   4.537  14.540  0.1917 -0.2849 -0.7328
  552MPD2    C2 8241   0.435   4.619  14.558  0.2683  0.1620 -0.0851
  552MPD2    C3 8242   0.461   4.666  14.685  0.1488 -0.2096 -0.5056
  552MPD2    C4 8243   0.386   4.633  14.791 -0.1005 -0.2440 -0.4385
  552MPD2    C5 8244   0.274   4.556  14.775  0.8594 -0.7095  0.3146
  552MPD2     H 8245   0.502   4.635  14.474 -0.9022  1.3190 -0.7957
  552MPD2    H1 8246   0.399   4.679  14.889 -0.2137 -0.9788 -0.0773
  552MPD2    H2 8247   0.151   4.456  14.638 -0.0140  0.6649 -3.3898
  552MPD2    H3 8248   0.205   4.546  14.858  2.1381 -0.4351  1.4084
  552MPD2     N 8249   0.568   0.010  14.720  0.0242 -0.1480  0.1643
  552MPD2    H5 8250   0.585   0.027  14.819  0.1384 -1.2933  0.3443
  552MPD2    N1 8251   0.317   4.474  14.411  0.2018 -0.1156  0.3573
  552MPD2    H7 8252   0.382   4.505  14.339  1.0911 -1.5222  0.5517
  553TMC3    C1 8253   0.238   4.305  14.259 -0.8323 -0.6497  0.4447
  553TMC3    C2 8254   0.225   4.396  14.160  0.2306 -0.8237  0.4201
  553TMC3    C3 8255   0.294   4.371  14.045  0.3244  0.0187  1.5991
  553TMC3    C4 8256   0.305   4.187  14.247  0.4472  0.0929 -0.0235
  553TMC3    C5 8257   0.376   4.167  14.127  0.4991 -0.0802  0.4551
  553TMC3    C6 8258   0.370   4.261  14.028 -0.3834 -0.2484  0.0582
  553TMC3     C 8259   0.237   4.367  14.390  0.0649  0.1975 -0.6425
  553TMC3     O 8260   0.165   4.302  14.468  0.4121  0.3183  0.1921
  553TMC3     H 8261   0.178   4.492  14.181  2.0506 -0.1620  1.5339
  553TMC3    H1 8262   0.316   4.136  14.342 -0.5301 -0.5736 -0.2788
  553TMC3    H2 8263   0.419   4.261  13.931 -1.3342 -1.1826 -0.4320
  553TMC3    C7 8264   0.468   4.055  14.115 -0.2334  0.0712 -0.2454
  553TMC3    C8 8265   0.308   4.481  13.948 -0.4959  0.3645 -0.0345
  553TMC3    O1 8266   0.462   3.976  14.209  0.3021  0.2401  0.9570
  553TMC3    O2 8267   0.417   4.485  13.894 -0.6594  0.2076  0.0731
  554TMC3    C1 8268   1.864   4.500  11.303  0.2527  0.3059  0.1507
  554TMC3    C2 8269   1.747   4.502  11.231 -0.3589 -0.1875  0.2758
  554TMC3    C3 8270   1.721   4.595  11.133  1.0812  0.1654 -0.6516
  554TMC3    C4 8271   1.950   4.596  11.280  0.4499  0.8007  0.7382
  554TMC3    C5 8272   1.925   4.694  11.182 -0.4919 -0.4920 -0.5790
  554TMC3    C6 8273   1.815   4.690  11.108  0.2050 -0.1277  0.4593
  554TMC3     C 8274   1.870   4.430  11.432 -0.6500  0.3930  0.4991
  554TMC3     O 8275   1.766   4.421  11.497 -0.3582 -0.5859 -0.4386
  554TMC3     H 8276   1.663   4.455  11.282 -0.2834 -0.0541  0.5226
  554TMC3    H1 8277   2.046   4.597  11.330 -0.8752 -2.0768  3.2782
  554TMC3    H2 8278   1.800   0.029  11.037  1.1171  2.0163  2.7082
  554TMC3    C7 8279   2.038   0.008  11.124  0.1637  0.0012  0.4772
  554TMC3    C8 8280   1.649   4.563  11.011 -0.4488  0.0455  0.0992
  554TMC3    O1 8281   2.051   0.004  11.003 -1.1893  0.5172 -0.6937
  554TMC3    O2 8282   1.627   4.652  10.929 -0.1628  0.1228  0.0868
  555TMC3    C1 8283   1.683   3.625  14.937  0.1419  0.1457  0.2260
  555TMC3    C2 8284   1.777   3.663  15.031  0.2990 -0.6731  0.1724
  555TMC3    C3 8285   1.762   3.619  15.162  0.8344  0.6507  0.0801
  555TMC3    C4 8286   1.579   3.534  14.968  0.6746 -0.7113 -0.4510
  555TMC3    C5 8287   1.581   3.486  15.098  0.0289 -0.2239 -0.1277
  555TMC3    C6 8288   1.669   3.523  15.199  0.6450 -0.7936  0.2471
  555TMC3     C 8289   1.679   3.703  14.815 -0.0423  0.5842  0.3430
  555TMC3     O 8290   1.789   3.749  14.778  0.2414 -0.1504 -0.0572
  555TMC3     H 8291   1.867   3.718  15.010 -1.4459  1.2770 -2.1545
  555TMC3    H1 8292   1.501   3.512  14.896  0.5053 -2.4920  0.2870
  555TMC3    H2 8293   1.665   3.469  15.293  1.0220 -0.5862  0.3822
  555TMC3    C7 8294   1.516   3.358  15.127 -0.3575 -0.0136  0.0314
  555TMC3    C8 8295   1.871   3.640  15.248 -0.5466 -0.4721 -0.0086
  555TMC3    O1 8296   1.491   3.344  15.248 -0.0603  0.5944  0.1371
  555TMC3    O2 8297   1.975   3.686  15.199  0.2455  0.0382  0.1660
  556MPD2     C 8298   3.651   0.878  10.279  0.2644  0.6637  0.4479
  556MPD2    C1 8299   3.740   0.797  10.350 -0.3753 -0.1913 -0.5895
  556MPD2    C2 8300   3.812   0.703  10.285 -0.4071  0.2356 -0.0943
  556MPD2    C3 8301   3.805   0.687  10.149  0.2848 -0.2695 -0.0630
  556MPD2    C4 8302   3.722   0.771  10.074  0.7923  0.2616 -0.0808
  556MPD2    C5 8303   3.641   0.862  10.145  0.4316  0.4004  0.0294
  556MPD2     H 8304   3.885   0.653  10.348 -1.0922 -0.0429  0.4920
  556MPD2    H1 8305   3.720   0.760   9.966  0.2291  0.0464 -0.0452
  556MPD2    H2 8306   3.591   0.949  10.335 -1.4639 -2.5480  2.6473
  556MPD2    H3 8307   3.565   0.919  10.093 -0.5297 -1.4911 -0.6177
  556MPD2     N 8308   3.890   0.587  10.092 -0.4240  0.0501 -0.1090
  556MPD2    H5 8309   3.956   0.544  10.156  1.6348 -1.0717 -2.9798
  556MPD2    N1 8310   3.767   0.814  10.486  0.7000 -0.2446 -0.0832
  556MPD2    H7 8311   3.845   0.762  10.523 -0.0344 -1.8391 -0.7460
  557TMC3    C1 8312   4.010   0.444   9.946  0.0947  0.3257  0.6617
  557TMC3    C2 8313   3.989   0.367   9.842 -0.8589 -0.1746  0.0658
  557TMC3    C3 8314   4.037   0.238   9.858 -0.2149 -0.0964  0.7447
  557TMC3    C4 8315   4.074   0.403  10.062 -0.8820  0.3051 -0.2134
  557TMC3    C5 8316   4.119   0.273  10.078 -0.4470  0.0968 -0.0149
  557TMC3    C6 8317   4.088   0.188   9.972 -0.4972 -0.3307  0.6092
  557TMC3     C 8318   3.916   0.559   9.959 -0.6016  0.2789  0.7903
  557TMC3     O 8319   3.849   0.589   9.864 -0.9362 -0.3199 -0.4656
  557TMC3     H 8320   3.950   0.413   9.752 -0.4758 -0.2708 -0.1520
  557TMC3    H1 8321   4.091   0.470  10.145  0.5422 -2.2867  1.5972
  557TMC3    H2 8322   4.090   0.081   9.988 -0.9147 -0.4673 -0.2257
  557TMC3    C7 8323   4.078   0.226  10.211 -0.2748  0.1112  0.0783
  557TMC3    C8 8324   4.030   0.151   9.743 -0.2025  0.7654  0.2788
  557TMC3    O1 8325   4.042   0.307  10.289  0.2361 -0.3101 -0.1199
  557TMC3    O2 8326   3.954   0.193   9.659  0.5486 -0.6288 -0.0827
  558TMC3    C1 8327   2.040   3.797   9.963 -0.5223 -0.6949 -0.0130
  558TMC3    C2 8328   1.919   3.784  10.034  0.7119 -0.3873  0.2084
  558TMC3    C3 8329   1.806   3.793   9.965 -0.6375 -0.5027  0.1844
  558TMC3    C4 8330   2.033   3.832   9.829 -0.0231 -0.1157  0.0640
  558TMC3    C5 8331   1.916   3.832   9.768  0.3367  0.2365 -0.9359
  558TMC3    C6 8332   1.796   3.813   9.830  0.0064  0.0068  0.4014
  558TMC3     C 8333   2.161   3.740  10.019  1.0330  0.1162  0.2484
  558TMC3     O 8334   2.271   3.757   9.968 -0.3643 -0.0751 -0.1063
  558TMC3     H 8335   1.913   3.788  10.142  0.5093 -0.0508  0.1840
  558TMC3    H1 8336   2.120   3.817   9.766  0.9441 -0.6722  1.5389
  558TMC3    H2 8337   1.702   3.835   9.780 -1.6392 -2.0173  2.6276
  558TMC3    C7 8338   1.928   3.781   9.629 -0.2384 -0.6978  0.1805
  558TMC3    C8 8339   1.677   3.759  10.033  0.4552 -0.0636  0.4457
  558TMC3    O1 8340   2.020   3.823   9.565  0.7276  0.2230 -0.1135
  558TMC3    O2 8341   1.574   3.764   9.969  0.1567  0.3065 -0.0594
  559MPD2     C 8342   1.780   4.149   9.899 -0.6582  0.7229  0.2267
  559MPD2    C1 8343   1.754   4.116  10.026 -0.1780 -0.0008 -0.0726
  559MPD2    C2 8344   1.857   4.115  10.119 -0.5741 -0.3109 -0.6323
  559MPD2    C3 8345   1.985   4.132  10.074  0.2218  0.0205 -0.9455
  559MPD2    C4 8346   2.005   4.147   9.938 -0.0501  0.5891  0.5718
  559MPD2    C5 8347   1.906   4.166   9.851  0.8379  0.1935 -0.1692
  559MPD2     H 8348   1.838   4.088  10.222 -0.1275  0.5708 -0.3203
  559MPD2    H1 8349   2.103   4.150   9.892 -1.5057 -0.4562 -2.5719
  559MPD2    H2 8350   1.699   4.159   9.828 -0.0463 -0.2239 -0.5997
  559MPD2    H3 8351   1.926   4.195   9.749 -2.7541  1.7531 -0.4552
  559MPD2     N 8352   2.091   4.118  10.168 -0.2429  0.2434 -0.2944
  559MPD2    H5 8353   2.064   4.114  10.266  0.1423 -0.7797 -0.2324
  559MPD2    N1 8354   1.615   4.104  10.062 -0.6457  0.7227 -0.6493
  559MPD2    H7 8355   1.543   4.120   9.992  0.2524 -1.4984 -2.0749
  560TMC3    C1 8356   2.290   4.101  10.277  0.0002 -0.2846  0.0630
  560TMC3    C2 8357   2.240   4.000  10.355  0.1431 -0.0505  0.5911
  560TMC3    C3 8358   2.308   3.969  10.469  0.7148  0.3776  0.0551
  560TMC3    C4 8359   2.410   4.152  10.291  0.2357  0.0181  0.3854
  560TMC3    C5 8360   2.472   4.129  10.408  0.3166 -0.0180 -1.1105
  560TMC3    C6 8361   2.426   4.025  10.485 -0.2671 -0.5691 -0.5440
  560TMC3     C 8362   2.226   4.110  10.147 -0.4218  0.9935  0.4629
  560TMC3     O 8363   2.290   4.101  10.041  0.2068  0.3930  0.7005
  560TMC3     H 8364   2.140   3.959  10.342  0.4970 -0.6963 -0.0820
  560TMC3    H1 8365   2.448   4.215  10.211 -2.8763  2.0285  0.4760
  560TMC3    H2 8366   2.488   3.994  10.568 -1.1387 -1.5441 -0.2560
  560TMC3    C7 8367   2.621   4.143  10.410  0.1392  0.1798  0.3334
  560TMC3    C8 8368   2.272   3.844  10.534  0.1722 -0.5898 -0.5165
  560TMC3    O1 8369   2.683   4.124  10.307  0.4554  0.0739  0.2393
  560TMC3    O2 8370   2.151   3.824  10.535  0.4673 -0.4710  0.2428
  561TMC3    C1 8371   4.409   3.092  11.021 -0.0659  0.6245 -0.2464
  561TMC3    C2 8372   4.362   3.046  11.142 -0.1135 -0.2452 -0.6477
  561TMC3    C3 8373   4.312   3.133  11.232 -0.0284  0.5869  0.7255
  561TMC3    C4 8374   4.417   3.223  10.987 -0.5649  0.4340 -0.2030
  561TMC3    C5 8375   4.368   3.308  11.086  0.8496 -0.2819  0.6869
  561TMC3    C6 8376   4.313   3.266  11.201  0.0742  0.0080 -0.8740
  561TMC3     C 8377   4.481   2.990  10.941  0.8324 -0.2369  0.2959
  561TMC3     O 8378   4.446   2.874  10.946 -0.0813 -0.4189  0.3107
  561TMC3     H 8379   4.384   2.942  11.166  0.2700  0.4402  1.9985
  561TMC3    H1 8380   4.457   3.251  10.891 -1.4078  2.7603  0.1181
  561TMC3    H2 8381   4.278   3.335  11.277  0.2260  1.5678 -2.1960
  561TMC3    C7 8382   4.392   3.450  11.071 -0.5062 -0.8336 -0.5079
  561TMC3    C8 8383   4.352   3.096  11.367 -0.4528 -0.4261  0.3238
  561TMC3    O1 8384   4.333   3.518  11.158  0.3686 -0.0853  0.2999
  561TMC3    O2 8385   4.434   3.010  11.380  0.2747  0.2899  0.3000
  562TMC3    C1 8386   1.105   4.263  16.776  0.0956  0.2409 -0.6603
  562TMC3    C2 8387   1.086   4.388  16.728 -0.1507  0.5734  0.1919
  562TMC3    C3 8388   1.043   4.395  16.601  1.2208 -0.2958 -0.5377
  562TMC3    C4 8389   1.071   4.153  16.702 -0.2674 -0.7738  0.0087
  562TMC3    C5 8390   1.028   4.169  16.569  0.1094 -0.3425  0.3924
  562TMC3    C6 8391   1.008   4.293  16.517  0.6754 -0.1382  0.1911
  562TMC3     C 8392   1.106   4.239  16.923  0.1148  0.1577  0.7359
  562TMC3     O 8393   1.128   4.123  16.965  0.2608  0.1352 -0.1910
  562TMC3     H 8394   1.112   4.480  16.781  3.4399  1.1623 -2.5805
  562TMC3    H1 8395   1.075   4.055  16.747 -0.7243  0.1400  2.0704
  562TMC3    H2 8396   0.965   4.298  16.417 -0.6011  2.5798  0.8722
  562TMC3    C7 8397   0.975   4.057  16.495  0.1207  0.3948 -0.3515
  562TMC3    C8 8398   1.051   4.532  16.541 -0.1764 -0.5730 -0.2251
  562TMC3    O1 8399   0.873   4.076  16.426 -0.5842 -0.4608 -0.3228
  562TMC3    O2 8400   1.096   4.619  16.610 -0.0073 -0.4781 -0.5469
  563MPD2     C 8401   3.456   0.711  15.529 -0.1289 -0.1408 -0.0542
  563MPD2    C1 8402   3.530   0.717  15.643 -0.4940 -0.3687 -0.0618
  563MPD2    C2 8403   3.655   0.660  15.644 -0.0328 -0.4476  0.2430
  563MPD2    C3 8404   3.711   0.599  15.531  0.4727  0.2392  0.0817
  563MPD2    C4 8405   3.643   0.620  15.415  0.0590 -0.0591 -0.4551
  563MPD2    C5 8406   3.514   0.670  15.417 -0.9122 -0.1528  0.9875
  563MPD2     H 8407   3.711   0.666  15.737 -1.2588  2.5879  0.8054
  563MPD2    H1 8408   3.675   0.579  15.320 -0.4488 -2.2887  0.3320
  563MPD2    H2 8409   3.358   0.756  15.517 -0.2286 -0.4975 -0.5944
  563MPD2    H3 8410   3.459   0.688  15.326 -0.2227 -1.6593  0.2649
  563MPD2     N 8411   3.838   0.535  15.548 -0.2412 -0.1334  0.3043
  563MPD2    H5 8412   3.887   0.557  15.634 -0.0499  0.1468  0.1258
  563MPD2    N1 8413   3.465   0.775  15.760 -0.2318 -0.5749 -0.1039
  563MPD2    H7 8414   3.367   0.798  15.746 -0.3328  0.5206  2.4951
  564TMC3    C1 8415   3.471   0.790  16.000 -0.2622  0.1222 -0.2449
  564TMC3    C2 8416   3.344   0.734  16.000 -0.3827  0.6707  0.4229
  564TMC3    C3 8417   3.314   0.629  16.085 -0.3410 -0.0483  0.1412
  564TMC3    C4 8418   3.564   0.748  16.094  0.4342  0.4618  0.3952
  564TMC3    C5 8419   3.535   0.648  16.176 -0.1059 -0.1153 -0.5545
  564TMC3    C6 8420   3.404   0.600  16.185 -1.0802 -0.2159  0.4039
  564TMC3     C 8421   3.532   0.819  15.871  0.1042 -0.5156  0.1291
  564TMC3     O 8422   3.649   0.852  15.879 -0.0835  0.0167 -0.0185
  564TMC3     H 8423   3.269   0.760  15.925  0.3046  1.2083 -0.0821
  564TMC3    H1 8424   3.668   0.776  16.084  0.8461 -0.3808  2.2417
  564TMC3    H2 8425   3.380   0.521  16.255  1.2759 -2.3647 -1.2060
  564TMC3    C7 8426   3.613   0.523  16.159  0.5417 -0.3095  0.2080
  564TMC3    C8 8427   3.283   0.508  16.023 -0.2674 -0.2873  0.3215
  564TMC3    O1 8428   3.615   0.446  16.256  0.1515  0.1147  0.4320
  564TMC3    O2 8429   3.252   0.417  16.100  0.2270 -0.2758  0.0877
  565TMC3    C1 8430   3.670   2.075  10.085  0.1730 -0.4128 -0.6143
  565TMC3    C2 8431   3.683   2.056  10.217  0.3357 -0.2757  0.2087
  565TMC3    C3 8432   3.624   1.941  10.265  0.2167  0.2790 -0.2593
  565TMC3    C4 8433   3.590   1.996  10.009  0.3370  0.1729 -0.1198
  565TMC3    C5 8434   3.535   1.881  10.063  0.3673 -1.0537  0.2353
  565TMC3    C6 8435   3.553   1.859  10.192  0.0639 -0.1089 -0.6257
  565TMC3     C 8436   3.723   2.197  10.019 -0.5372 -0.0733  0.0849
  565TMC3     O 8437   3.716   2.209   9.899  0.4960 -0.4088 -0.4670
  565TMC3     H 8438   3.757   2.102  10.281  2.1068 -0.5259 -1.6470
  565TMC3    H1 8439   3.572   2.027   9.906 -0.6902 -2.6532 -0.7855
  565TMC3    H2 8440   3.554   1.756  10.229  1.6038  0.7489  1.7358
  565TMC3    C7 8441   3.426   1.817  10.001 -0.4749  0.4510  0.5357
  565TMC3    C8 8442   3.629   1.926  10.413  0.6342  0.2450  0.0458
  565TMC3    O1 8443   3.355   1.756  10.079  0.1917  0.1246 -0.2895
  565TMC3    O2 8444   3.682   2.016  10.480 -0.0103 -0.0961  0.0454
  566MPD2     C 8445   0.517   3.103  13.945 -0.3832  0.1790 -0.2648
  566MPD2    C1 8446   0.468   3.228  13.924  0.1034  0.1831 -0.3563
  566MPD2    C2 8447   0.363   3.252  13.839 -1.1907 -0.2254  0.3236
  566MPD2    C3 8448   0.306   3.149  13.768  1.0182  0.1500  0.5396
  566MPD2    C4 8449   0.346   3.024  13.795 -0.5735  0.5289 -0.1259
  566MPD2    C5 8450   0.454   2.999  13.882 -0.1870 -0.4730 -0.8032
  566MPD2     H 8451   0.335   3.356  13.823 -1.7414 -0.7337 -2.1255
  566MPD2    H1 8452   0.295   2.937  13.757 -2.0822  1.3914 -0.0544
  566MPD2    H2 8453   0.607   3.092  14.004 -0.0924  1.4987 -0.4720
  566MPD2    H3 8454   0.500   2.901  13.894 -0.2308 -0.7563 -2.9042
  566MPD2     N 8455   0.195   3.160  13.683 -0.5016  0.0785  0.5029
  566MPD2    H5 8456   0.172   3.072  13.638 -0.2278  0.4325 -0.3238
  566MPD2    N1 8457   0.549   3.331  13.984  0.1525  0.0935  0.5813
  566MPD2    H7 8458   0.639   3.303  14.022 -0.5019 -3.1023 -0.1690
  567TMC3    C1 8459   0.624   3.554  14.005 -0.2045  0.4543 -0.0048
  567TMC3    C2 8460   0.614   3.619  13.888  0.0231  0.5727 -0.0917
  567TMC3    C3 8461   0.723   3.627  13.812  0.7352 -0.0051  0.0033
  567TMC3    C4 8462   0.742   3.501  14.051 -0.9375 -0.3753 -0.3723
  567TMC3    C5 8463   0.855   3.520  13.974 -0.6130 -0.1146  0.4157
  567TMC3    C6 8464   0.847   3.588  13.855 -0.4030  0.4154 -0.4190
  567TMC3     C 8465   0.513   3.464  14.012  0.1685  0.4498 -0.2285
  567TMC3     O 8466   0.401   3.509  14.003  0.0315  0.3816 -0.3358
  567TMC3     H 8467   0.518   3.660  13.859 -0.8367 -1.0368  0.4611
  567TMC3    H1 8468   0.733   3.450  14.146 -2.8933  0.4088 -0.1330
  567TMC3    H2 8469   0.938   3.614  13.804 -0.2295 -0.3611 -0.5059
  567TMC3    C7 8470   0.991   3.525  14.031 -0.1501  0.3095 -0.0728
  567TMC3    C8 8471   0.706   3.696  13.691 -0.1127  0.1700 -0.5690
  567TMC3    O1 8472   1.086   3.567  13.962 -0.8048 -0.3830 -0.0043
  567TMC3    O2 8473   0.602   3.700  13.626 -0.5468 -0.4106 -0.4068
  568MPD2     C 8474   3.460   3.708  16.063  0.3830  0.0337  0.5976
  568MPD2    C1 8475   3.434   3.769  16.185 -0.1514 -0.2826  0.8332
  568MPD2    C2 8476   3.448   3.907  16.196 -0.3109 -0.0379 -0.0554
  568MPD2    C3 8477   3.471   3.976  16.082  0.0744 -0.0201  0.0610
  568MPD2    C4 8478   3.498   3.912  15.964 -0.5294 -0.8678 -0.8236
  568MPD2    C5 8479   3.500   3.779  15.958 -0.3558 -0.2312 -0.4676
  568MPD2     H 8480   3.436   3.961  16.289  0.6483  2.1842 -1.2196
  568MPD2    H1 8481   3.518   3.964  15.871 -0.5895  0.0895 -0.2951
  568MPD2    H2 8482   3.453   3.600  16.057 -2.3947  0.1660  1.4508
  568MPD2    H3 8483   3.525   3.732  15.864  0.0449 -0.2427 -0.3573
  568MPD2     N 8484   3.475   4.119  16.095 -0.6948 -0.5372  0.0709
  568MPD2    H5 8485   3.449   4.160  16.184 -0.6489  1.6368 -0.9066
  568MPD2    N1 8486   3.395   3.688  16.297 -0.2760  0.2902 -0.1960
  568MPD2    H7 8487   3.406   3.588  16.286 -3.9177  0.1729 -2.8397
  569TMC3    C1 8488   3.532   4.342  16.033 -0.2558  0.0152  0.4046
  569TMC3    C2 8489   3.555   4.373  16.160 -0.4548 -0.0820 -0.0956
  569TMC3    C3 8490   3.584   4.505  16.197 -0.1079  0.5947 -0.3175
  569TMC3    C4 8491   3.538   4.437  15.938 -0.8477  0.4578 -0.3676
  569TMC3    C5 8492   3.534   4.567  15.972  0.1466  0.6034  0.7248
  569TMC3    C6 8493   3.564   4.607  16.104  0.5131 -0.1015 -0.1091
  569TMC3     C 8494   3.491   4.205  15.992 -0.4429 -0.4479 -0.1095
  569TMC3     O 8495   3.489   4.195  15.869 -0.1474  0.6100 -0.0851
  569TMC3     H 8496   3.563   4.293  16.233  1.4166 -1.1392 -1.4536
  569TMC3    H1 8497   3.498   4.410  15.841 -1.0506  1.6809 -0.6307
  569TMC3    H2 8498   3.561   4.712  16.128  1.8962 -0.3810  1.3395
  569TMC3    C7 8499   3.521   4.663  15.861  0.3093  0.0889  0.4059
  569TMC3    C8 8500   3.653   4.518  16.327 -0.7310  0.7372 -0.6724
  569TMC3    O1 8501   3.560   4.635  15.751 -0.3625 -0.0323  0.3233
  569TMC3    O2 8502   3.654   4.415  16.397 -0.0631 -0.2530 -0.3613
  570TMC3    C1 8503   2.737   2.670  15.990 -0.2950  0.8938  0.3917
  570TMC3    C2 8504   2.807   2.684  15.870 -0.6440 -0.5549  0.4809
  570TMC3    C3 8505   2.869   2.806  15.843  0.0278  1.0114  0.6348
  570TMC3    C4 8506   2.735   2.766  16.087 -0.2686 -1.2972 -0.1186
  570TMC3    C5 8507   2.806   2.877  16.059 -0.4493  0.3556  0.0996
  570TMC3    C6 8508   2.869   2.903  15.942 -0.4316  0.3389 -0.5120
  570TMC3     C 8509   2.677   2.540  16.019 -0.1407  0.2945  0.1951
  570TMC3     O 8510   2.670   2.462  15.925  0.4155  0.7377  0.0895
  570TMC3     H 8511   2.825   2.602  15.801  0.0683  0.5330 -0.6094
  570TMC3    H1 8512   2.668   2.771  16.172 -0.1695 -0.8635 -0.0662
  570TMC3    H2 8513   2.935   2.986  15.923  1.6561 -1.2043  0.0100
  570TMC3    C7 8514   2.778   2.997  16.145 -0.9128  0.0062  0.4812
  570TMC3    C8 8515   2.940   2.834  15.718 -0.4022 -0.0543  0.8262
  570TMC3    O1 8516   2.737   2.978  16.261 -0.3169  0.0395  0.1002
  570TMC3    O2 8517   2.983   2.951  15.711 -0.2021 -0.8510  0.5343
  571MPD2     C 8518   4.322   0.331   0.092 -0.5034  0.4656  0.0504
  571MPD2    C1 8519   4.356   0.230   0.176  0.3184  0.4123  0.9144
  571MPD2    C2 8520   4.489   0.203   0.197 -0.1121 -0.4692  0.6172
  571MPD2    C3 8521   4.588   0.265   0.126 -0.3675 -0.0731  0.8619
  571MPD2    C4 8522   4.552   0.363   0.037 -0.0365  0.4212 -0.3252
  571MPD2    C5 8523   4.419   0.388   0.014  0.3179  0.0672 -0.1878
  571MPD2     H 8524   4.525   0.134   0.272 -0.2443 -1.2142  0.0015
  571MPD2    H1 8525   4.609   0.435  17.744 -0.8803  0.4986 -1.0600
  571MPD2    H2 8526   4.220   0.366   0.083 -0.9756 -0.1743  2.7561
  571MPD2    H3 8527   4.394   0.467  17.710  2.2189  0.6017 -0.2634
  571MPD2     N 8528   4.724   0.238   0.152 -0.3014  0.0806  0.2159
  571MPD2    H5 8529   0.003   0.168   0.223  2.4969  2.6162  1.8669
  571MPD2    N1 8530   4.250   0.167   0.245  0.3810 -0.4427 -0.6940
  571MPD2    H7 8531   4.158   0.203   0.221 -0.0453  0.0092  1.5641
  572TMC3    C1 8532   0.217   0.262   0.139  0.2281  0.3076  0.0734
  572TMC3    C2 8533   0.224   0.213   0.267 -0.2754  0.2897  0.0811
  572TMC3    C3 8534   0.348   0.219   0.324  0.7739 -0.7524  0.2819
  572TMC3    C4 8535   0.320   0.334   0.084 -0.2673  0.3928  0.0209
  572TMC3    C5 8536   0.432   0.367   0.160 -0.5008 -0.0738 -0.5665
  572TMC3    C6 8537   0.448   0.308   0.281  0.3846 -0.4714  0.0953
  572TMC3     C 8538   0.085   0.292   0.076 -0.6196  0.4302 -0.4949
  572TMC3     O 8539   0.087   0.358  17.738  0.5076 -0.3618 -0.4159
  572TMC3     H 8540   0.165   0.127   0.297  2.1048 -0.8849  1.3908
  572TMC3    H1 8541   0.319   0.375  17.748 -0.9997  2.0802  0.7074
  572TMC3    H2 8542   0.539   0.304   0.339  0.7124  1.3690 -0.2870
  572TMC3    C7 8543   0.508   0.482   0.118 -0.0548  0.5144  0.4594
  572TMC3    C8 8544   0.371   0.154   0.448 -0.1335  0.4399 -0.1473
  572TMC3    O1 8545   0.463   0.555   0.031 -0.0946 -0.2941  0.2302
  572TMC3    O2 8546   0.470   0.084   0.461  0.5746 -0.1432 -0.7022
  573MPD2     C 8547   1.611   1.377   0.231  0.9160 -0.3986 -0.0483
  573MPD2    C1 8548   1.717   1.295   0.270 -0.3240 -0.0244  0.0617
  573MPD2    C2 8549   1.763   1.202   0.182 -0.3082 -0.0172 -0.3917
  573MPD2    C3 8550   1.712   1.189   0.056 -0.7953 -1.0976 -0.3533
  573MPD2    C4 8551   1.599   1.263   0.024  0.1668 -0.4688  0.0514
  573MPD2    C5 8552   1.555   1.358   0.110 -0.4258 -1.0546  0.1275
  573MPD2     H 8553   1.853   1.147   0.206 -0.0068  0.9781  0.7942
  573MPD2    H1 8554   1.557   1.253  17.689  0.3698 -3.0992  0.2230
  573MPD2    H2 8555   1.574   1.449   0.303 -0.7279  0.4918 -1.7751
  573MPD2    H3 8556   1.480   1.429   0.077  2.2972  1.2391 -1.1362
  573MPD2     N 8557   1.751   1.088  17.728 -0.5174  1.0723  0.6129
  573MPD2    H5 8558   1.690   1.079  17.648 -0.8405 -0.9421  1.0766
  573MPD2    N1 8559   1.763   1.326   0.403 -0.4019  0.0770  0.1979
  573MPD2    H7 8560   1.715   1.396   0.459  1.3011 -0.8063  2.7280
  574TMC3    C1 8561   1.846   0.906  17.622 -0.2665 -0.3366  0.1171
  574TMC3    C2 8562   1.733   0.837  17.608 -0.3135  0.0622 -0.4497
  574TMC3    C3 8563   1.733   0.734  17.514 -0.4713 -0.6149 -0.1868
  574TMC3    C4 8564   1.963   0.864  17.560 -0.6211 -0.9434 -0.2631
  574TMC3    C5 8565   1.963   0.760  17.472 -0.0495  0.0163  0.1874
  574TMC3    C6 8566   1.845   0.686  17.452  0.0497 -0.3742  0.2770
  574TMC3     C 8567   1.855   1.006  17.734  0.1440 -0.2322 -0.1601
  574TMC3     O 8568   1.956   1.008   0.042 -0.4944  0.6784  0.0397
  574TMC3     H 8569   1.645   0.864  17.666 -1.4315 -0.6202 -1.8042
  574TMC3    H1 8570   2.053   0.915  17.594 -2.3519  2.0799 -0.1674
  574TMC3    H2 8571   1.846   0.598  17.389 -1.1356 -0.2495  0.0703
  574TMC3    C7 8572   2.086   0.725  17.397 -0.2542  0.3869  0.6537
  574TMC3    C8 8573   1.606   0.699  17.454  0.0250 -0.0679 -0.0080
  574TMC3    O1 8574   2.166   0.816  17.405 -0.2234 -0.0137 -0.0698
  574TMC3    O2 8575   1.607   0.593  17.390 -0.7152  0.0122  0.3084
  575TMC3    C1 8576   3.873   2.095  11.239 -0.3034 -0.6638  0.1660
  575TMC3    C2 8577   3.912   2.004  11.329 -0.0536 -0.5892  0.3393
  575TMC3    C3 8578   3.912   1.873  11.282  0.2381 -0.6897 -0.2006
  575TMC3    C4 8579   3.836   2.070  11.109 -0.2666  0.0521 -0.4859
  575TMC3    C5 8580   3.849   1.943  11.072 -0.4902  0.3136 -0.2292
  575TMC3    C6 8581   3.878   1.835  11.154  0.5969  0.3703  0.2661
  575TMC3     C 8582   3.872   2.231  11.289 -0.3055  0.1854 -0.2391
  575TMC3     O 8583   3.870   2.247  11.413  0.3444 -0.4456  0.1219
  575TMC3     H 8584   3.947   2.027  11.429 -0.3186  0.5436  0.1719
  575TMC3    H1 8585   3.798   2.140  11.036 -0.3168 -0.1726 -0.6776
  575TMC3    H2 8586   3.884   1.736  11.111 -0.3774  0.1931  0.5352
  575TMC3    C7 8587   3.799   1.911  10.936  0.3202  0.0206  0.2170
  575TMC3    C8 8588   3.910   1.764  11.378  1.4039  0.0059  0.1043
  575TMC3    O1 8589   3.826   1.989  10.845 -0.1016  0.3349 -0.0835
  575TMC3    O2 8590   3.917   1.650  11.334 -0.1139  0.0745  0.7489
  576MPD2     C 8591   3.726   3.285  12.679 -0.8054 -0.4282 -0.5539
  576MPD2    C1 8592   3.657   3.359  12.583 -0.0827 -0.1682  0.7440
  576MPD2    C2 8593   3.525   3.400  12.608  0.5741 -0.1154  0.2594
  576MPD2    C3 8594   3.455   3.371  12.727  0.3256  0.5951  0.1828
  576MPD2    C4 8595   3.526   3.299  12.822  0.7691  1.1633 -0.5620
  576MPD2    C5 8596   3.657   3.270  12.798 -0.1741 -0.0322 -0.2694
  576MPD2     H 8597   3.470   3.464  12.540 -1.6059  0.0992  2.2297
  576MPD2    H1 8598   3.492   3.291  12.924  0.9604 -2.3129 -0.7824
  576MPD2    H2 8599   3.820   3.237  12.656 -1.7012 -1.4629 -2.1192
  576MPD2    H3 8600   3.718   3.219  12.872  2.1499 -0.1516 -2.2412
  576MPD2     N 8601   3.323   3.433  12.744  0.4455  0.3894  0.4074
  576MPD2    H5 8602   3.282   3.482  12.666  0.3553 -1.5124 -0.7377
  576MPD2    N1 8603   3.716   3.401  12.457 -0.1608  0.4202  0.3083
  576MPD2    H7 8604   3.648   3.444  12.394 -1.0006  2.4230  2.5730
  577TMC3    C1 8605   3.863   3.413  12.268 -0.2749  0.2313 -0.2335
  577TMC3    C2 8606   3.972   3.350  12.211  0.2058 -0.4144 -0.7832
  577TMC3    C3 8607   3.968   3.304  12.084 -0.1971 -0.5761 -0.2862
  577TMC3    C4 8608   3.753   3.440  12.191  0.1434  0.4345 -0.0028
  577TMC3    C5 8609   3.749   3.391  12.064  0.0060 -0.2898  0.2641
  577TMC3    C6 8610   3.853   3.322  12.009  0.0851  0.4944  0.0324
  577TMC3     C 8611   3.852   3.394  12.415  0.1767 -0.0353  0.3239
  577TMC3     O 8612   3.948   3.364  12.482  0.2151 -0.6127 -0.2067
  577TMC3     H 8613   4.056   3.324  12.275  0.1035 -1.1217 -0.9362
  577TMC3    H1 8614   3.679   3.511  12.227  0.9351  1.7695 -0.9604
  577TMC3    H2 8615   3.842   3.278  11.911  2.2520 -0.1593  0.0935
  577TMC3    C7 8616   3.627   3.421  11.997 -0.7356 -0.3139 -0.3625
  577TMC3    C8 8617   4.066   3.211  12.035  0.1467 -1.2499 -0.7056
  577TMC3    O1 8618   3.534   3.420  12.070 -0.1060  0.1208 -0.1897
  577TMC3    O2 8619   4.116   3.136  12.118 -0.3915 -0.4023 -0.0881
  578MPD2     C 8620   1.382   3.930   0.783 -0.3265  0.1472 -0.1452
  578MPD2    C1 8621   1.487   3.914   0.693  0.1616 -0.0505  0.1110
  578MPD2    C2 8622   1.617   3.883   0.749 -0.4279 -0.3951  0.4945
  578MPD2    C3 8623   1.641   3.878   0.885  0.1732 -0.8293 -0.5947
  578MPD2    C4 8624   1.538   3.891   0.974 -0.2932 -0.1322 -0.1535
  578MPD2    C5 8625   1.414   3.918   0.921  0.1426 -0.7040 -0.5118
  578MPD2     H 8626   1.701   3.858   0.686  2.0259 -0.4244  3.7860
  578MPD2    H1 8627   1.548   3.876   1.081 -0.6615 -0.7006 -0.1979
  578MPD2    H2 8628   1.284   3.963   0.751 -1.1649 -1.7759  0.4440
  578MPD2    H3 8629   1.331   3.926   0.990 -0.1226  2.9389 -1.2641
  578MPD2     N 8630   1.775   3.851   0.931 -0.5367 -0.6309 -0.1655
  578MPD2    H5 8631   1.843   3.842   0.856  0.6744  0.9052  0.7445
  578MPD2    N1 8632   1.453   3.911   0.556 -0.2001 -0.0386 -1.0862
  578MPD2    H7 8633   1.355   3.915   0.531 -0.2295  0.9190 -0.8146
  579TMC3    C1 8634   1.956   3.826   1.081 -0.1493  0.4932  0.2842
  579TMC3    C2 8635   2.012   3.741   1.173 -1.1767  1.1040 -0.5101
  579TMC3    C3 8636   2.149   3.748   1.181 -0.2103  0.7971  0.5009
  579TMC3    C4 8637   2.031   3.921   1.011 -0.3557 -0.6779  0.5613
  579TMC3    C5 8638   2.166   3.932   1.033  0.4414 -0.8331 -0.1543
  579TMC3    C6 8639   2.228   3.837   1.114 -0.0136  0.2335 -0.1945
  579TMC3     C 8640   1.810   3.825   1.062 -0.3476 -0.5172  0.0485
  579TMC3     O 8641   1.744   3.797   1.156 -0.2594 -0.4326  0.3448
  579TMC3     H 8642   1.956   3.659   1.217 -1.0853  1.6893  0.6757
  579TMC3    H1 8643   1.994   3.989   0.935 -1.0156 -0.4240  1.1165
  579TMC3    H2 8644   2.335   3.848   1.126 -0.1765  1.2133  0.3491
  579TMC3    C7 8645   2.227   3.968   0.904 -0.5322  0.7183 -0.1409
  579TMC3    C8 8646   2.209   3.662   1.276 -0.2417  0.5512  0.3051
  579TMC3    O1 8647   2.227   4.086   0.877  0.1702  0.4306  0.6133
  579TMC3    O2 8648   2.132   3.598   1.344 -0.1270  0.3206  0.0264
  580TMC3    C1 8649   1.958   2.705  11.696 -0.7681  0.4749 -0.0618
  580TMC3    C2 8650   2.049   2.729  11.597 -0.0840 -0.7377 -0.0201
  580TMC3    C3 8651   2.102   2.632  11.519  0.5952 -0.0919 -0.0678
  580TMC3    C4 8652   1.910   2.577  11.711 -0.3577 -0.5616 -0.4634
  580TMC3    C5 8653   1.963   2.483  11.628 -0.8681 -0.3799 -0.0147
  580TMC3    C6 8654   2.056   2.502  11.531 -0.1083 -0.0586 -0.4412
  580TMC3     C 8655   1.883   2.817  11.741  0.0172 -0.3141 -0.0642
  580TMC3     O 8656   1.765   2.823  11.722  0.1247  0.1538 -0.4799
  580TMC3     H 8657   2.059   2.834  11.572  1.2788 -0.9406 -0.3151
  580TMC3    H1 8658   1.830   2.557  11.782  0.1677 -2.4858 -0.4156
  580TMC3    H2 8659   2.097   2.424  11.469  0.6098  0.5307 -0.7163
  580TMC3    C7 8660   1.931   2.345  11.669  0.4593  0.3502 -0.4434
  580TMC3    C8 8661   2.156   2.677  11.389  0.1176 -0.0771 -0.0984
  580TMC3    O1 8662   1.875   2.334  11.774  0.1465  0.0252 -0.0318
  580TMC3    O2 8663   2.159   2.593  11.299  0.0964 -0.6851 -0.1814
  581MPD2     C 8664   4.040   1.420  14.853  0.4220 -0.1822 -0.2478
  581MPD2    C1 8665   4.104   1.509  14.777 -0.0810 -0.0747 -0.4467
  581MPD2    C2 8666   4.048   1.639  14.759  0.1812 -0.6822  0.0484
  581MPD2    C3 8667   3.929   1.671  14.817 -0.4443  0.5679 -0.0085
  581MPD2    C4 8668   3.870   1.577  14.901  0.0070  0.1510  0.1896
  581MPD2    C5 8669   3.921   1.456  14.923  0.2492 -0.6049 -0.2413
  581MPD2     H 8670   4.105   1.720  14.715 -0.7047 -0.3252 -0.4318
  581MPD2    H1 8671   3.775   1.602  14.948 -0.9311 -2.6080 -0.2740
  581MPD2    H2 8672   4.099   1.334  14.882 -0.2324 -0.1743  1.1466
  581MPD2    H3 8673   3.865   1.392  14.989  0.7501 -0.3740  0.4031
  581MPD2     N 8674   3.860   1.782  14.772  0.3609  0.3121  0.7586
  581MPD2    H5 8675   3.912   1.863  14.740 -0.7605  0.1711 -1.4683
  581MPD2    N1 8676   4.224   1.466  14.725  0.6886 -0.2996  0.3119
  581MPD2    H7 8677   4.258   1.382  14.772 -1.4488 -2.1493 -1.4636
  582TMC3    C1 8678   4.448   1.473  14.654  0.1122  0.0746 -0.4311
  582TMC3    C2 8679   4.541   1.527  14.741  0.0032  0.2986  0.8727
  582TMC3    C3 8680   4.616   1.451  14.825 -0.0984  0.4590  0.1390
  582TMC3    C4 8681   4.439   1.336  14.656  0.2224  0.0999  0.2030
  582TMC3    C5 8682   4.516   1.265  14.747 -0.8645 -0.4870  0.6108
  582TMC3    C6 8683   4.603   1.324  14.835 -0.5350  0.3151  0.3067
  582TMC3     C 8684   4.320   1.545  14.665 -0.1158 -0.1906  0.2152
  582TMC3     O 8685   4.324   1.666  14.648  0.2945  0.2121 -0.1345
  582TMC3     H 8686   4.543   1.635  14.754 -0.3203  0.4555 -0.2963
  582TMC3    H1 8687   4.361   1.286  14.600  0.6169 -0.2252 -0.0583
  582TMC3    H2 8688   4.656   1.276  14.917 -0.4284 -1.7186 -0.9391
  582TMC3    C7 8689   4.428   1.176  14.817  0.8750  0.2335  0.1673
  582TMC3    C8 8690   4.611   1.507  14.954 -0.0760 -0.3144 -0.4809
  582TMC3    O1 8691   4.357   1.102  14.748  0.1310  0.0345 -0.6492
  582TMC3    O2 8692   4.506   1.485  15.015  0.0662  0.1576 -0.2054
  583MPD2     C 8693   4.481   3.333  16.563  0.1773  0.3717 -0.6240
  583MPD2    C1 8694   4.429   3.425  16.479 -0.2744 -0.2353 -0.0767
  583MPD2    C2 8695   4.318   3.506  16.528  0.2202  0.0539  0.0879
  583MPD2    C3 8696   4.264   3.485  16.652  0.3430  0.2279 -0.9619
  583MPD2    C4 8697   4.333   3.397  16.737 -0.8353  0.5126  0.7626
  583MPD2    C5 8698   4.436   3.320  16.690 -0.6875  0.6986 -0.1608
  583MPD2     H 8699   4.269   3.576  16.461 -1.2376  0.2015  1.3055
  583MPD2    H1 8700   4.313   3.381  16.842 -0.4111 -0.9211  0.6217
  583MPD2    H2 8701   4.560   3.263  16.539  0.3136 -0.0589  1.1237
  583MPD2    H3 8702   4.483   3.244  16.751 -1.7576 -0.6303 -0.9745
  583MPD2     N 8703   4.151   3.559  16.707  0.2981 -0.5054  0.0267
  583MPD2    H5 8704   4.109   3.626  16.642 -1.3438  0.6231  2.2395
  583MPD2    N1 8705   4.480   3.458  16.355 -0.1109  0.3260 -0.1321
  583MPD2    H7 8706   4.447   3.539  16.303  1.0137  0.7372 -0.2131
  584TMC3    C1 8707   4.005   3.639  16.874  0.6250 -0.7389 -0.1539
  584TMC3    C2 8708   3.993   3.756  16.803  0.3473  0.2600 -0.7087
  584TMC3    C3 8709   3.938   3.865  16.861  0.1775 -0.2134  0.1334
  584TMC3    C4 8710   3.944   3.625  16.997  1.1382 -0.4543 -0.5980
  584TMC3    C5 8711   3.887   3.739  17.057  0.5465 -0.3668 -0.3174
  584TMC3    C6 8712   3.886   3.858  16.992 -0.4374 -0.2778 -0.3944
  584TMC3     C 8713   4.095   3.537  16.831  0.6073  0.6240  0.2960
  584TMC3     O 8714   4.118   3.453  16.920 -0.1050  0.2151  0.3899
  584TMC3     H 8715   4.031   3.758  16.701  1.5849 -1.6404 -0.2841
  584TMC3    H1 8716   3.934   3.526  17.041  0.0428  0.2735  0.8158
  584TMC3    H2 8717   3.854   3.949  17.040 -0.5699 -1.3532  1.5378
  584TMC3    C7 8718   3.805   3.715  17.170 -0.3071 -0.0216  0.2629
  584TMC3    C8 8719   3.939   3.988  16.779  0.2951  0.1356  0.1512
  584TMC3    O1 8720   3.830   3.613  17.237 -0.3468 -0.2074  0.1750
  584TMC3    O2 8721   3.929   3.972  16.659 -0.6793 -0.3195  0.8010
  585MPD2     C 8722   3.233   2.584   0.348 -0.1759  0.3430  1.1272
  585MPD2    C1 8723   3.348   2.618   0.273 -0.5609 -0.6374 -0.6381
  585MPD2    C2 8724   3.376   2.533   0.165 -0.6057  0.3193 -0.0583
  585MPD2    C3 8725   3.294   2.432   0.131 -0.2795  0.0064 -0.5707
  585MPD2    C4 8726   3.177   2.415   0.195  0.3078 -0.3268  0.1271
  585MPD2    C5 8727   3.146   2.489   0.311 -0.2119 -0.3645  0.3208
  585MPD2     H 8728   3.470   2.546   0.113 -0.3700 -0.7583  0.0901
  585MPD2    H1 8729   3.104   2.338   0.175  0.2872  0.0406 -1.2195
  585MPD2    H2 8730   3.195   2.649   0.426 -1.7428  1.0480 -0.2356
  585MPD2    H3 8731   3.060   2.460   0.372  0.4644 -2.9437  0.0661
  585MPD2     N 8732   3.316   2.350   0.021  0.0068 -0.3015  0.3090
  585MPD2    H5 8733   3.232   2.311  17.745 -0.3665 -0.0217  0.8014
  585MPD2    N1 8734   3.425   2.733   0.304  0.0739  0.2734  0.1649
  585MPD2    H7 8735   3.395   2.809   0.364 -0.1476  0.5975 -0.3629
  586TMC3    C1 8736   3.436   2.311  17.585  0.3897 -0.5005 -0.1297
  586TMC3    C2 8737   3.559   2.284  17.538 -0.8270  0.0113 -0.0822
  586TMC3    C3 8738   3.599   2.349  17.419  0.9380 -1.1612  0.0347
  586TMC3    C4 8739   3.346   2.389  17.510  0.7514  0.3207 -0.1796
  586TMC3    C5 8740   3.392   2.446  17.393  0.4422  0.1778 -0.1825
  586TMC3    C6 8741   3.522   2.449  17.365 -0.6516 -0.4318  0.4658
  586TMC3     C 8742   3.441   2.332  17.731 -0.1197  0.2296  0.3535
  586TMC3     O 8743   3.549   2.324   0.030  0.5509 -0.4341 -0.0874
  586TMC3     H 8744   3.627   2.215  17.586 -0.1538  1.0263  0.4324
  586TMC3    H1 8745   3.243   2.394  17.543  0.4745  1.4050 -1.1868
  586TMC3    H2 8746   3.555   2.504  17.277  1.7891 -0.3704  1.4046
  586TMC3    C7 8747   3.306   2.419  17.281 -0.1831 -0.3143 -0.5817
  586TMC3    C8 8748   3.649   2.257  17.321  0.1238  0.1388  0.3755
  586TMC3    O1 8749   3.202   2.358  17.310 -0.0554  0.5045 -0.2065
  586TMC3    O2 8750   3.716   2.295  17.226  0.1289  0.7092 -0.2545
  587TMC3    C1 8751   1.101   1.064  16.390 -0.9165 -0.1073  0.2823
  587TMC3    C2 8752   1.119   1.193  16.419  0.0379 -0.1425  0.0469
  587TMC3    C3 8753   1.244   1.251  16.419  0.2351  0.2694 -0.6347
  587TMC3    C4 8754   1.216   0.989  16.373 -1.0682  0.4471  0.3851
  587TMC3    C5 8755   1.340   1.042  16.379  0.4133  0.3114  0.9290
  587TMC3    C6 8756   1.359   1.179  16.391 -0.2700  0.5157  1.0620
  587TMC3     C 8757   0.991   0.993  16.450  0.0766 -0.2633 -0.4409
  587TMC3     O 8758   1.019   0.900  16.527  0.0727 -0.5528  0.2479
  587TMC3     H 8759   1.036   1.249  16.462 -0.9682 -0.1133 -1.9514
  587TMC3    H1 8760   1.206   0.881  16.367  1.3628  0.1123  1.9746
  587TMC3    H2 8761   1.461   1.211  16.406 -0.0097  0.4621 -0.5896
  587TMC3    C7 8762   1.456   0.961  16.343 -0.0339 -0.4595 -0.1535
  587TMC3    C8 8763   1.269   1.365  16.501 -0.3588  0.0989  0.2851
  587TMC3    O1 8764   1.439   0.874  16.260 -0.2894  0.4828 -0.2083
  587TMC3    O2 8765   1.346   1.351  16.593 -0.0457 -0.4535 -0.6053
  588TMC3    C1 8766   3.476   4.413   9.486 -0.0636 -0.3077 -0.0996
  588TMC3    C2 8767   3.464   4.283   9.441 -0.0633  0.7591 -0.0932
  588TMC3    C3 8768   3.547   4.191   9.505 -0.1714 -0.6329  0.2626
  588TMC3    C4 8769   3.542   4.457   9.591  0.5410  0.0524  0.0140
  588TMC3    C5 8770   3.611   4.356   9.659 -0.2010  0.1037 -0.9332
  588TMC3    C6 8771   3.620   4.225   9.612 -0.2607 -0.7343 -0.1303
  588TMC3     C 8772   3.395   4.513   9.413 -0.1495 -0.4107 -0.3143
  588TMC3     O 8773   3.297   4.466   9.359 -0.3341  0.1102  0.0368
  588TMC3     H 8774   3.406   4.264   9.352  0.9887 -0.5936 -0.4901
  588TMC3    H1 8775   3.509   4.546   9.643  1.7359 -0.1646  1.1663
  588TMC3    H2 8776   3.685   4.156   9.665  0.7811 -1.3542 -2.2309
  588TMC3    C7 8777   3.692   4.396   9.774  1.0438 -0.4224  0.1976
  588TMC3    C8 8778   3.512   4.055   9.467  0.5540  0.6516  0.0371
  588TMC3    O1 8779   3.727   4.317   9.861  0.3197 -0.3448 -0.2922
  588TMC3    O2 8780   3.419   4.031   9.393 -0.5490 -0.4463  0.2322
  589TMC3    C1 8781   3.292   1.813   0.993  0.5396 -0.9298  0.0665
  589TMC3    C2 8782   3.423   1.791   1.029  0.3264 -0.1427  0.4581
  589TMC3    C3 8783   3.498   1.687   0.974 -0.2718 -0.0188 -0.9063
  589TMC3    C4 8784   3.236   1.733   0.903 -0.1897 -0.1374 -0.2258
  589TMC3    C5 8785   3.316   1.638   0.848  0.2007 -0.1094 -0.1578
  589TMC3    C6 8786   3.439   1.603   0.886  0.2686  0.0248  0.2127
  589TMC3     C 8787   3.212   1.928   1.043  0.6004 -0.6223 -0.5947
  589TMC3     O 8788   3.103   1.944   0.991 -0.5846 -0.3792 -0.3696
  589TMC3     H 8789   3.467   1.843   1.114 -0.7118  0.9897  0.3033
  589TMC3    H1 8790   3.132   1.745   0.876 -0.1524 -0.7980 -0.6610
  589TMC3    H2 8791   3.489   1.514   0.851  2.1837  0.7468  1.1310
  589TMC3    C7 8792   3.249   1.551   0.755  0.6010  0.1895  0.0351
  589TMC3    C8 8793   3.594   1.624   1.068 -0.0470  0.5500 -0.5943
  589TMC3    O1 8794   3.130   1.541   0.773  0.7030 -0.7895  0.2682
  589TMC3    O2 8795   3.577   1.627   1.188 -0.0270 -0.2007 -0.0336
  590MPD2     C 8796   2.188   3.944  16.531 -1.0152  0.0787 -0.4586
  590MPD2    C1 8797   2.127   4.067  16.523 -0.5546 -0.2739  0.0700
  590MPD2    C2 8798   2.185   4.169  16.442 -0.3715  0.1192 -0.7379
  590MPD2    C3 8799   2.306   4.142  16.372  0.1392 -0.7541  0.5945
  590MPD2    C4 8800   2.362   4.015  16.378 -0.3774  0.5889 -0.1525
  590MPD2    C5 8801   2.305   3.924  16.456 -0.1922  0.3984  0.6281
  590MPD2     H 8802   2.139   4.268  16.445  2.8254  1.5773  0.5318
  590MPD2    H1 8803   2.441   3.980  16.313 -1.4969 -1.3689 -0.4862
  590MPD2    H2 8804   2.140   3.862  16.583 -1.5489  0.3241 -0.5645
  590MPD2    H3 8805   2.344   3.823  16.461 -2.7011 -0.7023 -1.7272
  590MPD2     N 8806   2.357   4.242  16.287  0.2820 -0.0154 -0.1102
  590MPD2    H5 8807   2.292   4.319  16.278 -0.7584 -0.9410 -0.4952
  590MPD2    N1 8808   2.006   4.079  16.580 -0.4267 -0.2521  0.5149
  590MPD2    H7 8809   1.963   3.993  16.611 -1.6013 -0.4699 -1.6690
  591TMC3    C1 8810   2.498   4.348  16.141 -1.4328 -0.3576  0.4620
  591TMC3    C2 8811   2.609   4.337  16.055  0.2776  0.1511 -0.1307
  591TMC3    C3 8812   2.647   4.449  15.995 -0.0249 -0.9346  0.0865
  591TMC3    C4 8813   2.432   4.467  16.164 -0.1412  0.4521  0.2267
  591TMC3    C5 8814   2.465   4.570  16.078 -0.0727  0.7296 -0.9135
  591TMC3    C6 8815   2.579   4.565  15.997 -0.3023 -0.1159  0.3311
  591TMC3     C 8816   2.479   4.237  16.228 -0.2880 -0.1876  0.0732
  591TMC3     O 8817   2.571   4.155  16.223  0.1691 -0.2103  0.2027
  591TMC3     H 8818   2.658   4.242  16.034 -2.8512 -1.6903  0.7809
  591TMC3    H1 8819   2.358   4.472  16.242  0.5005  0.8192  0.8124
  591TMC3    H2 8820   2.611   4.649  15.937  1.0218 -0.3048  0.7632
  591TMC3    C7 8821   2.370   4.678  16.061  0.1220 -0.7175 -0.4827
  591TMC3    C8 8822   2.757   4.437  15.900 -0.1940  0.1189  0.0507
  591TMC3    O1 8823   2.269   4.661  16.127  0.0900  0.0445  0.0157
  591TMC3    O2 8824   2.784   4.325  15.854 -0.5356  0.0589  0.0070
  592MPD2     C 8825   2.258   1.922  11.211 -0.3372 -0.4241  0.4691
  592MPD2    C1 8826   2.294   1.959  11.336 -0.1989  0.2173 -0.5627
  592MPD2    C2 8827   2.283   1.867  11.441 -0.0236  0.5397 -0.1552
  592MPD2    C3 8828   2.244   1.737  11.406  0.4532  0.4278 -0.1330
  592MPD2    C4 8829   2.199   1.707  11.279 -0.1647  0.0794  0.4826
  592MPD2    C5 8830   2.207   1.797  11.177  0.2003 -0.0132 -0.2799
  592MPD2     H 8831   2.302   1.893  11.544 -0.0194  0.9071 -0.2492
  592MPD2    H1 8832   2.161   1.609  11.254 -1.0604  0.5061  0.1798
  592MPD2    H2 8833   2.275   1.992  11.129  0.3671 -1.1499 -0.0013
  592MPD2    H3 8834   2.188   1.775  11.073 -0.6367  2.5269 -0.6546
  592MPD2     N 8835   2.245   1.641  11.511  0.2541  0.8051 -0.1929
  592MPD2    H5 8836   2.305   1.662  11.591 -0.3410 -0.9988  0.7222
  592MPD2    N1 8837   2.336   2.093  11.358  1.2045  0.3605  0.6828
  592MPD2    H7 8838   2.348   2.153  11.277 -2.0704 -0.6598 -0.5414
  593TMC3    C1 8839   2.430   2.277  11.481 -0.0253  0.7641 -0.2119
  593TMC3    C2 8840   2.427   2.347  11.594 -0.1447  0.6775  0.0305
  593TMC3    C3 8841   2.550   2.398  11.649  0.3377 -0.0524  0.1830
  593TMC3    C4 8842   2.540   2.256  11.401 -0.0386  0.4182  0.6726
  593TMC3    C5 8843   2.651   2.318  11.454  0.5466  0.9369  0.2366
  593TMC3    C6 8844   2.662   2.383  11.573 -0.4505 -0.0499 -0.3585
  593TMC3     C 8845   2.342   2.156  11.484  0.0623  0.3411 -0.5179
  593TMC3     O 8846   2.302   2.121  11.598  0.6354 -0.4843  0.1699
  593TMC3     H 8847   2.350   2.345  11.671 -0.0173  1.1019  0.1738
  593TMC3    H1 8848   2.552   2.180  11.324  0.6325  0.4284  0.7612
  593TMC3    H2 8849   2.760   2.407  11.614 -0.0855 -2.1114 -0.0388
  593TMC3    C7 8850   2.757   2.332  11.358 -0.1759  0.4014 -1.0518
  593TMC3    C8 8851   2.559   2.429  11.800  0.0874  0.4246 -0.1443
  593TMC3    O1 8852   2.875   2.331  11.398  0.7877  0.3424  0.1462
  593TMC3    O2 8853   2.461   2.394  11.860 -0.1883 -0.0532  0.0073
  594MPD2     C 8854   1.009   0.443  14.234  0.2426 -0.5545  0.6180
  594MPD2    C1 8855   1.067   0.425  14.356  0.1472 -0.3652 -0.1586
  594MPD2    C2 8856   1.195   0.467  14.371  0.0786  0.7647  0.5004
  594MPD2    C3 8857   1.267   0.527  14.266  0.1170 -0.4127  0.5615
  594MPD2    C4 8858   1.209   0.546  14.143  0.5182 -0.0738 -0.1898
  594MPD2    C5 8859   1.079   0.510  14.138 -0.6107  0.6312  0.1205
  594MPD2     H 8860   1.253   0.463  14.462 -0.5957  0.4877  0.9166
  594MPD2    H1 8861   1.266   0.598  14.066  0.2030 -1.7122 -1.5186
  594MPD2    H2 8862   0.903   0.432  14.214  0.7955 -1.5967 -1.7038
  594MPD2    H3 8863   1.019   0.533  14.051 -1.5703  1.2747  0.9625
  594MPD2     N 8864   1.403   0.567  14.301  0.5065  0.2042 -1.2312
  594MPD2    H5 8865   1.429   0.559  14.399 -0.8877 -0.3882 -0.9099
  594MPD2    N1 8866   1.002   0.358  14.457  0.1642  0.4168  0.2703
  594MPD2    H7 8867   0.901   0.350  14.449  0.1898  0.4220 -0.0975
  595TMC3    C1 8868   1.844   0.719  14.320  0.1651  0.1423  0.2565
  595TMC3    C2 8869   1.746   0.656  14.245  0.1145 -0.4973 -0.0558
  595TMC3    C3 8870   1.618   0.659  14.297 -0.5387 -0.9919  0.1724
  595TMC3    C4 8871   1.818   0.777  14.438 -0.3539 -0.4627  0.1059
  595TMC3    C5 8872   1.683   0.787  14.475 -0.0936 -0.0696 -0.4812
  595TMC3    C6 8873   1.577   0.732  14.407 -0.2202  0.2356  0.5714
  595TMC3     C 8874   1.982   0.725  14.281 -0.0689 -0.3646 -0.6992
  595TMC3     O 8875   2.063   0.713  14.374  0.6555 -0.2220  0.3510
  595TMC3     H 8876   1.770   0.595  14.159 -1.6405 -0.0694 -0.8484
  595TMC3    H1 8877   1.901   0.810  14.500  0.1153  0.7044 -1.1520
  595TMC3    H2 8878   1.475   0.732  14.444 -0.3329 -3.7206  0.2402
  595TMC3    C7 8879   1.640   0.861  14.596 -0.6191  0.8248  1.0250
  595TMC3    C8 8880   1.507   0.603  14.221  0.2498 -0.5421  0.1152
  595TMC3    O1 8881   1.522   0.872  14.615  0.7423 -0.2405 -0.6124
  595TMC3    O2 8882   1.517   0.584  14.101 -0.2376  0.4036  0.4338
  596MPD2     C 8883   0.547   3.304  16.615 -0.4030  0.7437  0.4420
  596MPD2    C1 8884   0.530   3.420  16.546 -0.0399 -0.7486  0.0892
  596MPD2    C2 8885   0.541   3.424  16.405  0.5562  0.2431  0.4576
  596MPD2    C3 8886   0.580   3.314  16.331  0.4686  0.8528  0.3419
  596MPD2    C4 8887   0.584   3.195  16.400 -0.0216 -0.1160  0.3272
  596MPD2    C5 8888   0.572   3.192  16.533  0.9580  1.1092 -0.5014
  596MPD2     H 8889   0.508   3.518  16.361 -0.9229 -0.1143  0.8013
  596MPD2    H1 8890   0.601   3.098  16.354  2.8710  1.2005 -1.3185
  596MPD2    H2 8891   0.535   3.305  16.723 -1.6963  0.3293  0.3054
  596MPD2    H3 8892   0.583   3.095  16.580  4.7519  1.6274 -0.3709
  596MPD2     N 8893   0.595   3.305  16.190 -0.0239  0.3510  0.0367
  596MPD2    H5 8894   0.624   3.214  16.157 -1.7366 -0.2323  0.1391
  596MPD2    N1 8895   0.483   3.547  16.603  0.4370 -0.4833 -0.5102
  596MPD2    H7 8896   0.467   3.627  16.541  1.9119  0.1454 -0.0814
  597TMC3    C1 8897   0.416   3.692  16.771  0.4125 -1.2212 -0.1748
  597TMC3    C2 8898   0.470   3.797  16.702 -0.4029 -0.4241  0.0343
  597TMC3    C3 8899   0.415   3.924  16.728 -0.5286  0.3493 -0.2616
  597TMC3    C4 8900   0.320   3.710  16.865  0.3768  0.4077  0.2380
  597TMC3    C5 8901   0.283   3.837  16.897 -0.0181  0.2152  0.6644
  597TMC3    C6 8902   0.328   3.947  16.825  0.4728 -0.4865  0.2634
  597TMC3     C 8903   0.448   3.557  16.734  0.0192 -0.0406 -0.1067
  597TMC3     O 8904   0.410   3.465  16.809  0.6405  0.0411  0.3871
  597TMC3     H 8905   0.555   3.786  16.637  0.2137 -0.3613  0.8270
  597TMC3    H1 8906   0.306   3.633  16.939  1.3703  0.9330  0.9760
  597TMC3    H2 8907   0.290   4.046  16.849 -0.1532 -0.6540 -0.0573
  597TMC3    C7 8908   0.146   3.835  16.940 -0.1522 -0.4604 -0.6327
  597TMC3    C8 8909   0.455   4.048  16.661  0.3003  0.4489  0.3261
  597TMC3    O1 8910   0.116   3.746  17.020  0.3859 -0.7868  0.6676
  597TMC3    O2 8911   0.443   4.152  16.727 -0.1649 -0.0278 -0.3314
  598TMC3    C1 8912   4.205   0.161  15.238  1.3013  0.3482 -0.6203
  598TMC3    C2 8913   4.217   0.053  15.320 -0.2084 -0.8168  0.0978
  598TMC3    C3 8914   4.101   4.734  15.347  0.1159  0.5086 -0.4496
  598TMC3    C4 8915   4.088   0.199  15.182  0.3070 -0.2366 -0.1949
  598TMC3    C5 8916   3.981   0.119  15.200 -0.3282  0.7066  0.7159
  598TMC3    C6 8917   3.985   0.013  15.282  0.0802 -0.3932  0.8615
  598TMC3     C 8918   4.331   0.232  15.203  0.7517  0.8834  0.6953
  598TMC3     O 8919   4.424   0.204  15.279 -0.0534  0.2162 -0.6271
  598TMC3     H 8920   4.300   0.048  15.389 -1.2036 -0.2974  1.3347
  598TMC3    H1 8921   4.073   0.295  15.133  0.2994  0.3673  1.0098
  598TMC3    H2 8922   3.896   4.696  15.301 -1.3881  1.6874  0.4246
  598TMC3    C7 8923   3.871   0.153  15.114  0.3053  0.1938  0.1245
  598TMC3    C8 8924   4.094   4.642  15.460 -0.8489 -0.8236  0.4057
  598TMC3    O1 8925   3.818   0.056  15.065  0.0708 -0.6999  0.1804
  598TMC3    O2 8926   4.169   4.675  15.554  0.3107 -0.7580 -0.2009
  599MPD2     C 8927   3.632   2.459  15.433 -0.0544  0.5618 -0.4374
  599MPD2    C1 8928   3.573   2.337  15.464 -0.1823  0.3208 -0.5166
  599MPD2    C2 8929   3.456   2.335  15.543  0.7096  0.0881 -0.0054
  599MPD2    C3 8930   3.405   2.455  15.581 -0.1681  0.1416 -0.1216
  599MPD2    C4 8931   3.456   2.574  15.534  0.9397  0.2652 -0.1614
  599MPD2    C5 8932   3.569   2.573  15.455 -0.3451 -0.4271 -0.2601
  599MPD2     H 8933   3.403   2.244  15.567 -0.6537  1.3066  1.6460
  599MPD2    H1 8934   3.399   2.663  15.557  0.3126 -0.0304 -0.5466
  599MPD2    H2 8935   3.731   2.458  15.389  0.0168  1.3834 -0.2959
  599MPD2    H3 8936   3.607   2.663  15.407 -1.9489  0.1060 -0.5448
  599MPD2     N 8937   3.298   2.461  15.664 -0.3858 -0.0699 -0.0161
  599MPD2    H5 8938   3.306   2.542  15.725  0.1073 -0.1183 -0.0096
  599MPD2    N1 8939   3.652   2.217  15.440  0.0483 -0.2858  0.2905
  599MPD2    H7 8940   3.741   2.234  15.394 -0.8834  0.6193 -1.1915
  600TMC3    C1 8941   3.115   2.397  15.799 -0.4789  0.0449 -0.1982
  600TMC3    C2 8942   3.068   2.293  15.869 -0.0285  0.2949 -0.2904
  600TMC3    C3 8943   3.046   2.302  16.001  0.5612 -0.0960 -0.0748
  600TMC3    C4 8944   3.140   2.517  15.863  0.4613  0.2935 -0.2300
  600TMC3    C5 8945   3.110   2.526  15.999 -0.4982  0.6248  0.5275
  600TMC3    C6 8946   3.063   2.419  16.076 -0.1458  0.2123  0.0631
  600TMC3     C 8947   3.200   2.362  15.685  0.3516 -0.0431  0.2525
  600TMC3     O 8948   3.185   2.257  15.624 -0.5821  0.1200  0.0730
  600TMC3     H 8949   3.055   2.195  15.824 -2.3623  0.1875  0.6413
  600TMC3    H1 8950   3.179   2.603  15.810  0.2556 -0.2746 -1.3040
  600TMC3    H2 8951   3.041   2.427  16.182 -0.8663 -0.0424 -0.0706
  600TMC3    C7 8952   3.123   2.648  16.084  0.2357  0.1572 -0.7345
  600TMC3    C8 8953   2.986   2.193  16.068 -0.5054  0.1983  0.5691
  600TMC3    O1 8954   3.044   2.650  16.172  0.1975 -0.1991  0.0088
  600TMC3    O2 8955   3.029   2.162  16.179 -0.5555  0.0397  0.1699
  601MPD2     C 8956   0.852   0.848   0.239  0.1178 -0.1368 -0.9933
  601MPD2    C1 8957   0.744   0.851   0.147 -0.4422  0.2592 -0.4446
  601MPD2    C2 8958   0.664   0.741   0.145 -0.0041  0.0681 -0.2791
  601MPD2    C3 8959   0.695   0.626   0.222  0.4842 -0.3174  0.8031
  601MPD2    C4 8960   0.804   0.630   0.305 -1.0507  0.3633 -0.2633
  601MPD2    C5 8961   0.886   0.740   0.312 -0.0403  0.3080  0.9977
  601MPD2     H 8962   0.571   0.741   0.089 -0.3193 -0.9983  0.2390
  601MPD2    H1 8963   0.830   0.546   0.369  1.9869  1.1029 -0.5406
  601MPD2    H2 8964   0.915   0.935   0.251 -1.3993  0.5605  1.9936
  601MPD2    H3 8965   0.963   0.754   0.387  0.6876  0.7566  0.1659
  601MPD2     N 8966   0.616   0.507   0.205  0.4062 -0.1646 -0.3330
  601MPD2    H5 8967   0.649   0.431   0.263 -1.1778 -1.5732 -1.2970
  601MPD2    N1 8968   0.711   0.967   0.075  0.1166  0.6845 -0.2249
  601MPD2    H7 8969   0.623   0.970   0.025 -0.6332  1.8301  1.1614
  602TMC3    C1 8970   0.696   1.178  17.756 -0.5562 -0.0816 -0.3882
  602TMC3    C2 8971   0.757   1.277  17.691  0.2968 -0.2627  0.3408
  602TMC3    C3 8972   0.680   1.370  17.622 -0.2542 -0.1652  0.7800
  602TMC3    C4 8973   0.561   1.176   0.011 -0.5510 -0.2166  0.0874
  602TMC3    C5 8974   0.490   1.257  17.697  0.0894 -0.3908 -0.3345
  602TMC3    C6 8975   0.544   1.356  17.610  0.2578 -0.1708  0.0186
  602TMC3     C 8976   0.778   1.084   0.056 -0.1453  0.2982 -0.8743
  602TMC3     O 8977   0.895   1.110   0.069  0.0304 -0.0891  0.3441
  602TMC3     H 8978   0.865   1.282  17.688  0.1869  1.5406 -1.0284
  602TMC3    H1 8979   0.519   1.093   0.067 -0.4247  1.1252  2.1685
  602TMC3    H2 8980   0.493   1.449  17.587  0.2920  0.5514  2.8362
  602TMC3    C7 8981   0.356   1.205  17.655  0.0808 -0.2534 -0.0112
  602TMC3    C8 8982   0.736   1.454  17.517 -0.6302  0.7726  0.0292
  602TMC3    O1 8983   0.315   1.098  17.693 -0.4391  0.1228  0.6123
  602TMC3    O2 8984   0.846   1.505  17.532  0.1398  0.0177 -0.3417
  603TMC3    C1 8985   3.214   1.820  10.868  0.3666 -0.1019  0.0360
  603TMC3    C2 8986   3.247   1.808  11.000  0.7416  0.5189 -0.6242
  603TMC3    C3 8987   3.352   1.882  11.045 -0.3397  1.0400 -0.4999
  603TMC3    C4 8988   3.275   1.908  10.787 -0.4106 -0.8569 -0.1990
  603TMC3    C5 8989   3.369   1.988  10.842 -0.1288 -0.0548  0.2192
  603TMC3    C6 8990   3.426   1.971  10.966  0.1733 -0.8944 -0.8811
  603TMC3     C 8991   3.093   1.761  10.819  0.6338  0.3402 -1.0003
  603TMC3     O 8992   3.086   1.736  10.699  0.2275 -0.0380 -0.1095
  603TMC3     H 8993   3.208   1.733  11.067  1.6259  0.6694  0.0529
  603TMC3    H1 8994   3.252   1.910  10.681  0.6023 -0.6156 -0.4092
  603TMC3    H2 8995   3.504   2.037  11.002 -0.4012  0.1082 -1.4859
  603TMC3    C7 8996   3.397   2.116  10.776  0.9309  0.0757  0.1875
  603TMC3    C8 8997   3.400   1.853  11.180  0.0766 -0.0823 -0.4314
  603TMC3    O1 8998   3.509   2.162  10.790  0.1070 -0.4347  0.1265
  603TMC3    O2 8999   3.384   1.744  11.219 -0.5187  0.1880 -0.1213
  604MPD2     C 9000   4.495   0.054  15.905 -0.1870 -0.4276 -0.3192
  604MPD2    C1 9001   4.426   4.679  15.906  0.1901 -0.0850 -0.0947
  604MPD2    C2 9002   4.422   4.598  15.795 -0.4359  0.2934  0.4938
  604MPD2    C3 9003   4.485   4.635  15.679  0.1113  0.3978 -0.1238
  604MPD2    C4 9004   4.555   0.013  15.678  0.1875 -0.0401  0.1573
  604MPD2    C5 9005   4.565   0.088  15.789  0.7666 -0.0252  0.5715
  604MPD2     H 9006   4.373   4.501  15.794 -0.1467  0.1451  2.3965
  604MPD2    H1 9007   4.596   0.048  15.585 -0.1957  1.2997  0.4871
  604MPD2    H2 9008   4.499   0.123  15.989 -4.0404 -1.3420  0.6007
  604MPD2    H3 9009   4.621   0.181  15.785 -0.4587  0.6215 -1.2814
  604MPD2     N 9010   4.482   4.549  15.561  0.0120  0.3078  0.5763
  604MPD2    H5 9011   4.426   4.465  15.568 -0.7464  0.8617  1.1892
  604MPD2    N1 9012   4.358   4.648  16.025  0.1190 -0.1836 -0.4360
  604MPD2    H7 9013   4.362   4.724  16.092  0.0095 -0.7376  0.1942
  605TMC3    C1 9014   4.199   4.570  16.169  0.3282  0.7447 -0.4705
  605TMC3    C2 9015   4.279   4.604  16.270  0.1161  0.2561 -0.0074
  605TMC3    C3 9016   4.256   4.710  16.354  0.2242  1.0013  0.1728
  605TMC3    C4 9017   4.084   4.639  16.153 -1.2392 -0.0506  0.2661
  605TMC3    C5 9018   4.060   0.012  16.230  0.0082 -0.2097 -0.4653
  605TMC3    C6 9019   4.139   0.034  16.339  0.4517  0.3729 -0.4637
  605TMC3     C 9020   4.272   4.545  16.044  0.6337  0.5057 -0.0962
  605TMC3     O 9021   4.245   4.448  15.978  0.1070  0.3956  0.3585
  605TMC3     H 9022   4.381   4.568  16.260  0.1543  0.4531 -0.3173
  605TMC3    H1 9023   4.024   4.594  16.074 -0.9519  1.0310 -0.5799
  605TMC3    H2 9024   4.130   0.128  16.393 -1.6758  0.0032 -0.1902
  605TMC3    C7 9025   3.960   0.112  16.186 -0.1666 -0.1915 -0.2501
  605TMC3    C8 9026   4.374   0.048  16.385 -0.0219  0.5392 -0.2213
  605TMC3    O1 9027   3.925   0.198  16.263  0.3051  0.2034  0.6192
  605TMC3    O2 9028   4.416   0.104  16.284 -0.1477 -0.0478  0.3979
  606TMC3    C1 9029   1.087   3.184  17.270 -1.3586  0.3371  0.0939
  606TMC3    C2 9030   1.187   3.216  17.365 -0.6263  0.0733 -0.8389
  606TMC3    C3 9031   1.191   3.132  17.472 -0.2289  0.2387 -0.2628
  606TMC3    C4 9032   1.006   3.072  17.290  0.3945  0.2069  0.1871
  606TMC3    C5 9033   1.028   2.993  17.395 -0.2668 -1.2426 -0.5833
  606TMC3    C6 9034   1.115   3.021  17.493  0.6658 -0.5592 -0.7051
  606TMC3     C 9035   1.052   3.273  17.165  0.1229  0.4919 -0.4066
  606TMC3     O 9036   0.992   3.225  17.067 -0.2842  0.5825  0.3465
  606TMC3     H 9037   1.254   3.301  17.357  0.0901 -0.5802 -1.7373
  606TMC3    H1 9038   0.936   3.045  17.213 -0.5901  1.8829  0.4995
  606TMC3    H2 9039   1.125   2.956  17.580  0.1114  0.1281 -0.1277
  606TMC3    C7 9040   0.941   2.872  17.414  0.2638 -0.4468  0.2866
  606TMC3    C8 9041   1.285   3.159  17.574 -0.1529 -0.0650  0.3302
  606TMC3    O1 9042   0.991   2.783  17.477 -0.0271  0.4128 -0.3330
  606TMC3    O2 9043   1.402   3.188  17.553 -0.3370  0.7767 -0.2473
  607MPD2     C 9044   2.788   1.850  11.282 -0.5480  0.5990  0.5218
  607MPD2    C1 9045   2.827   1.952  11.370  0.7672 -0.6532  0.3416
  607MPD2    C2 9046   2.770   1.969  11.495  0.0034  0.2987  0.3341
  607MPD2    C3 9047   2.658   1.894  11.527 -0.0514 -0.9138  0.3109
  607MPD2    C4 9048   2.620   1.799  11.439 -0.3239 -0.0990 -1.1718
  607MPD2    C5 9049   2.681   1.779  11.320 -0.2159 -0.6483  0.7187
  607MPD2     H 9050   2.809   2.055  11.549  0.1710  0.1599  0.4349
  607MPD2    H1 9051   2.530   1.742  11.462 -0.1302 -0.0729 -0.3684
  607MPD2    H2 9052   2.833   1.828  11.185 -0.8030  0.6104  0.4015
  607MPD2    H3 9053   2.644   1.706  11.250 -0.6610 -1.1604  1.4848
  607MPD2     N 9054   2.594   1.922  11.650 -0.0685  0.5641 -0.5564
  607MPD2    H5 9055   2.628   1.997  11.709 -1.2622  1.0554 -0.4991
  607MPD2    N1 9056   2.943   2.027  11.344 -0.8270 -0.2480 -0.1946
  607MPD2    H7 9057   2.957   2.102  11.411 -0.1655  0.3645 -1.0253
  608TMC3    C1 9058   3.126   2.122  11.254 -0.6667  0.1332  0.3872
  608TMC3    C2 9059   3.148   2.178  11.379  0.5547 -0.1465  0.0091
  608TMC3    C3 9060   3.195   2.308  11.380 -0.2263  0.6827 -0.6656
  608TMC3    C4 9061   3.158   2.194  11.138 -0.2089 -0.1211 -0.3119
  608TMC3    C5 9062   3.219   2.320  11.146  0.2398 -0.5827 -0.7212
  608TMC3    C6 9063   3.244   2.373  11.267 -0.4132  0.2636 -0.0497
  608TMC3     C 9064   3.028   2.020  11.236  0.9469 -0.0337 -0.4680
  608TMC3     O 9065   3.017   1.962  11.131  0.2029 -0.5109 -0.4966
  608TMC3     H 9066   3.134   2.125  11.473  0.1135 -0.8427 -0.4416
  608TMC3    H1 9067   3.136   2.149  11.042 -0.1141 -0.4184 -0.1967
  608TMC3    H2 9068   3.286   2.472  11.276 -2.9430  1.3975 -0.7737
  608TMC3    C7 9069   3.249   2.392  11.025  0.6974  0.0752 -0.8658
  608TMC3    C8 9070   3.195   2.372  11.507  0.1044  0.2446 -0.4848
  608TMC3    O1 9071   3.177   2.361  10.936  0.0041  0.8989 -0.5091
  608TMC3    O2 9072   3.295   2.439  11.542  0.1482 -0.0545 -0.5774
  609TMC3    C1 9073   1.049   0.836   8.932 -0.4945  0.6072 -0.2088
  609TMC3    C2 9074   1.027   0.773   8.813 -0.7294 -0.2032 -0.9876
  609TMC3    C3 9075   1.132   0.704   8.760 -0.4207  0.7353 -0.1752
  609TMC3    C4 9076   1.168   0.830   8.997  0.6748  0.5589 -0.5781
  609TMC3    C5 9077   1.272   0.758   8.945  0.4303 -0.2554  1.1798
  609TMC3    C6 9078   1.251   0.689   8.826 -0.2143  0.3354 -0.2086
  609TMC3     C 9079   0.938   0.879   9.017 -0.2025 -0.5597  0.3975
  609TMC3     O 9080   0.976   0.906   9.130  0.7538  0.2024  0.0527
  609TMC3     H 9081   0.935   0.780   8.757 -0.5427  3.2211 -0.8631
  609TMC3    H1 9082   1.185   0.893   9.083  0.4493  2.5624 -1.9881
  609TMC3    H2 9083   1.338   0.655   8.771  1.1110 -0.0192  2.0832
  609TMC3    C7 9084   1.377   0.722   9.033 -0.5586  0.1836  0.0043
  609TMC3    C8 9085   1.113   0.648   8.631  0.3605  0.0420  0.6590
  609TMC3    O1 9086   1.413   0.808   9.114  0.0905 -0.4629  0.5948
  609TMC3    O2 9087   1.019   0.691   8.566 -0.4439 -0.7543  1.0291
  610TMC3    C1 9088   2.913   1.811  12.541 -0.7131 -0.5621  0.0389
  610TMC3    C2 9089   2.990   1.847  12.430  0.2232 -0.7852 -0.3310
  610TMC3    C3 9090   3.050   1.746  12.357  0.0992 -0.5250 -0.1820
  610TMC3    C4 9091   2.875   1.677  12.549 -0.0731 -0.1942 -0.6371
  610TMC3    C5 9092   2.945   1.579  12.489  0.0015  0.6250 -0.1005
  610TMC3    C6 9093   3.038   1.612  12.386  0.9202  0.0215 -0.0798
  610TMC3     C 9094   2.824   1.909  12.592  0.2467  0.2220  0.0947
  610TMC3     O 9095   2.702   1.884  12.599  0.0793  0.3750  0.1790
  610TMC3     H 9096   3.021   1.949  12.408  0.4011 -0.6235  0.6879
  610TMC3    H1 9097   2.795   1.649  12.617  0.8811  0.2866  0.6839
  610TMC3    H2 9098   3.070   1.538  12.314 -2.4581 -0.8186 -0.7005
  610TMC3    C7 9099   2.951   1.440  12.533  0.2677 -0.3324  0.4258
  610TMC3    C8 9100   3.167   1.784  12.277 -0.2356 -0.1644  0.6094
  610TMC3    O1 9101   3.047   1.376  12.486 -0.1148  0.1471 -0.4384
  610TMC3    O2 9102   3.188   1.897  12.230  0.6068 -0.6206  0.8788
  611MPD2     C 9103   2.328   2.185  10.725 -0.5032  0.4018  0.0159
  611MPD2    C1 9104   2.287   2.202  10.596  0.3574  0.1067  0.0720
  611MPD2    C2 9105   2.373   2.259  10.510  0.3989  0.4537 -0.5472
  611MPD2    C3 9106   2.494   2.316  10.556  0.6305  0.2176 -0.5740
  611MPD2    C4 9107   2.534   2.301  10.681  0.6368  0.0157  0.5154
  611MPD2    C5 9108   2.450   2.234  10.768  0.0275  0.0701 -0.2554
  611MPD2     H 9109   2.337   2.279  10.410  0.9396  0.6587 -0.7003
  611MPD2    H1 9110   2.633   2.331  10.714 -0.4851  1.3569  2.7080
  611MPD2    H2 9111   2.271   2.115  10.784 -0.3993  1.9319  1.9130
  611MPD2    H3 9112   2.478   2.223  10.872 -1.8745 -0.5554  0.1903
  611MPD2     N 9113   2.584   2.382  10.470  0.1744 -0.3749  0.5792
  611MPD2    H5 9114   2.655   2.438  10.516  1.2017 -0.5347 -0.8216
  611MPD2    N1 9115   2.164   2.153  10.566 -0.4825 -0.1608 -0.0523
  611MPD2    H7 9116   2.105   2.125  10.644 -1.2262 -1.5165 -1.0922
  612TMC3    C1 9117   2.657   2.480  10.268  0.2832 -0.0353 -0.1420
  612TMC3    C2 9118   2.785   2.485  10.319  0.9700 -0.7575 -0.8367
  612TMC3    C3 9119   2.884   2.543  10.244  0.1126 -0.4669 -0.6319
  612TMC3    C4 9120   2.621   2.554  10.157 -0.0418 -0.2181 -0.5501
  612TMC3    C5 9121   2.724   2.615  10.093  0.2382  0.3243 -0.3703
  612TMC3    C6 9122   2.852   2.620  10.140 -0.3590 -0.3830  0.0762
  612TMC3     C 9123   2.559   2.404  10.336 -0.3320  0.8878 -0.1484
  612TMC3     O 9124   2.462   2.368  10.264 -0.3124  0.1889  0.0219
  612TMC3     H 9125   2.811   2.420  10.402 -0.3825 -0.0992  0.1041
  612TMC3    H1 9126   2.521   2.560  10.116  0.2368 -0.0554 -1.2072
  612TMC3    H2 9127   2.925   2.677  10.084 -0.1615 -1.5780 -0.8934
  612TMC3    C7 9128   2.706   2.676   9.960  0.0417 -0.8236  0.0310
  612TMC3    C8 9129   3.026   2.528  10.284 -0.0300 -0.0279 -0.0297
  612TMC3    O1 9130   2.623   2.622   9.890  0.4302 -0.6135  1.0560
  612TMC3    O2 9131   3.097   2.627  10.251 -0.4814  0.0698  0.4117
  613MPD2     C 9132   2.003   3.185  16.711 -0.3899 -0.1800  1.0497
  613MPD2    C1 9133   1.910   3.220  16.614  0.1177  0.1269  0.7059
  613MPD2    C2 9134   1.776   3.244  16.635 -0.4080  0.4730 -0.0324
  613MPD2    C3 9135   1.734   3.236  16.766 -0.8851  0.3760  0.0046
  613MPD2    C4 9136   1.825   3.197  16.865  0.5480  0.1913  0.5613
  613MPD2    C5 9137   1.962   3.179  16.841 -0.3100  0.3574 -0.2850
  613MPD2     H 9138   1.720   3.267  16.545  1.2747  0.6720 -1.0171
  613MPD2    H1 9139   1.795   3.201  16.969  1.1939  0.4658  0.7389
  613MPD2    H2 9140   2.108   3.170  16.689 -0.3694  1.2785  0.1748
  613MPD2    H3 9141   2.031   3.150  16.919 -1.5816  0.7934  1.0076
  613MPD2     N 9142   1.595   3.246  16.805 -0.1506 -0.0171 -0.1504
  613MPD2    H5 9143   1.572   3.203  16.895  2.3349 -2.2500 -0.6047
  613MPD2    N1 9144   1.966   3.232  16.482  0.1167 -0.0594  0.1621
  613MPD2    H7 9145   2.060   3.203  16.459 -0.1018 -0.8322  0.2381
  614TMC3    C1 9146   1.945   3.262  16.254 -0.3393  0.6368 -1.0487
  614TMC3    C2 9147   1.880   3.143  16.213 -0.7472 -0.2579  0.4317
  614TMC3    C3 9148   1.865   3.121  16.079 -0.5955 -0.5294  0.0848
  614TMC3    C4 9149   1.973   3.358  16.161  0.8270  0.3552  0.5449
  614TMC3    C5 9150   1.953   3.325  16.026  0.5049  0.7255 -0.2833
  614TMC3    C6 9151   1.912   3.206  15.989  0.0987  0.2519  0.3325
  614TMC3     C 9152   1.904   3.305  16.390 -0.2252  0.1501  0.0716
  614TMC3     O 9153   1.816   3.388  16.406  0.4053 -0.4784 -0.0541
  614TMC3     H 9154   1.854   3.068  16.287 -4.0793  0.8789  0.4044
  614TMC3    H1 9155   2.016   3.453  16.190  1.7440 -0.4119  1.7498
  614TMC3    H2 9156   1.893   3.190  15.883 -1.5637 -0.4324  0.7350
  614TMC3    C7 9157   2.025   3.409  15.929 -0.2098 -0.5355  0.6722
  614TMC3    C8 9158   1.761   3.032  16.035  0.1180 -0.1881 -0.4982
  614TMC3    O1 9159   2.110   3.477  15.982  0.3407  0.5051 -0.3785
  614TMC3    O2 9160   1.741   2.997  15.918 -0.5810  0.2199  0.2880
  615MPD2     C 9161   1.111   0.515  16.030  0.3614 -1.0101 -0.6454
  615MPD2    C1 9162   1.184   0.616  16.093 -0.0703  0.9768  0.3918
  615MPD2    C2 9163   1.158   0.747  16.058  0.2419  0.3206  0.1356
  615MPD2    C3 9164   1.068   0.771  15.960  0.2298  0.2965 -1.2102
  615MPD2    C4 9165   0.984   0.679  15.902 -0.7735  0.3951 -0.1624
  615MPD2    C5 9166   1.020   0.552  15.935 -0.7469  0.7667  1.2748
  615MPD2     H 9167   1.215   0.821  16.113 -0.1386 -0.6226  1.7760
  615MPD2    H1 9168   0.907   0.711  15.833 -1.0017 -1.2064 -0.6604
  615MPD2    H2 9169   1.110   0.410  16.056 -0.5383 -1.6893 -3.4273
  615MPD2    H3 9170   0.947   0.480  15.901  2.0323 -0.8435 -1.3572
  615MPD2     N 9171   1.020   0.905  15.925 -0.3910 -0.5839  0.5369
  615MPD2    H5 9172   0.946   0.912  15.856 -1.4378  1.1789  1.8474
  615MPD2    N1 9173   1.284   0.587  16.191 -0.1675  0.7434 -0.7423
  615MPD2    H7 9174   1.313   0.666  16.248  0.0009 -0.2260  0.5280
  616TMC3    C1 9175   1.440   0.459  16.321  0.1732 -0.0711  0.2370
  616TMC3    C2 9176   1.489   0.338  16.344  0.2136 -0.8622  0.4495
  616TMC3    C3 9177   1.545   0.313  16.465 -0.2784  0.0713 -0.2473
  616TMC3    C4 9178   1.444   0.552  16.420  0.1468  0.7665 -0.4917
  616TMC3    C5 9179   1.505   0.530  16.536 -0.8103  0.3334 -0.4008
  616TMC3    C6 9180   1.555   0.405  16.563 -0.4588 -0.0345  0.6935
  616TMC3     C 9181   1.348   0.471  16.204  0.5446  0.0294  0.0722
  616TMC3     O 9182   1.346   0.372  16.132 -0.0875 -0.3573 -0.1208
  616TMC3     H 9183   1.489   0.256  16.273 -1.4708  0.4702 -1.0915
  616TMC3    H1 9184   1.420   0.657  16.406  0.8638  0.7998 -1.4343
  616TMC3    H2 9185   1.592   0.377  16.661  0.9060  1.2860  0.5454
  616TMC3    C7 9186   1.486   0.621  16.648  0.3660  0.1955 -0.7983
  616TMC3    C8 9187   1.611   0.189  16.485 -0.5732  0.3496 -0.2823
  616TMC3    O1 9188   1.392   0.703  16.647 -0.5450  0.2297 -0.3424
  616TMC3    O2 9189   1.548   0.089  16.454 -0.2155  0.4824  0.0037
  617MPD2     C 9190   4.180   2.862  13.358  0.1058 -0.3479 -0.0609
  617MPD2    C1 9191   4.210   2.813  13.486 -0.0727 -0.0812  0.6667
  617MPD2    C2 9192   4.114   2.815  13.587  0.8067  0.0486  0.9167
  617MPD2    C3 9193   3.983   2.863  13.562 -0.6064  0.9009  0.4707
  617MPD2    C4 9194   3.962   2.917  13.440 -0.3053 -0.4134  0.1849
  617MPD2    C5 9195   4.058   2.920  13.346  0.3535 -0.2829 -0.1075
  617MPD2     H 9196   4.144   2.782  13.686 -0.7652 -0.2173  1.3108
  617MPD2    H1 9197   3.862   2.952  13.417  0.6445  2.0310 -0.1674
  617MPD2    H2 9198   4.262   2.870  13.288 -0.2467  2.0875 -0.1796
  617MPD2    H3 9199   4.040   2.967  13.250  0.5962 -1.0170 -0.5163
  617MPD2     N 9200   3.870   2.866  13.659  0.1107 -0.2069 -0.1751
  617MPD2    H5 9201   3.794   2.927  13.628  0.3732  0.1945 -0.0216
  617MPD2    N1 9202   4.345   2.777  13.513  0.3579 -0.5012 -1.0155
  617MPD2    H7 9203   4.415   2.791  13.441  0.5890 -1.6442 -1.0032
  618TMC3    C1 9204   4.506   2.645  13.598  0.0841 -0.6610 -0.3266
  618TMC3    C2 9205   4.535   2.511  13.592  0.0377 -0.7629 -0.0868
  618TMC3    C3 9206   4.665   2.475  13.585 -0.3109  0.0261  0.2795
  618TMC3    C4 9207   4.596   2.745  13.579  0.9332  0.1020  0.3884
  618TMC3    C5 9208   4.722   2.701  13.563 -0.2724 -0.4549  0.0009
  618TMC3    C6 9209   0.020   2.567  13.577  0.4049  0.1887  0.0130
  618TMC3     C 9210   4.379   2.690  13.610  0.3173 -0.6082 -0.7100
  618TMC3     O 9211   4.306   2.614  13.678 -0.3033  0.2142  0.2686
  618TMC3     H 9212   4.462   2.432  13.607  1.0849 -1.7751 -0.3986
  618TMC3    H1 9213   4.577   2.852  13.579  0.9343  0.1030  1.1314
  618TMC3    H2 9214   0.125   2.541  13.563  0.2121 -0.1989 -0.6810
  618TMC3    C7 9215   0.084   2.805  13.535 -1.0369  0.6999 -0.1172
  618TMC3    C8 9216   4.697   2.346  13.538  0.4125  0.2669 -0.0915
  618TMC3    O1 9217   0.080   2.891  13.621 -0.0561  0.7221  0.0696
  618TMC3    O2 9218   0.069   2.301  13.566  0.4290 -0.2405 -0.2686
  619MPD2     C 9219   0.544   4.153  13.651 -0.4188  0.0701 -0.2673
  619MPD2    C1 9220   0.469   4.257  13.601  0.7750  0.2970 -0.4136
  619MPD2    C2 9221   0.332   4.251  13.605 -0.8473 -0.0987  0.1339
  619MPD2    C3 9222   0.269   4.138  13.653  0.5194  0.5328  0.0420
  619MPD2    C4 9223   0.345   4.032  13.700 -0.7524 -0.1338  0.2295
  619MPD2    C5 9224   0.489   4.040  13.692  1.2442  0.8473  0.6700
  619MPD2     H 9225   0.287   4.344  13.573  0.6607  0.0362 -1.6236
  619MPD2    H1 9226   0.290   3.951  13.748 -1.4522  0.1443 -0.1122
  619MPD2    H2 9227   0.653   4.148  13.645 -0.5007 -1.2181 -0.7385
  619MPD2    H3 9228   0.564   3.966  13.716 -0.4898 -1.0985  0.1133
  619MPD2     N 9229   0.133   4.140  13.683 -0.0668 -0.1828  0.2740
  619MPD2    H5 9230   0.095   4.057  13.727  0.2759 -1.4909 -1.8961
  619MPD2    N1 9231   0.526   4.374  13.547 -0.7774  0.1477 -0.1145
  619MPD2    H7 9232   0.458   4.443  13.516  0.0263  1.1403  0.3065
  620TMC3    C1 9233   0.683   4.532  13.471  0.1186 -0.0098  0.0056
  620TMC3    C2 9234   0.571   4.578  13.406 -0.0355  0.2440  0.2537
  620TMC3    C3 9235   0.535   4.710  13.423 -0.4333 -0.2571  0.4307
  620TMC3    C4 9236   0.759   4.627  13.536  0.0893 -0.5393 -0.4041
  620TMC3    C5 9237   0.727   0.017  13.533 -0.4711 -0.2907  0.4382
  620TMC3    C6 9238   0.615   0.065  13.476 -0.5753  0.4195  0.2113
  620TMC3     C 9239   0.661   4.410  13.547  1.0142  0.2607  0.1436
  620TMC3     O 9240   0.756   4.354  13.596  0.1450 -0.5311  0.3228
  620TMC3     H 9241   0.510   4.509  13.348  0.2182  0.4578 -0.2638
  620TMC3    H1 9242   0.822   4.598  13.619 -0.8013  1.1432  0.8684
  620TMC3    H2 9243   0.572   0.163  13.496  0.4964  0.8066  0.5932
  620TMC3    C7 9244   0.812   0.106  13.614 -0.1476  0.4773 -0.5417
  620TMC3    C8 9245   0.395   4.705  13.459  0.3153 -0.5228 -0.3538
  620TMC3    O1 9246   0.889   0.062  13.693 -0.0159  0.0420  0.0809
  620TMC3    O2 9247   0.352   4.588  13.462 -0.1661 -0.0490  0.4783
  621MPD2     C 9248   1.327   0.169  10.509 -0.1044  0.4611  0.3524
  621MPD2    C1 9249   1.243   0.143  10.402 -0.5954  0.3457  0.4554
  621MPD2    C2 9250   1.181   0.243  10.332  0.2942  0.4539  0.5567
  621MPD2    C3 9251   1.217   0.373  10.349 -0.6000  0.6510  0.0838
  621MPD2    C4 9252   1.294   0.400  10.463  0.2312 -0.1501  0.1562
  621MPD2    C5 9253   1.350   0.297  10.546 -0.3759  0.3857  0.5826
  621MPD2     H 9254   1.128   0.219  10.240  0.1431  0.3333  0.6733
  621MPD2    H1 9255   1.315   0.503  10.490 -0.2153 -0.0878  0.2669
  621MPD2    H2 9256   1.362   0.089  10.574  0.4664 -1.1278 -1.9067
  621MPD2    H3 9257   1.408   0.323  10.634 -0.0934 -2.1101  1.1422
  621MPD2     N 9258   1.182   0.468  10.256 -0.0515  0.4168 -0.0409
  621MPD2    H5 9259   1.148   0.440  10.164  2.7987 -3.0339 -0.0342
  621MPD2    N1 9260   1.224   0.016  10.354 -0.3415 -0.1717 -0.0661
  621MPD2    H7 9261   1.162   0.001  10.275 -1.9705  0.8977  1.0171
  622TMC3    C1 9262   1.240   4.543  10.318 -0.4867 -0.1020  0.1718
  622TMC3    C2 9263   1.114   4.492  10.347  0.3490 -0.2458 -0.5496
  622TMC3    C3 9264   1.018   4.500  10.251  0.3843 -0.0889  0.7107
  622TMC3    C4 9265   1.257   4.595  10.200  0.6325 -0.9889 -0.3503
  622TMC3    C5 9266   1.168   4.589  10.097 -0.2534  0.1628  0.5224
  622TMC3    C6 9267   1.040   4.546  10.121 -0.4745  0.0636 -0.4806
  622TMC3     C 9268   1.272   4.648  10.411 -1.0422 -0.0238  0.0554
  622TMC3     O 9269   1.302   4.618  10.524  0.0747  0.5638 -0.2656
  622TMC3     H 9270   1.094   4.475  10.452  2.1102  0.0802 -0.1538
  622TMC3    H1 9271   1.350   4.646  10.176  0.2021 -0.2808 -0.4888
  622TMC3    H2 9272   0.973   4.522  10.038  1.3918  1.8509 -2.4985
  622TMC3    C7 9273   1.191   4.676   9.985  0.5875  0.5408 -0.7219
  622TMC3    C8 9274   0.878   4.462  10.280 -0.0779 -0.5670 -0.2616
  622TMC3    O1 9275   1.304   4.693   9.952 -0.5946  0.0798 -0.1458
  622TMC3    O2 9276   0.847   4.390  10.374 -0.0303 -0.2731  0.0829
  623MPD2     C 9277   4.616   0.706  15.529 -0.4612 -0.4293 -0.3352
  623MPD2    C1 9278   4.550   0.626  15.620 -0.0421 -0.5448 -0.6128
  623MPD2    C2 9279   4.587   0.632  15.748 -0.3589 -1.0456 -0.5076
  623MPD2    C3 9280   4.696   0.716  15.782  0.2627 -0.0566 -0.1466
  623MPD2    C4 9281   0.029   0.788  15.688 -0.6073 -0.1892 -0.6701
  623MPD2    C5 9282   4.720   0.788  15.566 -0.5663  0.1814  0.1959
  623MPD2     H 9283   4.535   0.569  15.820 -1.3612  1.4276  0.9103
  623MPD2    H1 9284   0.111   0.856  15.708 -0.8526  0.4467 -1.7914
  623MPD2    H2 9285   4.597   0.700  15.422  1.3706 -0.5544 -0.6624
  623MPD2    H3 9286   0.027   0.845  15.487 -1.8505  1.5872  0.4277
  623MPD2     N 9287   4.733   0.719  15.916  0.0224 -0.6776 -0.4631
  623MPD2    H5 9288   4.688   0.651  15.977  2.3493 -0.7350  1.1705
  623MPD2    N1 9289   4.453   0.530  15.594 -0.0150  0.0548 -0.5636
  623MPD2    H7 9290   4.413   0.478  15.672  1.3472 -0.2326 -0.0514
  624TMC3    C1 9291   0.242   0.705  16.308  0.6696 -0.4482 -0.1537
  624TMC3    C2 9292   0.151   0.623  16.367 -0.0018  0.1624  0.0993
  624TMC3    C3 9293   0.035   0.601  16.293  0.0613 -0.3569 -0.1272
  624TMC3    C4 9294   0.225   0.765  16.181  0.6767  0.1272  0.0147
  624TMC3    C5 9295   0.104   0.740  16.112 -0.2452  0.1912  0.1034
  624TMC3    C6 9296   0.007   0.659  16.172 -0.5384 -0.3607  0.3088
  624TMC3     C 9297   0.378   0.696  16.365  0.1133  0.4401 -0.1589
  624TMC3     O 9298   0.376   0.639  16.470 -0.5861 -0.3352  0.1201
  624TMC3     H 9299   0.157   0.594  16.471  0.5369 -2.9757 -0.8054
  624TMC3    H1 9300   0.287   0.842  16.137 -0.1849 -0.0300 -1.4464
  624TMC3    H2 9301   4.661   0.622  16.120 -0.6061  0.4345 -0.1394
  624TMC3    C7 9302   0.091   0.790  15.974 -0.0710 -0.5856 -0.7994
  624TMC3    C8 9303   4.686   0.506  16.338  0.4515 -0.1556  0.8035
  624TMC3    O1 9304   0.166   0.875  15.937  0.8752 -0.0070  0.0580
  624TMC3    O2 9305   4.610   0.452  16.260 -0.1252 -0.0083  0.1088
  625MPD2     C 9306   0.721   2.010   0.034 -0.3266  0.1446  0.3340
  625MPD2    C1 9307   0.803   2.124   0.011 -0.8427 -0.2759 -0.1780
  625MPD2    C2 9308   0.924   2.134   0.075  0.5275 -0.2556  0.2326
  625MPD2    C3 9309   0.967   2.039   0.160  0.8270 -0.3621  1.3341
  625MPD2    C4 9310   0.894   1.921   0.177  0.1200  0.1263  0.3549
  625MPD2    C5 9311   0.775   1.907   0.119 -0.3189  0.9636 -0.3696
  625MPD2     H 9312   0.970   2.231   0.062 -0.2755  0.1346  0.2916
  625MPD2    H1 9313   0.918   1.853   0.257  1.4129  1.1929  0.8799
  625MPD2    H2 9314   0.618   2.007  17.764  0.8742  0.6891 -3.2399
  625MPD2    H3 9315   0.703   1.832   0.150  0.3586  0.3226 -0.3556
  625MPD2     N 9316   1.082   2.062   0.238 -0.6179 -0.3882 -0.1467
  625MPD2    H5 9317   1.137   2.145   0.222 -0.0754 -0.5981  0.6913
  625MPD2    N1 9318   0.765   2.236  17.705 -0.3319 -0.7640 -0.2657
  625MPD2    H7 9319   0.826   2.317  17.698 -1.4170  0.2830  2.3502
  626TMC3    C1 9320   0.602   2.386  17.594  0.3297  0.6453 -0.0051
  626TMC3    C2 9321   0.482   2.382  17.537  0.3482  0.2334 -0.0177
  626TMC3    C3 9322   0.413   2.502  17.538 -0.6366 -0.3338  0.1107
  626TMC3    C4 9323   0.656   2.493  17.647 -0.2838  1.0283 -0.4287
  626TMC3    C5 9324   0.577   2.604  17.658  0.7857  0.5711 -0.1302
  626TMC3    C6 9325   0.454   2.618  17.599 -0.3457 -0.3083  0.3232
  626TMC3     C 9326   0.641   2.250  17.643  0.3655 -0.4272 -0.0216
  626TMC3     O 9327   0.552   2.171  17.641  0.1744 -0.7310  0.1686
  626TMC3     H 9328   0.442   2.292  17.491 -1.0615  1.6980 -1.6775
  626TMC3    H1 9329   0.743   2.484  17.711 -0.5631  0.5724 -0.1184
  626TMC3    H2 9330   0.410   2.713  17.574 -1.7889 -0.6647  1.5006
  626TMC3    C7 9331   0.634   2.714  17.731  0.0945 -0.8647  0.2553
  626TMC3    C8 9332   0.270   2.493  17.497 -0.2359  0.1460 -1.1599
  626TMC3    O1 9333   0.754   2.729  17.740 -0.3238  0.3552  0.5805
  626TMC3    O2 9334   0.241   2.379  17.457  0.1240 -0.1038 -0.1729
  627MPD2     C 9335   3.146   1.960  14.352 -0.0721 -0.0916 -0.2666
  627MPD2    C1 9336   3.186   1.884  14.456  0.5607 -0.5627 -0.6795
  627MPD2    C2 9337   3.120   1.766  14.477 -0.4558 -0.5012  0.0451
  627MPD2    C3 9338   3.026   1.724  14.385 -0.4240 -0.2264  0.8430
  627MPD2    C4 9339   2.981   1.806  14.285  0.5142  0.1384 -0.3039
  627MPD2    C5 9340   3.049   1.921  14.270  0.2128  0.0113 -0.5768
  627MPD2     H 9341   3.144   1.704  14.562 -0.0358  3.3696  2.7597
  627MPD2    H1 9342   2.904   1.776  14.215 -0.0820  0.8201  0.0612
  627MPD2    H2 9343   3.191   2.057  14.337 -2.5925  1.0130 -0.6502
  627MPD2    H3 9344   3.016   1.987  14.190  0.2469  2.5049  1.4858
  627MPD2     N 9345   2.960   1.599  14.411  0.6537  0.8851  0.1907
  627MPD2    H5 9346   2.998   1.545  14.488  2.9051  0.3538 -1.3234
  627MPD2    N1 9347   3.287   1.920  14.558  0.0405  0.2164  0.3237
  627MPD2    H7 9348   3.299   1.861  14.640  1.4312  0.0333 -0.0221
  628TMC3    C1 9349   3.480   2.026  14.634  0.4963  0.1201 -0.2361
  628TMC3    C2 9350   3.536   1.909  14.681 -0.0556  0.8266 -0.0108
  628TMC3    C3 9351   3.666   1.911  14.730  0.0303 -1.0425  0.6236
  628TMC3    C4 9352   3.557   2.135  14.619 -0.4359 -0.0648 -0.3750
  628TMC3    C5 9353   3.686   2.134  14.661  0.3458 -0.4735  0.9590
  628TMC3    C6 9354   3.747   2.020  14.711  0.8637 -0.1909  0.4446
  628TMC3     C 9355   3.380   2.025  14.535 -0.1673 -0.0357  0.7065
  628TMC3     O 9356   3.399   2.095  14.439 -0.3970  0.1281 -0.0128
  628TMC3     H 9357   3.484   1.815  14.670 -0.1400  0.9743 -0.8972
  628TMC3    H1 9358   3.503   2.224  14.588 -1.1469 -0.7506 -1.1016
  628TMC3    H2 9359   3.843   2.029  14.762  0.1167  0.6375  1.7096
  628TMC3    C7 9360   3.770   2.250  14.648  0.2421 -0.5044 -1.1994
  628TMC3    C8 9361   3.721   1.783  14.766  0.3921  0.0730  0.2950
  628TMC3    O1 9362   3.851   2.270  14.737  0.4915 -0.4734  0.0849
  628TMC3    O2 9363   3.638   1.691  14.766  0.4896  0.9313  0.5259
  629MPD2     C 9364   2.013   4.624  16.501  0.4717  0.3411 -0.3346
  629MPD2    C1 9365   2.057   0.012  16.494 -0.1868 -0.0330 -0.6086
  629MPD2    C2 9366   1.965   0.116  16.510  0.4203 -0.4450 -0.1055
  629MPD2    C3 9367   1.832   0.093  16.520 -0.3128 -0.1888  0.2154
  629MPD2    C4 9368   1.787   4.706  16.513  0.5514  0.2246  0.1867
  629MPD2    C5 9369   1.879   4.606  16.506  0.1573 -0.5014  0.2961
  629MPD2     H 9370   1.993   0.221  16.505  0.5370 -0.3834  1.5728
  629MPD2    H1 9371   1.685   4.669  16.515  0.0924  1.4690  0.5586
  629MPD2    H2 9372   2.085   4.543  16.496 -0.4139 -0.5498  1.2888
  629MPD2    H3 9373   1.839   4.505  16.508 -0.6492 -0.1938 -0.2961
  629MPD2     N 9374   1.742   0.202  16.512  0.5093  0.1407 -0.4004
  629MPD2    H5 9375   1.776   0.297  16.526  1.9947 -0.8245  2.6852
  629MPD2    N1 9376   2.193   0.035  16.451  0.1253 -0.4736 -0.0140
  629MPD2    H7 9377   2.257   4.698  16.456 -0.1551 -0.6394  1.0187
  630TMC3    C1 9378   2.387   0.135  16.366  0.2797 -0.0540  0.2181
  630TMC3    C2 9379   2.418   0.229  16.274  0.0274  0.0979 -0.5139
  630TMC3    C3 9380   2.550   0.245  16.245  0.6702  0.3440  0.2358
  630TMC3    C4 9381   2.481   0.075  16.441  0.4096  0.0387  0.6201
  630TMC3    C5 9382   2.614   0.108  16.417  0.3572  0.4087  1.1018
  630TMC3    C6 9383   2.650   0.182  16.314  0.6115 -0.5676 -0.4437
  630TMC3     C 9384   2.247   0.151  16.411  0.3571  0.9785 -0.4918
  630TMC3     O 9385   2.194   0.263  16.402 -0.4553 -0.1116 -0.0343
  630TMC3     H 9386   2.340   0.286  16.225 -0.4220 -2.7270 -3.0710
  630TMC3    H1 9387   2.462   0.028  16.537  0.5711 -0.2925  0.4915
  630TMC3    H2 9388   2.756   0.197  16.297  0.6149  3.1307  2.8839
  630TMC3    C7 9389   2.694   0.127  16.539 -0.3238 -0.5227  0.2083
  630TMC3    C8 9390   2.595   0.378  16.200  0.3609 -0.0253  1.0046
  630TMC3    O1 9391   2.628   0.155  16.639 -0.2039 -0.1210 -0.2094
  630TMC3    O2 9392   2.709   0.418  16.212  0.0873  0.0072  0.0214
  631MPD2     C 9393   1.034   1.148  15.093 -0.1070 -0.1025 -0.5184
  631MPD2    C1 9394   0.920   1.210  15.144 -0.0848 -0.7086 -0.0580
  631MPD2    C2 9395   0.918   1.252  15.278  0.1437 -0.1173  0.1071
  631MPD2    C3 9396   1.028   1.241  15.357 -0.6245 -0.0201  0.5835
  631MPD2    C4 9397   1.137   1.170  15.307 -0.2913  0.9749 -0.4291
  631MPD2    C5 9398   1.141   1.123  15.175  0.0577 -0.1127 -0.1318
  631MPD2     H 9399   0.837   1.305  15.326 -0.8639 -3.1460  1.6802
  631MPD2    H1 9400   1.218   1.147  15.375 -1.2733 -1.5667 -0.1152
  631MPD2    H2 9401   1.046   1.130  14.986 -1.1347  1.4537 -0.8953
  631MPD2    H3 9402   1.224   1.070  15.130 -1.2210  0.0134 -2.6393
  631MPD2     N 9403   1.016   1.275  15.490 -0.3763  0.3183 -0.2384
  631MPD2    H5 9404   0.936   1.333  15.514 -0.3171  0.8493 -1.3655
  631MPD2    N1 9405   0.811   1.227  15.060 -0.0206  0.7825  0.6431
  631MPD2    H7 9406   0.822   1.193  14.965 -1.8814  0.3905  0.5675
  632TMC3    C1 9407   0.574   1.258  15.013  0.4098  0.1434 -0.5877
  632TMC3    C2 9408   0.454   1.321  15.036 -0.3461 -0.3313 -0.0757
  632TMC3    C3 9409   0.344   1.297  14.959 -1.4039  0.5576  0.3771
  632TMC3    C4 9410   0.579   1.166  14.908  0.2890  0.1078  0.3549
  632TMC3    C5 9411   0.470   1.151  14.826  0.0332  0.1632  0.4235
  632TMC3    C6 9412   0.354   1.213  14.846 -0.6903 -0.0574  0.0034
  632TMC3     C 9413   0.692   1.286  15.101 -0.5604  0.0781 -0.3919
  632TMC3     O 9414   0.660   1.343  15.204  0.5653  0.0790 -0.1406
  632TMC3     H 9415   0.450   1.401  15.109 -0.0561 -0.1272 -0.2856
  632TMC3    H1 9416   0.674   1.122  14.880  0.3972  0.9357 -0.5513
  632TMC3    H2 9417   0.272   1.178  14.784 -0.6448  0.1335 -0.1626
  632TMC3    C7 9418   0.503   1.101  14.694 -0.2713 -0.5688 -0.5083
  632TMC3    C8 9419   0.220   1.288  15.033 -0.2193 -0.4152 -0.2512
  632TMC3    O1 9420   0.443   1.137  14.593 -0.4873  0.0132  0.4507
  632TMC3    O2 9421   0.140   1.223  14.972  0.3610 -0.6509  1.0670
  633MPD2     C 9422   0.057   3.324  17.185 -0.2749  0.1377  0.2062
  633MPD2    C1 9423   0.029   3.252  17.073 -0.3948 -0.4331  0.0000
  633MPD2    C2 9424   4.737   3.122  17.083 -0.2437  0.5197  0.0330
  633MPD2    C3 9425   0.006   3.051  17.207 -0.0829  0.6223  0.0551
  633MPD2    C4 9426   0.037   3.122  17.318 -0.2855  0.2327 -0.1205
  633MPD2    C5 9427   0.060   3.259  17.305  0.4188 -0.1296 -0.1376
  633MPD2     H 9428   4.725   3.066  16.991 -0.4542 -3.2592  2.3642
  633MPD2    H1 9429   0.039   3.088  17.421  1.2648 -0.1853 -0.2882
  633MPD2    H2 9430   0.090   3.426  17.173  1.8150 -0.8079 -2.0845
  633MPD2    H3 9431   0.096   3.315  17.391  0.6935 -0.1682 -0.2273
  633MPD2     N 9432   4.740   2.911  17.216 -0.9655 -0.0126 -0.3166
  633MPD2    H5 9433   0.042   2.866  17.295  0.0699  2.0474  0.2788
  633MPD2    N1 9434   0.038   3.310  16.940  0.0096 -0.6872 -0.5487
  633MPD2    H7 9435   0.032   3.241  16.866 -1.7230 -2.7351  1.4894
  634TMC3    C1 9436   0.066   3.475  16.773  0.2355  0.4220 -0.5816
  634TMC3    C2 9437   0.116   3.370  16.700 -0.2698 -0.8592 -0.3393
  634TMC3    C3 9438   0.128   3.383  16.565 -0.4521 -0.0388  0.4031
  634TMC3    C4 9439   0.006   3.578  16.714 -0.6384  0.2514 -0.8721
  634TMC3    C5 9440   0.004   3.578  16.579  0.4930  0.3650  0.0748
  634TMC3    C6 9441   0.079   3.494  16.500 -0.1092  0.3173  0.1524
  634TMC3     C 9442   0.032   3.439  16.909  0.0950 -0.1126 -0.4274
  634TMC3     O 9443   4.708   3.523  16.969  0.4364 -0.4647  0.1181
  634TMC3     H 9444   0.171   3.291  16.751 -0.1952 -2.2251 -2.5448
  634TMC3    H1 9445   4.701   3.655  16.774 -0.3741  0.0819 -0.4485
  634TMC3    H2 9446   0.090   3.526  16.397 -0.4344 -2.3783 -0.7069
  634TMC3    C7 9447   4.675   3.684  16.506 -1.1061 -0.1406 -0.3750
  634TMC3    C8 9448   0.182   3.273  16.493 -0.1369  0.0358 -0.6682
  634TMC3    O1 9449   4.707   3.704  16.390  0.0290  0.0810 -0.2040
  634TMC3    O2 9450   0.207   3.176  16.563  0.0529  0.3309  0.3131
  635TMC3    C1 9451   4.132   4.721   0.324 -0.1514 -0.7691  0.0527
  635TMC3    C2 9452   4.142   4.593   0.378  0.0329  0.3963 -0.5497
  635TMC3    C3 9453   4.034   4.506   0.362 -0.3464  0.4565 -0.7058
  635TMC3    C4 9454   4.013   0.023   0.270  0.2362 -0.6670 -0.2940
  635TMC3    C5 9455   3.916   4.676   0.257 -0.6417  0.6437 -0.2090
  635TMC3    C6 9456   3.920   4.545   0.299 -0.3514  0.0542 -0.1118
  635TMC3     C 9457   4.258   0.047   0.308 -0.2645 -0.0473  0.1101
  635TMC3     O 9458   4.360   4.734   0.346 -0.5827 -0.4261  0.4765
  635TMC3     H 9459   4.231   4.561   0.430 -1.3127 -0.1155  1.4302
  635TMC3    H1 9460   4.020   0.120   0.222  1.0008  0.2631  1.7116
  635TMC3    H2 9461   3.836   4.479   0.285 -2.0273  2.3505 -0.7912
  635TMC3    C7 9462   3.786   4.727   0.221  0.2600 -0.2965  0.3947
  635TMC3    C8 9463   4.040   4.387   0.431  0.6323 -0.0515 -0.2827
  635TMC3    O1 9464   3.691   4.649   0.201  0.5147 -0.5585  0.1819
  635TMC3    O2 9465   3.991   4.300   0.364 -0.3783 -1.2233 -0.2598
  636MPD2     C 9466   0.857   3.784  16.440 -0.2445 -0.8765 -0.3773
  636MPD2    C1 9467   0.980   3.807  16.498 -0.0893 -0.1648  0.1555
  636MPD2    C2 9468   1.066   3.704  16.527 -0.2916  0.1359  0.2496
  636MPD2    C3 9469   1.033   3.572  16.499 -0.3953 -0.1953 -0.1372
  636MPD2    C4 9470   0.912   3.542  16.437 -0.4906 -0.3203  0.2814
  636MPD2    C5 9471   0.827   3.651  16.402  0.6583  0.0957 -0.3354
  636MPD2     H 9472   1.160   3.731  16.575 -1.6812 -0.2839  3.2464
  636MPD2    H1 9473   0.878   3.441  16.422  2.0966 -0.9266 -1.6284
  636MPD2    H2 9474   0.781   3.860  16.427 -1.4527 -1.6402  2.2570
  636MPD2    H3 9475   0.729   3.624  16.367  0.0172  1.2833  0.5316
  636MPD2     N 9476   1.118   3.474  16.550  0.1402 -0.1715  0.3772
  636MPD2    H5 9477   1.198   3.511  16.600  0.4835 -1.2714  0.6421
  636MPD2    N1 9478   1.028   3.935  16.533 -0.5704  0.0539  0.1824
  636MPD2    H7 9479   1.112   3.941  16.589 -0.2841 -2.1851 -0.0032
  637TMC3    C1 9480   1.180   3.253  16.632  0.4877  0.5990 -0.3374
  637TMC3    C2 9481   1.267   3.308  16.716  0.9926  0.2331 -0.1839
  637TMC3    C3 9482   1.363   3.231  16.765 -0.4414  0.4152  0.3637
  637TMC3    C4 9483   1.181   3.121  16.591 -0.2101  0.2093 -0.3202
  637TMC3    C5 9484   1.275   3.050  16.647  0.1853 -0.0633  0.3838
  637TMC3    C6 9485   1.359   3.101  16.740 -0.2174 -0.3969 -0.4549
  637TMC3     C 9486   1.096   3.334  16.548  0.9051 -0.6394  0.7344
  637TMC3     O 9487   1.012   3.273  16.482 -0.4453  0.3344  0.2348
  637TMC3     H 9488   1.272   3.415  16.732 -2.0722 -0.4326  5.3997
  637TMC3    H1 9489   1.116   3.082  16.513 -1.1439  1.8960 -0.3857
  637TMC3    H2 9490   1.434   3.038  16.787 -1.3773  0.3559  2.4162
  637TMC3    C7 9491   1.369   2.999  16.554  0.0777 -0.7915 -0.6654
  637TMC3    C8 9492   1.495   3.284  16.721  0.1464  1.0723 -0.1740
  637TMC3    O1 9493   1.490   3.023  16.569  0.0502 -0.6463 -0.5035
  637TMC3    O2 9494   1.494   3.351  16.618  0.2477  0.2997 -0.0485
  638MPD2     C 9495   1.327   2.503  14.672  0.9293 -0.5032 -0.2100
  638MPD2    C1 9496   1.250   2.392  14.650  0.1284  1.2618 -0.4459
  638MPD2    C2 9497   1.189   2.319  14.752 -0.2481 -0.2775 -0.3097
  638MPD2    C3 9498   1.207   2.371  14.878  0.2479 -0.7230 -0.0821
  638MPD2    C4 9499   1.293   2.481  14.901  0.4120 -0.2708  0.3953
  638MPD2    C5 9500   1.352   2.548  14.795  0.3420 -0.3482 -0.5355
  638MPD2     H 9501   1.128   2.235  14.721 -0.9768 -0.0276  0.4650
  638MPD2    H1 9502   1.305   2.523  15.000  0.0640  2.3115 -0.6569
  638MPD2    H2 9503   1.371   2.553  14.587  0.4375  0.7997  0.2969
  638MPD2    H3 9504   1.423   2.630  14.791  0.2848 -0.2536  0.6193
  638MPD2     N 9505   1.139   2.289  14.973 -0.6949  0.1192  0.0618
  638MPD2    H5 9506   1.092   2.205  14.940 -3.2406  1.4995  0.1613
  638MPD2    N1 9507   1.237   2.343  14.516 -0.2188  0.8810 -0.1564
  638MPD2    H7 9508   1.266   2.414  14.449  0.5489  0.4380 -0.3043
  639TMC3    C1 9509   1.114   2.205  15.175  0.3128 -0.3117 -0.0472
  639TMC3    C2 9510   1.001   2.137  15.135  0.4615 -0.4233  1.1768
  639TMC3    C3 9511   0.971   2.025  15.197  0.6471  0.0779  0.2766
  639TMC3    C4 9512   1.198   2.152  15.269 -0.3399 -0.1332 -0.1464
  639TMC3    C5 9513   1.162   2.036  15.328  0.5889  0.9690 -0.1181
  639TMC3    C6 9514   1.053   1.970  15.288  0.3020 -0.0345  0.6823
  639TMC3     C 9515   1.165   2.311  15.104  0.5241 -0.5730  0.2120
  639TMC3     O 9516   1.245   2.382  15.157  0.3174  0.0311 -0.0140
  639TMC3     H 9517   0.934   2.186  15.065  0.9410  1.0350  1.7561
  639TMC3    H1 9518   1.294   2.195  15.293 -1.3083  1.4235  0.9298
  639TMC3    H2 9519   1.031   1.867  15.314 -3.4734  0.2666 -1.3705
  639TMC3    C7 9520   1.269   1.942  15.335  0.0821  0.2127  0.1469
  639TMC3    C8 9521   0.913   1.929  15.107 -0.8379 -0.0276 -0.1417
  639TMC3    O1 9522   1.275   1.856  15.419  0.2650  0.2883 -0.2467
  639TMC3    O2 9523   0.980   1.836  15.067  0.2932  0.4728  0.1665
  640MPD2     C 9524   0.810   1.545  10.278  0.1372 -0.6178 -0.3158
  640MPD2    C1 9525   0.821   1.626  10.168 -0.7989 -0.3871 -0.9963
  640MPD2    C2 9526   0.740   1.737  10.158  0.1184  0.1900  0.2638
  640MPD2    C3 9527   0.645   1.762  10.257 -0.2942 -0.1329 -0.6680
  640MPD2    C4 9528   0.642   1.681  10.372  0.0033  0.4064 -0.1510
  640MPD2    C5 9529   0.724   1.568  10.379  0.0348  0.5842  0.2713
  640MPD2     H 9530   0.746   1.804  10.074 -0.8923  0.5848  0.5092
  640MPD2    H1 9531   0.572   1.707  10.451 -1.2565  1.6106 -1.6474
  640MPD2    H2 9532   0.874   1.459  10.294  0.8464 -0.0456 -0.0810
  640MPD2    H3 9533   0.722   1.502  10.465  1.0060 -0.9948 -0.9042
  640MPD2     N 9534   0.543   1.856  10.247  0.3790  0.1335  0.0119
  640MPD2    H5 9535   0.458   1.852  10.304  0.1212  2.3845 -0.2308
  640MPD2    N1 9536   0.909   1.578  10.068  0.2015  0.2480 -0.4582
  640MPD2    H7 9537   0.959   1.492  10.088  0.9836  0.6400 -0.7386
  641TMC3    C1 9538   1.027   1.569   9.861  0.3458 -0.0071  0.1219
  641TMC3    C2 9539   1.100   1.461   9.913 -0.0431 -0.4633 -0.5843
  641TMC3    C3 9540   1.213   1.420   9.844  0.7975  0.0272  0.1933
  641TMC3    C4 9541   1.044   1.618   9.734  0.1405 -1.2933  0.0226
  641TMC3    C5 9542   1.153   1.570   9.669 -0.1399 -0.6508 -0.0969
  641TMC3    C6 9543   1.244   1.475   9.717  0.5963  0.0678 -0.4811
  641TMC3     C 9544   0.928   1.638   9.946  0.0262 -0.3779 -0.5658
  641TMC3     O 9545   0.874   1.739   9.900 -0.0789  1.2008 -0.7650
  641TMC3     H 9546   1.070   1.410  10.004  0.6388  2.4312  1.3011
  641TMC3    H1 9547   0.972   1.688   9.693  0.2661  0.5282  2.8386
  641TMC3    H2 9548   1.333   1.450   9.660  0.1054 -0.3311 -1.0767
  641TMC3    C7 9549   1.194   1.648   9.552  0.0142 -0.7884  0.0896
  641TMC3    C8 9550   1.294   1.303   9.880  0.4400 -0.2269  0.2090
  641TMC3    O1 9551   1.145   1.759   9.545  0.3528 -0.3010 -0.0122
  641TMC3    O2 9552   1.384   1.281   9.802 -0.5189  0.1210 -0.2477
  642TMC3    C1 9553   2.499   2.366  12.435  0.3415 -0.1410 -0.6178
  642TMC3    C2 9554   2.635   2.352  12.421  0.1829  0.2439  0.1015
  642TMC3    C3 9555   2.683   2.239  12.359  0.2598  0.0474  0.1851
  642TMC3    C4 9556   2.416   2.262  12.408  0.1198 -0.1922  0.0896
  642TMC3    C5 9557   2.467   2.144  12.369  0.5101  0.7110  0.0004
  642TMC3    C6 9558   2.597   2.136  12.341  0.0120  0.6399  0.0177
  642TMC3     C 9559   2.457   2.481  12.515  0.4904  0.3629  0.2248
  642TMC3     O 9560   2.548   2.561  12.542  0.5099  0.6662 -0.2418
  642TMC3     H 9561   2.707   2.420  12.465  0.4554  1.1283 -1.7167
  642TMC3    H1 9562   2.308   2.270  12.413 -0.0207 -0.2671 -2.5743
  642TMC3    H2 9563   2.637   2.039  12.313 -2.0675 -0.4332  0.7729
  642TMC3    C7 9564   2.382   2.030  12.340  0.2552 -0.4102 -0.3053
  642TMC3    C8 9565   2.822   2.229  12.326  0.4143  0.3836  0.0373
  642TMC3    O1 9566   2.270   2.049  12.298  0.4517 -0.1518 -0.7793
  642TMC3    O2 9567   2.861   2.122  12.278  0.8883 -0.0141  0.0633
  643TMC3    C1 9568   2.163   1.802   0.380 -0.0356 -0.2601  0.3453
  643TMC3    C2 9569   2.039   1.791   0.432 -0.6649 -0.2365 -1.3499
  643TMC3    C3 9570   1.947   1.695   0.392  0.1834 -0.7563  0.9031
  643TMC3    C4 9571   2.184   1.721   0.278 -0.3459 -0.0493 -0.6898
  643TMC3    C5 9572   2.098   1.637   0.225  0.1320  0.5827 -0.4509
  643TMC3    C6 9573   1.974   1.611   0.285  0.2235 -0.1575  0.0153
  643TMC3     C 9574   2.245   1.923   0.413  1.0985 -0.0376  0.1392
  643TMC3     O 9575   2.195   2.032   0.438  0.0737  0.1095  0.0662
  643TMC3     H 9576   2.022   1.872   0.502 -3.6350  0.4705 -2.9185
  643TMC3    H1 9577   2.276   1.740   0.224  0.6854  0.6550  1.3165
  643TMC3    H2 9578   1.894   1.552   0.243  1.2894 -1.4006 -0.2827
  643TMC3    C7 9579   2.110   1.624   0.078  0.4129 -0.7069  0.4421
  643TMC3    C8 9580   1.817   1.747   0.386  0.1776  0.9762 -0.6148
  643TMC3    O1 9581   2.196   1.691   0.015 -0.0074 -0.4723 -0.1820
  643TMC3    O2 9582   1.721   1.677   0.400  0.0788 -0.0814 -0.2042
  644MPD2     C 9583   1.211   2.147   9.758  0.0624  0.3634 -0.2703
  644MPD2    C1 9584   1.192   2.019   9.811 -0.6502  0.6036 -0.4414
  644MPD2    C2 9585   1.064   1.974   9.833 -0.0743  0.7761  0.5129
  644MPD2    C3 9586   0.953   2.057   9.805 -0.7217 -1.0816  0.5412
  644MPD2    C4 9587   0.974   2.181   9.762  0.1102  0.5711 -0.1412
  644MPD2    C5 9588   1.104   2.220   9.734 -0.4182 -1.0624  0.3848
  644MPD2     H 9589   1.047   1.875   9.873  2.3602  0.9371  1.9466
  644MPD2    H1 9590   0.896   2.253   9.736  1.4298  2.1604  0.3473
  644MPD2    H2 9591   1.309   2.186   9.733 -0.4479  1.8847  0.0928
  644MPD2    H3 9592   1.124   2.319   9.696 -1.5279  0.4197  3.6238
  644MPD2     N 9593   0.826   2.000   9.821 -0.3551  1.0278  0.3919
  644MPD2    H5 9594   0.827   1.904   9.854 -3.6096  1.2174  1.0396
  644MPD2    N1 9595   1.301   1.940   9.829 -0.3040  0.2340  0.4880
  644MPD2    H7 9596   1.387   1.968   9.784 -1.1471 -1.6380 -2.3209
  645TMC3    C1 9597   0.598   1.940   9.773 -0.4461  0.3158 -0.9608
  645TMC3    C2 9598   0.629   1.823   9.713  0.1310 -0.0808 -0.0728
  645TMC3    C3 9599   0.536   1.742   9.662 -0.3703  0.1904  0.2284
  645TMC3    C4 9600   0.468   1.982   9.779 -0.4844  0.2540 -0.2088
  645TMC3    C5 9601   0.369   1.901   9.726  0.0370  0.6761 -0.0009
  645TMC3    C6 9602   0.402   1.783   9.662  0.2942  0.3388 -0.6591
  645TMC3     C 9603   0.702   2.050   9.782 -0.1216 -0.4785 -0.1612
  645TMC3     O 9604   0.667   2.166   9.774  0.4408  0.3403 -0.2761
  645TMC3     H 9605   0.730   1.784   9.704  0.4893  0.7608  0.3236
  645TMC3    H1 9606   0.438   2.063   9.844 -0.6108  0.2665 -0.2844
  645TMC3    H2 9607   0.331   1.723   9.605  0.5039  0.2588 -0.8405
  645TMC3    C7 9608   0.234   1.954   9.712  0.5913  0.0785 -0.2504
  645TMC3    C8 9609   0.578   1.613   9.612 -0.5281  0.1105 -0.0873
  645TMC3    O1 9610   0.222   2.078   9.721 -0.1264  0.2663 -0.2018
  645TMC3    O2 9611   0.496   1.522   9.615 -0.2491 -0.1508 -0.1364
  646MPD2     C 9612   1.195   0.768  14.585  0.3401 -0.6435 -0.0084
  646MPD2    C1 9613   1.164   0.822  14.704 -0.3885 -0.4224 -0.6065
  646MPD2    C2 9614   1.062   0.917  14.702  0.8913  0.3861  0.0549
  646MPD2    C3 9615   1.014   0.959  14.572 -0.4919 -0.8881 -0.3788
  646MPD2    C4 9616   1.037   0.886  14.459  0.0240  0.6070 -0.3345
  646MPD2    C5 9617   1.128   0.788  14.463  0.0051 -0.1402  0.1786
  646MPD2     H 9618   1.040   0.968  14.796  0.1032 -0.0226  0.0936
  646MPD2    H1 9619   0.985   0.917  14.369 -1.0285  1.7543  0.6735
  646MPD2    H2 9620   1.262   0.683  14.591  0.1650 -0.6813  1.4533
  646MPD2    H3 9621   1.147   0.730  14.374  2.2716 -0.9276  1.1601
  646MPD2     N 9622   0.924   1.062  14.547 -0.0490 -0.4938 -0.0309
  646MPD2    H5 9623   0.909   1.092  14.451  1.9678  0.4374 -0.0767
  646MPD2    N1 9624   1.248   0.789  14.813  0.0268  0.5430 -0.0799
  646MPD2    H7 9625   1.331   0.731  14.799 -0.4990 -0.2873  0.2453
  647TMC3    C1 9626   1.303   0.783  15.043 -0.2732 -0.5500  0.5484
  647TMC3    C2 9627   1.266   0.775  15.177 -0.4166 -0.1033  0.0147
  647TMC3    C3 9628   1.360   0.756  15.275  0.9135  0.6679 -0.5113
  647TMC3    C4 9629   1.437   0.786  15.010  0.0771  0.5271 -0.5138
  647TMC3    C5 9630   1.527   0.785  15.119 -0.6415  0.1633 -0.2201
  647TMC3    C6 9631   1.495   0.769  15.251 -0.1966 -0.6117 -0.6533
  647TMC3     C 9632   1.205   0.808  14.944 -0.1982  0.2880 -0.3500
  647TMC3     O 9633   1.095   0.845  14.989 -0.4493  0.0699 -0.0926
  647TMC3     H 9634   1.162   0.756  15.202 -0.4921 -1.4239 -1.3023
  647TMC3    H1 9635   1.466   0.822  14.912  1.8324 -0.1035 -0.2094
  647TMC3    H2 9636   1.578   0.768  15.321 -1.3619  1.6290  0.7588
  647TMC3    C7 9637   1.660   0.763  15.081  0.2223  0.4003  0.0663
  647TMC3    C8 9638   1.329   0.693  15.403 -0.1961 -0.1139  0.8785
  647TMC3    O1 9639   1.740   0.777  15.172  0.3781 -0.4123 -0.0784
  647TMC3    O2 9640   1.431   0.654  15.456  0.1105  0.5445 -0.3220
  648TMC3    C1 9641   0.525   3.354  15.972  0.1145  0.5249 -0.2068
  648TMC3    C2 9642   0.573   3.229  15.922 -0.1108 -0.1385  0.3472
  648TMC3    C3 9643   0.531   3.199  15.799 -0.0434 -0.0987  0.1684
  648TMC3    C4 9644   0.437   3.432  15.895 -0.3742 -0.1038 -0.5896
  648TMC3    C5 9645   0.410   3.394  15.765 -0.2452 -0.0038  0.4469
  648TMC3    C6 9646   0.453   3.276  15.721  0.2750  0.2297  0.5929
  648TMC3     C 9647   0.551   3.403  16.104  0.6036 -0.3706 -0.4607
  648TMC3     O 9648   0.521   3.518  16.129 -0.0205 -0.0029 -0.5287
  648TMC3     H 9649   0.645   3.167  15.974  0.9842  0.3974 -0.5367
  648TMC3    H1 9650   0.399   3.527  15.932  0.3553 -0.0299 -0.0315
  648TMC3    H2 9651   0.431   3.243  15.621 -2.2922  2.0309  0.5544
  648TMC3    C7 9652   0.348   3.481  15.669  0.0928 -0.3987 -0.5110
  648TMC3    C8 9653   0.570   3.069  15.749 -0.5522  1.1163  0.0441
  648TMC3    O1 9654   0.377   3.461  15.552  0.1004 -0.3450 -0.2366
  648TMC3    O2 9655   0.498   3.020  15.663 -0.0994 -0.1906 -0.0496
  649TMC3    C1 9656   4.230   4.635  12.511  0.0048  0.7672 -0.2451
  649TMC3    C2 9657   4.358   4.692  12.518  0.6020  0.2008  0.5264
  649TMC3    C3 9658   4.444   4.662  12.621 -0.4759 -0.0079  0.6104
  649TMC3    C4 9659   4.183   4.560  12.613  0.4603 -0.1772  0.3643
  649TMC3    C5 9660   4.262   4.529  12.716  0.9851 -0.1900 -0.4039
  649TMC3    C6 9661   4.393   4.589  12.728 -0.3126  0.6541 -0.5565
  649TMC3     C 9662   4.140   4.653  12.407  0.1270 -0.0532 -0.3509
  649TMC3     O 9663   4.027   4.609  12.423 -0.1647 -0.5788  0.9331
  649TMC3     H 9664   4.398   0.015  12.441 -0.9107  1.2493  0.6418
  649TMC3    H1 9665   4.085   4.513  12.614  0.2101  0.2752 -2.7198
  649TMC3    H2 9666   4.457   4.567  12.813  1.1008 -0.3581 -1.8849
  649TMC3    C7 9667   4.210   4.442  12.818 -0.4304 -0.1246  0.2475
  649TMC3    C8 9668   4.586   4.659  12.608  0.4816 -0.4730  0.5191
  649TMC3    O1 9669   4.092   4.409  12.806 -0.0235  0.2554  0.0923
  649TMC3    O2 9670   4.651   4.616  12.702 -0.5117 -0.2347 -0.0846
  650TMC3    C1 9671   1.945   1.679  12.214 -0.2776  0.4437  0.2744
  650TMC3    C2 9672   1.862   1.744  12.300  0.0413  0.6064  0.1831
  650TMC3    C3 9673   1.769   1.828  12.238 -0.1268 -0.2547  0.1799
  650TMC3    C4 9674   1.931   1.672  12.080  0.2498  0.2715  0.0339
  650TMC3    C5 9675   1.833   1.749  12.024 -0.0584  0.0812 -0.2796
  650TMC3    C6 9676   1.753   1.834  12.098  0.2582  0.0908 -0.1136
  650TMC3     C 9677   2.022   1.570  12.263  0.8993  0.0722  0.2912
  650TMC3     O 9678   1.987   1.459  12.219  0.2978 -0.2522 -0.8213
  650TMC3     H 9679   1.870   1.728  12.407  0.2749  0.0167  0.0781
  650TMC3    H1 9680   1.994   1.602  12.026 -0.7632 -0.7629  0.1940
  650TMC3    H2 9681   1.685   1.901  12.046  1.2563  0.8376 -0.4343
  650TMC3    C7 9682   1.848   1.753  11.879  0.3873 -0.1482  0.2459
  650TMC3    C8 9683   1.686   1.918  12.320  0.0741 -0.4744  0.1920
  650TMC3    O1 9684   1.928   1.676  11.835  0.3159 -0.3439 -0.3137
  650TMC3    O2 9685   1.727   1.963  12.425  0.0080  0.4797 -0.0391
  651MPD2     C 9686   0.768   3.723  10.604  0.2707  0.3569 -0.5282
  651MPD2    C1 9687   0.727   3.829  10.519  0.5387  0.8044  1.1036
  651MPD2    C2 9688   0.826   3.907  10.469  0.0392 -0.1261  0.1645
  651MPD2    C3 9689   0.956   3.882  10.495  0.1299 -0.6529  0.8559
  651MPD2    C4 9690   1.000   3.784  10.578  0.6184 -0.5131 -0.4519
  651MPD2    C5 9691   0.903   3.702  10.631 -0.0991  0.0230 -0.2732
  651MPD2     H 9692   0.799   3.998  10.416  1.5233  0.1127 -0.1784
  651MPD2    H1 9693   1.104   3.758  10.596  0.8824 -1.5735 -3.3563
  651MPD2    H2 9694   0.708   3.647  10.652  3.9726 -2.1233  0.1165
  651MPD2    H3 9695   0.939   3.621  10.694  1.7480  1.6594  0.7827
  651MPD2     N 9696   1.053   3.972  10.428  0.4143 -1.1019 -0.3279
  651MPD2    H5 9697   1.021   4.032  10.352  0.6214  1.8274  1.9178
  651MPD2    N1 9698   0.595   3.861  10.491 -0.3472  0.4413 -0.0642
  651MPD2    H7 9699   0.574   3.940  10.431 -0.9361  1.0032  0.8770
  652TMC3    C1 9700   1.434   4.070  10.210  0.3559 -0.5204  0.4731
  652TMC3    C2 9701   1.390   4.034  10.332  0.5105 -0.5618 -0.2307
  652TMC3    C3 9702   1.253   4.055  10.363 -0.5181  0.7638 -0.0689
  652TMC3    C4 9703   1.358   4.130  10.115  0.2617  0.1414 -0.4845
  652TMC3    C5 9704   1.238   4.175  10.154  1.1769 -0.0896  0.2020
  652TMC3    C6 9705   1.181   4.138  10.278 -0.0186  0.0934 -0.2552
  652TMC3     C 9706   1.572   4.065  10.187  0.2919 -0.4347 -0.0216
  652TMC3     O 9707   1.639   4.006  10.272  0.1213 -0.6717 -0.7081
  652TMC3     H 9708   1.450   3.972  10.398  1.8418  0.8900 -0.0745
  652TMC3    H1 9709   1.383   4.136  10.009  1.4012 -3.0070 -0.4109
  652TMC3    H2 9710   1.079   4.166  10.304 -0.1320  0.3692 -0.9857
  652TMC3    C7 9711   1.151   4.226  10.056 -0.0155  0.0298 -0.2121
  652TMC3    C8 9712   1.186   3.964  10.447  0.8757 -0.2973 -0.2113
  652TMC3    O1 9713   1.035   4.202  10.078 -0.4252 -0.3561  0.7524
  652TMC3    O2 9714   1.260   3.892  10.512 -0.3580  0.0215 -0.2264
  653MPD2     C 9715   4.322   3.115  17.188  0.3444 -0.1868 -0.0231
  653MPD2    C1 9716   4.250   3.201  17.111 -0.5888 -0.1406 -0.2117
  653MPD2    C2 9717   4.227   3.165  16.982 -0.5238 -0.2816 -0.6325
  653MPD2    C3 9718   4.285   3.048  16.931  0.7110  0.3106  0.4996
  653MPD2    C4 9719   4.366   2.969  17.004  0.1397  0.2569 -0.9060
  653MPD2    C5 9720   4.380   2.997  17.135 -0.3166 -0.0445  0.1060
  653MPD2     H 9721   4.159   3.222  16.920  1.7040 -0.0314 -2.8823
  653MPD2    H1 9722   4.427   2.887  16.968  0.0063  0.2302 -1.0713
  653MPD2    H2 9723   4.349   3.135  17.291  0.5125 -0.4067 -0.0217
  653MPD2    H3 9724   4.445   2.937  17.197  0.3128  0.1396 -0.3722
  653MPD2     N 9725   4.251   3.029  16.796  0.0574 -0.1354  0.1177
  653MPD2    H5 9726   4.194   3.097  16.747 -1.1425 -0.9020  0.4423
  653MPD2    N1 9727   4.201   3.326  17.153  0.1566 -0.2348 -0.6983
  653MPD2    H7 9728   4.146   3.379  17.086 -1.9134 -1.1096  0.3102
  654TMC3    C1 9729   4.251   2.934  16.582 -0.0349  0.3904 -0.6967
  654TMC3    C2 9730   4.165   3.039  16.549 -0.0335  0.8458 -0.1638
  654TMC3    C3 9731   4.071   3.021  16.451 -0.0011  0.4337  0.2227
  654TMC3    C4 9732   4.242   2.814  16.517  0.2132  0.1846 -0.3476
  654TMC3    C5 9733   4.159   2.806  16.402 -0.0624  0.5534  0.1831
  654TMC3    C6 9734   4.073   2.911  16.365  0.2099  0.4913 -0.1263
  654TMC3     C 9735   4.285   2.918  16.724  0.1777  0.0082  0.1562
  654TMC3     O 9736   4.365   2.828  16.752  0.0201 -0.2659  0.6004
  654TMC3     H 9737   4.168   3.133  16.602 -0.8653 -0.0303  1.4463
  654TMC3    H1 9738   4.325   2.749  16.545  0.6317  2.2473  3.2439
  654TMC3    H2 9739   4.006   2.901  16.281  0.7283  2.7945 -0.7990
  654TMC3    C7 9740   4.113   2.673  16.381 -0.2181 -0.2899  0.1559
  654TMC3    C8 9741   3.948   3.087  16.484  0.2725 -0.1484 -0.1821
  654TMC3    O1 9742   4.098   2.636  16.266 -0.0285  0.3534 -0.1297
  654TMC3    O2 9743   3.958   3.181  16.565 -0.3469 -1.1810 -0.1482
  655MPD2     C 9744   1.101   3.593  15.686 -0.9367  0.0876  0.2112
  655MPD2    C1 9745   1.044   3.661  15.579 -0.3014  0.3876  0.0010
  655MPD2    C2 9746   1.063   3.607  15.453  0.0047  0.4637  0.2456
  655MPD2    C3 9747   1.128   3.486  15.430  0.3885 -0.1552  0.2294
  655MPD2    C4 9748   1.171   3.417  15.539 -0.2129  0.4907  0.2208
  655MPD2    C5 9749   1.157   3.469  15.663 -0.2537 -0.0791 -0.3870
  655MPD2     H 9750   1.007   3.659  15.377  0.0042  0.5412  0.2985
  655MPD2    H1 9751   1.235   3.330  15.526  1.0185  1.4698 -0.2494
  655MPD2    H2 9752   1.095   3.628  15.788  0.6444  0.8161  0.0609
  655MPD2    H3 9753   1.212   3.415  15.739 -2.7903 -1.5627  0.3806
  655MPD2     N 9754   1.159   3.433  15.297 -0.1316  0.0517 -0.0387
  655MPD2    H5 9755   1.185   3.335  15.293 -1.4791 -0.3786  1.7870
  655MPD2    N1 9756   0.963   3.770  15.591 -0.1784 -0.4604 -0.0612
  655MPD2    H7 9757   0.899   3.791  15.515  0.4093  2.9044  0.3851
  656TMC3    C1 9758   0.836   3.933  15.697 -0.2239  0.5142  0.1694
  656TMC3    C2 9759   0.749   3.929  15.801 -0.2729 -0.2026  0.0679
  656TMC3    C3 9760   0.624   3.983  15.792 -0.7238 -0.5030  0.5369
  656TMC3    C4 9761   0.796   3.980  15.579  0.1388 -0.9171 -0.2569
  656TMC3    C5 9762   0.674   4.041  15.572 -0.2452 -0.2192 -0.0810
  656TMC3    C6 9763   0.583   4.035  15.670 -0.0418 -0.2126  0.4099
  656TMC3     C 9764   0.948   3.844  15.706 -0.1677 -0.0586  0.3098
  656TMC3     O 9765   1.006   3.836  15.813  0.1361  0.0496  0.2374
  656TMC3     H 9766   0.769   3.863  15.885 -1.7182 -1.7799 -0.8341
  656TMC3    H1 9767   0.871   3.981  15.500  1.7386  0.9286  1.2794
  656TMC3    H2 9768   0.485   4.080  15.659 -0.4909 -1.2615  0.1617
  656TMC3    C7 9769   0.628   4.078  15.435  0.0954  0.0056 -0.0041
  656TMC3    C8 9770   0.527   3.937  15.888  0.7136 -0.1706  0.5873
  656TMC3    O1 9771   0.703   4.048  15.341  0.0097 -0.4670 -0.8369
  656TMC3    O2 9772   0.546   3.819  15.929 -0.5741  0.1369  0.2646
  657TMC3    C1 9773   0.161   2.531  15.136  0.0572  0.4582 -0.5449
  657TMC3    C2 9774   0.030   2.497  15.114 -0.4531  0.5304  0.0504
  657TMC3    C3 9775   4.709   2.474  15.235  0.7731 -1.0828 -0.1574
  657TMC3    C4 9776   0.228   2.520  15.255 -0.7124  0.1602  0.2429
  657TMC3    C5 9777   0.167   2.489  15.370  0.1269  0.7033  0.2070
  657TMC3    C6 9778   0.035   2.467  15.361 -0.7074  0.5834  0.0119
  657TMC3     C 9779   0.234   2.558  15.012 -1.2582 -0.0450  0.3983
  657TMC3     O 9780   0.199   2.492  14.916 -0.1307 -0.3865  0.8065
  657TMC3     H 9781   4.715   2.501  15.022 -0.6866  0.5322  0.1963
  657TMC3    H1 9782   0.336   2.530  15.257 -0.9300  1.5456  3.8647
  657TMC3    H2 9783   4.728   2.418  15.445  2.2755 -3.2685 -0.4858
  657TMC3    C7 9784   0.236   2.440  15.489 -0.0539 -0.3064 -0.1482
  657TMC3    C8 9785   4.569   2.435  15.244  0.0239 -0.3592  0.1907
  657TMC3    O1 9786   0.163   2.411  15.581 -0.2742 -0.0289  0.3736
  657TMC3    O2 9787   4.527   2.432  15.360  0.6046 -0.3078 -0.0115
  658MPD2     C 9788   1.286   3.544  14.446  0.1674 -0.4710 -0.0918
  658MPD2    C1 9789   1.160   3.487  14.479  0.3718 -0.6280 -0.4437
  658MPD2    C2 9790   1.063   3.474  14.382  1.0895 -0.0878 -0.2015
  658MPD2    C3 9791   1.091   3.508  14.252  0.4762  0.1450  0.5372
  658MPD2    C4 9792   1.212   3.567  14.216 -0.6267  0.0345 -0.2190
  658MPD2    C5 9793   1.306   3.591  14.320  0.6639 -0.1364 -0.1761
  658MPD2     H 9794   0.969   3.429  14.414 -0.4416  0.2711 -4.2043
  658MPD2    H1 9795   1.236   3.607  14.119  0.7857  1.1518  0.5965
  658MPD2    H2 9796   1.362   3.557  14.522  0.4929 -2.3983 -0.0875
  658MPD2    H3 9797   1.395   3.650  14.300  0.5156  0.5104  1.0395
  658MPD2     N 9798   0.984   3.496  14.164 -0.3243 -0.0533  0.9330
  658MPD2    H5 9799   0.894   3.462  14.196  0.2857 -1.5341  1.0614
  658MPD2    N1 9800   1.126   3.435  14.602 -0.4919 -0.5239  0.3944
  658MPD2    H7 9801   1.034   3.394  14.610 -0.5785 -0.6502 -1.3102
  659TMC3    C1 9802   1.137   3.406  14.840 -0.6021  0.4972 -0.3776
  659TMC3    C2 9803   1.188   3.463  14.953  0.3218  0.3278  0.3009
  659TMC3    C3 9804   1.169   3.400  15.072 -0.2906 -0.2215 -0.5432
  659TMC3    C4 9805   1.070   3.290  14.838  0.1789  0.1075  0.2953
  659TMC3    C5 9806   1.036   3.235  14.957  1.1585 -0.3833 -0.5338
  659TMC3    C6 9807   1.082   3.296  15.069  0.0293 -0.8311  0.2611
  659TMC3     C 9808   1.198   3.461  14.716  0.4381 -0.3034  0.8879
  659TMC3     O 9809   1.309   3.513  14.726  0.1168 -0.4356  0.3207
  659TMC3     H 9810   1.250   3.552  14.953 -0.0690  0.6032 -2.3510
  659TMC3    H1 9811   1.047   3.239  14.745  2.4917  3.2844 -2.0095
  659TMC3    H2 9812   1.038   3.273  15.166 -0.7794  1.1766  0.3789
  659TMC3    C7 9813   0.909   3.161  14.965 -0.4126  0.2363  0.1507
  659TMC3    C8 9814   1.154   3.494  15.176 -0.3727  0.9847  0.0879
  659TMC3    O1 9815   0.856   3.171  15.074 -0.1075 -0.6754 -0.4512
  659TMC3    O2 9816   1.139   3.612  15.151 -0.0813  0.1389 -0.2420
  660MPD2     C 9817   3.837   2.739  12.366 -0.7467 -0.1705  0.7489
  660MPD2    C1 9818   3.722   2.668  12.346 -0.1877 -0.3291 -0.0548
  660MPD2    C2 9819   3.695   2.552  12.420 -0.0780  0.6740 -0.1133
  660MPD2    C3 9820   3.786   2.500  12.511  0.4045 -0.1162 -0.1158
  660MPD2    C4 9821   3.904   2.566  12.526 -1.5772  0.1784  0.4835
  660MPD2    C5 9822   3.923   2.685  12.459  0.3000 -0.1268 -0.6655
  660MPD2     H 9823   3.600   2.499  12.416 -0.7867  1.8247  1.2598
  660MPD2    H1 9824   3.984   2.523  12.586  0.0989  0.3964 -1.5783
  660MPD2    H2 9825   3.871   2.827  12.313 -2.2954  0.0841  0.1626
  660MPD2    H3 9826   4.015   2.741  12.470 -0.4068  1.2333 -1.6342
  660MPD2     N 9827   3.760   2.387  12.598  0.2716 -0.2164 -0.3612
  660MPD2    H5 9828   3.803   2.391  12.690  0.4274 -0.2608 -0.4315
  660MPD2    N1 9829   3.629   2.734  12.269 -0.1361 -0.7155  0.2325
  660MPD2    H7 9830   3.659   2.822  12.226  2.1097 -1.5076  0.1506
  661TMC3    C1 9831   3.412   2.770  12.181  0.0219  0.8561 -0.0158
  661TMC3    C2 9832   3.443   2.833  12.062  0.3603 -0.1317  0.1762
  661TMC3    C3 9833   3.342   2.900  12.007  0.2350  0.1507  0.3824
  661TMC3    C4 9834   3.288   2.755  12.230  0.0827 -0.2757 -0.5303
  661TMC3    C5 9835   3.188   2.824  12.163 -0.5837 -0.0060  0.1433
  661TMC3    C6 9836   3.216   2.899  12.051  0.2451  0.1222  0.3842
  661TMC3     C 9837   3.500   2.691  12.258 -1.1417  0.7172 -0.0333
  661TMC3     O 9838   3.448   2.582  12.291 -0.7436  0.5041 -0.7371
  661TMC3     H 9839   3.541   2.826  12.016 -0.1636 -1.5856 -0.7250
  661TMC3    H1 9840   3.268   2.718  12.330 -0.5318  1.2705 -0.0753
  661TMC3    H2 9841   3.139   2.961  12.007  0.2049 -0.3589 -0.2225
  661TMC3    C7 9842   3.048   2.793  12.189  0.4015 -0.3570  0.3760
  661TMC3    C8 9843   3.374   2.981  11.894  0.5234 -0.2881 -0.4791
  661TMC3    O1 9844   3.009   2.804  12.304 -0.2133 -0.3672 -0.4392
  661TMC3    O2 9845   3.491   3.013  11.865  0.0731 -0.1255 -0.0391
  662MPD2     C 9846   3.519   1.848  17.043 -0.2746 -0.1883  0.3056
  662MPD2    C1 9847   3.601   1.952  17.006  1.3815 -0.6331 -0.5069
  662MPD2    C2 9848   3.623   2.046  17.101  0.0447 -0.5029  0.1366
  662MPD2    C3 9849   3.562   2.043  17.227  0.7396 -0.8356  0.4248
  662MPD2    C4 9850   3.494   1.933  17.257  0.2387 -0.3425 -0.9753
  662MPD2    C5 9851   3.465   1.836  17.170 -0.8166  0.9263 -0.3185
  662MPD2     H 9852   3.672   2.138  17.069 -1.9489  0.0307 -1.3851
  662MPD2    H1 9853   3.456   1.913  17.357  0.6573 -1.4739 -1.0440
  662MPD2    H2 9854   3.499   1.767  16.973  0.2826  0.7951 -0.9852
  662MPD2    H3 9855   3.406   1.752  17.206 -0.6535  1.1116  0.3786
  662MPD2     N 9856   3.587   2.137  17.332  0.0516  0.0222 -0.0011
  662MPD2    H5 9857   3.531   2.113  17.414  0.6440  0.0714  0.4228
  662MPD2    N1 9858   3.662   1.968  16.877 -0.2112  0.0776  0.4206
  662MPD2    H7 9859   3.721   2.049  16.863 -0.2891  0.6387  3.1976
  663TMC3    C1 9860   3.756   1.890  16.676 -0.0942 -0.6163 -0.2678
  663TMC3    C2 9861   3.882   1.900  16.738  0.7012 -0.0270  0.6416
  663TMC3    C3 9862   3.984   1.837  16.674  0.7222  0.3902 -0.0670
  663TMC3    C4 9863   3.734   1.815  16.559  0.4323  0.0506 -0.9418
  663TMC3    C5 9864   3.846   1.765  16.495  0.7924  0.1116 -0.0337
  663TMC3    C6 9865   3.972   1.800  16.539  0.1838  0.5772  0.2491
  663TMC3     C 9866   3.643   1.888  16.768 -0.3530 -0.5839  0.2925
  663TMC3     O 9867   3.539   1.826  16.732  0.0387 -0.6691  0.3217
  663TMC3     H 9868   3.888   1.927  16.843  0.4762  1.8054  0.1939
  663TMC3    H1 9869   3.635   1.793  16.522 -0.1875  2.2412 -0.5980
  663TMC3    H2 9870   4.056   1.751  16.490  0.1914 -1.3027  2.1179
  663TMC3    C7 9871   3.824   1.628  16.452 -0.5833  0.3719 -0.6901
  663TMC3    C8 9872   4.042   1.728  16.753  0.2675  0.4438 -0.0155
  663TMC3    O1 9873   3.712   1.606  16.404  0.2633 -0.2441 -0.3339
  663TMC3    O2 9874   4.108   1.647  16.688 -0.5682  0.6224 -0.3193
  664MPD2     C 9875   2.404   0.377  17.481 -0.0895  0.8063  0.1373
  664MPD2    C1 9876   2.451   0.506  17.466 -0.8292 -0.1445  0.3104
  664MPD2    C2 9877   2.394   0.609  17.538  0.2857 -0.2741 -0.1846
  664MPD2    C3 9878   2.296   0.590  17.637 -0.3056 -0.1385  0.1580
  664MPD2    C4 9879   2.263   0.458  17.663 -0.0185  0.5322  0.2034
  664MPD2    C5 9880   2.316   0.356  17.584 -1.1676  0.3803 -0.4190
  664MPD2     H 9881   2.433   0.707  17.514 -2.4833  0.8153 -0.3282
  664MPD2    H1 9882   2.199   0.423  17.743  0.9210  1.2510  1.2658
  664MPD2    H2 9883   2.440   0.293  17.423  2.8018  1.4703  0.9473
  664MPD2    H3 9884   2.287   0.255  17.609  0.1335 -0.1810 -1.1933
  664MPD2     N 9885   2.257   0.699  17.712  0.2800  0.3514 -0.0355
  664MPD2    H5 9886   2.298   0.789  17.691 -1.7873  1.4896  0.7325
  664MPD2    N1 9887   2.549   0.545  17.370  0.4414 -1.0511 -0.4905
  664MPD2    H7 9888   2.588   0.638  17.372 -1.7681 -0.1280 -0.8231
  665TMC3    C1 9889   2.194   0.802   0.139  0.4221  0.2185 -0.5637
  665TMC3    C2 9890   2.118   0.789   0.247 -0.1486 -0.2512  0.1675
  665TMC3    C3 9891   2.157   0.859   0.361  0.0487  0.6807 -0.5060
  665TMC3    C4 9892   2.318   0.865   0.147 -0.0071 -0.2622 -0.1630
  665TMC3    C5 9893   2.347   0.948   0.256 -0.1912  0.4137  0.4855
  665TMC3    C6 9894   2.267   0.941   0.359  0.6000  0.1928  0.2856
  665TMC3     C 9895   2.165   0.695   0.047 -0.5785  0.3280  0.1540
  665TMC3     O 9896   2.095   0.599   0.084  0.0735  0.0787 -1.3268
  665TMC3     H 9897   2.030   0.725   0.252 -0.2776  0.1196  2.8259
  665TMC3    H1 9898   2.390   0.867   0.066 -0.8836  0.9674 -0.9177
  665TMC3    H2 9899   2.296   0.984   0.454 -0.5995  0.7529  0.3989
  665TMC3    C7 9900   2.475   1.005   0.261 -0.6245  0.1027 -0.0715
  665TMC3    C8 9901   2.062   0.883   0.470  1.1105 -0.1426 -0.3959
  665TMC3    O1 9902   2.542   0.974   0.163  0.1147  0.1690 -0.1648
  665TMC3    O2 9903   2.098   0.920   0.582 -0.1008 -0.1839  0.0858
  666TMC3    C1 9904   1.160   0.668  10.145  0.6021 -0.5608  0.1563
  666TMC3    C2 9905   1.193   0.614  10.028  0.0989  0.3891  0.4812
  666TMC3    C3 9906   1.157   0.686   9.913 -0.1531 -1.0584  0.5001
  666TMC3    C4 9907   1.109   0.797  10.152  0.3228 -0.6694  0.1451
  666TMC3    C5 9908   1.073   0.865  10.039 -0.4720  0.1737 -0.2296
  666TMC3    C6 9909   1.102   0.809   9.914 -0.3021  0.2641 -0.2658
  666TMC3     C 9910   1.190   0.605  10.270  0.2723  0.5480 -0.4762
  666TMC3     O 9911   1.194   0.675  10.370  0.3508  0.1399 -0.3908
  666TMC3     H 9912   1.239   0.517  10.027 -1.8945 -0.5335 -4.4604
  666TMC3    H1 9913   1.096   0.839  10.251  2.0031  1.6545 -0.6076
  666TMC3    H2 9914   1.059   0.854   9.825 -0.5079  2.0035  0.7321
  666TMC3    C7 9915   0.991   0.985  10.051  0.6374 -0.0367  0.4404
  666TMC3    C8 9916   1.200   0.625   9.786  0.2868  0.1199 -0.3912
  666TMC3    O1 9917   0.938   0.995  10.161 -0.0542  0.3604 -0.1996
  666TMC3    O2 9918   1.293   0.546   9.794 -0.1356  0.5432  0.7203
  667MPD2     C 9919   3.033   0.045  14.715 -0.7705  0.2802 -0.3705
  667MPD2    C1 9920   2.970   0.028  14.836 -0.9243 -0.0133 -0.0930
  667MPD2    C2 9921   2.932   4.641  14.870 -0.5401 -0.0000  0.3223
  667MPD2    C3 9922   2.954   4.527  14.782  0.4900  0.3306  0.5131
  667MPD2    C4 9923   3.021   4.555  14.660 -0.6706  0.1859 -0.6619
  667MPD2    C5 9924   3.064   4.682  14.631  0.0710  0.0893 -0.1724
  667MPD2     H 9925   2.873   4.635  14.961 -1.3397  0.3483 -0.1722
  667MPD2    H1 9926   3.042   4.480  14.585 -1.1035 -1.6153  1.0435
  667MPD2    H2 9927   3.055   0.143  14.675 -0.6108 -0.1297 -1.2995
  667MPD2    H3 9928   3.103   4.705  14.532  1.0599  1.3618  0.5238
  667MPD2     N 9929   2.916   4.392  14.808 -0.1576  0.1183  0.4096
  667MPD2    H5 9930   2.948   4.326  14.738 -1.1796 -1.0805  1.0753
  667MPD2    N1 9931   2.956   0.131  14.937  0.3574  0.2305 -0.0989
  667MPD2    H7 9932   2.901   0.099  15.016  2.5131 -1.2310  0.7989
  668TMC3    C1 9933   3.010   0.332  15.040  0.1760 -0.2696 -0.7471
  668TMC3    C2 9934   3.066   0.457  15.035 -0.5987 -0.0117  0.0647
  668TMC3    C3 9935   3.129   0.508  15.142  0.9734 -0.8842 -1.2568
  668TMC3    C4 9936   3.004   0.271  15.159  0.7506 -0.5974 -0.1336
  668TMC3    C5 9937   3.079   0.315  15.266 -0.4023  0.4450 -0.4872
  668TMC3    C6 9938   3.141   0.437  15.258  0.3644  0.1757  0.4161
  668TMC3     C 9939   3.010   0.253  14.921  0.3374  0.0171  0.1284
  668TMC3     O 9940   3.055   0.309  14.820 -0.0218 -0.6333 -0.2107
  668TMC3     H 9941   3.065   0.509  14.940 -1.4337  0.5651  0.3829
  668TMC3    H1 9942   2.940   0.184  15.171 -0.4056  0.3203  0.3786
  668TMC3    H2 9943   3.200   0.478  15.339 -1.2475  1.5649  0.8655
  668TMC3    C7 9944   3.042   0.280  15.407  0.0273  0.2330 -0.5087
  668TMC3    C8 9945   3.194   0.637  15.142 -0.0769 -0.1626  0.2438
  668TMC3    O1 9946   3.042   0.161  15.440 -0.2854  0.5312  0.1583
  668TMC3    O2 9947   3.203   0.682  15.254  0.0990 -0.4145  0.4294
  669TMC3    C1 9948   0.910   0.172  14.876  0.5105  0.1516 -0.2083
  669TMC3    C2 9949   0.790   0.130  14.830 -0.2725  0.7352  0.4306
  669TMC3    C3 9950   0.763   0.139  14.698 -0.3609  1.9306 -0.3468
  669TMC3    C4 9951   1.006   0.226  14.796 -0.6237 -0.2412 -0.2081
  669TMC3    C5 9952   0.970   0.233  14.663 -0.5178 -0.0565 -0.8230
  669TMC3    C6 9953   0.850   0.193  14.614  0.3264 -0.0532  0.2069
  669TMC3     C 9954   0.935   0.147  15.016 -0.0945 -0.1711 -1.0374
  669TMC3     O 9955   0.832   0.144  15.080  0.0666  0.2949  0.1846
  669TMC3     H 9956   0.723   0.069  14.891 -0.0748 -0.0492 -0.1426
  669TMC3    H1 9957   1.106   0.262  14.816 -0.9996  0.3459  0.6240
  669TMC3    H2 9958   0.846   0.169  14.508 -1.0824 -0.6964  0.4134
  669TMC3    C7 9959   1.062   0.298  14.570  0.4140  1.0124  0.0960
  669TMC3    C8 9960   0.657   0.063  14.632 -0.3577 -0.3744 -0.2717
  669TMC3    O1 9961   1.177   0.288  14.603  0.0711 -0.4542 -0.0398
  669TMC3    O2 9962   0.647   0.061  14.510  0.5518 -0.8521  0.8384
  670MPD2     C 9963   3.832   2.601  13.367 -0.5821  0.4789  0.2601
  670MPD2    C1 9964   3.952   2.544  13.398 -0.3266 -1.2098 -0.1989
  670MPD2    C2 9965   3.969   2.487  13.522  0.3601  0.1189  0.2078
  670MPD2    C3 9966   3.866   2.481  13.617 -0.8525 -0.2580 -0.7997
  670MPD2    C4 9967   3.746   2.536  13.576  0.0783  0.1362 -0.2100
  670MPD2    C5 9968   3.731   2.588  13.455 -0.8121  0.1964  0.3318
  670MPD2     H 9969   4.063   2.437  13.542  0.0552 -0.4866  0.1220
  670MPD2    H1 9970   3.658   2.543  13.638 -0.6206 -1.3280 -1.0407
  670MPD2    H2 9971   3.809   2.644  13.270  0.9514  4.0933  1.5143
  670MPD2    H3 9972   3.632   2.618  13.422 -1.0954 -0.2045  0.8249
  670MPD2     N 9973   3.883   2.419  13.746 -0.5203 -0.5301  0.2468
  670MPD2    H5 9974   3.972   2.372  13.756  1.1235  2.5020 -0.1460
  670MPD2    N1 9975   4.055   2.540  13.298 -0.4014  0.1767  0.5743
  670MPD2    H7 9976   4.143   2.497  13.323  0.5452  2.4044  1.0746
  671TMC3    C1 9977   3.830   2.328  13.967  0.1863 -0.3010 -0.0933
  671TMC3    C2 9978   3.962   2.314  14.002 -0.1187 -0.3390  0.1959
  671TMC3    C3 9979   4.000   2.242  14.114 -0.4800  0.0164 -0.2651
  671TMC3    C4 9980   3.733   2.279  14.046 -0.0983  0.2790 -0.3230
  671TMC3    C5 9981   3.772   2.200  14.150 -0.4318  0.0830 -0.0865
  671TMC3    C6 9982   3.904   2.186  14.191  0.8446 -0.3035  0.3114
  671TMC3     C 9983   3.784   2.395  13.842 -0.3208 -0.4777 -0.7439
  671TMC3     O 9984   3.666   2.417  13.840 -0.1923  0.2758  0.5596
  671TMC3     H 9985   4.038   2.335  13.927 -1.9536 -0.4225 -1.6908
  671TMC3    H1 9986   3.628   2.302  14.033  0.1380  1.9168  0.6186
  671TMC3    H2 9987   3.925   2.118  14.273  4.8762  0.0784 -0.3984
  671TMC3    C7 9988   3.680   2.143  14.250  0.7716 -0.2564  0.7915
  671TMC3    C8 9989   4.133   2.187  14.110  0.4101  0.2974  0.7038
  671TMC3    O1 9990   3.727   2.116  14.359 -0.5895  0.3925  0.3180
  671TMC3    O2 9991   4.203   2.221  14.013  0.1126 -0.0095  0.1257
  672MPD2     C 9992   3.751   3.223   0.995 -0.1120 -0.1176 -0.5292
  672MPD2    C1 9993   3.885   3.237   0.972 -0.0636 -0.7552  0.5924
  672MPD2    C2 9994   3.952   3.348   1.006 -0.1206 -0.6621 -0.1707
  672MPD2    C3 9995   3.888   3.453   1.066  0.2548  0.3302 -0.6246
  672MPD2    C4 9996   3.752   3.446   1.088 -0.2158  0.2293  0.2963
  672MPD2    C5 9997   3.689   3.329   1.050 -0.3434 -0.4942 -0.3964
  672MPD2     H 9998   4.060   3.352   1.003 -0.1947  0.7117 -0.8721
  672MPD2    H1 9999   3.699   3.530   1.132  0.2267  1.8222 -2.2649
  672MPD2    H210000   3.688   3.141   0.963 -0.3752 -0.2274  0.2807
  672MPD2    H310001   3.582   3.314   1.066 -0.9943  2.7085 -1.6713
  672MPD2     N10002   3.962   3.563   1.120  0.1045  0.3130  0.0938
  672MPD2    H510003   3.913   3.639   1.166 -1.7467 -0.3078 -0.8432
  672MPD2    N110004   3.961   3.136   0.914 -0.1619 -0.2743 -0.6247
  672MPD2    H710005   4.061   3.142   0.897  0.2396 -2.4723  1.0253
  673TMC3    C110006   4.006   2.919   0.851  0.0140 -0.4740  0.0967
  673TMC3    C210007   4.133   2.928   0.910  0.2218 -0.2570  0.3714
  673TMC3    C310008   4.235   2.857   0.850  0.3949  0.4517 -0.3255
  673TMC3    C410009   3.987   2.855   0.731  0.7404  0.7394  0.3987
  673TMC3    C510010   4.100   2.806   0.666 -0.5706  0.0256  0.1458
  673TMC3    C610011   4.220   2.804   0.726  0.0878 -0.2657 -0.7879
  673TMC3     C10012   3.909   3.020   0.870 -0.0291 -0.4944  0.3505
  673TMC3     O10013   3.789   2.984   0.853  0.2648  0.0566 -0.1877
  673TMC3     H10014   4.131   2.982   1.004 -2.3248 -1.2272  0.8655
  673TMC3    H110015   3.886   2.848   0.693  0.7974  0.0626  0.3684
  673TMC3    H210016   4.303   2.748   0.684 -0.0438 -1.5407  0.6585
  673TMC3    C710017   4.102   2.831   0.526  0.6132  0.1443 -0.7730
  673TMC3    C810018   4.366   2.852   0.907  0.3347 -0.1319 -0.0733
  673TMC3    O110019   4.203   2.799   0.468 -0.0086 -0.1429  0.4008
  673TMC3    O210020   4.448   2.798   0.834  0.0229  0.3596  0.3067
  674MPD2     C10021   4.109   2.825  17.392 -0.3188 -0.7231 -0.0986
  674MPD2    C110022   4.107   2.758  17.508 -0.1374 -0.3974 -0.6372
  674MPD2    C210023   4.013   2.795  17.605  0.1169  0.4810 -0.7187
  674MPD2    C310024   3.935   2.910  17.594  0.8783  0.3091 -0.4467
  674MPD2    C410025   3.962   2.992  17.489  0.1915 -0.1172  0.6299
  674MPD2    C510026   4.047   2.950  17.389  0.4173  0.2706 -0.1090
  674MPD2     H10027   3.993   2.725  17.685  0.1547  0.2667 -0.8994
  674MPD2    H110028   3.912   3.088  17.479  0.6202  0.1199  0.7097
  674MPD2    H210029   4.177   2.795  17.313  2.1655  1.3917  1.2305
  674MPD2    H310030   4.074   3.015  17.307 -0.1803  0.6592 -0.0015
  674MPD2     N10031   3.842   2.940  17.697 -0.0792 -0.6870 -0.4252
  674MPD2    H510032   3.834   2.874   0.008 -1.5394  0.3182  0.3012
  674MPD2    N110033   4.192   2.647  17.529  0.4335 -0.2576  0.1574
  674MPD2    H710034   4.253   2.624  17.450  0.1827 -1.3372  0.2810
  675TMC3    C110035   4.287   2.458  17.646 -0.7283 -0.3113 -0.0512
  675TMC3    C210036   4.358   2.429  17.761  0.8209 -0.0661  0.8622
  675TMC3    C310037   4.424   2.312   0.002 -0.2178  0.0006 -0.6608
  675TMC3    C410038   4.251   2.359  17.558 -0.1116  0.1564 -0.1164
  675TMC3    C510039   4.325   2.244  17.567  0.1346  0.7131  0.3960
  675TMC3    C610040   4.412   2.223  17.667  0.2971  0.2098 -0.3663
  675TMC3     C10041   4.195   2.570  17.647  0.4717  0.2043  0.1170
  675TMC3     O10042   4.170   2.606  17.761 -0.2771  0.1522 -0.7433
  675TMC3     H10043   4.353   2.496   0.081 -2.9509  0.4415  0.2282
  675TMC3    H110044   4.197   2.393  17.470 -1.7735  0.2296  0.9415
  675TMC3    H210045   4.453   2.123  17.664 -1.1938 -0.4122 -0.2719
  675TMC3    C710046   4.279   2.140  17.486  0.5600  0.1809  0.2376
  675TMC3    C810047   4.468   2.258   0.126  0.9181  0.3973 -0.4231
  675TMC3    O110048   4.156   2.136  17.473 -0.6291  0.0742 -0.6862
  675TMC3    O210049   4.473   2.138   0.137  0.6539  0.5513 -0.0523
  676MPD2     C10050   2.196   1.823  10.684  0.1393  0.6348  0.2827
  676MPD2    C110051   2.094   1.740  10.735  0.3560 -0.4531 -1.0208
  676MPD2    C210052   2.099   1.609  10.698 -0.2008 -0.1125  0.4395
  676MPD2    C310053   2.199   1.561  10.610  0.0373 -0.0989  0.6828
  676MPD2    C410054   2.295   1.651  10.568 -0.7369  0.7401 -0.9759
  676MPD2    C510055   2.294   1.777  10.604  0.0503 -0.0143 -0.7582
  676MPD2     H10056   2.022   1.545  10.740  1.0946 -2.5643 -0.9042
  676MPD2    H110057   2.378   1.623  10.503 -0.5479  1.1944 -0.9293
  676MPD2    H210058   2.190   1.927  10.714  1.5384  0.7833  0.0303
  676MPD2    H310059   2.360   1.852  10.562 -0.0149 -0.3292 -1.4288
  676MPD2     N10060   2.221   1.428  10.568  0.6504  0.0774  0.6421
  676MPD2    H510061   2.293   1.412  10.498 -0.6552  0.5953 -0.8209
  676MPD2    N110062   1.988   1.775  10.819 -0.1876  0.0877 -0.0178
  676MPD2    H710063   1.915   1.707  10.838 -0.1116 -0.0466 -0.2141
  677TMC3    C110064   1.874   1.899  10.981  0.8528 -0.2233 -0.0459
  677TMC3    C210065   1.842   1.786  11.059  0.8636  0.2777  0.4575
  677TMC3    C310066   1.738   1.796  11.151 -0.0510  0.4956  0.6899
  677TMC3    C410067   1.805   2.012  11.003  0.5024 -0.2637  0.1880
  677TMC3    C510068   1.692   2.011  11.087 -0.1987  0.7461 -0.1300
  677TMC3    C610069   1.660   1.904  11.164  0.6699 -0.0916 -0.4058
  677TMC3     C10070   1.978   1.897  10.885 -0.8209 -0.0668 -0.0645
  677TMC3     O10071   2.031   2.005  10.855  0.0040  0.2979  0.1611
  677TMC3     H10072   1.888   1.689  11.047  0.3206  0.3718 -2.4486
  677TMC3    H110073   1.836   2.100  10.947 -1.4973 -0.7180 -1.6461
  677TMC3    H210074   1.571   1.909  11.225  1.5444 -0.7201  0.9441
  677TMC3    C710075   1.600   2.124  11.102  0.6013 -0.5247 -0.5910
  677TMC3    C810076   1.733   1.686  11.241 -0.4224 -0.0810 -0.2555
  677TMC3    O110077   1.534   2.133  11.204 -0.6039 -0.1002 -0.1439
  677TMC3    O210078   1.821   1.601  11.228 -0.3070 -0.0177  0.7196
  678MPD2     C10079   3.908   1.214   1.131  0.0849  0.2381  0.4315
  678MPD2    C110080   3.920   1.255   1.002  0.1448 -0.6631 -0.5362
  678MPD2    C210081   3.850   1.371   0.966  0.0026 -0.8268  0.1810
  678MPD2    C310082   3.768   1.441   1.054  0.4742 -0.6242 -0.4786
  678MPD2    C410083   3.767   1.397   1.185  0.1903  0.4189  0.3531
  678MPD2    C510084   3.838   1.288   1.229  0.5376  1.0884 -0.1722
  678MPD2     H10085   3.859   1.405   0.863 -0.9388  0.1588  0.4208
  678MPD2    H110086   3.696   1.437   1.256  0.4610 -0.1033  0.9192
  678MPD2    H210087   3.958   1.123   1.161  0.3291 -0.1613 -1.2017
  678MPD2    H310088   3.843   1.256   1.332 -1.1895 -0.2987 -0.5192
  678MPD2     N10089   3.684   1.541   0.999  0.1789  0.4645  0.0680
  678MPD2    H510090   3.683   1.542   0.898 -2.6628  1.0633  0.0852
  678MPD2    N110091   3.984   1.184   0.901 -0.3127 -0.1683  0.4622
  678MPD2    H710092   3.981   1.241   0.817  1.8016  1.0993  1.2440
  679TMC3    C110093   4.245   0.886   0.651  0.3953 -0.1451 -0.5312
  679TMC3    C210094   4.170   0.906   0.767 -0.4525 -0.1019  0.9905
  679TMC3    C310095   4.083   1.013   0.766 -0.5510 -0.0737  0.2271
  679TMC3    C410096   4.235   0.966   0.542  0.3957  0.5957 -0.2545
  679TMC3    C510097   4.157   1.082   0.556 -0.0784  0.5277  0.1894
  679TMC3    C610098   4.073   1.103   0.666  0.5735  0.6952  0.3612
  679TMC3     C10099   4.338   0.775   0.647  0.3787 -0.3007 -0.0361
  679TMC3     O10100   4.441   0.798   0.581  0.4389 -0.1506  0.2883
  679TMC3     H10101   4.194   0.852   0.858  0.3553 -1.1621  0.1394
  679TMC3    H110102   4.286   0.946   0.448 -2.0852 -0.0054 -1.4868
  679TMC3    H210103   4.010   1.191   0.666 -1.9332 -1.0827  1.4171
  679TMC3    C710104   4.119   1.149   0.431 -0.1935  0.1020  0.2075
  679TMC3    C810105   4.035   1.059   0.901  0.2516  0.6113 -0.4551
  679TMC3    O110106   4.006   1.199   0.428 -0.2982 -0.0535 -0.0389
  679TMC3    O210107   4.025   0.974   0.988  0.4014  0.2192 -0.7762
  680MPD2     C10108   3.348   4.453  13.193  0.1003 -0.1425  0.2243
  680MPD2    C110109   3.471   4.434  13.246 -0.6949  0.1111 -0.2552
  680MPD2    C210110   3.550   4.538  13.283  0.3388  0.5014  0.3409
  680MPD2    C310111   3.489   4.661  13.304 -0.4225  0.1366 -0.0786
  680MPD2    C410112   3.361   4.680  13.264  0.0299 -0.0150 -0.0351
  680MPD2    C510113   3.295   4.580  13.197  0.2791 -0.6054  0.1887
  680MPD2     H10114   3.650   4.512  13.317  1.1410  3.2576  0.0907
  680MPD2    H110115   3.319   0.038  13.271  2.1864  0.9137 -0.2247
  680MPD2    H210116   3.297   4.376  13.135 -0.0022 -1.4530  2.0668
  680MPD2    H310117   3.197   4.603  13.157 -0.3893  1.4033  2.9221
  680MPD2     N10118   3.556   0.027  13.367  0.3120  0.4584 -0.5342
  680MPD2    H510119   3.502   0.110  13.388 -3.1669 -2.0510  0.4074
  680MPD2    N110120   3.542   4.311  13.248  0.1112  0.3559  0.4774
  680MPD2    H710121   3.640   4.320  13.273  0.4034 -0.1779 -0.4919
  681TMC3    C110122   3.584   4.092  13.283  0.2709 -0.3192 -0.0731
  681TMC3    C210123   3.543   4.042  13.403  0.5626 -0.6651  0.0565
  681TMC3    C310124   3.637   4.028  13.507 -0.7518 -0.2345  0.2313
  681TMC3    C410125   3.722   4.116  13.259 -0.6005 -0.2417 -0.1660
  681TMC3    C510126   3.810   4.068  13.349 -0.1362 -0.0123 -0.6556
  681TMC3    C610127   3.772   4.014  13.475  1.3924  0.6771 -0.1650
  681TMC3     C10128   3.488   4.189  13.229 -0.6689 -0.4862 -0.0538
  681TMC3     O10129   3.371   4.158  13.224 -0.5356 -0.1380 -0.3972
  681TMC3     H10130   3.436   4.032  13.420 -0.1999  2.7034 -2.6420
  681TMC3    H110131   3.746   4.151  13.159 -0.1352  0.8330  0.3267
  681TMC3    H210132   3.839   3.983  13.555 -1.3829  0.2795  2.0112
  681TMC3    C710133   3.955   4.090  13.333  0.2590 -0.1455  0.4327
  681TMC3    C810134   3.623   4.126  13.615  0.2589 -0.1534 -0.6099
  681TMC3    O110135   4.021   4.038  13.417 -0.1970  0.1156  0.1600
  681TMC3    O210136   3.721   4.147  13.687 -0.6935 -0.3968 -0.0755
  682MPD2     C10137   0.422   1.840  10.678 -0.6597  0.0340 -0.2249
  682MPD2    C110138   0.373   1.712  10.697  0.0298 -0.2873 -0.3883
  682MPD2    C210139   0.378   1.673  10.832  0.3034  0.4057 -0.5178
  682MPD2    C310140   0.411   1.754  10.942  0.0297  0.1710 -0.2155
  682MPD2    C410141   0.445   1.883  10.915 -0.1444  0.7021  0.6734
  682MPD2    C510142   0.455   1.922  10.787  0.2345  0.1450  0.7991
  682MPD2     H10143   0.337   1.575  10.853  0.9286  0.6338  1.7428
  682MPD2    H110144   0.475   1.948  10.997 -2.3200 -2.2008  3.7945
  682MPD2    H210145   0.429   1.883  10.579  0.2301 -1.8663 -0.9712
  682MPD2    H310146   0.491   2.022  10.763  0.0408  0.4286  1.6659
  682MPD2     N10147   0.410   1.692  11.069 -0.0530  0.1507  0.5170
  682MPD2    H510148   0.364   1.602  11.059 -0.0303  0.2913 -0.9154
  682MPD2    N110149   0.335   1.625  10.596 -0.6564  0.4679 -0.4160
  682MPD2    H710150   0.332   1.530  10.630 -0.0506  0.5581 -0.1012
  683TMC3    C110151   0.548   1.527  11.444  0.0801  1.0260  0.1789
  683TMC3    C210152   0.450   1.432  11.445  1.0843  0.6973  0.7190
  683TMC3    C310153   0.339   1.457  11.368 -0.4120  0.3137 -0.4802
  683TMC3    C410154   0.539   1.647  11.381  0.3667 -0.1749  0.2725
  683TMC3    C510155   0.426   1.667  11.303  0.0080 -0.6152 -0.5943
  683TMC3    C610156   0.318   1.575  11.304  0.4435  0.0478 -0.8491
  683TMC3     C10157   0.660   1.501  11.540  0.3040 -0.3263 -0.0782
  683TMC3     O10158   0.649   1.410  11.620  0.4715 -0.6863  0.1768
  683TMC3     H10159   0.472   1.336  11.490  2.1695 -0.1316 -1.5665
  683TMC3    H110160   0.616   1.724  11.379  2.9026 -2.6455  2.9003
  683TMC3    H210161   0.228   1.588  11.246 -0.8058  0.8000  1.2243
  683TMC3    C710162   0.445   1.745  11.187 -0.3347  0.3769 -0.6157
  683TMC3    C810163   0.247   1.349  11.338  0.0974 -0.0653 -0.1217
  683TMC3    O110164   0.529   1.831  11.200 -0.0473  0.6426 -0.0885
  683TMC3    O210165   0.147   1.384  11.279  0.4903 -0.0489  0.2376
  684MPD2     C10166   4.214   0.315  16.105 -0.6430 -0.2113  0.5170
  684MPD2    C110167   4.129   0.390  16.029  0.2610 -0.7151 -0.0770
  684MPD2    C210168   4.054   0.489  16.092  0.5068  0.0281 -0.0289
  684MPD2    C310169   4.092   0.540  16.211  0.8995 -0.2769  0.4500
  684MPD2    C410170   4.185   0.474  16.285 -0.6985  0.0962 -0.7290
  684MPD2    C510171   4.233   0.354  16.241 -0.3479 -0.7564 -0.0081
  684MPD2     H10172   3.981   0.540  16.031  0.0507 -2.6028 -1.6592
  684MPD2    H110173   4.216   0.509  16.383 -0.0176 -1.4306 -0.4038
  684MPD2    H210174   4.265   0.227  16.069  0.6150  1.0975 -0.8911
  684MPD2    H310175   4.301   0.299  16.305  1.0710  1.1356  0.1170
  684MPD2     N10176   4.056   0.676  16.253 -0.3110 -0.7114 -0.5027
  684MPD2    H510177   4.111   0.713  16.330 -1.3700 -1.1110  0.4454
  684MPD2    N110178   4.107   0.379  15.892 -0.2123  0.4536  0.3752
  684MPD2    H710179   4.040   0.441  15.848 -1.2424 -0.3950  0.7550
  685TMC3    C110180   4.161   0.320  15.672 -0.1080  0.1688 -0.2002
  685TMC3    C210181   4.048   0.392  15.627 -0.4051  0.4345 -0.8487
  685TMC3    C310182   4.049   0.461  15.507 -0.2733  0.0651 -0.2979
  685TMC3    C410183   4.279   0.337  15.603  0.4073 -0.3675  0.3318
  685TMC3    C510184   4.277   0.418  15.489  0.2135 -0.1776  0.2125
  685TMC3    C610185   4.163   0.472  15.438 -0.0001  0.1047  0.1642
  685TMC3     C10186   4.181   0.293  15.808  0.6029  0.4385 -0.0446
  685TMC3     O10187   4.269   0.218  15.844 -0.5882  0.5182  0.4578
  685TMC3     H10188   3.958   0.366  15.682  1.7136 -0.0519  2.3912
  685TMC3    H110189   4.369   0.305  15.654  0.7247  0.9106  0.5608
  685TMC3    H210190   4.173   0.533  15.348  1.1116  0.8813  0.8112
  685TMC3    C710191   4.392   0.508  15.470  0.6007 -0.4787 -0.9942
  685TMC3    C810192   3.920   0.490  15.447  0.6626 -0.3740  0.0140
  685TMC3    O110193   4.403   0.570  15.367  0.2038 -0.2252  0.1367
  685TMC3    O210194   3.892   0.465  15.325 -0.0104 -0.0381 -0.0684
  686MPD2     C10195   0.375   0.993  15.402  0.3410 -0.5862 -0.4978
  686MPD2    C110196   0.398   0.928  15.521  0.4485 -0.0680 -0.0039
  686MPD2    C210197   0.485   0.986  15.612 -0.5376  0.1367  0.2879
  686MPD2    C310198   0.555   1.101  15.569 -0.8361  0.6108 -0.4306
  686MPD2    C410199   0.544   1.145  15.440 -0.1155  0.4176 -0.3377
  686MPD2    C510200   0.445   1.098  15.364  0.0554  0.5588  0.0975
  686MPD2     H10201   0.497   0.956  15.715  1.9305  1.6550  0.4423
  686MPD2    H110202   0.576   1.238  15.396 -0.0968 -0.0202 -1.2450
  686MPD2    H210203   0.293   0.966  15.337 -0.8567 -0.5226  0.9939
  686MPD2    H310204   0.414   1.142  15.270 -2.0680 -1.2905 -0.0502
  686MPD2     N10205   0.656   1.170  15.642 -0.2049 -1.0699  0.2033
  686MPD2    H510206   0.693   1.257  15.603  0.7221 -2.3989 -1.8658
  686MPD2    N110207   0.329   0.812  15.554  0.2560  0.1283 -0.3234
  686MPD2    H710208   0.273   0.769  15.481 -0.3647 -0.1240  0.2913
  687TMC3    C110209   0.828   1.191  15.807  0.0628  0.3237  0.2959
  687TMC3    C210210   0.895   1.266  15.718 -0.7978  0.0838  0.5211
  687TMC3    C310211   1.033   1.268  15.725 -0.0449  0.2140 -0.7297
  687TMC3    C410212   0.888   1.115  15.899  0.1881 -0.2163 -0.2492
  687TMC3    C510213   1.025   1.128  15.904  0.3909  0.3148  0.2802
  687TMC3    C610214   1.096   1.207  15.827 -0.2396  0.2234 -0.0894
  687TMC3     C10215   0.695   1.140  15.773 -0.3436  0.7262 -0.6812
  687TMC3     O10216   0.663   1.045  15.841 -0.0930  0.4618  0.1808
  687TMC3     H10217   0.841   1.338  15.657 -0.0770  0.3619  0.2139
  687TMC3    H110218   0.828   1.071  15.978 -1.1106  0.5902 -0.7810
  687TMC3    H210219   1.204   1.207  15.829 -0.2690  0.5488  1.8661
  687TMC3    C710220   1.089   1.015  15.967  0.1397 -0.2224  0.0610
  687TMC3    C810221   1.105   1.250  15.595 -0.1742  0.1220  0.2687
  687TMC3    O110222   1.199   1.025  16.020  0.2526  0.1783 -0.2083
  687TMC3    O210223   1.205   1.181  15.594 -0.0299 -0.8817 -0.4159
  688MPD2     C10224   4.394   3.997  16.890  0.3043 -0.5666  0.2058
  688MPD2    C110225   4.446   3.887  16.958 -0.1508 -0.2805  0.7439
  688MPD2    C210226   4.583   3.851  16.936  0.2538 -0.0259 -0.4489
  688MPD2    C310227   4.664   3.932  16.862  0.1113  0.5106  0.4873
  688MPD2    C410228   4.609   4.042  16.794  0.0657  0.5678 -0.4312
  688MPD2    C510229   4.474   4.065  16.799 -0.8908  0.5373  0.2149
  688MPD2     H10230   4.625   3.767  16.991  0.1489  1.7437  2.2951
  688MPD2    H110231   4.665   4.111  16.732  0.3035  0.2150 -0.6092
  688MPD2    H210232   4.297   4.044  16.904 -0.2024 -1.2359 -1.0759
  688MPD2    H310233   4.440   4.140  16.728  0.1774 -0.5977 -1.4904
  688MPD2     N10234   0.063   3.924  16.864  0.4043  0.5106 -0.2630
  688MPD2    H510235   0.106   3.990  16.800 -1.1337  1.0756 -0.7001
  688MPD2    N110236   4.367   3.809  17.047  0.5822  0.6335  0.8041
  688MPD2    H710237   4.411   3.729  17.093  0.4260  0.3183  0.4112
  689TMC3    C110238   4.196   3.731  17.193  0.5305 -0.5534 -0.5314
  689TMC3    C210239   4.130   3.779  17.305 -0.1502  0.1822 -0.2741
  689TMC3    C310240   4.104   3.693  17.411 -0.2763  0.1551 -0.0783
  689TMC3    C410241   4.233   3.599  17.182  0.5633  0.1075  0.0350
  689TMC3    C510242   4.192   3.518  17.288  0.8390 -0.4410 -0.0288
  689TMC3    C610243   4.140   3.559  17.405  1.3270  0.3362 -0.2253
  689TMC3     C10244   4.239   3.836  17.099 -0.4123 -0.3825 -0.5385
  689TMC3     O10245   4.174   3.939  17.087  0.3282 -0.0646 -0.1174
  689TMC3     H10246   4.090   3.880  17.304 -0.5488  0.0120 -1.3734
  689TMC3    H110247   4.286   3.569  17.092  0.3389  3.5309 -1.2130
  689TMC3    H210248   4.104   3.489  17.479  1.0855  1.5371  0.7870
  689TMC3    C710249   4.221   3.378  17.286 -0.0814 -0.0100  0.2286
  689TMC3    C810250   4.041   3.752  17.534  0.0318 -0.4960 -1.3520
  689TMC3    O110251   4.276   3.331  17.383 -0.2822  0.2379 -0.2973
  689TMC3    O210252   4.007   3.866  17.536 -0.2388 -0.1568  0.1216
  690MPD2     C10253   1.867   1.113  15.472 -0.2350 -0.5248  0.5100
  690MPD2    C110254   1.984   1.064  15.535 -0.1751  0.3524  0.2740
  690MPD2    C210255   2.105   1.065  15.472 -0.1473  0.4176 -0.3155
  690MPD2    C310256   2.114   1.122  15.342  0.4823  0.1826 -0.4927
  690MPD2    C410257   2.000   1.174  15.284  0.5463 -1.2620  0.4830
  690MPD2    C510258   1.882   1.168  15.350 -0.7349  1.1438 -0.8707
  690MPD2     H10259   2.196   1.040  15.527  0.2765  0.2419 -1.0911
  690MPD2    H110260   1.995   1.229  15.191  0.9151 -3.2664 -0.7202
  690MPD2    H210261   1.767   1.093  15.510 -1.5190  2.1158 -1.4820
  690MPD2    H310262   1.794   1.207  15.300 -2.2710 -1.2009 -0.0436
  690MPD2     N10263   2.243   1.153  15.287 -0.2112 -0.0057 -0.4014
  690MPD2    H510264   2.325   1.135  15.343  0.0490  0.4479 -0.6369
  690MPD2    N110265   1.984   1.002  15.664 -0.1426  0.0213 -1.0186
  690MPD2    H710266   2.078   0.985  15.700 -0.1321  2.3648  0.0601
  691TMC3    C110267   1.920   0.969  15.890 -0.4669 -1.0282  0.1387
  691TMC3    C210268   1.889   1.057  15.991 -0.0824 -0.0694 -0.1391
  691TMC3    C310269   1.932   1.026  16.116 -0.0769 -0.4545  0.0739
  691TMC3    C410270   1.966   0.849  15.915  0.3073  0.3754 -0.4320
  691TMC3    C510271   1.992   0.824  16.043 -0.2274 -0.0631  0.7442
  691TMC3    C610272   1.997   0.913  16.142  0.4803 -0.2825 -0.5706
  691TMC3     C10273   1.883   1.015  15.758  0.0438 -0.4198  0.3077
  691TMC3     O10274   1.770   1.069  15.750  0.1653  0.4746  0.9671
  691TMC3     H10275   1.828   1.143  15.968 -0.9256 -0.2070  1.5489
  691TMC3    H110276   1.989   0.789  15.828 -0.6210  0.4252 -0.7187
  691TMC3    H210277   2.020   0.887  16.245 -0.1460 -1.5392 -0.7383
  691TMC3    C710278   2.012   0.690  16.089  0.3275 -0.6254 -0.3008
  691TMC3    C810279   1.889   1.112  16.233 -0.4530  0.3462  0.6897
  691TMC3    O110280   2.083   0.683  16.190  0.2653 -1.0440 -0.0680
  691TMC3    O210281   1.950   1.093  16.338 -0.0660 -0.4633 -0.3534
  692TMC3    C110282   3.723   1.997  15.474 -0.0809 -0.3711 -0.7330
  692TMC3    C210283   3.835   2.046  15.551 -0.4688  0.1318 -0.3529
  692TMC3    C310284   3.921   1.950  15.608 -0.5786 -0.2922 -0.3269
  692TMC3    C410285   3.677   1.871  15.494 -0.1580 -0.4140  0.1002
  692TMC3    C510286   3.756   1.783  15.561 -0.4885 -0.2538  0.8978
  692TMC3    C610287   3.880   1.818  15.611  0.0243 -1.3867  0.0746
  692TMC3     C10288   3.612   2.092  15.467 -0.5487 -0.1553  0.2949
  692TMC3     O10289   3.497   2.052  15.482 -0.1221 -0.3663  0.0208
  692TMC3     H10290   3.878   2.132  15.501 -0.6316 -0.1665 -1.0062
  692TMC3    H110291   3.584   1.843  15.445 -1.1970 -0.9432  2.3415
  692TMC3    H210292   3.921   1.747  15.681  1.5213  1.9242  2.5194
  692TMC3    C710293   3.698   1.654  15.584  0.2865 -0.3475 -0.7773
  692TMC3    C810294   4.032   1.983  15.694 -0.1413 -0.5133  1.2724
  692TMC3    O110295   3.584   1.641  15.545  0.3957 -0.4013  0.0690
  692TMC3    O210296   4.074   1.896  15.769  0.1379 -0.5130  0.3226
  693MPD2     C10297   3.136   0.345  10.390 -0.2995  0.7393  0.1514
  693MPD2    C110298   3.100   0.312  10.517  0.4427 -0.7295 -0.1070
  693MPD2    C210299   3.197   0.310  10.612  0.8049 -0.5202 -1.2249
  693MPD2    C310300   3.331   0.333  10.578 -0.1619 -0.5017  0.5956
  693MPD2    C410301   3.361   0.373  10.447 -0.1672  0.4141 -0.6643
  693MPD2    C510302   3.261   0.385  10.359  0.3020 -0.1185 -0.1214
  693MPD2     H10303   3.164   0.276  10.710  0.4334 -0.3289 -1.2857
  693MPD2    H110304   3.465   0.390  10.421 -0.1827 -1.3425 -1.9221
  693MPD2    H210305   3.057   0.349  10.316 -0.2091 -0.3710  0.0012
  693MPD2    H310306   3.284   0.418  10.258  0.9903 -0.9081 -0.2285
  693MPD2     N10307   3.442   0.317  10.670  0.0359 -0.1001  0.0433
  693MPD2    H510308   3.533   0.339  10.633 -0.2901 -0.8242 -1.2008
  693MPD2    N110309   2.973   0.271  10.553  0.3305 -0.2622  0.1335
  693MPD2    H710310   2.956   0.253  10.652  2.6708  2.0964  0.9612
  694TMC3    C110311   2.745   0.234  10.521 -0.6589  0.8602  0.7660
  694TMC3    C210312   2.648   0.165  10.443  0.8211  0.4220 -0.4570
  694TMC3    C310313   2.524   0.137  10.499  0.0564 -0.4194  0.6533
  694TMC3    C410314   2.707   0.286  10.639 -0.8458 -0.6628 -0.3903
  694TMC3    C510315   2.579   0.264  10.691 -0.4328  0.2144 -0.6085
  694TMC3    C610316   2.491   0.186  10.624  0.8534  1.6603 -0.4395
  694TMC3     C10317   2.870   0.255  10.464  0.1632  0.1766 -0.2980
  694TMC3     O10318   2.871   0.236  10.341  0.0076  1.0046 -0.2405
  694TMC3     H10319   2.680   0.118  10.351  1.3590 -0.1944  0.0426
  694TMC3    H110320   2.778   0.344  10.697 -0.7953 -0.3227 -0.7943
  694TMC3    H210321   2.386   0.173  10.649  1.2277 -1.3508 -0.3841
  694TMC3    C710322   2.564   0.271  10.843  0.2333 -0.2673 -0.5127
  694TMC3    C810323   2.434   0.040  10.440 -0.6704 -0.0819  0.1568
  694TMC3    O110324   2.658   0.313  10.907 -0.1239  0.3111  0.0413
  694TMC3    O210325   2.318   0.052  10.478 -0.1962  0.4202  0.0127
  695MPD2     C10326   4.490   1.918  13.404 -0.1833  0.1631  0.6260
  695MPD2    C110327   4.461   1.959  13.532  0.5571 -0.3054  0.0055
  695MPD2    C210328   4.335   2.006  13.555  0.1931 -0.0281  0.3214
  695MPD2    C310329   4.239   2.023  13.453 -0.0124 -0.4888  0.3224
  695MPD2    C410330   4.274   1.984  13.325  0.0088 -0.5121 -0.0665
  695MPD2    C510331   4.398   1.934  13.301 -0.3280 -0.0012  0.2859
  695MPD2     H10332   4.307   2.039  13.654 -1.0167 -2.8351  0.9176
  695MPD2    H110333   4.216   1.992  13.234  1.0004  1.0909 -0.5689
  695MPD2    H210334   4.586   1.873  13.382 -0.4566 -0.0897 -0.0588
  695MPD2    H310335   4.428   1.906  13.201 -1.7988  2.1999 -0.7617
  695MPD2     N10336   4.111   2.070  13.486 -0.2603  0.4828  0.3071
  695MPD2    H510337   4.088   2.086  13.584  0.4204 -2.2285  0.8922
  695MPD2    N110338   4.562   1.952  13.636  0.4345 -0.1688  0.4856
  695MPD2    H710339   4.526   1.984  13.725  1.4749  0.1342  0.8013
  696TMC3    C110340   3.882   2.119  13.436 -0.3713 -0.5139  0.0837
  696TMC3    C210341   3.850   2.070  13.559 -0.3327 -0.7461 -0.2095
  696TMC3    C310342   3.725   2.069  13.592  0.4070  0.1769  0.0992
  696TMC3    C410343   3.786   2.165  13.344 -0.4602 -0.0780 -0.0001
  696TMC3    C510344   3.658   2.171  13.395 -0.8432 -0.1387 -0.2425
  696TMC3    C610345   3.624   2.128  13.524 -0.6169 -0.1377 -0.1509
  696TMC3     C10346   4.014   2.098  13.392  0.5901  0.1325 -0.0243
  696TMC3     O10347   4.037   2.126  13.277 -0.2910 -0.0453  0.1505
  696TMC3     H10348   3.924   2.035  13.630 -0.2420  1.2544  0.6910
  696TMC3    H110349   3.812   2.172  13.239  0.1757  2.2447  0.3254
  696TMC3    H210350   3.520   2.118  13.553 -1.2440  1.9271 -1.6910
  696TMC3    C710351   3.579   2.274  13.335 -0.4453  0.0282 -0.7561
  696TMC3    C810352   3.700   2.020  13.725  0.2795  0.3029 -0.0592
  696TMC3    O110353   3.613   2.319  13.223  0.5395  0.0576 -0.0506
  696TMC3    O210354   3.797   2.002  13.800  0.2848 -0.3802 -0.3657
  697MPD2     C10355   3.584   3.756  15.522 -0.1128 -0.1384  0.9380
  697MPD2    C110356   3.575   3.717  15.393 -0.0419  0.3939 -0.1485
  697MPD2    C210357   3.573   3.816  15.298  0.6820  0.4324 -0.0896
  697MPD2    C310358   3.600   3.951  15.328  0.1416  0.3547 -0.2343
  697MPD2    C410359   3.619   3.985  15.458  0.0401 -0.6389  0.3336
  697MPD2    C510360   3.612   3.888  15.551  0.1679  0.2916 -0.3146
  697MPD2     H10361   3.569   3.781  15.195  0.0978  2.7058 -0.8494
  697MPD2    H110362   3.642   4.087  15.486 -0.2085 -0.5032  0.0529
  697MPD2    H210363   3.579   3.685  15.605 -1.7875 -0.7732  0.2937
  697MPD2    H310364   3.632   3.920  15.653 -0.3603 -2.3378  0.6115
  697MPD2     N10365   3.611   4.037  15.214  0.8291 -0.2698  0.6069
  697MPD2    H510366   3.599   4.002  15.119  1.4193  0.6658  0.1941
  697MPD2    N110367   3.564   3.584  15.345 -0.1389 -0.8499  0.6019
  697MPD2    H710368   3.550   3.574  15.245  1.2856 -0.5299  0.3695
  698TMC3    C110369   3.685   4.234  15.097 -0.1419 -0.2890 -0.4547
  698TMC3    C210370   3.770   4.350  15.112  0.6899 -0.9248  0.0002
  698TMC3    C310371   3.844   4.394  15.008 -0.2493  0.6477 -0.7604
  698TMC3    C410372   3.672   4.171  14.972 -0.0430 -0.3085  0.4242
  698TMC3    C510373   3.743   4.225  14.867 -0.3340  1.0717 -0.3434
  698TMC3    C610374   3.831   4.332  14.885  0.4551  0.8692  0.2154
  698TMC3     C10375   3.644   4.173  15.225 -0.7188  0.1770  0.4218
  698TMC3     O10376   3.656   4.248  15.323 -0.2365  0.3703  0.4995
  698TMC3     H10377   3.774   4.402  15.207 -2.3953  0.1420 -0.4421
  698TMC3    H110378   3.590   4.104  14.953 -0.0359  0.9031 -4.0348
  698TMC3    H210379   3.898   4.356  14.803  1.0176 -0.0554  0.3997
  698TMC3    C710380   3.740   4.159  14.736  0.7684 -0.2992 -0.4738
  698TMC3    C810381   3.967   4.469  15.038 -0.6426 -0.1456  0.3966
  698TMC3    O110382   3.793   4.217  14.643  0.0555  0.5447  0.4334
  698TMC3    O210383   4.010   4.463  15.154 -0.4067  0.0992  0.4898
  699TMC3    C110384   3.630   2.230  12.696 -0.1328 -0.1880 -0.1180
  699TMC3    C210385   3.667   2.105  12.735 -1.0745 -0.3206 -1.0991
  699TMC3    C310386   3.603   2.065  12.849 -1.0010  0.6006 -0.1946
  699TMC3    C410387   3.529   2.305  12.756  0.5112  0.4839 -0.8233
  699TMC3    C510388   3.461   2.249  12.864 -0.4855  0.2889 -0.0484
  699TMC3    C610389   3.500   2.130  12.908 -0.4914 -0.1703 -0.1004
  699TMC3     C10390   3.673   2.285  12.574 -0.0383  0.6110  0.2970
  699TMC3     O10391   3.615   2.266  12.466  0.3716  0.1070  0.4433
  699TMC3     H10392   3.745   2.050  12.682  0.4578 -1.1045  2.0034
  699TMC3    H110393   3.492   2.395  12.707  0.1351  0.7509 -0.0549
  699TMC3    H210394   3.452   2.085  12.994 -0.4122  0.6770  0.3932
  699TMC3    C710395   3.352   2.308  12.947  0.2136 -0.3825 -0.0018
  699TMC3    C810396   3.672   1.975  12.940 -0.2680 -0.8829 -0.0443
  699TMC3    O110397   3.290   2.240  13.028 -0.0701 -0.3915 -0.0056
  699TMC3    O210398   3.594   1.920  13.018 -0.0950 -0.4231 -0.3830
  700TMC3    C110399   3.062   4.526  16.619 -0.1409 -0.5262 -0.3782
  700TMC3    C210400   2.949   4.443  16.620  0.0300 -0.2630 -0.0523
  700TMC3    C310401   2.904   4.402  16.741  0.1391 -0.0154  0.1827
  700TMC3    C410402   3.090   4.601  16.724  0.0714 -0.0181 -0.0627
  700TMC3    C510403   3.027   4.568  16.845 -0.3949  1.2013  0.2026
  700TMC3    C610404   2.933   4.468  16.859  0.2014 -0.1356 -0.3834
  700TMC3     C10405   3.115   4.572  16.492 -0.1180 -0.7131  0.1661
  700TMC3     O10406   3.033   4.567  16.404  0.1889 -0.2727  0.0950
  700TMC3     H10407   2.930   4.393  16.526  0.7799 -0.5795 -0.0355
  700TMC3    H110408   3.168   4.676  16.731  0.9261 -0.9498  0.4651
  700TMC3    H210409   2.895   4.429  16.952 -1.3588  0.7249 -0.6778
  700TMC3    C710410   3.067   4.640  16.961  0.3734  0.1265  0.3411
  700TMC3    C810411   2.913   4.265  16.753  0.3323  0.0336 -0.4768
  700TMC3    O110412   3.182   4.678  16.967  0.9039  0.1972 -0.5493
  700TMC3    O210413   3.001   4.217  16.678  0.3402 -0.5190 -0.5201
  701TMC3    C110414   2.774   3.094  15.533  0.3132  0.1765 -0.6547
  701TMC3    C210415   2.792   3.006  15.430  0.4978  0.1873  0.1880
  701TMC3    C310416   2.867   3.050  15.329 -0.7258 -0.2248 -0.2347
  701TMC3    C410417   2.857   3.203  15.545 -0.1444  0.9011  1.0263
  701TMC3    C510418   2.946   3.230  15.446 -0.4568  0.1930  1.0101
  701TMC3    C610419   2.955   3.150  15.336  0.7350 -0.0343 -0.1176
  701TMC3     C10420   2.676   3.069  15.635 -0.0162 -0.7298 -0.9439
  701TMC3     O10421   2.616   2.964  15.626  0.5644  0.1883 -0.2441
  701TMC3     H10422   2.731   2.916  15.428  1.1971 -0.2820  0.0845
  701TMC3    H110423   2.853   3.260  15.637  1.5111  0.2647  1.4831
  701TMC3    H210424   3.019   3.175  15.252 -0.2706  0.2453 -0.7921
  701TMC3    C710425   3.042   3.331  15.460 -0.0254  0.9223 -0.1082
  701TMC3    C810426   2.880   2.960  15.219 -0.3864 -0.6364  0.3319
  701TMC3    O110427   3.083   3.388  15.359  0.9005 -0.1905 -0.2963
  701TMC3    O210428   2.980   2.976  15.145  0.0124 -0.6126  0.1441
  702MPD2     C10429   2.020   1.395  10.009  0.7990 -0.1821  0.6296
  702MPD2    C110430   1.998   1.402  10.144  0.2514  0.1002 -0.1664
  702MPD2    C210431   1.956   1.524  10.203  0.3265  0.8400  0.2831
  702MPD2    C310432   1.950   1.641  10.129 -0.5845 -0.5700  0.1337
  702MPD2    C410433   1.974   1.632   9.991 -0.5802  0.2191  0.5107
  702MPD2    C510434   1.997   1.510   9.932 -0.5441 -0.2420 -0.2641
  702MPD2     H10435   1.935   1.520  10.310 -0.1924 -0.3365  0.1358
  702MPD2    H110436   1.973   1.715   9.922 -4.7156 -1.4622 -1.4845
  702MPD2    H210437   2.054   1.303   9.963  1.5669  0.6438 -0.4547
  702MPD2    H310438   2.010   1.503   9.824  1.8529  1.7906 -0.1016
  702MPD2     N10439   1.911   1.761  10.190  0.3338  0.0771  0.2245
  702MPD2    H510440   1.906   1.840  10.126  2.5004 -0.4153 -0.5328
  702MPD2    N110441   2.024   1.297  10.236  0.4297 -0.0018 -0.2827
  702MPD2    H710442   2.013   1.326  10.332  1.6330  0.6200 -0.3292
  703TMC3    C110443   1.835   1.913  10.350  0.8620  0.1000  0.9420
  703TMC3    C210444   1.759   1.932  10.462  0.2642 -0.1759 -0.5897
  703TMC3    C310445   1.797   2.009  10.566 -0.0352 -0.3560  0.0916
  703TMC3    C410446   1.942   1.994  10.334 -0.6384 -0.5689 -0.7576
  703TMC3    C510447   1.978   2.083  10.435  0.2975 -0.5897  0.2040
  703TMC3    C610448   1.911   2.090  10.548 -0.1516 -0.5562 -0.4136
  703TMC3     C10449   1.853   1.773  10.313 -0.2170 -0.2931 -0.0246
  703TMC3     O10450   1.825   1.685  10.392  0.0162 -0.3126  0.1782
  703TMC3     H10451   1.676   1.865  10.482  1.8822 -2.5284 -1.8297
  703TMC3    H110452   2.009   1.981  10.250  3.2189  1.0865  2.0795
  703TMC3    H210453   1.935   2.172  10.614  0.4348 -1.6586  0.7500
  703TMC3    C710454   2.120   2.126  10.438 -0.4888  0.1601 -0.1469
  703TMC3    C810455   1.696   2.059  10.655  0.3980 -0.9470  0.6976
  703TMC3    O110456   2.180   2.125  10.332 -0.4523 -0.5030 -0.4070
  703TMC3    O210457   1.724   2.166  10.706 -0.1896  0.4203  0.4550
  704TMC3    C110458   0.485   3.798  12.256 -0.2962  0.3167  1.2218
  704TMC3    C210459   0.547   3.825  12.138  0.4488  0.0052 -0.1133
  704TMC3    C310460   0.648   3.747  12.098 -0.5309  0.4378 -0.5634
  704TMC3    C410461   0.538   3.701  12.330  0.1549 -0.1486  0.7577
  704TMC3    C510462   0.626   3.612  12.276 -0.4493 -0.0842  0.0292
  704TMC3    C610463   0.691   3.633  12.158 -0.1601  0.1252 -0.5782
  704TMC3     C10464   0.341   3.795  12.251  0.4480 -0.0477 -0.0673
  704TMC3     O10465   0.283   3.778  12.353  0.8252  1.0892 -0.0457
  704TMC3     H10466   0.527   3.922  12.093 -0.3592  0.5033  1.3279
  704TMC3    H110467   0.491   3.673  12.424  1.9687 -0.5081  1.5554
  704TMC3    H210468   0.768   3.570  12.115 -1.3101 -0.5901 -1.5881
  704TMC3    C710469   0.682   3.508  12.356  0.3451 -0.2519  0.3028
  704TMC3    C810470   0.683   3.771  11.966  0.6849 -0.0996  0.4273
  704TMC3    O110471   0.802   3.500  12.336 -0.2251  0.4241 -0.0726
  704TMC3    O210472   0.584   3.809  11.901  0.3286 -0.2063  0.5097
  705MPD2     C10473   4.082   1.537  16.031  0.1229 -0.5927  0.1215
  705MPD2    C110474   4.084   1.668  16.001  0.4473 -0.5479  0.7618
  705MPD2    C210475   3.974   1.748  16.029 -0.7243  0.2592 -0.0068
  705MPD2    C310476   3.857   1.692  16.077 -0.3711 -0.6459  0.7167
  705MPD2    C410477   3.852   1.554  16.106  0.1164 -0.2179 -0.3472
  705MPD2    C510478   3.967   1.482  16.091  0.1072 -0.6754  0.9280
  705MPD2     H10479   3.975   1.853  16.001 -1.0913 -0.2784 -2.0439
  705MPD2    H110480   3.763   1.504  16.141  0.1992  0.0878  0.3009
  705MPD2    H210481   4.156   1.461  16.007 -1.4127 -1.5304 -1.6351
  705MPD2    H310482   3.956   1.375  16.104  0.9094 -0.9461 -0.6589
  705MPD2     N10483   3.741   1.764  16.115  0.4830  0.0752  0.2330
  705MPD2    H510484   3.653   1.713  16.113  2.2026 -2.8840 -0.6032
  705MPD2    N110485   4.196   1.732  15.935 -0.2347 -0.3857  1.1095
  705MPD2    H710486   4.181   1.827  15.900 -0.5657 -0.5786  0.7331
  706TMC3    C110487   4.566   1.778  15.659  0.4531 -0.8275  0.1416
  706TMC3    C210488   4.564   1.912  15.678  0.3898  0.3125 -0.4358
  706TMC3    C310489   4.496   1.965  15.783  0.0887  0.3052 -0.0266
  706TMC3    C410490   4.487   1.699  15.731  1.0214 -0.2063 -0.5800
  706TMC3    C510491   4.406   1.750  15.830  0.7295 -0.1266  0.0335
  706TMC3    C610492   4.415   1.882  15.860 -0.4310 -0.0234 -0.3595
  706TMC3     C10493   4.675   1.727  15.577  0.4757 -0.1267  0.2661
  706TMC3     O10494   0.043   1.749  15.628  0.2931 -0.0509  0.2769
  706TMC3     H10495   4.632   1.975  15.623  1.0643 -0.2973 -0.2931
  706TMC3    H110496   4.487   1.591  15.719 -3.4588 -0.5298  2.3255
  706TMC3    H210497   4.356   1.927  15.939  0.7577  0.2562  0.3763
  706TMC3    C710498   4.309   1.665  15.887 -0.1646 -0.5156  0.2173
  706TMC3    C810499   4.497   2.111  15.800 -0.1947 -0.8092 -0.1574
  706TMC3    O110500   4.341   1.545  15.903 -0.2203  0.1202 -0.4103
  706TMC3    O210501   4.482   2.187  15.703  0.1455 -0.0170  0.5369
  707TMC3    C110502   1.274   1.945   1.183 -0.3881 -0.4795 -0.9203
  707TMC3    C210503   1.226   1.823   1.171  0.7609 -0.2401 -0.1026
  707TMC3    C310504   1.092   1.812   1.165  0.0580  0.7470 -0.3967
  707TMC3    C410505   1.194   2.056   1.190 -0.1325 -0.8183 -0.0357
  707TMC3    C510506   1.064   2.042   1.170  0.0530  0.2786 -1.3668
  707TMC3    C610507   1.011   1.920   1.154 -0.6183 -0.3332 -0.7878
  707TMC3     C10508   1.420   1.961   1.201  0.2263 -0.3220  0.9716
  707TMC3     O10509   1.466   2.060   1.264 -0.0370  0.0462  0.2546
  707TMC3     H10510   1.295   1.740   1.174  0.8718 -0.0756  1.5180
  707TMC3    H110511   1.235   2.156   1.192  1.7242 -1.6369  3.1145
  707TMC3    H210512   0.905   1.907   1.136 -0.9916  1.3310  0.2886
  707TMC3    C710513   0.982   2.164   1.166  0.4674  0.5889 -0.2551
  707TMC3    C810514   1.033   1.673   1.158  0.8004 -0.1100 -0.6735
  707TMC3    O110515   0.870   2.138   1.122 -0.0766 -0.6775 -0.5383
  707TMC3    O210516   0.937   1.667   1.083 -0.1225 -0.7691  0.4255
  708MPD2     C10517   3.041   4.712  13.588 -0.3840  0.4166 -0.2670
  708MPD2    C110518   2.937   0.058  13.592 -0.7433 -0.3583  0.6625
  708MPD2    C210519   2.831   0.024  13.663 -0.0522 -0.1074 -0.5663
  708MPD2    C310520   2.819   4.643  13.718  0.3852 -0.2908 -0.0039
  708MPD2    C410521   2.923   4.550  13.718  0.3310  0.3226 -0.3423
  708MPD2    C510522   3.034   4.588  13.653  0.3223  0.3731  1.1078
  708MPD2     H10523   2.741   0.084  13.673 -0.9523 -1.9169  2.1736
  708MPD2    H110524   2.912   4.448  13.754  3.4738 -0.6303 -2.0406
  708MPD2    H210525   3.130   4.729  13.529 -1.0192 -2.5017 -2.0867
  708MPD2    H310526   3.112   4.515  13.639  0.3564  0.3146  1.6275
  708MPD2     N10527   2.695   4.617  13.785 -0.2193  0.3875 -0.2095
  708MPD2    H510528   2.624   4.690  13.778  0.8295  1.4230 -0.1500
  708MPD2    N110529   2.939   0.183  13.530 -1.0894 -0.3659 -0.7061
  708MPD2    H710530   2.863   0.243  13.561 -1.6728 -1.3061 -0.3130
  709TMC3    C110531   2.938   0.325  13.366  0.6087 -0.3909  0.4108
  709TMC3    C210532   2.874   0.305  13.248  0.2590  0.0335 -0.2851
  709TMC3    C310533   2.764   0.382  13.227 -0.1757  0.2161 -0.2677
  709TMC3    C410534   2.893   0.413  13.459  0.1106 -0.5881 -1.2959
  709TMC3    C510535   2.768   0.475  13.441 -0.2839 -0.4554 -0.2008
  709TMC3    C610536   2.711   0.467  13.321  0.4546  0.0451  0.2474
  709TMC3     C10537   3.009   0.215  13.417  0.0068  0.7269  0.1740
  709TMC3     O10538   3.081   0.151  13.344 -0.0396  0.2262  0.7709
  709TMC3     H10539   2.909   0.234  13.175 -2.9672 -2.4151  0.5695
  709TMC3    H110540   2.936   0.417  13.559  1.0213 -2.2972 -1.6190
  709TMC3    H210541   2.606   0.494  13.312 -0.0016 -1.2923  1.5431
  709TMC3    C710542   2.679   0.438  13.546  0.5690 -0.1679  0.1840
  709TMC3    C810543   2.668   0.324  13.140  0.4418  0.5880  0.0817
  709TMC3    O110544   2.715   0.358  13.631 -0.3202 -0.0347 -0.3731
  709TMC3    O210545   2.647   0.202  13.149 -0.2572 -0.2601 -0.0822
  710TMC3    C110546   3.674   1.717  17.667  0.1970  0.6685 -0.5369
  710TMC3    C210547   3.704   1.711  17.532 -0.0446  0.7517  0.1410
  710TMC3    C310548   3.781   1.606  17.491  0.4795 -0.8633  0.2272
  710TMC3    C410549   3.735   1.635  17.759  0.3301 -0.0353 -1.1880
  710TMC3    C510550   3.822   1.543  17.705  0.5019 -0.2627 -0.2285
  710TMC3    C610551   3.853   1.530  17.572 -0.3739 -0.3872  0.1992
  710TMC3     C10552   3.557   1.795  17.704 -0.1747 -0.0005  0.4857
  710TMC3     O10553   3.482   1.838  17.618  0.5005  0.4178  0.5189
  710TMC3     H10554   3.652   1.786  17.473  1.0117  0.1139 -1.5816
  710TMC3    H110555   3.732   1.639   0.102  1.7481 -0.2608 -1.1343
  710TMC3    H210556   3.930   1.462  17.537  2.0288  3.1625 -1.3633
  710TMC3    C710557   3.908   1.462   0.034  0.1220 -0.5932  0.5703
  710TMC3    C810558   3.823   1.618  17.351 -0.6325  0.0266  0.0992
  710TMC3    O110559   3.874   1.472   0.154 -0.0695 -0.7874  0.1774
  710TMC3    O210560   3.779   1.712  17.287 -0.2416  0.2034  0.2765
  711TMC3    C110561   3.483   2.640  14.814 -0.2018 -0.6470  0.2217
  711TMC3    C210562   3.499   2.743  14.903  0.0904  0.2416  0.0635
  711TMC3    C310563   3.596   2.729  14.995 -0.0981 -0.8766 -0.8572
  711TMC3    C410564   3.548   2.514  14.826 -0.2291  0.7519  0.0997
  711TMC3    C510565   3.642   2.507  14.920  0.0826  0.6501 -1.3599
  711TMC3    C610566   3.671   2.615  14.998 -0.8091 -0.2261 -0.6289
  711TMC3     C10567   3.358   2.626  14.739  0.8791 -0.2328  0.4857
  711TMC3     O10568   3.368   2.568  14.632 -0.5028  0.0244 -0.2237
  711TMC3     H10569   3.434   2.830  14.896  1.3184  1.2045  0.7536
  711TMC3    H110570   3.528   2.434  14.755  0.2602  0.1043  0.6949
  711TMC3    H210571   3.740   2.601  15.081 -0.5523 -1.2484 -1.0111
  711TMC3    C710572   3.674   2.382  14.982 -0.3296  0.1999  0.0157
  711TMC3    C810573   3.589   2.819  15.105  0.0202  0.3295 -1.0690
  711TMC3    O110574   3.756   2.385  15.069  0.2198  0.3236 -0.1280
  711TMC3    O210575   3.488   2.876  15.134 -0.1169 -0.3270 -0.3396
  712MPD2     C10576   4.403   3.457  13.882 -0.3398 -0.1422 -0.3480
  712MPD2    C110577   4.311   3.547  13.837  0.4276  0.1711  0.1564
  712MPD2    C210578   4.344   3.680  13.815  0.2001 -0.5712 -0.2234
  712MPD2    C310579   4.478   3.719  13.830 -0.4517 -0.6201 -0.1794
  712MPD2    C410580   4.573   3.622  13.874  0.1926 -0.2002  0.4766
  712MPD2    C510581   4.531   3.500  13.902 -0.0356  0.7392 -0.3287
  712MPD2     H10582   4.268   3.749  13.779  0.3997 -0.6963 -0.8854
  712MPD2    H110583   4.680   3.638  13.881  0.1481 -0.4551  1.6007
  712MPD2    H210584   4.383   3.351  13.894 -2.7682  0.5519  1.7907
  712MPD2    H310585   4.603   3.422  13.925 -0.1781  0.1645 -1.8151
  712MPD2     N10586   4.506   3.857  13.822  0.4776 -0.2356 -0.2473
  712MPD2    H510587   4.605   3.882  13.831  0.2414  0.0725  1.6195
  712MPD2    N110588   4.179   3.509  13.814 -0.3644  0.5906 -0.0450
  712MPD2    H710589   4.124   3.592  13.791 -2.4071 -0.1903  1.8901
  713TMC3    C110590   4.473   4.092  13.776  0.2828  0.6111  1.0143
  713TMC3    C210591   4.609   4.103  13.760 -0.5340 -0.2491  0.0300
  713TMC3    C310592   4.648   4.213  13.678  0.2275  0.4144  0.8547
  713TMC3    C410593   4.385   4.177  13.705 -0.2554 -0.1926 -0.1735
  713TMC3    C510594   4.436   4.273  13.627  0.5269 -0.4860  0.4945
  713TMC3    C610595   4.564   4.285  13.601  0.5379  0.4767 -0.3075
  713TMC3     C10596   4.414   3.966  13.814 -0.0191 -0.2413  0.0396
  713TMC3     O10597   4.292   3.968  13.817 -0.2407 -0.2336 -0.3395
  713TMC3     H10598   4.683   4.052  13.820 -1.6362  0.2874  1.8221
  713TMC3    H110599   4.278   4.169  13.721 -0.1389 -0.0454  0.7121
  713TMC3    H210600   4.589   4.358  13.524 -0.0849  0.7150 -0.2832
  713TMC3    C710601   4.346   4.368  13.572  0.6769  0.1350  0.4320
  713TMC3    C810602   0.048   4.245  13.654  0.5783 -0.3814 -0.6368
  713TMC3    O110603   4.234   4.327  13.549 -0.5139 -0.3965 -0.4147
  713TMC3    O210604   0.067   4.349  13.597  0.2003  0.8890 -0.3080
  714MPD2     C10605   2.772   2.849   0.823  0.1402 -0.1219 -0.7746
  714MPD2    C110606   2.776   2.837   0.957  0.2310 -0.2670  0.0102
  714MPD2    C210607   2.686   2.916   1.032  0.1710  0.0470 -0.0097
  714MPD2    C310608   2.583   2.989   0.980 -0.2735  0.2758  0.6879
  714MPD2    C410609   2.584   2.997   0.841 -0.0264  0.5988  0.0663
  714MPD2    C510610   2.674   2.930   0.766 -0.1272  0.7359 -0.2121
  714MPD2     H10611   2.696   2.924   1.139  0.0403  0.4532 -0.0261
  714MPD2    H110612   2.502   3.040   0.785 -0.5320  1.4655  1.4661
  714MPD2    H210613   2.825   2.783   0.756  3.3318  1.0160  0.6647
  714MPD2    H310614   2.667   2.938   0.658  0.8846  0.1923 -0.3233
  714MPD2     N10615   2.484   3.054   1.059 -0.0597  0.6503  0.2279
  714MPD2    H510616   2.482   3.052   1.160 -2.0757 -1.0746  0.1472
  714MPD2    N110617   2.874   2.758   1.015 -0.3305  0.6501  0.5581
  714MPD2    H710618   2.935   2.704   0.954 -0.8942  0.4927  0.1324
  715TMC3    C110619   3.010   2.659   1.171 -0.2978  0.2075 -0.1817
  715TMC3    C210620   3.028   2.552   1.093 -0.1504 -0.1957 -0.6538
  715TMC3    C310621   3.160   2.500   1.096  0.0874  0.4608 -0.1704
  715TMC3    C410622   3.107   2.717   1.248  0.2157 -0.1099  0.6332
  715TMC3    C510623   3.228   2.652   1.256  0.6714  0.4888  0.0535
  715TMC3    C610624   3.257   2.543   1.181  0.3730  0.6516 -0.7142
  715TMC3     C10625   2.886   2.739   1.150 -0.6865  0.4228  0.6358
  715TMC3     O10626   2.845   2.813   1.242  0.2121 -0.2327  0.2123
  715TMC3     H10627   2.955   2.510   1.025  0.8136  1.1282 -2.5206
  715TMC3    H110628   3.092   2.810   1.302  0.8593  0.4921 -0.2203
  715TMC3    H210629   3.343   2.482   1.208 -0.2682  0.2204  0.3614
  715TMC3    C710630   3.336   2.694   1.347 -0.5870 -0.8193  0.9863
  715TMC3    C810631   3.193   2.375   1.024  0.2653  0.5074  0.1234
  715TMC3    O110632   3.446   2.656   1.314  0.0230 -0.1163 -0.4159
  715TMC3    O210633   3.102   2.321   0.966  0.7033 -0.1423 -0.2355
  716MPD2     C10634   1.310   1.109  10.185 -0.3186  0.5884 -0.1329
  716MPD2    C110635   1.324   1.129  10.051 -0.0623 -0.9203  0.1561
  716MPD2    C210636   1.388   1.033   9.967 -0.5138 -0.1669  0.0063
  716MPD2    C310637   1.448   0.920  10.028  0.7217 -1.1311 -0.4218
  716MPD2    C410638   1.429   0.900  10.164 -0.2895 -0.7454 -0.5662
  716MPD2    C510639   1.361   0.989  10.235 -0.1772  0.1300 -0.1620
  716MPD2     H10640   1.385   1.044   9.859 -2.7243 -1.0376 -0.0136
  716MPD2    H110641   1.469   0.818  10.222 -1.0527  0.3784  1.5550
  716MPD2    H210642   1.268   1.187  10.247  0.5927 -0.4799  1.8328
  716MPD2    H310643   1.334   0.978  10.339  1.8189 -0.0790  0.3221
  716MPD2     N10644   1.513   0.830   9.937 -0.9097  0.1144 -0.0696
  716MPD2    H510645   1.530   0.855   9.840 -2.2242  4.4607  0.8381
  716MPD2    N110646   1.260   1.245  10.000  0.7300  0.6515 -0.6720
  716MPD2    H710647   1.193   1.289  10.062  2.4306  1.1908  0.8161
  717TMC3    C110648   1.619   0.627   9.864  0.0392 -0.0877 -1.0549
  717TMC3    C210649   1.628   0.671   9.738 -0.3165  0.6819  0.1266
  717TMC3    C310650   1.686   0.593   9.637  0.3966  0.1684  0.2176
  717TMC3    C410651   1.700   0.523   9.897 -0.3327 -0.8583 -0.1378
  717TMC3    C510652   1.769   0.455   9.805 -0.5619 -0.4059 -0.2548
  717TMC3    C610653   1.756   0.485   9.671  0.1506  0.6334  0.0749
  717TMC3     C10654   1.556   0.706   9.970  0.6711  0.6797  0.7080
  717TMC3     O10655   1.552   0.662  10.087 -0.1619 -0.0917 -0.1191
  717TMC3     H10656   1.581   0.765   9.710  0.0115 -0.0017 -2.7979
  717TMC3    H110657   1.697   0.495  10.002  3.6859  1.2234  0.5180
  717TMC3    H210658   1.813   0.424   9.603 -2.2190 -0.6123 -0.7837
  717TMC3    C710659   1.870   0.363   9.838 -0.6707  0.3597 -0.9721
  717TMC3    C810660   1.660   0.626   9.492 -0.3723  0.0494  0.0829
  717TMC3    O110661   1.924   0.310   9.745  0.4292  0.4140 -0.0036
  717TMC3    O210662   1.598   0.729   9.475  0.1488  0.0489  0.1324
  718MPD2     C10663   1.380   4.180  12.882 -0.3977 -0.2746  0.4305
  718MPD2    C110664   1.308   4.223  12.773  0.6111  0.5227 -0.5424
  718MPD2    C210665   1.172   4.207  12.771  0.2384 -0.8558 -0.9433
  718MPD2    C310666   1.105   4.156  12.885  0.2986 -0.0248  0.5470
  718MPD2    C410667   1.178   4.109  12.996 -0.1084 -0.0743  0.2843
  718MPD2    C510668   1.313   4.131  12.995 -0.2331  0.2943  0.3104
  718MPD2     H10669   1.105   4.231  12.688  2.0719 -0.6270 -2.3589
  718MPD2    H110670   1.136   4.069  13.087 -1.2846 -1.3244 -0.8063
  718MPD2    H210671   1.489   4.186  12.883 -0.3992 -0.3023  0.9356
  718MPD2    H310672   1.376   4.095  13.076 -0.2433 -0.6360 -0.0976
  718MPD2     N10673   0.968   4.149  12.870 -0.0074  0.0603 -0.0254
  718MPD2    H510674   0.929   4.175  12.780  0.9833  1.1229 -0.1510
  718MPD2    N110675   1.378   4.275  12.665 -0.1388 -0.1708  0.2158
  718MPD2    H710676   1.477   4.291  12.681  0.6067 -1.2383 -3.2334
  719TMC3    C110677   1.413   4.402  12.465 -0.4598 -0.6187  0.2729
  719TMC3    C210678   1.336   4.428  12.353 -0.1916 -0.1544 -0.1039
  719TMC3    C310679   1.304   4.556  12.312  0.5493  1.1510 -0.1858
  719TMC3    C410680   1.464   4.510  12.527 -0.3092 -0.0132  0.6973
  719TMC3    C510681   1.447   4.632  12.480  0.7065  0.1091  0.1868
  719TMC3    C610682   1.362   4.662  12.377 -0.0923 -0.2539 -0.3944
  719TMC3     C10683   1.325   4.315  12.544 -0.3326 -0.1934 -0.0078
  719TMC3     O10684   1.209   4.302  12.506 -0.0893  0.3932  0.2621
  719TMC3     H10685   1.286   4.345  12.304  1.1790 -0.3373 -1.2000
  719TMC3    H110686   1.510   4.494  12.624  0.1331 -1.2061  0.2925
  719TMC3    H210687   1.351   0.021  12.340 -0.2538  0.4268  1.5540
  719TMC3    C710688   1.552   4.734  12.491 -0.1808 -0.2937  0.0219
  719TMC3    C810689   1.165   4.583  12.290 -0.3148 -0.3198  0.4064
  719TMC3    O110690   1.552   0.086  12.411  0.2258  0.4989 -0.0881
  719TMC3    O210691   1.128   4.687  12.236 -0.0002  0.1508 -0.2555
  720MPD2     C10692   0.009   0.653  13.528 -0.3600  0.0683 -0.6512
  720MPD2    C110693   4.734   0.753  13.624 -0.2690 -0.8923  0.1199
  720MPD2    C210694   0.100   0.799  13.694  0.3847 -0.0383 -0.1616
  720MPD2    C310695   0.234   0.752  13.662  0.2170 -0.4248 -0.6972
  720MPD2    C410696   0.246   0.646  13.570 -0.3581  0.6501  0.3770
  720MPD2    C510697   0.134   0.598  13.514 -0.3024  0.1123  0.2738
  720MPD2     H10698   0.079   0.877  13.765  0.6320  0.6171 -0.8060
  720MPD2    H110699   0.341   0.599  13.547 -0.2309  0.7759  0.6412
  720MPD2    H210700   4.672   0.614  13.466 -2.8150  3.3320  0.4087
  720MPD2    H310701   0.143   0.522  13.437  0.2552  2.9034 -2.4189
  720MPD2     N10702   0.344   0.810  13.735 -0.2515 -0.6860 -0.3449
  720MPD2    H510703   0.335   0.865  13.820 -2.5733 -0.2607 -0.8614
  720MPD2    N110704   4.607   0.821  13.638  0.6282 -0.3256  0.5264
  720MPD2    H710705   4.616   0.920  13.659  2.8532 -0.1996 -1.0566
  721TMC3    C110706   0.565   0.858  13.788  0.0883 -0.1163 -0.5223
  721TMC3    C210707   0.553   0.831  13.918 -0.8464  0.9849 -0.4807
  721TMC3    C310708   0.631   0.899  14.003  0.2417 -0.0858 -0.1397
  721TMC3    C410709   0.656   0.952  13.732  0.4283  0.1539 -0.2321
  721TMC3    C510710   0.741   1.016  13.825 -0.1212  0.5157  0.0491
  721TMC3    C610711   0.724   0.996  13.959 -0.1167 -0.6783 -0.4148
  721TMC3     C10712   0.477   0.789  13.705  0.3386  0.7080  0.0150
  721TMC3     O10713   0.529   0.716  13.619 -0.1939 -0.9131  0.8173
  721TMC3     H10714   0.491   0.754  13.963  1.4347 -0.0476  0.8814
  721TMC3    H110715   0.664   0.987  13.630 -2.4970 -0.7144 -0.7575
  721TMC3    H210716   0.788   1.057  14.021 -0.7210  1.3460 -1.7774
  721TMC3    C710717   0.853   1.097  13.784  0.5302  0.0253 -0.9459
  721TMC3    C810718   0.649   0.826  14.128  0.0404  0.2876 -0.6263
  721TMC3    O110719   0.894   1.190  13.851 -0.1417  0.2303  0.7521
  721TMC3    O210720   0.658   0.704  14.122  0.2748 -0.1735 -0.1891
  722MPD2     C10721   3.566   4.183  12.914 -0.5627 -0.3669 -0.1032
  722MPD2    C110722   3.553   4.315  12.880 -0.6874 -0.0769  0.4524
  722MPD2    C210723   3.430   4.368  12.863  0.3003 -0.8294 -0.3454
  722MPD2    C310724   3.325   4.287  12.876  0.7057 -0.1995  0.4068
  722MPD2    C410725   3.328   4.151  12.904 -0.5896  0.2798  0.5001
  722MPD2    C510726   3.457   4.097  12.919 -0.2785  0.3089 -0.2258
  722MPD2     H10727   3.416   4.475  12.851 -0.5071 -0.9115 -0.1417
  722MPD2    H110728   3.243   4.090  12.931 -0.7607  0.3260  0.0602
  722MPD2    H210729   3.665   4.145  12.940 -1.4241 -2.9034 -0.5378
  722MPD2    H310730   3.456   3.993  12.951 -0.3230 -0.0569 -1.3840
  722MPD2     N10731   3.198   4.350  12.868  0.0862  0.1721 -0.0435
  722MPD2    H510732   3.118   4.292  12.891 -0.8002  0.7849 -1.6042
  722MPD2    N110733   3.656   4.411  12.887  0.0501 -0.1193  0.6967
  722MPD2    H710734   3.626   4.503  12.858  1.5614  0.1626  0.0630
  723TMC3    C110735   3.029   4.530  12.842  0.0885  0.1082 -0.1484
  723TMC3    C210736   2.926   4.446  12.856 -0.1353 -0.5236 -0.7461
  723TMC3    C310737   2.807   4.515  12.877 -0.2933  0.2903  0.7363
  723TMC3    C410738   3.028   4.663  12.867  0.6817 -0.1252 -0.7396
  723TMC3    C510739   2.905   4.723  12.887  0.4701  0.1077 -0.5951
  723TMC3    C610740   2.792   4.652  12.895  0.3238  0.4199  0.3314
  723TMC3     C10741   3.167   4.475  12.821 -0.3658  0.5685  0.0027
  723TMC3     O10742   3.235   4.543  12.744 -0.4738  0.3327  0.5318
  723TMC3     H10743   2.935   4.342  12.826  0.7318 -0.7144  0.1753
  723TMC3    H110744   3.119   4.722  12.856  0.6455  0.0435 -0.1124
  723TMC3    H210745   2.700   4.707  12.913  0.0972  1.2540 -3.3095
  723TMC3    C710746   2.887   0.099  12.815  0.1556 -0.8565 -0.4955
  723TMC3    C810747   2.675   4.449  12.871  0.1433 -0.0228  0.4502
  723TMC3    O110748   2.789   0.106  12.743  0.2995 -0.3525 -1.0113
  723TMC3    O210749   2.580   4.519  12.912 -0.5061 -0.0325  0.4790
  724TMC3    C110750   3.588   2.669   9.982  0.6876  0.1258  0.4121
  724TMC3    C210751   3.630   2.631   9.859 -0.1407  0.1597 -0.3690
  724TMC3    C310752   3.682   2.727   9.772  1.0429  0.8209  0.1931
  724TMC3    C410753   3.605   2.793  10.034  0.2104 -0.4788 -0.1568
  724TMC3    C510754   3.646   2.886   9.942 -0.1670  0.2472 -0.0533
  724TMC3    C610755   3.686   2.859   9.813  0.3393 -0.1635  0.4022
  724TMC3     C10756   3.523   2.572  10.068  0.2631  0.0334  0.1345
  724TMC3     O10757   3.527   2.595  10.187  0.0806  0.0907  0.3755
  724TMC3     H10758   3.606   2.537   9.810  0.8395 -0.6671  0.7391
  724TMC3    H110759   3.568   2.823  10.131  0.2670 -1.8813  0.2876
  724TMC3    H210760   3.706   2.941   9.746  0.7532 -0.4524  0.1673
  724TMC3    C710761   3.732   2.991   9.992  0.2526  0.1606 -0.5100
  724TMC3    C810762   3.728   2.689   9.637  0.3232 -0.4482  0.4740
  724TMC3    O110763   3.777   3.073   9.914 -0.0167  0.3607 -0.3016
  724TMC3    O210764   3.684   2.587   9.585  0.4577  0.0207  0.6641
  725TMC3    C110765   0.615   1.233  12.208 -0.5764  0.5205  0.2340
  725TMC3    C210766   0.542   1.269  12.096  0.1543 -0.3378  0.5054
  725TMC3    C310767   0.469   1.180  12.029 -0.6682  0.4131 -0.5722
  725TMC3    C410768   0.632   1.104  12.243  0.2730  0.3819  0.0869
  725TMC3    C510769   0.543   1.017  12.182  0.2685  0.2422  1.0298
  725TMC3    C610770   0.461   1.049  12.073 -0.7693  1.0169 -0.0083
  725TMC3     C10771   0.648   1.339  12.304 -0.0169  0.4680  0.5643
  725TMC3     O10772   0.600   1.449  12.280  0.4971 -0.0989 -0.7256
  725TMC3     H10773   0.543   1.370  12.055  3.5728 -0.6345 -0.2038
  725TMC3    H110774   0.692   1.068  12.326  1.3469 -1.9551 -1.7106
  725TMC3    H210775   0.395   0.976  12.027  0.4270  1.8819 -3.1315
  725TMC3    C710776   0.586   0.874  12.186  0.2712  0.2273  0.0958
  725TMC3    C810777   0.393   1.217  11.912 -0.1404 -0.0895  0.4223
  725TMC3    O110778   0.698   0.855  12.224  0.4265 -0.1678  1.0168
  725TMC3    O210779   0.318   1.134  11.869  0.3868 -0.3151  0.0771
  726MPD2     C10780   2.887   3.279  10.064  0.2702  0.1433  0.3630
  726MPD2    C110781   2.888   3.323   9.934 -0.1168  0.1586 -0.4268
  726MPD2    C210782   2.779   3.297   9.857 -0.4589  0.0159  0.3824
  726MPD2    C310783   2.672   3.225   9.909  0.5425 -0.5335  0.1664
  726MPD2    C410784   2.677   3.182  10.034 -0.5638  0.1489  0.0489
  726MPD2    C510785   2.783   3.202  10.114 -1.0662 -0.0249 -0.0492
  726MPD2     H10786   2.788   3.333   9.755 -0.9474 -0.2514  0.2469
  726MPD2    H110787   2.594   3.121  10.070 -1.1054  0.4073 -0.7723
  726MPD2    H210788   2.963   3.286  10.141 -0.5978 -1.0171  1.3133
  726MPD2    H310789   2.776   3.169  10.217 -1.2425 -0.1174 -0.0907
  726MPD2     N10790   2.561   3.185   9.831  0.5712 -0.4906  0.5344
  726MPD2    H510791   2.502   3.110   9.867 -1.3371  1.0484  0.5863
  726MPD2    N110792   2.995   3.396   9.871 -0.8128  0.6781  0.2977
  726MPD2    H710793   2.985   3.431   9.777  0.7629 -3.4169 -1.4000
  727TMC3    C110794   3.202   3.496   9.827  0.2708  0.2215  0.1414
  727TMC3    C210795   3.239   3.623   9.864 -0.7632 -0.9015 -0.5242
  727TMC3    C310796   3.267   3.712   9.756  0.1937 -0.0252 -0.2084
  727TMC3    C410797   3.181   3.462   9.698 -0.5497 -0.0686 -0.4808
  727TMC3    C510798   3.190   3.553   9.598 -0.6520  0.0699 -0.7308
  727TMC3    C610799   3.235   3.684   9.624  0.8433  0.0705  0.3089
  727TMC3     C10800   3.114   3.435   9.924 -0.0520  0.0296  0.2077
  727TMC3     O10801   3.166   3.425  10.032  0.1365  0.3570  0.0066
  727TMC3     H10802   3.270   3.648   9.965 -0.4068 -2.1879 -0.3100
  727TMC3    H110803   3.143   3.362   9.677  1.0433 -1.1254  1.7633
  727TMC3    H210804   3.247   3.756   9.544 -1.1110  1.4291  1.2401
  727TMC3    C710805   3.179   3.500   9.462  0.2617  0.5126  0.0009
  727TMC3    C810806   3.336   3.831   9.786 -0.3528 -0.0546 -0.5503
  727TMC3    O110807   3.169   3.378   9.460 -0.1797  0.2287 -0.3716
  727TMC3    O210808   3.436   3.810   9.852 -0.4025  0.3315  0.2096
  728TMC3    C110809   2.405   1.236  15.130 -0.2618  0.0966  0.1927
  728TMC3    C210810   2.484   1.306  15.223  1.2653 -0.8759  0.2784
  728TMC3    C310811   2.577   1.392  15.184 -0.7353  0.1647 -0.8480
  728TMC3    C410812   2.430   1.254  14.997 -0.2609 -0.5260 -0.6265
  728TMC3    C510813   2.532   1.332  14.964  0.3491  0.5304 -0.2549
  728TMC3    C610814   2.606   1.406  15.050 -0.1800 -0.0292  0.2842
  728TMC3     C10815   2.267   1.206  15.159 -0.5846 -1.0641 -0.3450
  728TMC3     O10816   2.185   1.213  15.073 -0.2110  0.0091 -0.2186
  728TMC3     H10817   2.449   1.317  15.325  1.7483  2.3971  0.1006
  728TMC3    H110818   2.351   1.249  14.924  1.2185  0.5456 -2.2860
  728TMC3    H210819   2.695   1.455  15.013  1.3038 -1.8215  1.4906
  728TMC3    C710820   2.553   1.343  14.818 -0.4797 -0.2000  0.1433
  728TMC3    C810821   2.647   1.472  15.278 -0.0321  0.4865  0.0847
  728TMC3    O110822   2.514   1.245  14.753  0.3042  0.2257  0.6301
  728TMC3    O210823   2.662   1.417  15.387 -0.0762 -0.3872 -0.5538
  729MPD2     C10824   4.646   2.532  16.402 -0.0251 -0.0344 -0.0914
  729MPD2    C110825   0.012   2.464  16.451 -0.2831 -0.0014 -0.6222
  729MPD2    C210826   0.022   2.444  16.589 -0.1066 -0.0080  0.0479
  729MPD2    C310827   4.653   2.470  16.669 -0.1106  0.6554 -0.8077
  729MPD2    C410828   4.538   2.521  16.610 -0.3745  0.4117  0.9011
  729MPD2    C510829   4.541   2.564  16.477 -0.2756  0.1600  0.7106
  729MPD2     H10830   0.108   2.394  16.632 -0.3334  0.3741  0.9522
  729MPD2    H110831   4.447   2.542  16.666 -0.8234  1.6040 -0.2638
  729MPD2    H210832   4.650   2.576  16.303 -0.6235 -0.0991 -0.1462
  729MPD2    H310833   4.457   2.621  16.439 -0.1469 -1.0024 -1.3082
  729MPD2     N10834   4.656   2.464  16.808 -0.4263  0.1459 -0.2182
  729MPD2    H510835   4.580   2.507  16.859  1.9509  1.3356  2.2668
  729MPD2    N110836   0.118   2.438  16.363  0.7194  0.1823  0.7335
  729MPD2    H710837   0.107   2.495  16.280 -1.3644 -0.9927  0.2037
  730TMC3    C110838   0.030   2.475  17.019 -0.6657  0.1037  0.6648
  730TMC3    C210839   0.150   2.446  17.073 -0.6589  0.1661 -0.0504
  730TMC3    C310840   0.209   2.546  17.150  0.1409  0.7149  0.0872
  730TMC3    C410841   4.711   2.598  17.034 -0.0809  0.2510  0.3244
  730TMC3    C510842   0.030   2.691  17.120  0.0034 -0.0288 -0.1616
  730TMC3    C610843   0.159   2.664  17.164 -0.0082 -0.0762 -0.0603
  730TMC3     C10844   0.028   2.431  16.881 -0.0257  0.5035 -0.3723
  730TMC3     O10845   0.131   2.378  16.845  0.3454 -0.2619  0.2650
  730TMC3     H10846   0.191   2.346  17.071 -1.3890 -0.1352 -0.1155
  730TMC3    H110847   4.606   2.612  17.009 -0.3848  0.1644  1.5390
  730TMC3    H210848   0.214   2.746  17.210  1.1043  0.7264 -2.8353
  730TMC3    C710849   4.712   2.825  17.114  0.1297  0.2237 -0.0738
  730TMC3    C810850   0.356   2.526  17.157 -0.1930 -0.8604  0.0138
  730TMC3    O110851   4.659   2.845  17.007 -0.4494  0.5236  0.0219
  730TMC3    O210852   0.395   2.413  17.119 -0.5586  0.2342  0.1836
  731MPD2     C10853   4.407   0.355  12.186 -0.4584 -0.1174  0.2082
  731MPD2    C110854   4.547   0.369  12.180  0.2503 -0.0370  0.0316
  731MPD2    C210855   4.622   0.371  12.297  0.1506 -0.2037 -0.0928
  731MPD2    C310856   4.564   0.352  12.419  0.1900  0.1509 -0.2455
  731MPD2    C410857   4.426   0.331  12.421 -0.2482  0.2399 -0.4822
  731MPD2    C510858   4.347   0.333  12.309 -0.0828  0.0691 -0.0155
  731MPD2     H10859   4.727   0.395  12.299  0.6475 -2.4110  0.7710
  731MPD2    H110860   4.370   0.317  12.512 -2.2402 -3.2364 -2.2252
  731MPD2    H210861   4.344   0.352  12.097 -0.6999 -0.1825  0.3811
  731MPD2    H310862   4.244   0.307  12.326  0.0173 -1.5587 -1.8680
  731MPD2     N10863   4.640   0.363  12.537  0.6860  0.1903 -0.0548
  731MPD2    H510864   4.740   0.368  12.524  0.8730 -2.3900  0.2387
  731MPD2    N110865   4.603   0.396  12.054  0.4328 -0.0286 -0.1675
  731MPD2    H710866   4.544   0.400  11.972 -1.6521  0.1589  1.3419
  732TMC3    C110867   0.017   0.420  11.876  0.6282 -1.3664  0.3066
  732TMC3    C210868   4.666   0.376  11.778  0.3071 -0.0483 -0.3406
  732TMC3    C310869   4.706   0.414  11.650  0.1269  0.0800  0.2363
  732TMC3    C410870   0.144   0.460  11.843  0.1050  0.4253 -0.3843
  732TMC3    C510871   0.172   0.484  11.709 -0.1042 -0.0752  0.0575
  732TMC3    C610872   0.078   0.474  11.612 -0.0635 -0.0697 -0.0816
  732TMC3     C10873   4.734   0.400  12.025  0.1654  0.2817  0.3476
  732TMC3     O10874   0.088   0.398  12.097 -0.7132  0.5557 -0.4002
  732TMC3     H10875   4.579   0.315  11.796  2.0849 -2.0524  1.4578
  732TMC3    H110876   0.222   0.469  11.918 -0.6008  0.8383  0.3045
  732TMC3    H210877   0.116   0.491  11.512 -0.4171 -0.7993 -0.3462
  732TMC3    C710878   0.290   0.553  11.665  0.5295  0.3540  0.0854
  732TMC3    C810879   4.607   0.385  11.545  0.2845  0.6224  0.2222
  732TMC3    O110880   0.288   0.637  11.580  0.1067  0.3106 -0.5754
  732TMC3    O210881   4.648   0.345  11.436  0.2852 -0.1942 -0.0886
  733TMC3    C110882   0.531   4.033  12.858  0.3734 -0.7747  0.4205
  733TMC3    C210883   0.643   4.029  12.944 -0.2042 -0.2736  0.0782
  733TMC3    C310884   0.740   4.117  12.915  0.5774  0.4797 -0.7528
  733TMC3    C410885   0.509   4.119  12.754  0.2171  0.1946 -0.1388
  733TMC3    C510886   0.603   4.207  12.731  0.5532  0.3504  0.2860
  733TMC3    C610887   0.721   4.206  12.811  0.0421  0.7472  0.8251
  733TMC3     C10888   0.406   3.967  12.898  0.3814 -0.3986  0.2898
  733TMC3     O10889   0.305   4.010  12.844 -0.0908 -0.6999  0.3860
  733TMC3     H10890   0.654   3.955  13.023 -0.2204 -0.7438 -0.3560
  733TMC3    H110891   0.426   4.112  12.684  0.6545  0.9261 -0.7361
  733TMC3    H210892   0.789   4.290  12.808  1.1234 -0.1288  0.6946
  733TMC3    C710893   0.596   4.297  12.620 -0.5510  0.1033  0.1998
  733TMC3    C810894   0.874   4.101  12.965 -0.2162  0.6155 -0.0396
  733TMC3    O110895   0.487   4.327  12.577  0.3879  0.0240 -0.2260
  733TMC3    O210896   0.898   4.042  13.068 -0.3281  0.2466  0.0593
  734MPD2     C10897   3.043   2.282  11.988  0.6751  0.3332  0.5931
  734MPD2    C110898   2.940   2.259  11.908  0.5761  0.0894 -0.1160
  734MPD2    C210899   2.951   2.278  11.771  0.3045 -0.2095  0.8910
  734MPD2    C310900   3.066   2.325  11.712  0.4347  0.4078 -0.5421
  734MPD2    C410901   3.173   2.345  11.795  0.3021  0.1640 -0.8092
  734MPD2    C510902   3.165   2.326  11.932  0.8246 -0.5581 -0.6310
  734MPD2     H10903   2.869   2.244  11.709  0.3537 -0.4697  0.9714
  734MPD2    H110904   3.273   2.361  11.757 -0.1128 -1.6352 -2.6518
  734MPD2    H210905   3.045   2.251  12.092 -1.1665 -0.5281  0.3671
  734MPD2    H310906   3.254   2.336  11.994  1.0175  1.1770 -1.1996
  734MPD2     N10907   3.079   2.334  11.574  0.4544  0.6065 -0.4442
  734MPD2    H510908   3.001   2.305  11.515  0.1517  0.6823 -0.0799
  734MPD2    N110909   2.826   2.184  11.962  0.6671  0.1706 -0.2597
  734MPD2    H710910   2.840   2.160  12.060  0.4584 -1.3946 -0.6132
  735TMC3    C110911   2.632   2.037  11.974  0.3582 -0.7413 -0.0274
  735TMC3    C210912   2.532   2.003  11.887 -0.5343  0.2536 -0.4434
  735TMC3    C310913   2.500   1.872  11.857 -0.4889 -0.2929 -0.3340
  735TMC3    C410914   2.700   1.935  12.045 -0.2898 -0.3044  0.1581
  735TMC3    C510915   2.668   1.805  12.014 -0.2890 -0.1299 -0.6825
  735TMC3    C610916   2.564   1.776  11.929  0.1071  0.0482 -0.2521
  735TMC3     C10917   2.714   2.135  11.900  0.0442 -0.6582 -0.3090
  735TMC3     O10918   2.690   2.144  11.780 -0.1837  0.2902  0.5831
  735TMC3     H10919   2.483   2.085  11.836  0.3462  0.1694 -1.4054
  735TMC3    H110920   2.786   1.958  12.107  0.8814  2.1775 -2.3860
  735TMC3    H210921   2.542   1.674  11.900  0.7765 -0.5677  1.3980
  735TMC3    C710922   2.770   1.713  12.058 -0.1520 -0.2607  0.9468
  735TMC3    C810923   2.498   1.839  11.715 -0.1032 -0.0348  0.3874
  735TMC3    O110924   2.884   1.756  12.056 -0.7040 -0.3902  0.1317
  735TMC3    O210925   2.462   1.729  11.689 -0.2309  0.0077  0.1391
  736MPD2     C10926   2.758   1.350  12.135  0.0649  0.0805 -0.0998
  736MPD2    C110927   2.808   1.464  12.090  0.0012 -0.3433 -0.1461
  736MPD2    C210928   2.941   1.474  12.059 -0.7145  0.5570  0.7779
  736MPD2    C310929   3.030   1.373  12.073 -0.2872 -0.3776  0.1184
  736MPD2    C410930   2.978   1.263  12.129  0.4031 -0.3810 -0.2299
  736MPD2    C510931   2.844   1.248  12.155 -0.0390  0.3106 -0.5838
  736MPD2     H10932   2.981   1.563  12.013  0.8515  0.3924  1.8031
  736MPD2    H110933   3.045   1.183  12.155 -3.5840 -3.3974  0.7728
  736MPD2    H210934   2.652   1.344  12.158 -0.2546  0.8551 -1.4011
  736MPD2    H310935   2.809   1.152  12.190  1.2175 -0.0446 -0.2964
  736MPD2     N10936   3.165   1.377  12.043 -0.1432 -0.1097  0.0411
  736MPD2    H510937   3.222   1.301  12.078  4.0695  2.9875 -0.0633
  736MPD2    N110938   2.722   1.580  12.075  0.3756  0.1373  0.0245
  736MPD2    H710939   2.623   1.560  12.079 -0.0804  2.1775 -0.8191
  737TMC3    C110940   3.361   1.435  11.909 -0.6657  0.2599 -0.4433
  737TMC3    C210941   3.420   1.533  11.844  0.6868 -0.0617  0.1679
  737TMC3    C310942   3.527   1.501  11.758 -0.1631  0.3502 -0.6920
  737TMC3    C410943   3.388   1.301  11.873  0.6046  0.5524 -0.5848
  737TMC3    C510944   3.487   1.270  11.787 -0.1103  0.0283 -0.6167
  737TMC3    C610945   3.567   1.373  11.736 -0.3034 -0.1650 -0.6048
  737TMC3     C10946   3.225   1.467  11.953  0.0156  0.6644  0.2263
  737TMC3     O10947   3.167   1.560  11.897  0.0145 -0.2391  0.4432
  737TMC3     H10948   3.384   1.635  11.851 -2.5099 -1.0963 -1.1000
  737TMC3    H110949   3.328   1.219  11.911 -3.1964  2.5910 -2.2360
  737TMC3    H210950   3.647   1.366  11.663  0.0652 -1.7315 -0.0510
  737TMC3    C710951   3.479   1.141  11.727 -0.0132  0.5549  0.4674
  737TMC3    C810952   3.553   1.586  11.648  0.1718 -0.5738  0.3741
  737TMC3    O110953   3.415   1.052  11.788  0.8994 -0.3357  0.0685
  737TMC3    O210954   3.550   1.531  11.536  0.2885  0.4955 -0.0802
  738MPD2     C10955   4.244   4.594  15.031 -0.2801  0.4603  0.1697
  738MPD2    C110956   4.161   4.589  14.923  0.3775  0.2866  0.0441
  738MPD2    C210957   4.212   4.635  14.796  0.1917  0.2432  0.0931
  738MPD2    C310958   4.329   4.713  14.795  0.2276 -0.1489  0.4387
  738MPD2    C410959   4.407   4.715  14.909  0.4935 -0.1908 -0.4197
  738MPD2    C510960   4.364   4.662  15.027 -0.3018  0.3552 -0.8246
  738MPD2     H10961   4.144   4.631  14.712 -0.6468 -0.2505  0.7896
  738MPD2    H110962   4.497   0.035  14.911  0.2082  0.2254 -0.3968
  738MPD2    H210963   4.219   4.535  15.119 -2.7534  3.2894  1.3653
  738MPD2    H310964   4.434   4.662  15.109 -0.0604  3.0284 -1.0595
  738MPD2     N10965   4.377   0.053  14.691 -0.0013 -0.4619 -0.2356
  738MPD2    H510966   4.468   0.096  14.696 -0.4203  0.7191 -2.5078
  738MPD2    N110967   4.033   4.520  14.925 -0.1025  0.0800  0.0609
  738MPD2    H710968   3.987   4.514  14.835  0.5285 -0.3211 -0.2349
  739TMC3    C110969   4.363   0.171  14.486 -0.1302 -0.3369 -0.1392
  739TMC3    C210970   4.309   0.180  14.364 -0.1119 -0.7223 -0.1030
  739TMC3    C310971   4.386   0.235  14.274 -0.2027  0.0259 -0.7564
  739TMC3    C410972   4.486   0.226  14.518  0.1071 -0.1416  0.1217
  739TMC3    C510973   4.559   0.288  14.419  0.4036 -0.2002  0.1013
  739TMC3    C610974   4.508   0.294  14.294  0.3891 -0.2440  0.4890
  739TMC3     C10975   4.303   0.075  14.576  0.3512  0.5454  0.5240
  739TMC3     O10976   4.190   0.038  14.548  0.2564 -0.1710 -0.1130
  739TMC3     H10977   4.222   0.123  14.335 -1.0876  1.6683 -1.9258
  739TMC3    H110978   4.529   0.221  14.617  1.3105 -0.0118 -0.3861
  739TMC3    H210979   4.547   0.354  14.213  2.0633  0.2955  1.6982
  739TMC3    C710980   4.690   0.336  14.455 -0.3562 -0.3526  1.0193
  739TMC3    C810981   4.327   0.231  14.135  0.2568 -0.3501  0.1660
  739TMC3    O110982   4.727   0.321  14.569  0.4767 -0.4963 -0.0132
  739TMC3    O210983   4.205   0.210  14.125 -0.1261  0.1146 -0.4242
  740TMC3    C110984   4.518   1.247  14.178  0.0510 -0.1084 -0.2996
  740TMC3    C210985   4.573   1.193  14.290  0.2392  0.0087  0.7022
  740TMC3    C310986   4.700   1.154  14.282  0.1649  0.8467  0.1204
  740TMC3    C410987   4.579   1.255  14.052  0.0074 -0.3499  0.4783
  740TMC3    C510988   4.706   1.216  14.054 -0.1614  0.5939  0.2885
  740TMC3    C610989   0.018   1.152  14.164  0.4036  0.4180  0.6297
  740TMC3     C10990   4.410   1.332  14.200 -0.6942  0.3169 -0.5132
  740TMC3     O10991   4.396   1.428  14.127  0.1401 -0.0194 -0.1000
  740TMC3     H10992   4.527   1.200  14.388 -1.8898 -3.7472 -0.0463
  740TMC3    H110993   4.527   1.305  13.971 -0.3240 -1.5667 -0.0538
  740TMC3    H210994   0.118   1.109  14.160 -0.1300 -0.8513  0.9630
  740TMC3    C710995   0.021   1.169  13.924 -0.3419  0.4967 -0.0891
  740TMC3    C810996   0.025   1.088  14.389  0.4352 -0.3848 -0.5386
  740TMC3    O110997   0.078   1.061  13.925  0.1465 -0.7512  0.5467
  740TMC3    O210998   0.147   1.092  14.389  0.8017 -0.2479 -0.2185
  741TMC3    C110999   4.085   1.109  13.727 -0.5489  0.5416  0.0151
  741TMC3    C211000   3.980   1.033  13.762  0.4506  0.0438  0.2538
  741TMC3    C311001   3.997   0.933  13.850 -0.8392 -0.0402 -0.1407
  741TMC3    C411002   4.211   1.092  13.777  0.7144 -0.3442  0.2283
  741TMC3    C511003   4.230   0.985  13.860  0.4657 -0.6439  0.2120
  741TMC3    C611004   4.126   0.903  13.903  0.7349  0.4362 -0.1043
  741TMC3     C11005   4.070   1.198  13.611  0.8023 -0.3372  0.0802
  741TMC3     O11006   4.153   1.289  13.591 -0.0583  0.7042  0.7656
  741TMC3     H11007   3.880   1.050  13.722  0.0433 -0.4106  1.0815
  741TMC3    H111008   4.291   1.155  13.741  0.0161 -0.5395 -1.6880
  741TMC3    H211009   4.152   0.817  13.964  0.3380  0.7035  0.4442
  741TMC3    C711010   4.366   0.974  13.907  0.2351  0.1726 -0.2455
  741TMC3    C811011   3.883   0.845  13.876 -0.4498 -0.6530 -0.1082
  741TMC3    O111012   4.456   0.998  13.826  0.5802  0.5775 -1.2261
  741TMC3    O211013   3.771   0.897  13.868 -0.3388 -0.1764 -0.2181
  742TMC3    C111014   4.036   3.678  15.278 -0.9045 -0.1669  0.2856
  742TMC3    C211015   3.931   3.622  15.214  0.2631  1.2489 -0.2786
  742TMC3    C311016   3.948   3.606  15.080  0.5402  0.2312  0.2404
  742TMC3    C411017   4.146   3.733  15.216 -0.4174  0.2922  0.5219
  742TMC3    C511018   4.155   3.730  15.080  0.2506 -0.1155 -0.5880
  742TMC3    C611019   4.054   3.658  15.016  0.3516  0.1162 -0.6897
  742TMC3     C11020   4.012   3.735  15.405 -0.4080 -0.1556 -0.2219
  742TMC3     O11021   4.048   3.852  15.420 -0.7689  0.1666  0.2787
  742TMC3     H11022   3.834   3.611  15.261  1.4096 -3.1156  1.0785
  742TMC3    H111023   4.222   3.794  15.264 -0.5745  0.4493  0.5712
  742TMC3    H211024   4.058   3.652  14.907 -1.3423 -2.4481 -0.6057
  742TMC3    C711025   4.292   3.729  15.036  0.5084 -0.0648 -0.0175
  742TMC3    C811026   3.814   3.590  15.020 -0.3762  0.2294  0.3214
  742TMC3    O111027   4.320   3.647  14.947 -0.4987 -0.5342  0.0208
  742TMC3    O211028   3.714   3.639  15.072  0.0235  0.3321  0.1019
  743MPD2     C11029   1.927   1.542   1.448  0.3540  0.0046  0.5724
  743MPD2    C111030   1.959   1.409   1.444 -0.1278 -0.3624  0.4366
  743MPD2    C211031   2.070   1.361   1.505  0.1158 -0.0209  0.4078
  743MPD2    C311032   2.153   1.452   1.576  0.2074  0.8716  0.8271
  743MPD2    C411033   2.120   1.586   1.581 -0.3790  0.3283  0.8021
  743MPD2    C511034   2.012   1.631   1.504  0.3594  0.9454 -0.2943
  743MPD2     H11035   2.095   1.256   1.508 -0.7273 -0.1962  1.2733
  743MPD2    H111036   2.182   1.664   1.624 -0.6275  1.7359 -1.3521
  743MPD2    H211037   1.837   1.581   1.402  0.0071 -1.6151 -0.1283
  743MPD2    H311038   2.005   1.739   1.499  1.3435  1.0760  1.0927
  743MPD2     N11039   2.274   1.403   1.631 -0.2945  0.2395  0.1087
  743MPD2    H511040   2.289   1.303   1.630 -0.1051  0.2636  2.0541
  743MPD2    N111041   1.874   1.332   1.364 -0.0847  0.3029  0.2828
  743MPD2    H711042   1.792   1.380   1.328  0.8660  1.1921 -0.6708
  744TMC3    C111043   1.799   1.148   1.243 -0.1864  0.2789 -0.2365
  744TMC3    C211044   1.675   1.149   1.300  0.3869 -0.6009 -0.5592
  744TMC3    C311045   1.563   1.110   1.226 -0.3138  0.4599 -0.6888
  744TMC3    C411046   1.826   1.095   1.127  0.1023 -0.4189 -0.1878
  744TMC3    C511047   1.720   1.045   1.051  0.8418 -0.0973 -0.1298
  744TMC3    C611048   1.591   1.057   1.099 -0.2110 -0.7229  0.3559
  744TMC3     C11049   1.903   1.205   1.319 -0.3974  0.8075 -0.2821
  744TMC3     O11050   2.014   1.144   1.314 -0.2601  0.3653 -0.3547
  744TMC3     H11051   1.666   1.185   1.401  1.0492 -0.1071 -0.6808
  744TMC3    H111052   1.926   1.090   1.086 -0.4554 -0.2372 -1.5940
  744TMC3    H211053   1.509   1.036   1.032  0.3336 -4.4950  0.8761
  744TMC3    C711054   1.758   0.989   0.916 -0.0060  0.0365 -0.7366
  744TMC3    C811055   1.447   1.187   1.242  0.2858  0.1000  0.6885
  744TMC3    O111056   1.869   0.941   0.912 -0.3009 -0.4658  0.3128
  744TMC3    O211057   1.463   1.277   1.328 -0.5853 -0.1051  0.5498
  745TMC3    C111058   3.987   3.376  13.792 -1.2688 -0.0460 -0.1482
  745TMC3    C211059   3.932   3.397  13.919  0.2595 -0.6810 -0.2532
  745TMC3    C311060   3.808   3.451  13.923 -0.2276  0.9782  0.3159
  745TMC3    C411061   3.929   3.426  13.678  0.0101 -0.0024 -0.0684
  745TMC3    C511062   3.806   3.486  13.693 -0.1042 -0.0033  0.1610
  745TMC3    C611063   3.740   3.499  13.817  0.0441 -0.2272 -0.2874
  745TMC3     C11064   4.129   3.379  13.808 -0.7046 -0.2180 -0.0115
  745TMC3     O11065   4.186   3.270  13.821 -0.1588  0.8948 -0.0930
  745TMC3     H11066   3.977   3.348  14.005  1.5906  2.5195  0.8905
  745TMC3    H111067   3.970   3.394  13.583 -2.3886 -1.2303 -0.6863
  745TMC3    H211068   3.637   3.530  13.823 -0.3866 -1.5297 -0.9694
  745TMC3    C711069   3.756   3.571  13.583 -0.6168  0.2455 -0.0166
  745TMC3    C811070   3.804   3.546  14.036  0.2362 -0.7098 -0.8813
  745TMC3    O111071   3.653   3.639  13.589  0.1670  0.2065 -0.4390
  745TMC3    O211072   3.693   3.582  14.066 -0.0529  0.1073 -0.2606
  746TMC3    C111073   2.156   1.197  10.539  0.2917 -0.4033 -0.4328
  746TMC3    C211074   2.175   1.205  10.408 -0.1586 -0.2754  0.3735
  746TMC3    C311075   2.113   1.109  10.334  0.7516  0.2641 -0.5770
  746TMC3    C411076   2.086   1.093  10.595  0.9977 -0.0503 -0.0928
  746TMC3    C511077   2.019   0.998  10.519  0.1108 -0.3594 -1.2193
  746TMC3    C611078   2.029   1.011  10.385  0.4474  0.4958 -0.6642
  746TMC3     C11079   2.145   1.322  10.622 -0.3829 -0.7387 -0.1005
  746TMC3     O11080   2.068   1.317  10.717 -0.5494  0.4058  0.1562
  746TMC3     H11081   2.232   1.283  10.359  2.0020 -2.1853 -0.1896
  746TMC3    H111082   2.098   1.073  10.701 -1.1193 -2.0848 -0.2258
  746TMC3    H211083   1.967   0.942  10.329  2.1872 -1.5514 -0.0665
  746TMC3    C711084   1.884   0.974  10.563  0.6542 -0.0445  0.5364
  746TMC3    C811085   2.060   1.167  10.213  0.3125 -0.2293  0.0517
  746TMC3    O111086   1.816   0.892  10.503  0.1925 -0.3894 -0.1841
  746TMC3    O211087   2.072   1.103  10.111 -0.0092 -0.1186 -0.0422
  747TMC3    C111088   3.729   0.884  10.705  0.5191 -0.1096 -0.2286
  747TMC3    C211089   3.645   0.909  10.809  0.6573 -0.4313 -0.0330
  747TMC3    C311090   3.701   0.932  10.934 -0.7603  0.1738 -0.3546
  747TMC3    C411091   3.861   0.899  10.703  0.5668 -0.0854 -0.2035
  747TMC3    C511092   3.909   0.932  10.829  0.7296 -0.0330  0.1193
  747TMC3    C611093   3.838   0.939  10.945 -0.6430  0.0082  0.1467
  747TMC3     C11094   3.678   0.879  10.573 -0.4319  0.0435  0.6946
  747TMC3     O11095   3.568   0.925  10.560  0.2538  0.0791 -0.1242
  747TMC3     H11096   3.537   0.906  10.797  0.7124 -1.0239 -0.3913
  747TMC3    H111097   3.927   0.912  10.618  1.4082  0.3134  0.5183
  747TMC3    H211098   3.885   0.957  11.041  1.1483 -0.8909 -0.5442
  747TMC3    C711099   4.051   0.960  10.836 -0.1929 -0.4913 -0.7594
  747TMC3    C811100   3.615   0.896  11.052 -0.4127  0.3000  0.2326
  747TMC3    O111101   4.082   1.026  10.936  0.5104  0.3955 -0.1072
  747TMC3    O211102   3.511   0.839  11.028  0.0523 -0.1822 -0.1372
  748MPD2     C11103   1.069   1.987   0.765 -0.2219 -0.1760  0.4568
  748MPD2    C111104   1.174   1.907   0.808 -0.7603 -0.6497 -0.0591
  748MPD2    C211105   1.291   1.973   0.842  1.1689 -0.1613 -0.3777
  748MPD2    C311106   1.300   2.114   0.844  0.2247  0.2706  0.3237
  748MPD2    C411107   1.191   2.188   0.811 -0.0183 -0.1353  0.4645
  748MPD2    C511108   1.075   2.127   0.770  0.5840 -0.1884  0.3808
  748MPD2     H11109   1.377   1.917   0.876  0.6141  0.0267  1.3616
  748MPD2    H111110   1.187   2.296   0.802 -1.9330 -0.1889  0.7117
  748MPD2    H211111   0.971   1.950   0.740 -0.5854  0.5465  0.8153
  748MPD2    H311112   0.992   2.189   0.738  0.1856 -0.7679  0.2851
  748MPD2     N11113   1.420   2.172   0.892 -0.2550 -0.0653 -0.5048
  748MPD2    H511114   1.488   2.102   0.920 -1.0519  0.7952  3.5694
  748MPD2    N111115   1.157   1.768   0.823  0.1084  0.1366 -0.5019
  748MPD2    H711116   1.072   1.733   0.779  1.1685 -2.3547 -0.5367
  749TMC3    C111117   1.594   2.340   0.920 -0.0667  0.0787  0.6573
  749TMC3    C211118   1.663   2.262   1.010  0.9394  0.2699 -0.3698
  749TMC3    C311119   1.797   2.276   1.030  0.4165 -0.0886  0.2414
  749TMC3    C411120   1.663   2.430   0.843 -0.0562 -1.0545 -0.1339
  749TMC3    C511121   1.799   2.438   0.869 -0.6709  0.4015  0.7224
  749TMC3    C611122   1.871   2.362   0.953 -0.0818  0.2422 -0.1929
  749TMC3     C11123   1.463   2.302   0.876  0.1161 -0.0192  0.3363
  749TMC3     O11124   1.414   2.390   0.811 -0.1280 -0.0193  0.1152
  749TMC3     H11125   1.604   2.207   1.082  0.8019  0.2660 -0.4862
  749TMC3    H111126   1.609   2.487   0.768 -1.2865 -2.1459 -0.0792
  749TMC3    H211127   1.979   2.361   0.962 -0.1377  0.4410  0.4701
  749TMC3    C711128   1.854   2.564   0.812  0.2513 -0.0909  0.2667
  749TMC3    C811129   1.861   2.219   1.141  0.1964  0.4001 -0.2451
  749TMC3    O111130   1.792   2.628   0.727  0.1206 -0.2044 -0.1630
  749TMC3    O211131   1.801   2.217   1.248  0.0239  0.3737 -0.5523
  750MPD2     C11132   1.096   3.107  11.446 -0.1939  0.1848  0.4646
  750MPD2    C111133   1.205   3.104  11.371 -0.6918  0.5514 -0.0217
  750MPD2    C211134   1.219   3.004  11.281  0.3938 -0.5577  0.1743
  750MPD2    C311135   1.120   2.911  11.263  0.2406 -0.5831  0.0781
  750MPD2    C411136   1.006   2.912  11.336 -0.0449 -0.1448 -0.7958
  750MPD2    C511137   0.997   3.017  11.423 -0.0097 -0.0383  0.2525
  750MPD2     H11138   1.316   2.999  11.233  0.0560 -1.6311 -0.4121
  750MPD2    H111139   0.921   2.846  11.328 -2.3052  2.8505 -1.6123
  750MPD2    H211140   1.083   3.185  11.521 -0.8036 -1.1680  1.7541
  750MPD2    H311141   0.909   3.029  11.487 -0.0414  2.4692 -0.2685
  750MPD2     N11142   1.130   2.811  11.164  0.0148 -0.1934 -0.2531
  750MPD2    H511143   1.060   2.737  11.169 -1.7173  1.4316 -0.3847
  750MPD2    N111144   1.301   3.198  11.393 -0.0730 -0.1418  0.4426
  750MPD2    H711145   1.291   3.255  11.477  0.3844  1.8670 -0.8656
  751TMC3    C111146   1.187   2.712  10.961 -0.0745 -0.0395  0.0774
  751TMC3    C211147   1.098   2.611  10.988 -0.0268  0.2266 -0.3099
  751TMC3    C311148   1.044   2.542  10.880 -0.0182 -0.2707 -0.2418
  751TMC3    C411149   1.240   2.718  10.832  0.5264 -0.2859  0.5319
  751TMC3    C511150   1.191   2.638  10.731 -0.0056 -0.0866 -0.6807
  751TMC3    C611151   1.084   2.560  10.752 -0.5169  0.3760 -0.0033
  751TMC3     C11152   1.216   2.813  11.060  0.4442 -0.5012 -0.2790
  751TMC3     O11153   1.290   2.903  11.020  0.1481 -0.2290  0.3432
  751TMC3     H11154   1.083   2.572  11.088  0.6347  1.6294  0.3423
  751TMC3    H111155   1.320   2.789  10.813  0.3100  0.2956  1.7544
  751TMC3    H211156   1.021   2.516  10.675 -1.1827 -0.6278  1.1152
  751TMC3    C711157   1.282   2.587  10.630  0.6728  0.1517 -0.5136
  751TMC3    C811158   0.979   2.416  10.904 -0.0511  0.7840  0.0124
  751TMC3    O111159   1.380   2.658  10.605 -0.1604 -0.2890 -0.2482
  751TMC3    O211160   0.994   2.331  10.815 -0.1303 -0.6294 -0.5211
  752TMC3    C111161   1.482   2.464  16.370  0.0912  0.1719  0.2251
  752TMC3    C211162   1.441   2.511  16.494 -0.1137 -0.3300  0.2939
  752TMC3    C311163   1.503   2.619  16.543 -0.9298 -0.1586  0.2986
  752TMC3    C411164   1.577   2.527  16.298 -0.0944 -0.1201 -0.1461
  752TMC3    C511165   1.641   2.632  16.359  0.3907 -0.4650  0.3511
  752TMC3    C611166   1.598   2.685  16.475 -0.1812  0.8969 -0.1885
  752TMC3     C11167   1.402   2.387  16.275  0.2265  0.1890  1.0059
  752TMC3     O11168   1.464   2.315  16.198 -0.2118  0.0971  0.6104
  752TMC3     H11169   1.375   2.453  16.558  0.1219 -2.8354 -1.7267
  752TMC3    H111170   1.597   2.490  16.198 -1.3459  3.1986 -1.6225
  752TMC3    H211171   1.646   2.777  16.506  0.8747  0.7961 -1.5126
  752TMC3    C711172   1.752   2.684  16.292  0.6810  0.2453 -0.0738
  752TMC3    C811173   1.480   2.677  16.677  0.1600  0.7895  0.0625
  752TMC3    O111174   1.779   2.637  16.184 -0.0135  0.6794 -0.1805
  752TMC3    O211175   1.557   2.765  16.716  0.3265  0.3563  0.2630
  753TMC3    C111176   2.651   4.035  13.180 -0.5415  0.0640  0.2631
  753TMC3    C211177   2.776   3.988  13.186  0.1826  0.2398  0.4890
  753TMC3    C311178   2.797   3.854  13.161  0.1855  0.0711 -0.5227
  753TMC3    C411179   2.550   3.960  13.130  0.1232 -0.2732 -0.6583
  753TMC3    C511180   2.578   3.828  13.101 -0.5004  0.6061  0.6473
  753TMC3    C611181   2.700   3.778  13.123 -0.1837  0.4370 -0.2792
  753TMC3     C11182   2.632   4.174  13.224 -0.0020 -0.4289  0.3733
  753TMC3     O11183   2.520   4.204  13.249  0.3063  0.4016  0.1932
  753TMC3     H11184   2.863   4.044  13.218  1.5845 -0.3293 -2.2903
  753TMC3    H111185   2.452   4.005  13.123 -0.8254 -2.3116 -0.3585
  753TMC3    H211186   2.710   3.677  13.086 -0.7550 -0.0584  0.9094
  753TMC3    C711187   2.469   3.733  13.065  0.6755  0.1844  0.4932
  753TMC3    C811188   2.907   3.784  13.224  0.6701 -0.4095 -0.1095
  753TMC3    O111189   2.489   3.613  13.068  0.1588 -0.2143 -0.1952
  753TMC3    O211190   2.921   3.669  13.196 -1.0655 -0.1418  0.2379
  754MPD2     C11191   1.325   2.273  12.851  0.4192  0.3958 -0.0101
  754MPD2    C111192   1.197   2.317  12.888 -0.0204 -0.3562  0.1088
  754MPD2    C211193   1.087   2.255  12.831 -0.0267 -0.4225 -0.1028
  754MPD2    C311194   1.100   2.169  12.728 -0.4202 -0.1450 -0.1322
  754MPD2    C411195   1.227   2.117  12.692  0.6185  0.0011  0.3396
  754MPD2    C511196   1.335   2.173  12.755 -0.3673  0.7362 -0.0695
  754MPD2     H11197   0.991   2.293  12.866 -1.9153 -3.0922 -2.3448
  754MPD2    H111198   1.248   2.035  12.623  0.3017  0.6568 -0.5392
  754MPD2    H211199   1.414   2.315  12.896  0.3251  0.5078  0.0695
  754MPD2    H311200   1.436   2.143  12.730 -0.0380  0.0644  2.0808
  754MPD2     N11201   0.988   2.122  12.654  0.0043 -0.3481 -0.1799
  754MPD2    H511202   1.005   2.035  12.606 -1.2864  1.4340 -3.8584
  754MPD2    N111203   1.175   2.409  12.995 -0.0057  0.1570 -0.0994
  754MPD2    H711204   1.079   2.421  13.025 -0.7149 -0.3041 -2.2033
  755MPD2     C11205   4.736   2.356  12.341  0.0111 -0.0191 -0.0980
  755MPD2    C111206   0.005   2.265  12.442 -0.1651  0.0668 -0.4556
  755MPD2    C211207   0.127   2.214  12.486 -0.1287 -0.7768  0.6148
  755MPD2    C311208   0.246   2.260  12.434 -0.3987  0.9966 -0.1127
  755MPD2    C411209   0.242   2.343  12.324  0.5775 -0.7135 -0.0773
  755MPD2    C511210   0.117   2.395  12.289  0.7849 -0.1223 -0.2717
  755MPD2     H11211   0.129   2.151  12.574  0.3194  0.7416  1.7028
  755MPD2    H111212   0.335   2.386  12.291 -0.3639 -0.0737 -1.8852
  755MPD2    H211213   4.641   2.378  12.293 -0.4452  0.2537  0.9419
  755MPD2    H311214   0.116   2.468  12.208  0.2506 -0.4943 -0.6014
  755MPD2     N11215   0.374   2.214  12.473  0.7462 -0.6622  0.1406
  755MPD2    H511216   0.456   2.233  12.416  0.7217 -1.8700 -0.2935
  755MPD2    N111217   4.643   2.223  12.519 -0.1382 -0.1315  0.0688
  755MPD2    H711218   4.656   2.146  12.584 -0.5754 -0.5649 -0.3636
  756MPD2     C11219   1.921   3.577   9.399 -0.0451  0.1584 -0.2953
  756MPD2    C111220   1.831   3.582   9.507 -0.2128  0.0705 -0.0859
  756MPD2    C211221   1.725   3.493   9.503 -0.1256 -0.3691  0.1889
  756MPD2    C311222   1.704   3.405   9.397 -0.2534  0.2644  0.4530
  756MPD2    C411223   1.800   3.402   9.295 -0.1345  0.7643 -0.1249
  756MPD2    C511224   1.908   3.486   9.299  0.4007 -0.1070  0.6653
  756MPD2     H11225   1.655   3.497   9.587 -1.4618 -0.8508 -0.9008
  756MPD2    H111226   1.788   3.345   9.204  0.6649  1.5490 -0.7121
  756MPD2    H211227   2.007   3.642   9.408 -0.4485  0.7244 -0.4965
  756MPD2    H311228   1.983   3.479   9.220 -1.2887  0.6100 -0.9896
  756MPD2     N11229   1.591   3.327   9.394  0.2868  0.1802 -0.0146
  756MPD2    H511230   1.533   3.335   9.478 -0.7546 -1.8313 -0.5476
  756MPD2    N111231   1.840   3.675   9.613 -0.6404  0.4632 -0.1392
  756MPD2    H711232   1.763   3.657   9.677 -0.7110 -2.0149 -0.9038
  757MPD2     C11233   1.132   2.342   9.414 -0.2373 -0.4802  0.2118
  757MPD2    C111234   1.028   2.430   9.423  0.0322  0.6639  0.2662
  757MPD2    C211235   1.050   2.569   9.417 -0.0186 -0.3170  1.1298
  757MPD2    C311236   1.186   2.616   9.399 -0.6955  0.1983 -0.3267
  757MPD2    C411237   1.283   2.517   9.396 -0.6872  0.4204  0.2863
  757MPD2    C511238   1.259   2.383   9.407 -0.2715  0.1213 -0.3067
  757MPD2     H11239   0.976   2.645   9.433  0.5960  0.3804  0.6733
  757MPD2    H111240   1.386   2.548   9.386 -0.6201 -0.4856 -1.7858
  757MPD2    H211241   1.115   2.235   9.417  1.8410 -0.8319 -0.6678
  757MPD2    H311242   1.344   2.316   9.399  0.4912  1.1303 -0.7595
  757MPD2     N11243   1.210   2.755   9.376 -0.0739 -0.7228 -0.3194
  757MPD2    H511244   1.137   2.824   9.390 -1.4356 -2.3619  0.6144
  757MPD2    N111245   0.904   2.377   9.447  0.2386  0.1869  0.2671
  757MPD2    H711246   0.890   2.277   9.459 -0.0556  0.1442 -0.4249
  758MPD2     C11247   1.878   2.122  15.549 -0.0127  0.2123 -0.6766
  758MPD2    C111248   1.844   2.015  15.620  0.2355 -0.1552  0.2576
  758MPD2    C211249   1.826   2.016  15.760  0.2258 -0.0745  0.1311
  758MPD2    C311250   1.846   2.134  15.822 -0.6653 -0.1993  0.6689
  758MPD2    C411251   1.871   2.247  15.751 -0.0049 -0.5310  0.2257
  758MPD2    C511252   1.898   2.240  15.614  0.2881  1.0060 -0.1743
  758MPD2     H11253   1.778   1.932  15.808 -1.6059  1.4180  0.9221
  758MPD2    H111254   1.879   2.343  15.800 -2.0103 -0.1032 -0.3202
  758MPD2    H211255   1.874   2.114  15.441  1.5169  0.8652 -0.7757
  758MPD2    H311256   1.920   2.327  15.553  1.5409 -0.2412 -1.5154
  758MPD2     N11257   1.842   2.138  15.962  0.5387  0.1430  0.4493
  758MPD2    H511258   1.843   2.228  16.009 -2.7070 -0.0881  1.0006
  758MPD2    N111259   1.846   1.897  15.547  0.3359 -0.7201 -0.3434
  758MPD2    H711260   1.861   1.911  15.448 -0.5333 -0.6377 -0.4609
  759MPD2     C11261   0.104   0.772  10.280  0.2160 -0.0980  0.0877
  759MPD2    C111262   0.177   0.692  10.194  0.2591  1.1434 -0.7173
  759MPD2    C211263   0.269   0.746  10.109 -0.5220  0.3206 -0.2411
  759MPD2    C311264   0.276   0.882  10.085 -0.0202 -0.0011  0.0348
  759MPD2    C411265   0.194   0.962  10.162  0.1797  0.9799  0.5008
  759MPD2    C511266   0.117   0.905  10.267 -0.2308  0.7993 -0.1350
  759MPD2     H11267   0.342   0.680  10.065  0.0794  2.5639 -2.5718
  759MPD2    H111268   0.205   1.070  10.153  0.9742  0.8765  0.2480
  759MPD2    H211269   0.034   0.738  10.356  1.2881 -0.2028  1.0104
  759MPD2    H311270   0.047   0.962  10.327  1.5715  0.8835  1.8736
  759MPD2     N11271   0.372   0.925   9.987 -0.1155 -0.4385 -0.1122
  759MPD2    H511272   0.443   0.856   9.968 -0.6833 -0.8538 -0.6795
  759MPD2    N111273   0.168   0.554  10.201 -0.6588  0.8835 -0.1438
  759MPD2    H711274   0.218   0.502  10.129  0.5620 -0.8126  1.9506
  760MPD2     C11275   0.020   2.700  11.650 -0.3310 -1.3933  0.0751
  760MPD2    C111276   0.161   2.691  11.661  0.3850 -0.0161  0.6882
  760MPD2    C211277   0.233   2.579  11.626 -0.2497  0.3904 -0.3126
  760MPD2    C311278   0.170   2.473  11.568  0.2861  0.0296  0.0064
  760MPD2    C411279   0.033   2.478  11.557  0.5896  0.7468  0.3244
  760MPD2    C511280   4.702   2.586  11.597  0.0348  0.1066  0.1612
  760MPD2     H11281   0.339   2.572  11.647 -0.2425  0.6323 -0.2723
  760MPD2    H111282   4.720   2.395  11.514  0.6235  0.0440  1.6572
  760MPD2    H211283   4.708   2.785  11.690 -1.5433 -2.4026  0.5808
  760MPD2    H311284   4.596   2.575  11.580  0.1824  0.7793 -1.1612
  760MPD2     N11285   0.240   2.353  11.529  0.0230 -0.1865  0.4776
  760MPD2    H511286   0.190   2.267  11.510  0.3152 -0.4319  0.8238
  760MPD2    N111287   0.227   2.805  11.709  0.3402  0.4532 -1.1602
  760MPD2    H711288   0.171   2.885  11.738 -1.7189 -0.3210 -2.9982
  761MPD2     C11289   0.607   2.142  11.143 -0.1038  0.0444 -0.6822
  761MPD2    C111290   0.713   2.105  11.071 -0.6542  0.3795  0.0367
  761MPD2    C211291   0.800   2.192  11.020  0.0399  0.0106  0.2697
  761MPD2    C311292   0.788   2.331  11.042  0.0401 -0.7636 -0.0959
  761MPD2    C411293   0.673   2.371  11.112  0.2236 -0.8409  0.2226
  761MPD2    C511294   0.583   2.278  11.160 -0.1413 -0.0452 -0.1526
  761MPD2     H11295   0.894   2.150  10.987  0.2923 -1.1129  2.4016
  761MPD2    H111296   0.651   2.476  11.128 -0.8049 -1.2397  1.3775
  761MPD2    H211297   0.540   2.071  11.190  0.5466 -1.0608 -1.4485
  761MPD2    H311298   0.489   2.317  11.196  0.1737 -0.6706  1.3585
  761MPD2     N11299   0.881   2.436  11.002  0.8087 -0.1862 -0.6932
  761MPD2    H511300   0.865   2.531  11.034 -1.5988 -0.5937 -0.7292
  761MPD2    N111301   0.734   1.964  11.073  0.3453 -0.4051 -0.1204
  761MPD2    H711302   0.674   1.906  11.130  0.1780 -1.5478 -1.4835
  762MPD2     C11303   1.234   2.098  10.864 -0.3757  0.7973 -0.5155
  762MPD2    C111304   1.256   1.961  10.847  0.4087  0.0083  0.2215
  762MPD2    C211305   1.382   1.924  10.798  0.6003  0.8746  0.2191
  762MPD2    C311306   1.478   2.013  10.748  0.8756  0.5676  0.7798
  762MPD2    C411307   1.446   2.147  10.770  0.4062  0.2510 -0.5666
  762MPD2    C511308   1.324   2.189  10.823 -0.1089  0.5955 -0.2962
  762MPD2     H11309   1.404   1.818  10.792  0.6408  0.8536  0.8053
  762MPD2    H111310   1.515   2.228  10.747  2.0766 -0.4329  1.9926
  762MPD2    H211311   1.137   2.127  10.904 -0.9960 -0.2762 -1.2272
  762MPD2    H311312   1.314   2.297  10.830 -2.9271  0.4478 -2.0979
  762MPD2     N11313   1.594   1.976  10.685 -0.6251  0.5395 -0.4689
  762MPD2    H511314   1.592   1.881  10.649 -2.5829  0.9374 -1.4346
  762MPD2    N111315   1.151   1.869  10.880  0.1864 -0.1449  0.3631
  762MPD2    H711316   1.054   1.897  10.870 -0.1671 -1.6652 -0.4492
  763MPD2     C11317   3.620   1.965  15.829 -0.1748 -0.2644  0.4532
  763MPD2    C111318   3.503   2.033  15.815 -0.2282  0.3276  0.3747
  763MPD2    C211319   3.511   2.174  15.830 -0.3204 -0.1275  0.5226
  763MPD2    C311320   3.631   2.242  15.861  0.2496 -0.1621 -0.4317
  763MPD2    C411321   3.742   2.160  15.878  0.1533  0.3912 -0.1810
  763MPD2    C511322   3.736   2.029  15.868 -0.0040  0.2531  0.7102
  763MPD2     H11323   3.424   2.238  15.819  0.0257  0.2056 -0.2890
  763MPD2    H111324   3.841   2.200  15.892 -0.2545  0.8616  1.2775
  763MPD2    H211325   3.632   1.858  15.818  0.9324  0.0991 -1.8917
  763MPD2    H311326   3.822   1.964  15.869  0.0494  0.2871 -1.8444
  763MPD2     N11327   3.654   2.380  15.869  0.2381  0.3116 -0.0275
  763MPD2    H511328   3.749   2.413  15.856 -0.3182  1.1725 -1.9519
  763MPD2    N111329   3.384   1.976  15.773  0.0542 -0.6093 -0.1564
  763MPD2    H711330   3.315   2.038  15.731  1.1191  3.0268  3.4091
  764MPD2     C11331   2.325   3.754  17.471 -0.2640  0.6294 -0.3336
  764MPD2    C111332   2.228   3.656  17.453  0.0598 -0.0029  0.4065
  764MPD2    C211333   2.122   3.633  17.546 -0.3139  0.1594 -0.6163
  764MPD2    C311334   2.126   3.696  17.672  0.4177 -0.2989  0.4210
  764MPD2    C411335   2.220   3.798  17.685  0.8617  0.5884  0.8618
  764MPD2    C511336   2.316   3.833  17.588 -0.3776 -0.3074 -0.5434
  764MPD2     H11337   2.060   3.545  17.531 -1.7888  1.4595 -2.1556
  764MPD2    H111338   2.214   3.861   0.008 -1.5031  0.0714  1.0650
  764MPD2    H211339   2.403   3.774  17.398  0.2429 -0.5094 -0.1047
  764MPD2    H311340   2.394   3.908  17.598 -1.5182  0.6751  0.8875
  764MPD2     N11341   2.020   3.671   0.001 -0.2487 -0.1929 -0.1177
  764MPD2    H511342   1.945   3.610  17.735 -1.4019  1.4139 -0.5042
  764MPD2    N111343   2.213   3.588  17.332  0.5523  0.2811 -0.5330
  764MPD2    H711344   2.138   3.519  17.328 -0.6738  1.5568  0.2716
  765MPD2     C11345   1.599   1.487  16.432 -0.1392  0.1527 -0.2655
  765MPD2    C111346   1.594   1.481  16.295  0.4765  0.5729 -0.5201
  765MPD2    C211347   1.648   1.374  16.224  0.2044 -0.2975  0.3607
  765MPD2    C311348   1.736   1.296  16.284 -0.4559 -0.2527 -0.0109
  765MPD2    C411349   1.758   1.307  16.420 -0.0572  0.1745  0.3290
  765MPD2    C511350   1.677   1.390  16.495 -0.0996  0.2252 -0.3977
  765MPD2     H11351   1.640   1.360  16.117 -0.6283 -1.8506  0.6216
  765MPD2    H111352   1.839   1.255  16.470  1.2710  0.0173 -1.9463
  765MPD2    H211353   1.553   1.557  16.500  0.2119 -1.3358  1.4914
  765MPD2    H311354   1.698   1.386  16.601  0.6071  1.3249 -0.4999
  765MPD2     N11355   1.804   1.211  16.199  0.2803  0.2779 -0.4703
  765MPD2    H511356   1.788   1.214  16.099 -1.9882 -0.8478 -0.1209
  765MPD2    N111357   1.508   1.575  16.232  0.1260  0.3728 -0.3279
  765MPD2    H711358   1.481   1.654  16.291  0.5695  0.6956 -0.5560
  766MPD2     C11359   0.811   1.748  15.619  0.1697 -0.1279  0.7471
  766MPD2    C111360   0.931   1.685  15.642  0.1165 -0.5144  0.3281
  766MPD2    C211361   0.994   1.625  15.532 -0.2002  0.5472  0.4524
  766MPD2    C311362   0.950   1.640  15.403 -0.7654 -0.0643 -0.5647
  766MPD2    C411363   0.824   1.694  15.385 -0.7375  0.1837 -0.0606
  766MPD2    C511364   0.762   1.747  15.495  0.0250 -0.3717 -0.2089
  766MPD2     H11365   1.086   1.570  15.551 -1.1464 -0.9926  0.6417
  766MPD2    H111366   0.781   1.705  15.286 -0.6493 -1.2272 -0.2479
  766MPD2    H211367   0.761   1.794  15.704 -0.6505  1.6496 -0.7134
  766MPD2    H311368   0.663   1.789  15.479  0.2519 -0.4512 -1.8359
  766MPD2     N11369   1.023   1.600  15.292 -0.3945  0.7016  0.0686
  766MPD2    H511370   0.984   1.628  15.202  2.4436  0.2545 -1.3168
  766MPD2    N111371   0.995   1.691  15.770  0.0326  0.2683 -0.4152
  766MPD2    H711372   0.958   1.761  15.834 -0.4727 -0.9293  0.5872
  767MPD2     C11373   0.551   1.873  15.057  0.2555 -0.4183  1.2017
  767MPD2    C111374   0.684   1.848  15.042  0.1494  0.2692 -0.1017
  767MPD2    C211375   0.715   1.742  14.962  0.0584 -0.6376 -0.1402
  767MPD2    C311376   0.613   1.664  14.907  0.1264  0.0291  0.3577
  767MPD2    C411377   0.484   1.683  14.945 -0.3389  0.0755 -0.3924
  767MPD2    C511378   0.457   1.793  15.011  0.2026  0.3442 -0.4786
  767MPD2     H11379   0.817   1.721  14.933  0.7762  0.5500  1.5010
  767MPD2    H111380   0.404   1.615  14.920 -0.9203  1.3922 -2.1249
  767MPD2    H211381   0.518   1.963  15.108  3.2396  1.3237  0.0738
  767MPD2    H311382   0.355   1.822  15.032  1.2266  2.8743  1.0080
  767MPD2     N11383   0.655   1.577  14.802  0.0434  0.7501  0.4933
  767MPD2    H511384   0.752   1.578  14.772 -0.0323 -0.5364  0.2465
  767MPD2    N111385   0.777   1.936  15.105  0.2464  0.3947 -0.3335
  767MPD2    H711386   0.742   2.024  15.143  2.6828  0.6149  1.3750
  768MPD2     C11387   1.161   0.272  10.979  0.6042 -0.0988  0.4777
  768MPD2    C111388   1.251   0.346  10.915  0.0281 -0.3107 -0.2746
  768MPD2    C211389   1.384   0.340  10.962 -0.2369  0.5782 -0.4485
  768MPD2    C311390   1.422   0.254  11.062 -0.7763  0.4301  0.7113
  768MPD2    C411391   1.332   0.166  11.113 -0.1197 -0.9695  0.4201
  768MPD2    C511392   1.197   0.180  11.066  0.4813  0.3467 -0.0014
  768MPD2     H11393   1.456   0.398  10.906 -0.3620  0.0230 -1.1732
  768MPD2    H111394   1.361   0.098  11.192 -0.7939 -2.5482 -0.6904
  768MPD2    H211395   1.060   0.263  10.941  0.5297 -0.4595  0.7587
  768MPD2    H311396   1.124   0.110  11.103 -0.1914  0.2046 -1.6102
  768MPD2     N11397   1.553   0.237  11.120  0.0262  0.1381  0.3739
  768MPD2    H511398   1.563   0.186  11.207 -0.2083  0.4545  0.5881
  768MPD2    N111399   1.214   0.438  10.816  0.5366  0.0535 -0.5464
  768MPD2    H711400   1.294   0.483  10.774  1.5918 -0.6662  0.6817
  769MPD2     C11401   2.765   2.556  14.936 -0.1769 -0.0241  0.1803
  769MPD2    C111402   2.646   2.629  14.967 -1.1760 -0.7949  0.0979
  769MPD2    C211403   2.653   2.733  15.057  0.5439 -0.2290  0.1221
  769MPD2    C311404   2.770   2.770  15.117 -0.7465  0.1608 -0.5458
  769MPD2    C411405   2.878   2.689  15.106 -0.0034  0.0557  1.0221
  769MPD2    C511406   2.875   2.589  15.009  0.4706  0.2908  0.5372
  769MPD2     H11407   2.567   2.795  15.080 -0.9636 -1.1046 -3.1288
  769MPD2    H111408   2.976   2.719  15.141  1.1482 -3.0878  0.4944
  769MPD2    H211409   2.766   2.466  14.877 -0.4107 -0.1644  0.3895
  769MPD2    H311410   2.972   2.542  15.000  0.3209 -0.5914  3.3766
  769MPD2     N11411   2.771   2.884  15.196  0.1831 -0.3141 -0.3665
  769MPD2    H511412   2.684   2.928  15.226  1.6989  0.5967  2.7239
  769MPD2    N111413   2.527   2.575  14.907 -0.4653  0.3620  0.3106
  769MPD2    H711414   2.542   2.490  14.853  1.0293 -0.3197  1.8046
  770MPD2     C11415   2.157   1.758  14.551 -0.0762 -0.4481  0.0974
  770MPD2    C111416   2.049   1.839  14.538  0.3995  0.7046  0.1028
  770MPD2    C211417   2.049   1.963  14.588 -0.4252  0.3782  0.2550
  770MPD2    C311418   2.163   2.009  14.654  0.6442  0.5231  0.5017
  770MPD2    C411419   2.272   1.928  14.667  0.5091  0.1138 -0.1954
  770MPD2    C511420   2.265   1.800  14.625 -0.3993 -0.0821 -0.1311
  770MPD2     H11421   1.967   2.034  14.577 -0.2759  0.0783 -2.7971
  770MPD2    H111422   2.353   1.961  14.730  1.1842  0.1120 -1.0665
  770MPD2    H211423   2.148   1.660  14.505  2.0047  1.4295 -4.2794
  770MPD2    H311424   2.353   1.738  14.639 -2.7669 -3.3709 -0.0274
  770MPD2     N11425   2.164   2.145  14.690  0.6609  0.0419 -0.2513
  770MPD2    H511426   2.079   2.192  14.660 -0.0254  0.2179  1.9433
  770MPD2    N111427   1.931   1.779  14.493  0.3666 -0.6089  0.5440
  770MPD2    H711428   1.937   1.683  14.461 -0.1541 -0.6126  0.4465
  771MPD2     C11429   3.559   1.032  13.653 -0.9037  0.1610  0.3877
  771MPD2    C111430   3.491   1.138  13.602  0.2295 -0.2986 -0.4776
  771MPD2    C211431   3.358   1.115  13.548  0.5401  0.2268 -0.0418
  771MPD2    C311432   3.302   0.985  13.552 -0.1863  0.2288  0.6463
  771MPD2    C411433   3.368   0.886  13.615  0.4209 -0.6444 -0.1314
  771MPD2    C511434   3.496   0.908  13.664 -0.3143  0.3202 -0.1934
  771MPD2     H11435   3.317   1.198  13.492 -0.2865 -0.9809 -1.2250
  771MPD2    H111436   3.337   0.782  13.618 -2.0041  0.1682  1.9587
  771MPD2    H211437   3.658   1.037  13.697 -0.4304  0.5198 -0.7185
  771MPD2    H311438   3.557   0.829  13.708 -1.0263  1.6356  3.1336
  771MPD2     N11439   3.174   0.974  13.494  0.2840  0.8429  0.2381
  771MPD2    H511440   3.117   1.055  13.473 -0.3717  0.4816  0.6246
  771MPD2    N111441   3.531   1.271  13.601 -0.0964  0.4748 -0.0479
  771MPD2    H711442   3.474   1.341  13.554  1.0389  1.2215 -0.3081
  772MPD2     C11443   3.209   1.855  13.534  0.4290 -0.2257  0.2676
  772MPD2    C111444   3.227   1.751  13.624 -0.0299 -0.3379 -0.0407
  772MPD2    C211445   3.118   1.691  13.684  0.0512  0.6832 -0.2035
  772MPD2    C311446   2.990   1.738  13.660 -0.3848 -0.2765  0.7432
  772MPD2    C411447   2.984   1.842  13.572 -0.0095 -0.1575  0.5400
  772MPD2    C511448   3.085   1.904  13.517 -0.5109 -0.4123  0.5455
  772MPD2     H11449   3.129   1.616  13.761  0.0102  2.1075  1.1833
  772MPD2    H111450   2.885   1.877  13.542  2.3805  0.8622 -6.2269
  772MPD2    H211451   3.287   1.902  13.475 -1.3916  0.0962 -1.8787
  772MPD2    H311452   3.077   1.975  13.436 -2.4217 -0.7247  0.4702
  772MPD2     N11453   2.875   1.687  13.715  0.3837 -0.0216  0.2863
  772MPD2    H511454   2.793   1.727  13.672 -0.9088 -2.8698  0.1043
  772MPD2    N111455   3.355   1.690  13.638 -0.7706  0.0715 -0.0174
  772MPD2    H711456   3.361   1.604  13.690 -1.0251 -0.8521 -1.5032
  773MPD2     C11457   2.521   2.363  17.615 -0.1584  0.2981  0.2432
  773MPD2    C111458   2.432   2.263  17.633  0.0049  0.1643 -0.3783
  773MPD2    C211459   2.480   2.147  17.702  0.0978  0.1374  0.9514
  773MPD2    C311460   2.605   2.142  17.759  0.2106  0.4502 -0.1582
  773MPD2    C411461   2.692   2.250  17.735 -0.0001  0.4220 -0.1749
  773MPD2    C511462   2.646   2.366  17.672  0.3928  0.0481  0.6810
  773MPD2     H11463   2.413   2.065  17.725 -1.3502  1.1630  0.3807
  773MPD2    H111464   2.793   2.249   0.010  0.0191 -0.6951 -0.2571
  773MPD2    H211465   2.505   2.446  17.547 -0.0098  0.7226  0.7260
  773MPD2    H311466   2.710   2.453  17.664 -0.5822  0.5910 -1.0546
  773MPD2     N11467   2.639   2.018   0.057  0.2623  0.5977  0.0439
  773MPD2    H511468   2.563   1.953   0.074 -2.0547  2.8976 -1.6938
  773MPD2    N111469   2.298   2.267  17.580 -0.6448 -0.3136 -0.1245
  773MPD2    H711470   2.255   2.176  17.589  0.2072 -0.5745  1.3387
  774MPD2     C11471   1.264   2.129  13.847  0.1817 -0.4693 -0.8078
  774MPD2    C111472   1.278   2.078  13.724  0.2886 -0.3229 -0.0429
  774MPD2    C211473   1.267   2.168  13.625 -0.5909  0.0188 -0.2553
  774MPD2    C311474   1.248   2.308  13.647  0.0184  0.0623 -0.2368
  774MPD2    C411475   1.241   2.353  13.776  0.6362 -0.0747 -0.8293
  774MPD2    C511476   1.238   2.254  13.873  0.3910  0.7123 -0.2873
  774MPD2     H11477   1.291   2.139  13.524 -1.5525  2.8277 -1.3032
  774MPD2    H111478   1.236   2.457  13.808 -6.1364 -0.6923  0.2169
  774MPD2    H211479   1.261   2.067  13.936 -2.5259 -0.3394 -0.8108
  774MPD2    H311480   1.233   2.287  13.976  3.3592 -1.7244  0.6524
  774MPD2     N11481   1.243   2.389  13.531 -0.9746 -0.3343 -0.0042
  774MPD2    H511482   1.237   2.339  13.442 -1.5485 -0.6151  0.1931
  774MPD2    N111483   1.339   1.951  13.706 -0.4137  0.1149 -0.2669
  774MPD2    H711484   1.388   1.922  13.790  0.1348  0.3316 -0.5134
  775MPD2     C11485   3.071   2.625  15.442 -0.0761 -0.4329 -0.9038
  775MPD2    C111486   3.054   2.741  15.520  0.0086  0.1153  0.4698
  775MPD2    C211487   3.130   2.851  15.479  1.0990  0.1231  0.6119
  775MPD2    C311488   3.221   2.840  15.370 -0.4481  0.2238  0.6627
  775MPD2    C411489   3.235   2.728  15.304 -0.0017 -0.3307 -0.5519
  775MPD2    C511490   3.165   2.619  15.340 -0.0265 -0.1580 -0.7715
  775MPD2     H11491   3.121   2.946  15.530  0.4496 -1.5644  3.6530
  775MPD2    H111492   3.290   2.724  15.210  0.1611  0.7219 -0.4936
  775MPD2    H211493   3.022   2.530  15.456 -2.1831  0.7012 -0.6211
  775MPD2    H311494   3.180   2.527  15.284 -1.2700 -1.9798  1.8657
  775MPD2     N11495   3.286   2.955  15.322  0.1867  0.5472 -0.4074
  775MPD2    H511496   3.348   2.945  15.243 -2.2508  0.6215 -2.3198
  775MPD2    N111497   2.961   2.735  15.625 -0.0780 -0.0429  0.0242
  775MPD2    H711498   2.908   2.650  15.631 -0.9773  0.5372  0.2811
  776MPD2     C11499   1.475   3.710  10.858 -0.8986 -0.3721 -0.5748
  776MPD2    C111500   1.569   3.722  10.952  0.5140  0.6349  0.3061
  776MPD2    C211501   1.687   3.788  10.923  0.2075 -0.1834  0.5887
  776MPD2    C311502   1.701   3.850  10.799 -0.3280 -0.5950 -0.0028
  776MPD2    C411503   1.595   3.847  10.710  0.5871 -0.2059 -0.8535
  776MPD2    C511504   1.492   3.759  10.729  0.1465 -0.2987 -0.1376
  776MPD2     H11505   1.757   3.791  11.005  0.7483 -0.3000  0.1346
  776MPD2    H111506   1.599   3.910  10.622 -2.0758 -1.5626 -1.9438
  776MPD2    H211507   1.380   3.665  10.885 -2.0903  0.2867 -3.6723
  776MPD2    H311508   1.413   3.757  10.655 -1.0941 -2.0735  1.2285
  776MPD2     N11509   1.812   3.928  10.764 -0.6744  0.1338 -0.3003
  776MPD2    H511510   1.811   3.949  10.665  0.2322 -1.2916 -0.6004
  776MPD2    N111511   1.545   3.637  11.064  0.3534  0.6396  0.1533
  776MPD2    H711512   1.455   3.589  11.064  0.0073  1.2843 -0.3499
  777MPD2     C11513   2.796   1.351   0.459 -0.7173 -0.8525  0.0446
  777MPD2    C111514   2.672   1.380   0.509  0.3824  0.7034  0.3154
  777MPD2    C211515   2.573   1.282   0.478 -0.7957  0.3596  0.0283
  777MPD2    C311516   2.598   1.176   0.394  0.6734 -0.0412 -0.6421
  777MPD2    C411517   2.720   1.157   0.342 -0.2418 -0.3487 -0.2717
  777MPD2    C511518   2.824   1.245   0.370 -0.2570 -0.3233 -0.4889
  777MPD2     H11519   2.470   1.304   0.502 -1.4456 -1.4117 -1.1707
  777MPD2    H111520   2.742   1.089   0.261  0.4917  1.2459 -1.4079
  777MPD2    H211521   2.881   1.413   0.486 -1.6124  0.4619 -0.1608
  777MPD2    H311522   2.922   1.234   0.325 -0.0455 -1.1744  0.1804
  777MPD2     N11523   2.486   1.103   0.361 -0.2263  0.1253  0.2982
  777MPD2    H511524   2.399   1.140   0.399  0.6045 -1.4268  3.6921
  777MPD2    N111525   2.657   1.497   0.584 -0.6931  0.2097  0.0650
  777MPD2    H711526   2.743   1.552   0.584 -0.3435 -0.3269  0.7369
  778MPD2     C11527   3.239   0.933  15.070  1.0569  0.3211 -0.3938
  778MPD2    C111528   3.273   0.823  14.992 -0.9029 -0.1369 -0.4409
  778MPD2    C211529   3.335   0.847  14.868 -0.9660  0.4480 -0.0275
  778MPD2    C311530   3.358   0.975  14.818  0.0215  0.3488  0.2209
  778MPD2    C411531   3.313   1.083  14.894 -0.4107 -0.3652 -0.1798
  778MPD2    C511532   3.256   1.060  15.021  0.2834  0.1470 -0.3269
  778MPD2     H11533   3.350   0.764  14.800 -0.2219  1.5064 -1.1563
  778MPD2    H111534   3.335   1.184  14.861  3.9521 -0.1561  3.3355
  778MPD2    H211535   3.189   0.916  15.164  0.8197  0.3432 -0.5165
  778MPD2    H311536   3.233   1.144  15.085  1.2144 -0.0986  0.3362
  778MPD2     N11537   3.434   0.994  14.701 -0.1267  0.0645  0.1946
  778MPD2    H511538   3.448   0.909  14.648  2.2099 -0.3249  1.4598
  778MPD2    N111539   3.231   0.691  15.017 -0.3564 -0.1333  0.4155
  778MPD2    H711540   3.255   0.618  14.951 -1.7608  2.2593 -2.7559
  779MPD2     C11541   3.051   4.567  14.134 -0.0434 -0.8794  1.0413
  779MPD2    C111542   3.166   4.582  14.056 -0.1692  0.0091 -0.1278
  779MPD2    C211543   3.194   4.708  14.004  0.4379 -0.0454 -0.0117
  779MPD2    C311544   3.099   0.071  13.998 -0.9585 -0.8156 -0.2181
  779MPD2    C411545   2.977   0.039  14.053  0.6649 -0.3901  0.9759
  779MPD2    C511546   2.956   4.672  14.131 -0.2158 -0.0349 -0.9596
  779MPD2     H11547   3.286   4.729  13.948  0.8145 -0.6078  0.4052
  779MPD2    H111548   2.914   0.125  14.075  0.7818 -0.0172 -0.1700
  779MPD2    H211549   3.022   4.483  14.197 -0.1032  0.8245  3.2635
  779MPD2    H311550   2.863   4.665  14.186 -0.0800  2.7271 -0.3712
  779MPD2     N11551   3.135   0.197  13.944  0.0225 -0.4315 -0.2806
  779MPD2    H511552   3.228   0.220  13.909  0.0773  2.3649  1.7026
  779MPD2    N111553   3.251   4.479  14.032 -0.1261  0.2380 -0.1499
  779MPD2    H711554   3.330   4.502  13.973 -0.2616 -1.0673 -0.8409
  780MPD2     C11555   2.706   0.210   0.054 -0.1017 -0.1179 -0.2843
  780MPD2    C111556   2.684   0.085   0.001 -0.4195  0.2673 -0.2758
  780MPD2    C211557   2.795   0.015  17.735 -0.5601  0.0487 -0.3758
  780MPD2    C311558   2.921   0.070  17.746 -0.1759 -0.1185  0.5747
  780MPD2    C411559   2.942   0.201   0.028 -0.4966  0.4765  0.9517
  780MPD2    C511560   2.831   0.263   0.071  0.3951 -0.1279 -0.3237
  780MPD2     H11561   2.790   4.650  17.721  0.4269 -0.3084  2.0030
  780MPD2    H111562   3.043   0.240   0.037 -1.7202  3.9008 -0.2953
  780MPD2    H211563   2.620   0.260   0.097 -0.5597 -1.3245  0.1843
  780MPD2    H311564   2.832   0.363   0.113 -0.3973  0.4431 -1.6450
  780MPD2     N11565   3.032   4.733  17.696 -0.3141 -0.6071 -0.7460
  780MPD2    H511566   3.006   4.651  17.642 -0.7017 -1.3424  0.5525
  780MPD2    N111567   2.563   0.029  17.763 -0.0310 -0.8731  0.0369
  780MPD2    H711568   2.487   0.075   0.047 -0.2764 -0.9614 -0.2623
  781MPD2     C11569   4.524   1.810  11.674  0.0111 -0.4798  0.0624
  781MPD2    C111570   4.475   1.683  11.676 -0.1439  0.1983  0.2154
  781MPD2    C211571   4.488   1.619  11.551  0.2542 -0.1204  0.2535
  781MPD2    C311572   4.564   1.672  11.447  0.1354 -0.1758  0.3201
  781MPD2    C411573   4.612   1.798  11.463  0.2250 -0.2204 -0.2769
  781MPD2    C511574   4.592   1.865  11.575 -0.3697  0.1461 -0.3845
  781MPD2     H11575   4.451   1.517  11.550  1.1240 -0.4381  1.2984
  781MPD2    H111576   4.673   1.844  11.386  1.6391  0.9290  1.5579
  781MPD2    H211577   4.510   1.870  11.763  1.2703  0.3074 -0.2651
  781MPD2    H311578   4.637   1.964  11.579 -2.0956  0.9132  0.1282
  781MPD2     N11579   4.609   1.603  11.333  0.0304 -0.5058  0.4462
  781MPD2    H511580   4.668   1.648  11.263 -1.2571  1.4448  0.6272
  781MPD2    N111581   4.422   1.623  11.793  0.0480 -0.2713  0.0217
  781MPD2    H711582   4.424   1.688  11.871 -0.2872 -0.3869  0.1238
  782MPD2     C11583   2.291   2.367   9.766  0.1256 -0.0432 -0.0353
  782MPD2    C111584   2.254   2.473   9.841 -0.3277 -0.3122  0.6633
  782MPD2    C211585   2.308   2.601   9.806  0.1178 -0.1092 -0.2036
  782MPD2    C311586   2.351   2.623   9.675  0.1090 -1.1634  0.0757
  782MPD2    C411587   2.371   2.518   9.590  0.2763  0.0776 -0.7384
  782MPD2    C511588   2.336   2.393   9.635  0.4641  0.1271  0.0754
  782MPD2     H11589   2.302   2.692   9.864  2.7233 -0.2433  0.2604
  782MPD2    H111590   2.418   2.527   9.493 -1.4577 -1.5940 -1.7209
  782MPD2    H211591   2.264   2.268   9.799 -0.7345  0.1176 -0.2487
  782MPD2    H311592   2.348   2.307   9.570 -0.0004  0.8706 -0.9764
  782MPD2     N11593   2.383   2.754   9.644 -0.2414  0.2243 -0.2495
  782MPD2    H511594   2.374   2.828   9.713  0.8675  0.9685 -0.8869
  782MPD2    N111595   2.190   2.457   9.971 -0.1865 -0.0621 -0.2217
  782MPD2    H711596   2.203   2.533  10.037  1.1424  1.1963 -1.9229
  783MPD2     C11597   1.274   2.254  10.483 -1.0169  0.1712 -0.6114
  783MPD2    C111598   1.329   2.372  10.527 -0.3823  0.0973  0.5258
  783MPD2    C211599   1.460   2.398  10.494  0.0649 -0.2207  0.4316
  783MPD2    C311600   1.540   2.308  10.425  0.0999 -0.1775  0.4161
  783MPD2    C411601   1.472   2.197  10.369 -0.2834 -0.2463 -0.0574
  783MPD2    C511602   1.344   2.171  10.398  0.9337 -0.6233 -0.4877
  783MPD2     H11603   1.504   2.486  10.539 -0.7627  0.4737 -0.1054
  783MPD2    H111604   1.522   2.125  10.305 -1.7991  0.2403 -1.8192
  783MPD2    H211605   1.173   2.224  10.509 -2.2344  3.1642 -1.9225
  783MPD2    H311606   1.293   2.085  10.356  0.2633 -0.5152  0.1126
  783MPD2     N11607   1.668   2.349  10.398 -0.1185 -0.1095 -0.2976
  783MPD2    H511608   1.715   2.415  10.460  0.1394  1.1173 -1.7878
  783MPD2    N111609   1.247   2.458  10.597  0.6588  0.3147  0.4893
  783MPD2    H711610   1.153   2.423  10.610  1.0101 -0.5273  0.7383
  784MPD2     C11611   4.721   3.052   1.205 -0.0624  0.0914 -0.3832
  784MPD2    C111612   4.718   3.028   1.068 -0.0099  0.5358 -0.1016
  784MPD2    C211613   4.602   2.983   1.010  0.0880  0.7020  0.0639
  784MPD2    C311614   4.491   2.955   1.092 -0.3451 -0.0188 -0.0027
  784MPD2    C411615   4.496   2.971   1.229  0.1098  0.0866 -0.4018
  784MPD2    C511616   4.605   3.037   1.280 -0.0530  0.2394  0.1893
  784MPD2     H11617   4.604   2.968   0.903  2.8268 -0.4306  0.2747
  784MPD2    H111618   4.406   2.974   1.289  0.1457 -3.7066 -0.1294
  784MPD2    H211619   0.067   3.098   1.250  0.6587 -1.3257 -0.3497
  784MPD2    H311620   4.604   3.059   1.387 -3.7550  0.6599  0.0508
  784MPD2     N11621   4.375   2.906   1.035 -0.4468 -0.0959  0.6466
  784MPD2    H511622   4.288   2.912   1.086 -1.1503  0.1319 -0.5669
  784MPD2    N111623   0.075   3.070   0.975  0.6941  0.6923 -0.0823
  784MPD2    H711624   0.041   3.090   0.882  0.9891 -0.3962 -0.4194
  785MPD2     C11625   4.555   1.178   9.964 -0.7765 -0.2394  0.1750
  785MPD2    C111626   4.472   1.181  10.069 -0.6108  0.3174 -0.6402
  785MPD2    C211627   4.336   1.153  10.063  0.8325  0.1295  0.6572
  785MPD2    C311628   4.281   1.127   9.941 -0.8220  0.1193  0.4352
  785MPD2    C411629   4.364   1.125   9.824  0.2281 -0.0224  0.2672
  785MPD2    C511630   4.497   1.150   9.842  0.7366 -0.0539  0.9810
  785MPD2     H11631   4.277   1.161  10.154  1.0278 -0.0712  0.8022
  785MPD2    H111632   4.331   1.108   9.722  3.6332 -1.2450 -0.6437
  785MPD2    H211633   4.662   1.188   9.975 -0.5312  0.0253 -2.5804
  785MPD2    H311634   4.560   1.146   9.754  0.7612 -0.9365  1.0382
  785MPD2     N11635   4.138   1.114   9.936 -0.2738  0.1249  0.1621
  785MPD2    H511636   4.088   1.108  10.024  1.4355  0.0048  1.1145
  785MPD2    N111637   4.518   1.188  10.203  0.5000 -0.5178 -0.1920
  785MPD2    H711638   4.443   1.186  10.272 -0.4577 -2.7393 -1.3123
  786MPD2     C11639   3.494   3.419  14.657 -0.6395 -0.6929  0.3246
  786MPD2    C111640   3.621   3.421  14.604 -0.0702  0.3236  0.2369
  786MPD2    C211641   3.721   3.472  14.680 -0.3909 -0.0379 -0.1681
  786MPD2    C311642   3.706   3.515  14.806 -0.5835  0.2264  0.1807
  786MPD2    C411643   3.575   3.519  14.853 -0.6215 -0.4442  1.0112
  786MPD2    C511644   3.472   3.462  14.781  0.9892  0.3474  0.2810
  786MPD2     H11645   3.819   3.459  14.635 -0.0634  1.3987  0.1410
  786MPD2    H111646   3.541   3.556  14.949 -0.3230  1.9797  0.1775
  786MPD2    H211647   3.420   3.357  14.607 -0.7829 -2.4473  2.7222
  786MPD2    H311648   3.376   3.450  14.830 -0.3175 -0.1822 -2.4231
  786MPD2     N11649   3.816   3.549  14.884  0.2402  0.0588  1.1423
  786MPD2    H511650   3.902   3.530  14.834 -0.3560  1.0838 -0.2562
  786MPD2    N111651   3.650   3.376  14.475  0.1962  0.3719 -0.3167
  786MPD2    H711652   3.749   3.369  14.452  0.0637 -2.4434 -0.0436
  787MPD2     C11653   4.110   3.080  14.527 -0.1693 -0.0948 -0.7425
  787MPD2    C111654   4.077   3.014  14.413 -0.0889 -0.2643  0.9108
  787MPD2    C211655   4.133   2.889  14.386 -0.0757  0.2109 -0.2385
  787MPD2    C311656   4.217   2.828  14.484 -0.2015  0.1651 -0.6121
  787MPD2    C411657   4.250   2.901  14.596 -0.6216  0.0678 -0.2415
  787MPD2    C511658   4.203   3.028  14.614  0.2396  0.3979  0.1118
  787MPD2     H11659   4.103   2.834  14.297 -1.4069 -0.3201  0.5450
  787MPD2    H111660   4.324   2.866  14.667 -3.5591 -1.8740  1.8403
  787MPD2    H211661   4.069   3.178  14.550 -4.2458 -2.1763  0.7909
  787MPD2    H311662   4.244   3.098  14.686  1.2348 -1.8779  1.7778
  787MPD2     N11663   4.252   2.697  14.473 -0.0437 -0.5536  0.0354
  787MPD2    H511664   4.235   2.656  14.382  0.1643  0.5604 -0.5106
  787MPD2    N111665   3.984   3.079  14.333 -0.0333  0.3579 -0.2822
  787MPD2    H711666   3.958   3.175  14.354 -0.9508 -0.1322  0.8203
  788MPD2     C11667   1.433   2.703   0.652  0.3904 -0.9146 -0.2763
  788MPD2    C111668   1.391   2.630   0.542  0.4660  0.1026 -0.1256
  788MPD2    C211669   1.390   2.692   0.419 -0.1495  0.1359  0.9870
  788MPD2    C311670   1.435   2.822   0.405 -0.3119  1.2811  0.4011
  788MPD2    C411671   1.475   2.893   0.517 -0.5303  0.1250 -0.0672
  788MPD2    C511672   1.470   2.835   0.642  0.2701 -0.2761  0.0449
  788MPD2     H11673   1.380   2.634   0.328  0.5218  1.5696  0.0026
  788MPD2    H111674   1.514   2.994   0.519 -0.4070  0.0232  2.5535
  788MPD2    H211675   1.441   2.657   0.750 -2.9563  1.2509  1.0172
  788MPD2    H311676   1.490   2.900   0.726  0.2467 -0.0996 -0.0840
  788MPD2     N11677   1.455   2.883   0.279  1.1038 -0.0510 -0.1907
  788MPD2    H511678   1.524   2.957   0.272  1.6944 -0.5876  0.0124
  788MPD2    N111679   1.363   2.494   0.562  0.0172  0.0903  0.5871
  788MPD2    H711680   1.370   2.452   0.654  0.7791  0.1653  0.5632
  789MPD2     C11681   1.185   1.579  16.685 -0.7448  0.1940 -0.3881
  789MPD2    C111682   1.122   1.552  16.561 -0.9525  0.4460  0.2591
  789MPD2    C211683   1.003   1.616  16.531  0.5108  0.4088  0.2011
  789MPD2    C311684   0.952   1.712  16.610  0.1503 -0.4294  0.4099
  789MPD2    C411685   1.029   1.759  16.721  0.2412  0.1727 -0.3631
  789MPD2    C511686   1.140   1.686  16.764 -0.4819 -0.0591 -0.0619
  789MPD2     H11687   0.946   1.583  16.445 -0.4061 -2.5779  1.9663
  789MPD2    H111688   1.002   1.838  16.790  1.9767  0.8733 -0.4883
  789MPD2    H211689   1.280   1.538  16.719 -1.1956  0.3802  1.0895
  789MPD2    H311690   1.196   1.726  16.848 -1.0512 -1.4472  0.9797
  789MPD2     N11691   0.823   1.762  16.595 -0.9551  0.5274  0.3168
  789MPD2    H511692   0.789   1.836  16.657 -0.6191  1.4769 -0.6359
  789MPD2    N111693   1.172   1.453  16.474 -0.3012 -0.2009 -0.1479
  789MPD2    H711694   1.133   1.435  16.382  0.2909 -1.0586 -0.2285
  790MPD2     C11695   1.994   3.668  13.514 -0.8360  0.2610 -0.3084
  790MPD2    C111696   2.059   3.543  13.507  0.9144  0.1175 -0.1909
  790MPD2    C211697   2.014   3.456  13.415  0.4740 -0.1428 -0.3855
  790MPD2    C311698   1.909   3.483  13.334  0.3799  0.1139 -0.5874
  790MPD2    C411699   1.847   3.606  13.337 -0.0531  0.3479 -0.7007
  790MPD2    C511700   1.898   3.701  13.424 -0.5340 -0.1285  0.1514
  790MPD2     H11701   2.058   3.357  13.410  2.0451  0.5228  0.4211
  790MPD2    H111702   1.761   3.635  13.277 -0.6846 -0.6785 -0.2874
  790MPD2    H211703   2.028   3.744  13.584  1.3758 -1.3145  0.3408
  790MPD2    H311704   1.851   3.798  13.432 -0.9978 -0.3736  0.3710
  790MPD2     N11705   1.858   3.379  13.246  0.2617 -0.1618 -0.1668
  790MPD2    H511706   1.908   3.292  13.228  0.1956 -0.6568  2.0724
  790MPD2    N111707   2.163   3.518  13.594  1.0823 -0.4076  0.0422
  790MPD2    H711708   2.184   3.590  13.663  0.0240  0.3422 -0.4066
  791MPD2     C11709   1.196   3.415  12.917  0.2022 -0.5563  0.2623
  791MPD2    C111710   1.245   3.295  12.879 -0.3614 -0.7635 -0.5852
  791MPD2    C211711   1.164   3.215  12.797  0.2622 -0.1757 -0.4666
  791MPD2    C311712   1.036   3.247  12.750  0.5413 -0.4524  0.1940
  791MPD2    C411713   0.992   3.370  12.785  0.3549 -0.3252  0.4386
  791MPD2    C511714   1.074   3.454  12.863  0.4531  0.3740 -0.6714
  791MPD2     H11715   1.197   3.113  12.785  1.3873  0.1446 -0.1153
  791MPD2    H111716   0.895   3.410  12.760 -0.9875 -3.0474  1.2667
  791MPD2    H211717   1.243   3.488  12.983  0.9722 -0.0769 -0.8069
  791MPD2    H311718   1.045   3.554  12.895  1.6646  0.3102  0.6450
  791MPD2     N11719   0.969   3.149  12.674 -0.3199 -0.4093 -0.3680
  791MPD2    H511720   1.009   3.060  12.647  1.9791  0.3310  0.6324
  791MPD2    N111721   1.371   3.259  12.930 -0.0787  0.9312  0.3515
  791MPD2    H711722   1.418   3.322  12.994 -0.0842  1.2039  0.0868
  792MPD2     C11723   2.478   3.564  10.670  0.7252  0.8822 -0.0665
  792MPD2    C111724   2.362   3.636  10.644  0.6548 -0.2531 -0.5088
  792MPD2    C211725   2.238   3.582  10.682  0.0979 -0.6601  0.4579
  792MPD2    C311726   2.220   3.452  10.731  0.2235  0.3886  0.6849
  792MPD2    C411727   2.337   3.381  10.753  0.3883  0.1349 -0.0472
  792MPD2    C511728   2.459   3.438  10.724 -0.2456 -0.5925 -0.1441
  792MPD2     H11729   2.145   3.633  10.660  0.4140  0.5438  1.8953
  792MPD2    H111730   2.327   3.278  10.784  2.5313 -0.3697 -1.0097
  792MPD2    H211731   2.579   3.602  10.659  1.8397 -2.7747 -2.4217
  792MPD2    H311732   2.549   3.378  10.735  1.0187  0.6859 -3.3414
  792MPD2     N11733   2.102   3.381  10.748  0.7520  0.2440  0.3416
  792MPD2    H511734   2.108   3.285  10.779  0.1733  0.2282  0.4038
  792MPD2    N111735   2.373   3.766  10.580 -0.1115 -0.3631 -0.5089
  792MPD2    H711736   2.465   3.792  10.547  0.5004 -0.5152  1.0898
  793MPD2     C11737   1.461   3.684  10.235 -0.2370 -0.1300  0.7524
  793MPD2    C111738   1.595   3.678  10.257  0.5002 -0.2924 -0.4983
  793MPD2    C211739   1.638   3.636  10.379 -0.2391  0.9117 -0.5305
  793MPD2    C311740   1.551   3.583  10.472 -0.7774 -0.0187 -0.4603
  793MPD2    C411741   1.414   3.595  10.449  0.2023 -0.1747  0.0162
  793MPD2    C511742   1.373   3.646  10.331 -0.1536 -0.3987 -0.2299
  793MPD2     H11743   1.741   3.618  10.406 -0.1894  0.1187 -1.2574
  793MPD2    H111744   1.352   3.555  10.528 -0.9645  0.4070 -0.6080
  793MPD2    H211745   1.423   3.706  10.136 -0.9401  2.2894  1.5408
  793MPD2    H311746   1.271   3.632  10.298  0.7765 -1.8255 -2.5315
  793MPD2     N11747   1.605   3.496  10.561  0.0918  0.3265  0.3289
  793MPD2    H511748   1.706   3.482  10.567  0.2166  1.6645  1.4535
  793MPD2    N111749   1.692   3.719  10.163  0.5245  0.3921 -0.2454
  793MPD2    H711750   1.783   3.734  10.204  0.7634  0.2812 -0.7370
  794MPD2     C11751   2.017   2.236  16.865 -0.0763 -0.4716  0.3024
  794MPD2    C111752   2.056   2.344  16.938  0.0783  0.5911 -1.0841
  794MPD2    C211753   2.149   2.431  16.878 -0.3685  0.3698  0.2688
  794MPD2    C311754   2.203   2.407  16.753  0.3188  0.0808 -0.2940
  794MPD2    C411755   2.162   2.298  16.686  0.1484  0.6876 -0.1071
  794MPD2    C511756   2.066   2.215  16.739  0.6925  0.2463  0.1337
  794MPD2     H11757   2.181   2.521  16.930 -2.1755  1.2376 -0.1333
  794MPD2    H111758   2.191   2.269  16.586  3.2624  2.4208  0.2973
  794MPD2    H211759   1.940   2.167  16.899 -1.2640  0.3894 -0.6299
  794MPD2    H311760   2.030   2.132  16.679  2.1784 -0.5368  0.3313
  794MPD2     N11761   2.281   2.495  16.678  0.5442 -0.2239  0.6974
  794MPD2    H511762   2.287   2.482  16.577 -0.7335  1.8928  0.3470
  794MPD2    N111763   2.014   2.364  17.073  0.4836 -0.1780 -0.0208
  794MPD2    H711764   2.053   2.438  17.129 -1.5583  1.8268 -1.2948
  795MPD2     C11765   4.212   0.063  13.360  0.3444 -0.1649 -0.0695
  795MPD2    C111766   4.162   4.678  13.336 -0.1547 -0.4800 -0.5765
  795MPD2    C211767   4.225   4.576  13.402 -0.1768  0.5874 -0.3646
  795MPD2    C311768   4.345   4.593  13.470  0.4587 -0.0003  0.0941
  795MPD2    C411769   4.406   4.715  13.475 -0.2694  0.7925  0.9041
  795MPD2    C511770   4.331   0.078  13.423  0.2581  0.3883  0.1096
  795MPD2     H11771   4.187   4.478  13.377 -3.1053  1.8848 -1.0750
  795MPD2    H111772   4.498   4.736  13.528  0.5642  2.0444 -1.0583
  795MPD2    H211773   4.157   0.151  13.330 -1.4767 -0.6202  1.9061
  795MPD2    H311774   4.375   0.176  13.438 -1.4790  1.6633 -3.0404
  795MPD2     N11775   4.404   4.491  13.544  0.0743  0.4996  0.3116
  795MPD2    H511776   4.494   4.513  13.583 -0.7266  3.3400  0.5386
  795MPD2    N111777   4.047   4.647  13.258 -0.4652  0.3554 -0.0921
  795MPD2    H711778   4.015   4.551  13.263  0.9015 -0.1189 -0.4915
  796MPD2     C11779   3.636   1.224  15.848 -0.2543  0.1894 -0.1066
  796MPD2    C111780   3.770   1.248  15.848  0.4882 -0.3507 -0.3420
  796MPD2    C211781   3.817   1.346  15.769 -0.0057 -0.1598 -0.2637
  796MPD2    C311782   3.728   1.434  15.702 -0.5584  0.6271  0.4866
  796MPD2    C411783   3.587   1.403  15.702 -0.8739  0.4088  0.1801
  796MPD2    C511784   3.550   1.299  15.779 -0.0310  0.7813  0.4379
  796MPD2     H11785   3.921   1.374  15.784  0.0088 -0.8146  0.7943
  796MPD2    H111786   3.511   1.460  15.649  0.9962 -0.0643 -2.9836
  796MPD2    H211787   3.583   1.152  15.910  0.4566  0.0707  0.3655
  796MPD2    H311788   3.449   1.259  15.784  0.0432  0.4786 -0.4777
  796MPD2     N11789   3.782   1.556  15.644 -0.0857 -0.0942  0.2401
  796MPD2    H511790   3.882   1.569  15.650  0.4814 -2.7497 -3.1302
  796MPD2    N111791   3.847   1.163  15.932 -0.9242  0.8777  0.2142
  796MPD2    H711792   3.803   1.098  15.997  0.0454  0.2274  0.2259
  797MPD2     C11793   0.082   1.191  17.547 -0.0210  1.1789  0.5470
  797MPD2    C111794   0.188   1.262  17.489  0.5103  0.1914 -0.2341
  797MPD2    C211795   0.183   1.327  17.368  0.6593 -0.4426 -0.2218
  797MPD2    C311796   0.061   1.329  17.305  0.2986 -0.4305  1.1420
  797MPD2    C411797   4.691   1.278  17.367 -1.0440 -0.0652 -0.0643
  797MPD2    C511798   4.704   1.199  17.482 -0.0226  0.7019  0.2237
  797MPD2     H11799   0.268   1.371  17.318 -0.5470  0.6300 -1.3172
  797MPD2    H111800   4.595   1.285  17.319 -0.4586  0.4160 -1.1758
  797MPD2    H211801   0.096   1.125  17.632 -1.4523 -1.5067 -1.3123
  797MPD2    H311802   4.617   1.150  17.523  0.1779  0.1334 -0.0341
  797MPD2     N11803   0.057   1.385  17.180  0.6679 -0.2030 -0.3121
  797MPD2    H511804   0.148   1.410  17.142  0.6455  2.6622  1.4519
  797MPD2    N111805   0.316   1.268  17.540  0.1018 -0.2612  0.4448
  797MPD2    H711806   0.390   1.307  17.483  0.6096 -0.5786  0.8889
  798MPD2     C11807   0.662   1.671  17.052  0.7751 -0.3281 -0.2914
  798MPD2    C111808   0.558   1.585  17.080  0.2380 -0.4576 -0.7120
  798MPD2    C211809   0.568   1.511  17.191  0.3675  0.9522 -0.7739
  798MPD2    C311810   0.663   1.530  17.283  0.5870 -0.6142 -0.3059
  798MPD2    C411811   0.764   1.623  17.256  0.2857  0.3277 -0.0565
  798MPD2    C511812   0.768   1.685  17.135  0.1318  0.4947  0.2805
  798MPD2     H11813   0.481   1.451  17.216 -0.0389  2.1057  0.5615
  798MPD2    H111814   0.850   1.634  17.320  1.1207 -1.1159 -0.9200
  798MPD2    H211815   0.656   1.724  16.957 -1.8613 -0.5673 -0.2528
  798MPD2    H311816   0.862   1.725  17.099 -0.9859  3.5329  0.6998
  798MPD2     N11817   0.655   1.452  17.406 -0.4559  0.0370 -0.2020
  798MPD2    H511818   0.572   1.395  17.412 -0.9766  0.9223  0.9587
  798MPD2    N111819   0.455   1.580  16.982 -0.7539 -0.1950  0.0460
  798MPD2    H711820   0.452   1.642  16.902  0.4207  1.8426  1.5907
  799MPD2     C11821   3.851   2.525  14.607  0.0972 -0.0594 -0.0677
  799MPD2    C111822   3.770   2.452  14.515  0.3611 -0.5961 -0.1716
  799MPD2    C211823   3.738   2.508  14.391  0.2290 -0.3433 -0.0102
  799MPD2    C311824   3.775   2.641  14.363 -0.5114  0.4560  0.6438
  799MPD2    C411825   3.871   2.705  14.443 -0.5518 -0.3470 -0.5090
  799MPD2    C511826   3.900   2.642  14.562  0.2691  0.2511  0.4503
  799MPD2     H11827   3.682   2.448  14.320  0.8948  1.2851 -1.9189
  799MPD2    H111828   3.915   2.804  14.438 -0.7843 -0.2599 -0.8203
  799MPD2    H211829   3.862   2.493  14.710 -1.2888 -1.8951 -0.4973
  799MPD2    H311830   3.941   2.709  14.637  0.2916  0.9153 -0.1530
  799MPD2     N11831   3.732   2.700  14.241  0.7470 -0.4477 -0.0183
  799MPD2    H511832   3.790   2.778  14.215 -0.5319  0.3281 -0.5188
  799MPD2    N111833   3.725   2.319  14.543  0.1844 -0.5321 -0.2858
  799MPD2    H711834   3.659   2.270  14.483  0.6747 -1.3255 -0.1684
  800MPD2     C11835   3.994   3.943  14.273  1.1137 -0.2716 -0.3381
  800MPD2    C111836   4.106   3.866  14.235 -0.2729  0.0641 -0.3861
  800MPD2    C211837   4.083   3.737  14.184 -0.1429 -0.0210  0.1956
  800MPD2    C311838   3.948   3.709  14.157 -0.7212 -0.1886 -0.7708
  800MPD2    C411839   3.842   3.797  14.178 -0.3226 -0.6207 -0.8317
  800MPD2    C511840   3.864   3.913  14.242  0.2811 -0.0287 -0.0453
  800MPD2     H11841   4.159   3.665  14.158  0.1020  0.5327 -0.5984
  800MPD2    H111842   3.737   3.780  14.158 -0.4839 -0.3931 -0.1969
  800MPD2    H211843   4.012   4.045  14.306  0.1504 -1.0002  2.4746
  800MPD2    H311844   3.796   3.997  14.250 -0.5178 -0.9725  2.8774
  800MPD2     N11845   3.928   3.588  14.082 -0.2841 -0.1200 -0.7058
  800MPD2    H511846   4.012   3.538  14.053 -1.8460 -2.5417 -1.0629
  800MPD2    N111847   4.236   3.919  14.249  0.0800 -0.0365 -0.4754
  800MPD2    H711848   4.254   4.015  14.275  1.0906 -0.6254  1.0284
  801MPD2     C11849   4.531   4.456  13.931  0.3111  0.0878 -0.2567
  801MPD2    C111850   4.442   4.397  14.012  0.0561  0.4069  0.2387
  801MPD2    C211851   4.309   4.449  14.014 -0.3844  0.3634 -0.0594
  801MPD2    C311852   4.277   4.564  13.947  0.0006 -0.3957 -1.0236
  801MPD2    C411853   4.362   4.619  13.855 -0.7287 -0.5506  0.2301
  801MPD2    C511854   4.488   4.564  13.846 -0.4302  1.3691  0.6839
  801MPD2     H11855   4.229   4.401  14.070  0.2394  0.3811  0.8572
  801MPD2    H111856   4.334   4.709  13.802  1.3745  0.4648  0.8551
  801MPD2    H211857   4.635   4.429  13.927  0.1785 -0.3771 -0.6014
  801MPD2    H311858   4.552   4.608  13.771 -0.2210  0.7450  0.4927
  801MPD2     N11859   4.156   4.629  13.965 -0.1040 -0.0285 -1.0746
  801MPD2    H511860   4.124   4.696  13.896 -1.6621 -0.7679 -1.0666
  801MPD2    N111861   4.458   4.282  14.100  0.2288  0.2974  0.2758
  801MPD2    H711862   4.380   4.245  14.154 -0.4854  0.0569 -0.9135
  802MPD2     C11863   4.455   0.898  17.727 -0.5878 -0.9579 -0.2403
  802MPD2    C111864   4.404   0.795  17.653  0.3515  0.0285  0.1797
  802MPD2    C211865   4.491   0.706  17.594  0.7449 -0.5636 -0.9438
  802MPD2    C311866   4.632   0.725  17.610 -0.4985 -0.4171  0.2569
  802MPD2    C411867   4.679   0.833  17.683  0.6135 -0.0737 -0.1771
  802MPD2    C511868   4.590   0.902  17.749 -0.5054  0.2126  0.1134
  802MPD2     H11869   4.459   0.619  17.537  1.6367 -0.9422 -0.8626
  802MPD2    H111870   0.044   0.848  17.692  0.4589  1.8439 -1.5934
  802MPD2    H211871   4.392   0.957   0.028  1.5155 -0.1366  1.0427
  802MPD2    H311872   4.617   0.987   0.045 -0.3040  0.3077 -0.1086
  802MPD2     N11873   4.724   0.640  17.541 -0.2370 -0.3909  0.0551
  802MPD2    H511874   4.685   0.590  17.462 -0.1660  1.2528 -1.0245
  802MPD2    N111875   4.265   0.775  17.637  0.1951  0.1990 -0.4869
  802MPD2    H711876   4.237   0.696  17.579 -0.1453  0.4319 -0.6363
  803MPD2     C11877   0.078   3.689  11.252  0.3291 -0.2408 -0.6568
  803MPD2    C111878   0.188   3.701  11.340  0.0071  0.3524 -0.7659
  803MPD2    C211879   0.181   3.640  11.465  0.0190 -0.3173 -0.3674
  803MPD2    C311880   0.066   3.566  11.505 -0.8166  0.0479 -1.1614
  803MPD2    C411881   4.702   3.557  11.416 -0.1022 -0.5508  0.1680
  803MPD2    C511882   4.706   3.625  11.296  0.2221  0.0476  0.4645
  803MPD2     H11883   0.264   3.647  11.534  0.5747 -0.8756 -0.9818
  803MPD2    H111884   4.607   3.512  11.442  0.3941 -1.1080  1.0360
  803MPD2    H211885   0.074   3.746  11.160 -0.4163 -0.5709 -0.8314
  803MPD2    H311886   4.616   3.629  11.236  0.4288 -1.7623  0.0356
  803MPD2     N11887   0.055   3.483  11.622  0.6158  0.6127 -0.5306
  803MPD2    H511888   4.719   3.419  11.627 -1.4253  3.0994 -0.1632
  803MPD2    N111889   0.303   3.766  11.301  0.1474  0.7127  0.1865
  803MPD2    H711890   0.378   3.766  11.370  1.6448 -1.1731 -1.4393
  804MPD2     C11891   4.057   4.223  16.648 -0.1188 -0.0830  0.5869
  804MPD2    C111892   4.057   4.200  16.785 -0.0917  0.5764  0.4063
  804MPD2    C211893   4.149   4.263  16.867 -0.2509  0.2935 -0.0144
  804MPD2    C311894   4.257   4.325  16.807 -0.2447  0.3239  0.1189
  804MPD2    C411895   4.251   4.354  16.673 -0.2509 -0.1209  0.3028
  804MPD2    C511896   4.145   4.311  16.599  0.3006  0.3696 -0.4929
  804MPD2     H11897   4.148   4.251  16.974  1.0415 -0.2696 -0.0704
  804MPD2    H111898   4.314   4.426  16.622  1.3801 -1.0313  1.0492
  804MPD2    H211899   3.974   4.188  16.588  0.5309 -0.2520 -0.2110
  804MPD2    H311900   4.141   4.342  16.495  0.2043 -1.3751 -1.0078
  804MPD2     N11901   4.369   4.356  16.890  0.9156 -0.0522 -0.6063
  804MPD2    H511902   4.381   4.310  16.980 -1.1620 -0.5723 -0.5974
  804MPD2    N111903   3.983   4.098  16.846 -0.0252 -0.3473 -0.2200
  804MPD2    H711904   4.003   4.084  16.945 -0.1036 -2.9489 -0.5490
  805MPD2     C11905   3.657   2.976  15.355 -0.3588  0.1891 -0.1874
  805MPD2    C111906   3.733   2.880  15.298  0.4049  0.1238 -0.4243
  805MPD2    C211907   3.850   2.844  15.364 -0.6828  0.8740  0.8805
  805MPD2    C311908   3.889   2.911  15.479 -0.4101 -0.2309 -0.4080
  805MPD2    C411909   3.803   3.000  15.541 -0.1354  0.4939 -1.3079
  805MPD2    C511910   3.684   3.024  15.479  0.4118  0.2019 -0.2292
  805MPD2     H11911   3.918   2.767  15.330  0.1372  1.3084  1.5598
  805MPD2    H111912   3.835   3.041  15.636 -2.6108 -1.1456  0.2348
  805MPD2    H211913   3.571   3.026  15.311 -0.8802 -0.8472 -0.3615
  805MPD2    H311914   3.621   3.104  15.517 -2.0232 -2.3696  1.1612
  805MPD2     N11915   4.020   2.887  15.525 -0.6169  0.2067 -0.5508
  805MPD2    H511916   4.060   2.798  15.497 -1.2654  0.0472 -0.9872
  805MPD2    N111917   3.705   2.813  15.174  0.0324 -0.4582  0.1931
  805MPD2    H711918   3.782   2.773  15.123 -0.0271  1.9154 -1.7747
  806MPD2     C11919   4.656   2.313   0.597  0.1751  0.1098 -0.0603
  806MPD2    C111920   4.636   2.433   0.546 -0.6830  0.1024  0.1882
  806MPD2    C211921   4.586   2.448   0.415 -0.4746  0.1537 -0.1002
  806MPD2    C311922   4.558   2.336   0.336 -0.1910 -0.0636  0.4051
  806MPD2    C411923   4.589   2.217   0.388  0.3235 -0.3917  0.2198
  806MPD2    C511924   4.631   2.204   0.514 -0.3945  0.4470  0.9442
  806MPD2     H11925   4.575   2.547   0.372 -0.0120  0.5610  0.6975
  806MPD2    H111926   4.564   2.121   0.344 -0.6768  0.7480 -1.7002
  806MPD2    H211927   4.689   2.290   0.698  2.2920  1.4218 -0.4621
  806MPD2    H311928   4.642   2.104   0.554 -0.7197  1.6682  4.0872
  806MPD2     N11929   4.497   2.357   0.214  0.1863 -0.6941  0.5454
  806MPD2    H511930   4.478   2.451   0.182 -1.4542 -1.0080  0.5942
  806MPD2    N111931   4.679   2.536   0.628  0.0921 -0.0569  0.2756
  806MPD2    H711932   4.725   2.512   0.716 -1.3578 -0.5180  0.9069
  807MPD2     C11933   0.161   2.678   1.305  0.1015 -0.1195  0.2877
  807MPD2    C111934   0.054   2.686   1.224 -0.0528 -0.4392 -0.0273
  807MPD2    C211935   4.672   2.677   1.277 -0.0898  0.2266  0.1576
  807MPD2    C311936   4.661   2.670   1.415  0.2096 -0.4832 -0.1080
  807MPD2    C411937   0.028   2.661   1.501 -0.0364  0.2590 -0.3523
  807MPD2    C511938   0.153   2.665   1.438  0.0768 -0.2692 -0.0052
  807MPD2     H11939   4.583   2.677   1.215  0.4980  0.0191 -0.6938
  807MPD2    H111940   0.020   2.647   1.608 -0.5280 -0.8910 -0.5443
  807MPD2    H211941   0.265   2.673   1.272 -0.0969 -0.0333 -0.3522
  807MPD2    H311942   0.249   2.666   1.488 -0.2885  2.2677  0.6029
  807MPD2     N11943   4.531   2.670   1.468 -0.2490  0.8474 -0.3251
  807MPD2    H511944   4.445   2.674   1.413 -0.3684  5.1152  0.1597
  807MPD2    N111945   0.067   2.711   1.086 -0.1970 -0.3332 -0.5396
  807MPD2    H711946   4.729   2.709   1.024 -2.7215 -0.8244  2.7163
  808MPD2     C11947   4.481   3.767   9.713 -0.6541 -0.6154 -0.7508
  808MPD2    C111948   4.449   3.788   9.582  0.3454 -0.3856 -0.5611
  808MPD2    C211949   4.460   3.914   9.527 -0.0220  0.0090  0.4266
  808MPD2    C311950   4.484   4.022   9.607 -0.2161 -0.4320  0.1608
  808MPD2    C411951   4.516   4.003   9.735  0.0472  0.7061  0.8658
  808MPD2    C511952   4.513   3.876   9.791  0.4322  0.3441 -0.1941
  808MPD2     H11953   4.438   3.934   9.423 -0.1875 -1.7642  0.1255
  808MPD2    H111954   4.543   4.089   9.795  1.8451  1.2201 -0.7178
  808MPD2    H211955   4.464   3.667   9.749  1.9659 -1.5628 -2.1991
  808MPD2    H311956   4.544   3.862   9.893  0.6070  0.7730 -0.1879
  808MPD2     N11957   4.489   4.152   9.554 -0.0032 -0.2058  0.0326
  808MPD2    H511958   4.504   4.226   9.622 -0.7905  0.7123 -0.7934
  808MPD2    N111959   4.391   3.682   9.509 -0.1192  0.0672  0.3261
  808MPD2    H711960   4.387   3.700   9.409 -1.9947  0.9266  0.5605
  809MPD2     C11961   0.258   0.145   9.164  0.6406  0.1014 -0.4673
  809MPD2    C111962   0.219   0.139   9.294  0.4123 -0.1990 -0.5753
  809MPD2    C211963   0.105   0.065   9.321  0.4471 -0.6139  0.1281
  809MPD2    C311964   0.048   4.724   9.223 -0.1218  0.3522  0.1279
  809MPD2    C411965   0.097   4.727   9.095 -0.2319 -1.0953  0.0958
  809MPD2    C511966   0.201   0.069   9.066  0.1748 -0.2537 -0.2541
  809MPD2     H11967   0.066   0.062   9.422 -0.3916  0.5622 -0.1615
  809MPD2    H111968   0.048   4.672   9.015 -0.5432  0.7235 -0.9726
  809MPD2    H211969   0.354   0.194   9.147  0.6522  0.2612  0.0617
  809MPD2    H311970   0.246   0.064   8.968  0.4662 -0.2005 -0.1237
  809MPD2     N11971   4.683   4.640   9.260  0.2740  0.2321  0.7084
  809MPD2    H511972   4.663   4.624   9.358 -1.9061  0.7576  0.3299
  809MPD2    N111973   0.279   0.210   9.399  0.1265  0.2583 -0.1775
  809MPD2    H711974   0.228   0.210   9.487  1.4925  0.1485  0.6200
  810MPD2     C11975   3.859   3.587  10.520  0.4264  0.6323 -0.2071
  810MPD2    C111976   3.889   3.639  10.398 -0.1456  0.4415  0.1215
  810MPD2    C211977   3.892   3.779  10.378 -0.1332  0.2788 -0.7216
  810MPD2    C311978   3.845   3.867  10.477 -0.0288  0.4677  0.7791
  810MPD2    C411979   3.826   3.821  10.604  0.0700 -0.7946  0.3845
  810MPD2    C511980   3.840   3.684  10.623 -0.3746 -0.3478  0.0610
  810MPD2     H11981   3.907   3.812  10.276  2.0187  0.4432 -0.3436
  810MPD2    H111982   3.812   3.887  10.689  1.1887 -0.6666  0.4684
  810MPD2    H211983   3.859   3.481  10.542  0.9711  0.4190 -1.2389
  810MPD2    H311984   3.810   3.641  10.718  0.3722  2.1454  1.4289
  810MPD2     N11985   3.815   4.005  10.457  0.1071  0.5512  0.0332
  810MPD2    H511986   3.783   4.047  10.544  0.1060 -1.7066  1.1224
  810MPD2    N111987   3.911   3.542  10.299  0.3436  0.1784  0.1886
  810MPD2    H711988   3.902   3.445  10.326 -0.2771  0.4895  1.1151
  811MPD2     C11989   3.601   3.552   9.446  0.1513  0.5902 -0.1465
  811MPD2    C111990   3.685   3.606   9.543  0.4446 -0.2044 -0.0012
  811MPD2    C211991   3.675   3.743   9.566  0.2472 -0.5640 -0.1891
  811MPD2    C311992   3.592   3.826   9.491  0.5801 -0.4766  0.1843
  811MPD2    C411993   3.516   3.768   9.389  0.7647  0.4380  0.1739
  811MPD2    C511994   3.527   3.635   9.371  0.4252  0.0520  0.0596
  811MPD2     H11995   3.727   3.790   9.649  1.5767 -1.2745 -0.6061
  811MPD2    H111996   3.455   3.828   9.323  0.4029 -1.5421 -1.3130
  811MPD2    H211997   3.605   3.448   9.416  2.1935  0.7754 -0.4732
  811MPD2    H311998   3.477   3.585   9.289 -0.2930 -0.7287  0.9689
  811MPD2     N11999   3.581   3.960   9.534  0.4046  0.1354 -0.6966
  811MPD2    H512000   3.645   3.990   9.606 -0.8776 -0.5669  0.7347
  811MPD2    N112001   3.753   3.519   9.635 -0.1348 -0.6671  0.0054
  811MPD2    H712002   3.731   3.420   9.630  1.2863 -1.1018  2.3978
  812MPD2     C12003   2.961   3.510  11.877 -0.2067 -0.0170  0.1839
  812MPD2    C112004   2.824   3.507  11.891  0.0247 -0.6886  0.7832
  812MPD2    C212005   2.770   3.408  11.974 -0.1504  0.0507 -0.6229
  812MPD2    C312006   2.851   3.319  12.048  0.1236 -0.4444 -0.1267
  812MPD2    C412007   2.990   3.329  12.034  0.2709  0.6245 -0.4525
  812MPD2    C512008   3.042   3.423  11.950  0.4356 -0.4875 -0.0694
  812MPD2     H12009   2.662   3.406  11.981 -0.0802 -2.0782 -0.4204
  812MPD2    H112010   3.057   3.267  12.092  0.1307 -0.5646 -1.5738
  812MPD2    H212011   3.004   3.580  11.807  0.1900 -0.2241  0.2185
  812MPD2    H312012   3.149   3.435  11.936  0.7519 -1.2814  1.7705
  812MPD2     N12013   2.777   3.233  12.131 -0.0426  0.2796 -0.2670
  812MPD2    H512014   2.675   3.236  12.125 -0.0355 -0.2027 -0.6211
  812MPD2    N112015   2.754   3.597  11.814  0.3259  0.0547  0.2968
  812MPD2    H712016   2.802   3.657  11.747  0.1185  1.5592  1.4967
  813MPD2     C12017   1.688   0.584  12.456  0.0152  0.0649 -0.0852
  813MPD2    C112018   1.812   0.573  12.515  0.3622 -0.5866 -0.9144
  813MPD2    C212019   1.829   0.496  12.624  0.1597 -0.3334 -0.1562
  813MPD2    C312020   1.724   0.418  12.671 -0.3790  0.2116  0.5709
  813MPD2    C412021   1.604   0.425  12.607 -0.2998  0.0100  0.3712
  813MPD2    C512022   1.579   0.520  12.510 -0.0572 -0.8340  1.2679
  813MPD2     H12023   1.922   0.507  12.679 -0.3988 -1.2709  0.9760
  813MPD2    H112024   1.523   0.360  12.640  0.9475 -0.3623  2.6765
  813MPD2    H212025   1.668   0.646  12.370  3.1503  0.6605 -0.3558
  813MPD2    H312026   1.480   0.528  12.467 -0.2376 -0.8472  1.6837
  813MPD2     N12027   1.739   0.342  12.790  0.3551 -0.5905  0.0649
  813MPD2    H512028   1.824   0.365  12.840 -0.7308  0.8375  1.2459
  813MPD2    N112029   1.923   0.640  12.454 -0.8276 -0.9212  0.0878
  813MPD2    H712030   1.894   0.710  12.386  0.9882 -1.4243 -1.1838
  814MPD2     C12031   2.423   1.535  12.240 -0.0006 -0.7642  0.2994
  814MPD2    C112032   2.356   1.626  12.165 -0.7598  0.5065 -0.0940
  814MPD2    C212033   2.362   1.754  12.213  0.5583 -0.4242 -0.5986
  814MPD2    C312034   2.434   1.788  12.332  0.7497  0.5993  0.6416
  814MPD2    C412035   2.504   1.690  12.400 -0.0824 -0.2411  0.0703
  814MPD2    C512036   2.494   1.566  12.356 -0.3524 -0.5145 -0.0697
  814MPD2     H12037   2.303   1.831  12.164  0.0975 -1.1649 -1.2102
  814MPD2    H112038   2.560   1.703  12.492  0.2480  1.3657 -0.3626
  814MPD2    H212039   2.419   1.431  12.210 -1.0628 -1.0489  1.4234
  814MPD2    H312040   2.542   1.484  12.408 -1.5144 -0.4126  1.1282
  814MPD2     N12041   2.443   1.920  12.389 -0.4211 -0.1756 -0.0611
  814MPD2    H512042   2.520   1.940  12.452 -1.0863 -1.5294  1.1583
  814MPD2    N112043   2.284   1.598  12.045 -0.5762 -0.0675 -0.3074
  814MPD2    H712044   2.239   1.675  11.996 -1.2906 -1.0939 -1.2870
  815MPD2     C12045   2.901   0.335  11.841  0.2124 -0.0999  0.5978
  815MPD2    C112046   2.785   0.287  11.782  0.1089 -0.5394  0.1788
  815MPD2    C212047   2.656   0.302  11.837 -0.1188 -0.4234  0.4124
  815MPD2    C312048   2.651   0.353  11.963  1.4350 -0.2106  0.8121
  815MPD2    C412049   2.764   0.401  12.027  0.7617 -0.8305 -0.4221
  815MPD2    C512050   2.886   0.398  11.963  1.1780 -0.2126 -0.4997
  815MPD2     H12051   2.565   0.268  11.789  0.6558 -1.1876 -0.5111
  815MPD2    H112052   2.761   0.444  12.126 -1.4069  0.3214 -1.0039
  815MPD2    H212053   2.998   0.330  11.793 -0.7782  0.2472 -1.4559
  815MPD2    H312054   2.977   0.429  12.012  0.9538 -1.6497  0.8277
  815MPD2     N12055   2.527   0.370  12.025  0.1140 -0.7699 -0.4859
  815MPD2    H512056   2.443   0.342  11.974 -1.2475  1.2443  0.6496
  815MPD2    N112057   2.794   0.218  11.657 -0.1965  0.1170 -0.2096
  815MPD2    H712058   2.885   0.184  11.626  0.0285  0.0885  0.4870
  816MPD2     C12059   2.708   4.007  16.912  1.1757  0.5063 -0.3482
  816MPD2    C112060   2.822   4.063  16.851  0.3045 -0.0446  0.0638
  816MPD2    C212061   2.923   3.979  16.818  0.9529 -0.2666 -0.7785
  816MPD2    C312062   2.914   3.847  16.819  0.0224 -0.0559 -0.9064
  816MPD2    C412063   2.809   3.787  16.884  0.7487  0.0625 -0.0470
  816MPD2    C512064   2.712   3.873  16.940  0.2111  0.3283  0.1980
  816MPD2     H12065   3.015   4.023  16.782  0.5312  0.2691 -1.2084
  816MPD2    H112066   2.803   3.681  16.906 -1.2972  0.7714  2.8114
  816MPD2    H212067   2.620   4.059  16.948  0.4735 -0.4437 -0.6854
  816MPD2    H312068   2.634   3.825  16.998  0.7983  1.6253  2.0327
  816MPD2     N12069   3.014   3.776  16.747  0.2742  0.4695 -0.1100
  816MPD2    H512070   3.087   3.834  16.706 -0.6540  1.8392  0.1417
  816MPD2    N112071   2.824   4.204  16.831 -0.1427  0.0854 -0.1679
  816MPD2    H712072   2.754   4.268  16.867  1.8038  1.7731  0.6364
  817MPD2     C12073   1.728   0.986  10.192 -0.4836  0.1441  0.6181
  817MPD2    C112074   1.754   1.000  10.053 -0.8824  0.4207 -0.0713
  817MPD2    C212075   1.724   1.124   9.995  0.1699 -0.3164  0.5207
  817MPD2    C312076   1.660   1.224  10.064  0.3282 -0.2314 -0.1218
  817MPD2    C412077   1.637   1.203  10.197  0.8056  0.5718  0.3167
  817MPD2    C512078   1.666   1.090  10.262 -0.1974 -0.4533  0.2450
  817MPD2     H12079   1.759   1.133   9.893  0.4283 -1.5824  0.4935
  817MPD2    H112080   1.597   1.278  10.264  0.4344  1.6496 -1.1121
  817MPD2    H212081   1.749   0.896  10.248  1.5426 -1.3220 -2.4546
  817MPD2    H312082   1.643   1.084  10.368 -2.4213  0.4091 -0.1882
  817MPD2     N12083   1.643   1.349  10.005  0.2049  0.4894  0.2587
  817MPD2    H512084   1.673   1.356   9.908  1.1077  1.5316  0.6096
  817MPD2    N112085   1.838   0.914   9.970 -0.2500  0.2114  0.2669
  817MPD2    H712086   1.859   0.954   9.879 -0.8195 -2.3495 -0.9821
  818MPD2     C12087   0.686   1.356   9.872 -0.2171  0.2789 -1.0616
  818MPD2    C112088   0.687   1.292   9.992 -1.1873  0.1601  0.3253
  818MPD2    C212089   0.776   1.191  10.012 -0.0643 -0.2710  0.1484
  818MPD2    C312090   0.878   1.162   9.921 -0.1380  0.6062  0.4806
  818MPD2    C412091   0.883   1.235   9.806 -0.5102  0.1817  0.3145
  818MPD2    C512092   0.779   1.321   9.776  0.4666  0.6414  0.2095
  818MPD2     H12093   0.769   1.140  10.108  1.2498 -0.6697  0.0379
  818MPD2    H112094   0.966   1.224   9.736  0.7089  0.7043  1.6813
  818MPD2    H212095   0.610   1.430   9.853  0.4979  1.2895  0.0460
  818MPD2    H312096   0.786   1.371   9.681 -0.9811 -0.7127 -0.6078
  818MPD2     N12097   0.968   1.052   9.930 -0.1750  0.4280  0.5044
  818MPD2    H512098   1.040   1.049   9.859 -0.1086  0.4143  0.5717
  818MPD2    N112099   0.593   1.317  10.102  0.4771 -0.2784 -0.0969
  818MPD2    H712100   0.590   1.254  10.182 -2.3873 -0.8449 -0.6277
  819MPD2     C12101   4.490   2.057  15.076  0.2816  0.0961  0.0876
  819MPD2    C112102   4.488   1.975  15.188  0.5803  0.2635 -0.4948
  819MPD2    C212103   4.607   1.964  15.261  0.2959 -0.2351 -0.2219
  819MPD2    C312104   4.718   2.037  15.222  0.0083 -0.4672 -0.7777
  819MPD2    C412105   4.716   2.117  15.108 -0.0246  0.7264  0.1367
  819MPD2    C512106   4.605   2.126  15.035  0.3520 -0.6712  0.9227
  819MPD2     H12107   4.615   1.916  15.358 -0.3040  0.2375  0.0595
  819MPD2    H112108   0.065   2.157  15.064 -0.3098  0.4336 -0.7281
  819MPD2    H212109   4.398   2.068  15.020 -0.3892  0.2017  1.2287
  819MPD2    H312110   4.610   2.184  14.944  0.6544 -1.6159  0.3371
  819MPD2     N12111   0.087   2.027  15.301  0.3919  0.2745 -0.4917
  819MPD2    H512112   0.083   1.963  15.381 -1.1292 -1.2855 -1.8263
  819MPD2    N112113   4.360   1.921  15.226 -0.0967 -0.1011 -0.2949
  819MPD2    H712114   4.277   1.961  15.184 -0.3937 -0.0809  0.3151
  820MPD2     C12115   3.443   2.096  14.983  0.7147  0.7465 -0.3634
  820MPD2    C112116   3.564   2.166  14.998  0.4872  1.3598  0.2698
  820MPD2    C212117   3.673   2.091  15.039 -0.1009 -0.1315  0.6112
  820MPD2    C312118   3.661   1.959  15.082  0.7842 -0.0331 -0.7766
  820MPD2    C412119   3.546   1.897  15.058 -0.5687  0.5265  0.0850
  820MPD2    C512120   3.432   1.960  15.016 -0.5116  0.3543  0.4623
  820MPD2     H12121   3.767   2.142  15.051  0.9946 -2.0362  0.1219
  820MPD2    H112122   3.536   1.789  15.068 -0.1072  0.3015 -1.9603
  820MPD2    H212123   3.352   2.149  14.960  0.3541  0.5611  0.6455
  820MPD2    H312124   3.346   1.899  14.990  1.4430 -1.3816 -1.9605
  820MPD2     N12125   3.760   1.883  15.146  0.0257  0.1666 -0.0061
  820MPD2    H512126   3.741   1.784  15.153 -0.5062  0.3346  0.9111
  820MPD2    N112127   3.572   2.297  14.954 -0.5426 -0.2630  0.6379
  820MPD2    H712128   3.490   2.339  14.913  0.5082  1.5824  0.4317
  821MPD2     C12129   3.717   3.703  13.314  0.2412  0.1201  0.8101
  821MPD2    C112130   3.838   3.667  13.358 -0.1736  0.1163 -0.2506
  821MPD2    C212131   3.951   3.702  13.284 -0.2159  0.0887  0.1179
  821MPD2    C312132   3.944   3.773  13.160 -0.1782  0.1698 -0.1963
  821MPD2    C412133   3.817   3.811  13.120 -0.7569  0.0644 -0.1897
  821MPD2    C512134   3.707   3.768  13.197 -0.3476  0.0071  0.9234
  821MPD2     H12135   4.048   3.666  13.319 -0.0698  0.3211 -0.0460
  821MPD2    H112136   3.786   3.859  13.028 -0.4483  1.4906  0.4484
  821MPD2    H212137   3.623   3.683  13.365 -1.1177  1.9207 -0.9918
  821MPD2    H312138   3.606   3.783  13.160 -0.3148  1.5843  1.4661
  821MPD2     N12139   4.061   3.828  13.092  0.2523  0.3776  0.0539
  821MPD2    H512140   4.035   3.887  13.014  2.2590 -0.4280 -1.2140
  821MPD2    N112141   3.849   3.598  13.480  0.2297  0.6501  0.0232
  821MPD2    H712142   3.937   3.547  13.480 -0.9120 -1.3453  0.2591
  822MPD2     C12143   0.302   3.741  15.541 -0.0134  0.0485 -0.3503
  822MPD2    C112144   0.240   3.701  15.661  0.4391  0.3655  0.6713
  822MPD2    C212145   0.149   3.782  15.721  0.3673 -0.7780 -0.1570
  822MPD2    C312146   0.116   3.908  15.683 -0.3126 -0.5160  0.3568
  822MPD2    C412147   0.190   3.952  15.579  0.4336  0.9018  0.2167
  822MPD2    C512148   0.277   3.868  15.510 -0.1649  0.1053 -0.6700
  822MPD2     H12149   0.096   3.730  15.800 -1.1242  0.7526 -0.1512
  822MPD2    H112150   0.183   4.051  15.534  0.3048 -0.5815 -3.0636
  822MPD2    H212151   0.382   3.686  15.494  0.1937  0.2563 -0.2395
  822MPD2    H312152   0.343   3.900  15.430  0.2441 -0.1255 -0.4301
  822MPD2     N12153   0.026   3.974  15.770  0.2064 -0.2495  0.5701
  822MPD2    H512154   4.729   3.919  15.845  1.2820 -0.9024  0.6623
  822MPD2    N112155   0.277   3.583  15.724 -0.1066  0.3912 -0.1642
  822MPD2    H712156   0.242   3.579  15.819 -1.8726  1.1916 -0.7713
  823MPD2     C12157   4.270   4.002  16.414  0.2618  0.5985  0.1876
  823MPD2    C112158   4.377   3.964  16.335 -0.2575  0.3164  0.0811
  823MPD2    C212159   4.475   3.871  16.382  0.1309 -0.3988 -0.0587
  823MPD2    C312160   4.460   3.811  16.506  0.4454 -0.1362 -0.5597
  823MPD2    C412161   4.351   3.839  16.580 -0.6610 -0.1802  0.4764
  823MPD2    C512162   4.258   3.925  16.528 -1.1551 -0.0365  0.1510
  823MPD2     H12163   4.571   3.869  16.332 -0.2814 -1.2897 -0.8031
  823MPD2    H112164   4.336   3.795  16.678 -0.6214 -1.6959 -0.2007
  823MPD2    H212165   4.202   4.084  16.395  0.3592  0.2107 -1.7944
  823MPD2    H312166   4.176   3.955  16.592 -0.0809 -0.2062  1.6161
  823MPD2     N12167   4.558   3.725  16.566 -0.3104 -0.0063  0.2083
  823MPD2    H512168   4.536   3.690  16.658 -0.5577 -0.1187  0.1052
  823MPD2    N112169   4.397   4.041  16.224 -0.0069 -0.9931 -0.3892
  823MPD2    H712170   4.345   4.127  16.213  2.1305  0.2592 -0.7432
  824MPD2     C12171   0.725   2.826  15.675  0.2150 -0.5150  0.8269
  824MPD2    C112172   0.780   2.932  15.744  0.4047 -0.9568  0.1546
  824MPD2    C212173   0.916   2.921  15.772  0.2704 -0.2244 -0.0281
  824MPD2    C312174   0.990   2.808  15.730  0.4127 -0.1118 -0.5463
  824MPD2    C412175   0.932   2.701  15.662 -0.1344 -0.6751  0.4122
  824MPD2    C512176   0.802   2.717  15.638 -0.4542  0.1491 -0.1002
  824MPD2     H12177   0.964   3.004  15.823 -1.1436  1.4027 -1.2985
  824MPD2    H112178   0.982   2.612  15.624 -0.2614 -0.0429 -1.2069
  824MPD2    H212179   0.621   2.821  15.648  0.3193 -0.7581  0.4712
  824MPD2    H312180   0.750   2.643  15.578 -0.1854  0.1763 -0.3651
  824MPD2     N12181   1.130   2.812  15.746  0.6033 -0.0785  0.2541
  824MPD2    H512182   1.166   2.903  15.774 -0.6553  0.1531  1.1095
  824MPD2    N112183   0.702   3.042  15.782 -0.4047  0.0513  0.0766
  824MPD2    H712184   0.748   3.117  15.833 -1.5617  1.6415 -1.2395
  825MPD2     C12185   1.349   2.884  15.047  0.0226 -0.4979 -0.3002
  825MPD2    C112186   1.409   2.950  15.151 -0.6842  0.2696  0.2907
  825MPD2    C212187   1.444   3.080  15.144 -0.3283 -1.0790  0.1720
  825MPD2    C312188   1.431   3.147  15.026 -0.0782  0.3969 -0.1084
  825MPD2    C412189   1.382   3.083  14.919 -0.4412  0.4391 -0.2695
  825MPD2    C512190   1.338   2.950  14.926 -0.2572 -0.8921  1.1825
  825MPD2     H12191   1.488   3.139  15.224 -1.2047 -0.5038  0.2275
  825MPD2    H112192   1.375   3.140  14.827 -0.1051  0.8697 -0.0270
  825MPD2    H212193   1.317   2.781  15.057  0.5616 -0.5045  1.3667
  825MPD2    H312194   1.299   2.904  14.836  0.8072 -1.0612  0.8146
  825MPD2     N12195   1.485   3.280  15.019 -0.8675  0.3037  0.7026
  825MPD2    H512196   1.499   3.321  14.927 -3.2198 -1.2833 -0.3394
  825MPD2    N112197   1.428   2.885  15.276  0.1062 -0.2613  0.9733
  825MPD2    H712198   1.406   2.786  15.264 -1.3868  0.0742  0.9038
  826MPD2     C12199   4.423   2.831  12.905 -0.3216  0.0211  0.6925
  826MPD2    C112200   4.558   2.845  12.933 -0.1896  0.7508  0.4514
  826MPD2    C212201   4.592   2.934  13.038 -0.3352  0.5199 -0.6494
  826MPD2    C312202   4.496   2.995  13.119  0.6210 -0.0542  0.9157
  826MPD2    C412203   4.367   2.967  13.090 -0.0060 -0.2859  0.2285
  826MPD2    C512204   4.333   2.888  12.991 -0.2594 -0.5018  0.3781
  826MPD2     H12205   4.695   2.948  13.068 -0.2659  0.6790 -0.9638
  826MPD2    H112206   4.279   3.009  13.137 -0.1891  0.1247 -0.4788
  826MPD2    H212207   4.381   2.763  12.831  1.1775  1.2986 -1.3062
  826MPD2    H312208   4.225   2.892  12.976 -0.3426 -0.9159  0.8793
  826MPD2     N12209   4.524   3.088  13.222  0.0532  0.1242  0.3549
  826MPD2    H512210   4.441   3.133  13.259  1.4039  3.1392 -0.2562
  826MPD2    N112211   4.641   2.772  12.847 -0.8461  0.0638 -0.7509
  826MPD2    H712212   4.593   2.722  12.773  1.1286 -1.0453 -1.2846
  827MPD2     C12213   1.728   4.462   9.586  0.0001 -0.3605 -0.6247
  827MPD2    C112214   1.643   4.410   9.683  0.7406 -0.2539 -0.3733
  827MPD2    C212215   1.537   4.329   9.639  0.1828  0.1236 -0.7168
  827MPD2    C312216   1.508   4.318   9.509  0.0746  0.3902 -0.0708
  827MPD2    C412217   1.600   4.361   9.413 -0.5914  0.5330  0.5489
  827MPD2    C512218   1.705   4.431   9.454 -0.1869  0.4530 -0.6019
  827MPD2     H12219   1.469   4.282   9.710  1.8881 -0.1725  0.7190
  827MPD2    H112220   1.592   4.336   9.308  1.9632  1.4257  0.1378
  827MPD2    H212221   1.812   4.528   9.601 -1.5873  1.0931  1.8506
  827MPD2    H312222   1.781   4.460   9.382 -0.0131 -0.1836 -0.6802
  827MPD2     N12223   1.382   4.265   9.472  0.3070  0.7127  0.2613
  827MPD2    H512224   1.320   4.221   9.540 -1.9101  1.3162 -1.3731
  827MPD2    N112225   1.679   4.444   9.813  0.2378 -0.2309 -0.2046
  827MPD2    H712226   1.754   4.511   9.825  1.3907 -1.2398 -1.9173
  828MPD2     C12227   0.693   4.051  12.321 -0.3120  0.3984  0.2199
  828MPD2    C112228   0.617   4.125  12.237 -1.2916 -0.2193  1.4430
  828MPD2    C212229   0.669   4.151  12.114 -0.4305  0.2162 -0.3303
  828MPD2    C312230   0.791   4.100  12.076  0.3146  0.2713 -0.2535
  828MPD2    C412231   0.867   4.018  12.158  0.4452  1.0697  0.1191
  828MPD2    C512232   0.816   4.001  12.289  0.0379  0.4349 -0.1108
  828MPD2     H12233   0.614   4.220  12.051 -1.6071 -1.8406 -1.5883
  828MPD2    H112234   0.959   3.975  12.120 -0.4653 -1.6482  1.0174
  828MPD2    H212235   0.660   4.027  12.421 -0.0772  0.7336  0.3751
  828MPD2    H312236   0.880   3.952  12.361 -1.4965  2.1130  2.3841
  828MPD2     N12237   0.839   4.117  11.950 -0.4318  0.2745  0.2628
  828MPD2    H512238   0.938   4.104  11.933 -0.6640  1.4054 -1.9342
  828MPD2    N112239   0.480   4.160  12.261  0.3211  0.4667 -0.1345
  828MPD2    H712240   0.432   4.203  12.183 -0.5279  1.2166  0.7995
  829MPD2     C12241   4.737   4.309  11.578  0.3579  0.1666  0.7203
  829MPD2    C112242   4.637   4.288  11.671  0.6289  0.3885  0.3271
  829MPD2    C212243   4.664   4.259  11.803  0.0860 -0.7565  0.1894
  829MPD2    C312244   0.056   4.246  11.853  0.1192 -0.3413  0.5879
  829MPD2    C412245   0.158   4.262  11.756  0.6365 -0.1541 -0.4596
  829MPD2    C512246   0.121   4.292  11.626  0.3802  0.3479 -0.0279
  829MPD2     H12247   4.580   4.239  11.868 -1.1915  1.3254 -0.8235
  829MPD2    H112248   0.261   4.247  11.784  1.3943  1.5891 -2.3768
  829MPD2    H212249   4.724   4.327  11.472 -1.6732 -0.4380  0.8864
  829MPD2    H312250   0.203   4.290  11.554 -0.4812  2.8284 -1.0808
  829MPD2     N12251   0.098   4.211  11.981 -1.0285 -0.3547  0.1818
  829MPD2    H512252   0.196   4.192  12.000 -0.6768  2.4875  1.2660
  829MPD2    N112253   4.503   4.292  11.629 -0.1923 -0.0954 -0.2605
  829MPD2    H712254   4.485   4.326  11.535 -0.3691 -0.0109 -0.1961
  830MPD2     C12255   0.954   2.108  15.637  0.6484 -0.2450  0.3770
  830MPD2    C112256   0.869   2.151  15.539 -0.7968  0.1586 -0.0647
  830MPD2    C212257   0.901   2.268  15.475 -0.1212 -0.0256 -0.3360
  830MPD2    C312258   1.022   2.329  15.490  0.2883  0.6575  0.0544
  830MPD2    C412259   1.113   2.275  15.573 -0.3193 -0.2701  0.3718
  830MPD2    C512260   1.079   2.168  15.649  0.4240  0.3070 -0.3530
  830MPD2     H12261   0.827   2.307  15.406 -1.9233 -4.4922 -0.9668
  830MPD2    H112262   1.211   2.320  15.592 -0.6287  0.5700 -0.0315
  830MPD2    H212263   0.932   2.024  15.702  0.1061 -1.0020 -0.7820
  830MPD2    H312264   1.157   2.138  15.718 -0.3627  1.1877  0.9106
  830MPD2     N12265   1.065   2.449  15.423  0.8855 -0.0546  0.1431
  830MPD2    H512266   1.156   2.486  15.449  1.2902 -1.8289  1.2259
  830MPD2    N112267   0.744   2.087  15.524 -0.2479  0.0925  0.1147
  830MPD2    H712268   0.723   2.022  15.599  1.8053  0.9485  1.4488
  831MPD2     C12269   0.295   4.117  16.089 -0.2558 -0.0919 -0.3375
  831MPD2    C112270   0.330   4.014  16.011 -0.3213  0.1707 -0.2266
  831MPD2    C212271   0.260   3.897  16.021  0.1639 -0.4218  0.2279
  831MPD2    C312272   0.144   3.886  16.099 -0.2542  0.1599  0.3947
  831MPD2    C412273   0.103   3.994  16.175 -0.2144  0.9122  0.0025
  831MPD2    C512274   0.184   4.104  16.171  0.3972  0.3005 -0.2094
  831MPD2     H12275   0.307   3.811  15.975 -0.9112  0.3788 -2.3466
  831MPD2    H112276   0.017   4.002  16.240  0.8635 -0.9541  1.6337
  831MPD2    H212277   0.343   4.214  16.079 -2.5900  0.9534 -1.2913
  831MPD2    H312278   0.147   4.194  16.220 -0.8366  0.0746 -0.7173
  831MPD2     N12279   0.059   3.771  16.105  0.5236 -0.2574 -0.2226
  831MPD2    H512280   4.703   3.794  16.119 -0.0850 -0.8582 -3.5628
  831MPD2    N112281   0.442   4.033  15.922 -0.0519  0.5628 -0.2065
  831MPD2    H712282   0.459   4.126  15.885  2.7446  0.2941  0.3958
  832MPD2     C12283   4.231   0.453  17.083  0.7931  0.0926  0.3183
  832MPD2    C112284   4.164   0.569  17.043  0.0326 -0.9397  0.5514
  832MPD2    C212285   4.037   0.562  17.008 -0.2507  0.4953  0.6773
  832MPD2    C312286   3.966   0.446  17.009  0.2636 -0.2951 -0.2623
  832MPD2    C412287   4.031   0.333  17.062  0.3994 -0.1172  0.5304
  832MPD2    C512288   4.163   0.338  17.095  0.0386  0.2719  0.9817
  832MPD2     H12289   4.002   0.645  16.947 -0.1970 -0.2194 -0.3248
  832MPD2    H112290   3.988   0.234  17.068 -1.2909  0.6045  0.0601
  832MPD2    H212291   4.335   0.459  17.110  0.8706  1.5503 -0.3420
  832MPD2    H312292   4.225   0.255  17.126 -0.9852 -1.0827 -0.6382
  832MPD2     N12293   3.838   0.434  16.949 -0.0126  0.2237  0.1768
  832MPD2    H512294   3.804   0.343  16.922  2.5043 -0.0307 -2.2144
  832MPD2    N112295   4.242   0.684  17.006  0.8518  0.1112  0.1957
  832MPD2    H712296   4.343   0.679  17.010  0.8484 -0.6059 -0.5006
  833MPD2     C12297   0.889   1.639  12.257 -0.6710 -0.2531 -0.4052
  833MPD2    C112298   0.812   1.755  12.245 -0.0593  0.1981 -0.7751
  833MPD2    C212299   0.869   1.871  12.200  0.6364 -0.6432 -0.4150
  833MPD2    C312300   0.999   1.861  12.158 -0.2518  0.0096 -0.0300
  833MPD2    C412301   1.073   1.744  12.162  0.0405  0.2469  0.0686
  833MPD2    C512302   1.018   1.632  12.216  0.3947  0.5556 -0.0941
  833MPD2     H12303   0.814   1.964  12.195  0.7036 -0.5356  0.7561
  833MPD2    H112304   1.174   1.730  12.126 -0.0658 -0.7826  0.1717
  833MPD2    H212305   0.841   1.551  12.297 -2.1252  0.1298 -1.3147
  833MPD2    H312306   1.075   1.541  12.227  0.7466  0.8685  0.6521
  833MPD2     N12307   1.063   1.969  12.093  0.5688 -0.2842 -0.1014
  833MPD2    H512308   1.145   1.944  12.039  0.0586  0.3066 -1.1627
  833MPD2    N112309   0.671   1.738  12.278  0.5119  0.6089 -0.2659
  833MPD2    H712310   0.641   1.641  12.279 -0.8560  1.0521  1.1358
  834MPD2     C12311   0.924   1.507  11.688  0.4856 -0.1343  0.1324
  834MPD2    C112312   0.867   1.613  11.624  0.8731 -0.1802  0.5741
  834MPD2    C212313   0.930   1.735  11.641 -0.1749  0.4113  1.0858
  834MPD2    C312314   1.037   1.760  11.722  0.0325 -0.3275  0.0748
  834MPD2    C412315   1.101   1.651  11.783 -0.1137 -0.8543  0.1313
  834MPD2    C512316   1.043   1.523  11.768 -0.3227 -0.3239  0.0475
  834MPD2     H12317   0.889   1.820  11.587  1.0628 -0.6534 -1.5150
  834MPD2    H112318   1.184   1.670  11.851 -1.8510 -0.8828  2.2591
  834MPD2    H212319   0.879   1.408  11.683 -2.6602  1.2530  1.2647
  834MPD2    H312320   1.090   1.438  11.816  1.5311  0.2519 -0.7639
  834MPD2     N12321   1.078   1.895  11.717 -0.5109  0.0995 -0.2171
  834MPD2    H512322   1.015   1.960  11.669  0.8185 -0.1686 -2.3361
  834MPD2    N112323   0.755   1.598  11.539  0.1309  0.3242 -0.1977
  834MPD2    H712324   0.733   1.677  11.479  0.3977  0.7923  0.3175
  835MPD2     C12325   0.720   0.060  10.860 -0.2690  0.8961 -0.7076
  835MPD2    C112326   0.580   0.053  10.869 -0.2528  0.0874  0.1515
  835MPD2    C212327   0.518   0.033  10.989 -0.5912  0.0629  0.4338
  835MPD2    C312328   0.592   0.012  11.107 -0.1727 -0.1815  0.3787
  835MPD2    C412329   0.729   0.018  11.096 -0.1296  0.1221 -0.3420
  835MPD2    C512330   0.795   0.051  10.976  0.3324  0.0993 -0.3029
  835MPD2     H12331   0.410   0.035  10.977 -0.3770  0.2131 -1.4361
  835MPD2    H112332   0.781   4.734  11.188 -2.7615  0.8267  1.3286
  835MPD2    H212333   0.774   0.081  10.768  2.0275 -0.9977  0.2155
  835MPD2    H312334   0.903   0.060  10.970  0.4088 -0.2502  0.5196
  835MPD2     N12335   0.534   4.726  11.227 -0.3297 -0.2310  0.0128
  835MPD2    H512336   0.602   4.698  11.298 -0.1648 -1.3778 -0.5900
  835MPD2    N112337   0.488   0.095  10.766 -0.6665 -0.1266  0.9120
  835MPD2    H712338   0.392   0.100  10.798 -0.9171 -1.0534  0.2970
  836MPD2     C12339   4.521   4.699  11.369  0.2078  0.1437  0.0717
  836MPD2    C112340   4.585   4.677  11.490 -0.0273  0.9322  0.7447
  836MPD2    C212341   4.514   4.647  11.607 -0.3723 -0.4300  0.3647
  836MPD2    C312342   4.373   4.642  11.601 -0.0550 -0.5216  0.3227
  836MPD2    C412343   4.311   4.672  11.482  0.5389  0.7913 -0.3396
  836MPD2    C512344   4.385   4.705  11.367  0.4761  0.7972 -0.1939
  836MPD2     H12345   4.570   4.604  11.689 -1.3418 -0.9383  0.7559
  836MPD2    H112346   4.204   4.685  11.474  0.3590 -1.1848 -1.1105
  836MPD2    H212347   4.575   4.735  11.282 -0.8423  0.7344 -0.3390
  836MPD2    H312348   4.336   4.740  11.278 -0.8820  0.5986  0.4795
  836MPD2     N12349   4.289   4.618  11.715  0.1381  0.3202  0.0635
  836MPD2    H512350   4.188   4.626  11.707  0.0063  0.7429  2.1180
  836MPD2    N112351   4.724   4.679  11.482 -0.3215  0.0338 -0.4003
  836MPD2    H712352   0.023   4.678  11.389 -3.4372  0.8712 -1.7944
  837MPD2     C12353   3.799   4.550  10.006 -0.1987 -0.1356 -0.5473
  837MPD2    C112354   3.745   4.604   9.891  0.2443  0.4691  0.2040
  837MPD2    C212355   3.726   4.738   9.878 -0.8549  0.7105  0.3312
  837MPD2    C312356   3.732   0.084   9.984 -0.0907  0.5503  0.3475
  837MPD2    C412357   3.774   0.040  10.107  0.2268 -0.0957  0.0013
  837MPD2    C512358   3.813   4.646  10.110  0.0863 -0.7015  0.6627
  837MPD2     H12359   3.699   0.037   9.781  1.8149  0.9873 -0.2991
  837MPD2    H112360   3.794   0.107  10.190  0.4486 -0.0711 -0.0730
  837MPD2    H212361   3.821   4.446  10.024  0.8349 -0.0687 -1.3612
  837MPD2    H312362   3.857   4.606  10.201 -0.5960 -0.8172  0.9440
  837MPD2     N12363   3.684   0.205   9.950 -0.1245  0.4503 -0.2758
  837MPD2    H512364   3.634   0.201   9.861 -0.0055  1.7366 -0.3954
  837MPD2    N112365   3.709   4.530   9.776 -0.3256 -0.1916 -0.7250
  837MPD2    H712366   3.687   4.573   9.687 -0.5358  2.1412  0.4342
  838MPD2     C12367   2.259   2.993  11.003  0.0879 -0.1113 -0.0855
  838MPD2    C112368   2.160   2.898  11.012  0.3017 -0.5200 -0.3671
  838MPD2    C212369   2.148   2.831  11.133  0.2440 -0.0012  0.1840
  838MPD2    C312370   2.223   2.868  11.250  0.1666 -0.3925 -0.8516
  838MPD2    C412371   2.309   2.971  11.244  0.2413  0.2565 -0.1814
  838MPD2    C512372   2.331   3.029  11.122 -0.4802 -0.5297 -0.1517
  838MPD2     H12373   2.069   2.758  11.145  1.6721 -1.2250  2.2601
  838MPD2    H112374   2.371   3.002  11.327  0.9270  3.6909 -1.9848
  838MPD2    H212375   2.282   3.041  10.908  0.1844 -0.7224 -0.3751
  838MPD2    H312376   2.399   3.113  11.109 -1.7225  0.4234 -0.5167
  838MPD2     N12377   2.197   2.808  11.377 -0.3947  0.0310 -0.7350
  838MPD2    H512378   2.226   2.850  11.465 -1.0742 -0.9608 -0.0390
  838MPD2    N112379   2.087   2.854  10.899 -0.0857 -0.1927  0.1899
  838MPD2    H712380   2.041   2.763  10.899 -1.5376  0.5399 -0.1255
  839MPD2     C12381   1.486   2.401  11.102  0.0631 -0.3531 -0.2291
  839MPD2    C112382   1.567   2.351  11.001  0.1790 -0.0539  0.1182
  839MPD2    C212383   1.626   2.426  10.899  0.8900  0.5380 -0.1824
  839MPD2    C312384   1.583   2.559  10.893 -0.7820  0.8986 -0.1561
  839MPD2    C412385   1.517   2.613  10.998  0.5586 -0.5458 -0.4747
  839MPD2    C512386   1.474   2.537  11.106  0.1268 -0.2756 -1.0205
  839MPD2     H12387   1.696   2.385  10.828 -1.8202 -1.5702 -1.6748
  839MPD2    H112388   1.486   2.716  10.988  0.5918 -0.2307  2.6022
  839MPD2    H212389   1.446   2.334  11.177  0.4795 -0.0371  0.2794
  839MPD2    H312390   1.429   2.584  11.192  4.1315 -0.2272  1.0317
  839MPD2     N12391   1.645   2.645  10.800  0.4826  0.3052  0.6675
  839MPD2    H512392   1.621   2.742  10.818  0.9685  0.3725  0.9566
  839MPD2    N112393   1.626   2.216  11.005 -0.4600  0.6528 -0.0622
  839MPD2    H712394   1.691   2.196  10.930 -1.5099 -1.7736 -0.3150
  840MPD2     C12395   2.282   4.471  10.054 -0.0137 -0.4699  0.2032
  840MPD2    C112396   2.208   4.541  10.137  0.0282  0.4306  0.1360
  840MPD2    C212397   2.270   4.616  10.239  0.5161  0.4493  1.2703
  840MPD2    C312398   2.412   4.611  10.261  0.4416  0.7447 -0.2175
  840MPD2    C412399   2.481   4.535  10.174 -0.2561 -0.5113  0.3130
  840MPD2    C512400   2.417   4.462  10.072 -0.0859  0.8374 -0.1292
  840MPD2     H12401   2.206   4.671  10.307 -1.8232 -0.7658  0.0638
  840MPD2    H112402   2.589   4.532  10.181 -0.3943 -3.7732  1.2453
  840MPD2    H212403   2.253   4.410   9.968 -0.1205 -1.1757  0.7395
  840MPD2    H312404   2.473   4.396  10.006  0.0617  0.6735  0.1585
  840MPD2     N12405   2.488   4.688  10.350  0.3202  0.3562  0.1295
  840MPD2    H512406   2.589   4.685  10.359  0.4848 -1.1347 -2.3049
  840MPD2    N112407   2.068   4.525  10.123  0.4099 -0.0483  0.5812
  840MPD2    H712408   2.048   4.461  10.047 -2.1044  1.1817  0.1988
  841MPD2     C12409   2.687   3.589  14.378 -1.0617  0.3346 -0.3708
  841MPD2    C112410   2.596   3.578  14.484  0.3094  0.2169  0.1797
  841MPD2    C212411   2.628   3.651  14.599  0.6969 -0.2696 -0.1456
  841MPD2    C312412   2.744   3.732  14.604  0.0312  0.2091  0.0412
  841MPD2    C412413   2.835   3.737  14.498  0.7739  0.4530  0.2766
  841MPD2    C512414   2.808   3.659  14.390 -0.2777 -0.4194 -0.0301
  841MPD2     H12415   2.562   3.649  14.684  2.0433 -1.4119  0.8704
  841MPD2    H112416   2.913   3.811  14.490  1.4272  0.0024  2.5411
  841MPD2    H212417   2.664   3.544  14.283 -1.1381 -1.8304  0.6723
  841MPD2    H312418   2.872   3.660  14.302  1.0639  0.8680  0.9637
  841MPD2     N12419   2.754   3.815  14.718  0.0863  0.1124 -0.2312
  841MPD2    H512420   2.686   3.799  14.791  2.3722 -0.6206  1.7163
  841MPD2    N112421   2.468   3.519  14.467  0.2305 -0.4285 -0.1576
  841MPD2    H712422   2.409   3.534  14.549 -0.8514  0.4790 -1.1073
  842MPD2     C12423   3.064   0.154  16.579  0.3289  0.4414  0.1218
  842MPD2    C112424   2.928   0.167  16.609  0.2453  0.4254  0.3100
  842MPD2    C212425   2.893   0.224  16.732  0.3012  0.5148  0.0493
  842MPD2    C312426   2.986   0.280  16.818 -0.2841 -0.1623  0.2290
  842MPD2    C412427   3.120   0.266  16.785 -0.4491 -0.8819  0.0268
  842MPD2    C512428   3.157   0.207  16.671 -0.3460  0.3481  0.4412
  842MPD2     H12429   2.790   0.235  16.761  0.3862  0.4390  0.3754
  842MPD2    H112430   3.200   0.299  16.849  0.2638 -2.0261 -0.2648
  842MPD2    H212431   3.089   0.115  16.481  0.5185  0.2393  0.2488
  842MPD2    H312432   3.263   0.208  16.645 -0.4655  1.4195 -0.0181
  842MPD2     N12433   2.939   0.346  16.933  0.7018  0.2676 -0.1134
  842MPD2    H512434   2.838   0.356  16.944  0.4428  1.5722 -3.4528
  842MPD2    N112435   2.831   0.118  16.521  0.0546 -0.2361  0.3556
  842MPD2    H712436   2.865   0.074  16.436 -0.1646 -0.7625  0.5457
  843MPD2     C12437   0.184   1.818  17.181 -0.0927  0.3441  0.2902
  843MPD2    C112438   0.219   1.765  17.305  0.3590 -0.9323  0.0407
  843MPD2    C212439   0.354   1.775  17.345  0.7023 -0.3070  0.1760
  843MPD2    C312440   0.444   1.854  17.271  0.3697  0.2827  0.7605
  843MPD2    C412441   0.403   1.901  17.148 -0.1707 -0.2458 -0.4814
  843MPD2    C512442   0.273   1.887  17.101 -0.5885  0.2339  0.3085
  843MPD2     H12443   0.392   1.723  17.432 -1.0455 -0.1715  1.0146
  843MPD2    H112444   0.473   1.956  17.086 -0.2622 -1.1422 -1.3668
  843MPD2    H212445   0.087   1.804  17.136  0.1843 -0.5225 -0.0292
  843MPD2    H312446   0.238   1.927  17.007 -2.4198  0.7290  1.1824
  843MPD2     N12447   0.573   1.909  17.311  0.5489 -0.3779  0.2515
  843MPD2    H512448   0.612   1.968  17.238  0.2469 -0.1644  0.2604
  843MPD2    N112449   0.128   1.698  17.381 -0.1877  0.3183 -0.0444
  843MPD2    H712450   0.034   1.700  17.343 -0.1041  1.5484 -0.1849
  844MPD2     C12451   3.839   4.564  16.544  0.4892 -0.1938 -0.3425
  844MPD2    C112452   3.794   4.667  16.468 -0.5281 -0.2546 -0.3372
  844MPD2    C212453   3.831   0.056  16.498 -0.4107  0.4016 -0.7122
  844MPD2    C312454   3.923   0.082  16.597  0.8291 -0.0132 -0.0179
  844MPD2    C412455   3.965   4.721  16.679 -0.7014  0.0330  0.4555
  844MPD2    C512456   3.924   4.594  16.649  0.2300 -0.3628 -0.2092
  844MPD2     H12457   3.795   0.146  16.450 -1.0800  1.0048  0.9068
  844MPD2    H112458   4.006   4.725  16.780 -2.6275 -0.6122  1.2508
  844MPD2    H212459   3.823   4.458  16.527 -0.4390  0.1484 -1.6827
  844MPD2    H312460   3.963   4.518  16.716  1.6796  0.3083 -0.2917
  844MPD2     N12461   3.969   0.216  16.603  0.2023  0.2968 -0.1239
  844MPD2    H512462   3.922   0.284  16.544 -1.2708 -1.0662 -0.5201
  844MPD2    N112463   3.704   4.640  16.360 -0.1363 -0.0397 -0.6404
  844MPD2    H712464   3.663   4.723  16.318 -0.9421 -1.1064 -1.9380
  845MPD2     C12465   3.586   0.990  16.545  0.1037 -0.1324 -0.5314
  845MPD2    C112466   3.693   1.027  16.619 -0.1602 -0.0102  0.4252
  845MPD2    C212467   3.790   0.938  16.635 -0.3223 -0.5183  0.3275
  845MPD2    C312468   3.799   0.819  16.571 -0.4707 -0.1215 -0.0399
  845MPD2    C412469   3.693   0.786  16.496  0.1629 -0.0575 -0.6032
  845MPD2    C512470   3.585   0.870  16.476 -0.6814 -0.1166  0.5567
  845MPD2     H12471   3.878   0.974  16.687 -0.9011 -2.2515  2.4913
  845MPD2    H112472   3.684   0.687  16.453  0.9809  1.4341 -4.2343
  845MPD2    H212473   3.496   1.048  16.530 -0.6860 -1.2713 -0.1788
  845MPD2    H312474   3.502   0.840  16.414 -0.3245 -0.8618  0.4386
  845MPD2     N12475   3.903   0.722  16.574  0.5300 -0.1064 -0.2827
  845MPD2    H512476   3.885   0.631  16.534  0.9447  0.5095 -1.9038
  845MPD2    N112477   3.684   1.149  16.687 -0.2156  0.0381  0.4200
  845MPD2    H712478   3.604   1.208  16.665  1.5474  1.4918 -2.0740
  846MPD2     C12479   0.137   1.187  13.426 -0.2945  0.4763  0.4043
  846MPD2    C112480   0.051   1.293  13.452  0.0333  0.3766  0.2518
  846MPD2    C212481   0.004   1.307  13.585  0.9328  0.1930  0.1942
  846MPD2    C312482   0.046   1.226  13.690 -1.0927 -0.3716  0.5855
  846MPD2    C412483   0.140   1.128  13.661 -0.8672 -0.3719 -0.4414
  846MPD2    C512484   0.180   1.110  13.532  0.5816  0.2339 -0.0720
  846MPD2     H12485   4.676   1.386  13.608 -0.7065 -1.1023 -0.3796
  846MPD2    H112486   0.184   1.054  13.727  1.2453  0.4027 -0.9871
  846MPD2    H212487   0.170   1.161  13.326 -1.2905 -0.0203  0.2142
  846MPD2    H312488   0.263   1.041  13.523  0.8441  0.4912  0.3883
  846MPD2     N12489   4.730   1.249  13.817  0.0603 -0.1439  0.2080
  846MPD2    H512490   4.674   1.331  13.835 -1.5884 -1.1496 -0.3184
  846MPD2    N112491   0.020   1.388  13.354  0.9356 -0.0991  1.0300
  846MPD2    H712492   4.729   1.477  13.391  0.0362 -0.1898  0.4362
  847MPD2     C12493   0.571   1.865  13.862  0.1465  0.1882  0.0721
  847MPD2    C112494   0.624   1.971  13.938  0.1139 -0.4642  0.2697
  847MPD2    C212495   0.681   1.951  14.059  0.5245 -0.7154 -0.3108
  847MPD2    C312496   0.680   1.824  14.116 -0.6855 -0.0957  0.1763
  847MPD2    C412497   0.643   1.715  14.035 -0.5179 -0.2413 -0.2201
  847MPD2    C512498   0.593   1.742  13.908 -0.0104  0.3099 -0.1599
  847MPD2     H12499   0.726   2.030  14.118 -0.5346  0.3398 -0.9224
  847MPD2    H112500   0.653   1.614  14.071 -0.6115 -0.2404 -0.1900
  847MPD2    H212501   0.525   1.879  13.765  0.3233  1.4960  0.1673
  847MPD2    H312502   0.558   1.658  13.849 -1.6042  1.8160 -1.3719
  847MPD2     N12503   0.743   1.811  14.246 -0.0950 -0.6890 -0.4922
  847MPD2    H512504   0.792   1.896  14.273  1.2212 -1.3844 -0.6916
  847MPD2    N112505   0.634   2.102  13.892  0.7076 -0.1553  0.0469
  847MPD2    H712506   0.682   2.160  13.960 -0.9626 -1.6931  2.5251
  848MPD2     C12507   3.202   0.834  16.954  0.3216  0.4108  0.5243
  848MPD2    C112508   3.226   0.799  16.823  1.1523 -0.0534 -0.2817
  848MPD2    C212509   3.143   0.845  16.724 -0.0910  0.0457  0.0858
  848MPD2    C312510   3.033   0.929  16.755  0.0386  0.0724  0.0353
  848MPD2    C412511   3.009   0.959  16.889 -0.1986 -0.0392 -0.1531
  848MPD2    C512512   3.090   0.907  16.989  0.0394 -0.6225  0.6534
  848MPD2     H12513   3.161   0.817  16.621 -1.7906  0.4146 -0.2977
  848MPD2    H112514   2.920   1.017  16.908  1.3962  2.1098  0.7923
  848MPD2    H212515   3.270   0.810  17.035 -0.7409 -1.5842  0.8369
  848MPD2    H312516   3.080   0.942  17.091 -0.5757 -0.3674  0.5012
  848MPD2     N12517   2.946   0.974  16.658 -0.0924 -0.5117  0.2167
  848MPD2    H512518   2.868   1.033  16.683  2.0080  1.9225  1.0316
  848MPD2    N112519   3.339   0.719  16.800 -0.8044  0.7634  0.6689
  848MPD2    H712520   3.388   0.683  16.882  2.4419 -1.7453 -2.3590
  849MPD2     C12521   2.337   0.551  13.610 -1.1102 -0.0416  0.3145
  849MPD2    C112522   2.444   0.467  13.608 -0.1395 -0.4840  0.3543
  849MPD2    C212523   2.427   0.333  13.649  0.7026  1.0639  0.4151
  849MPD2    C312524   2.309   0.294  13.716  0.1960 -0.0675  0.3021
  849MPD2    C412525   2.209   0.389  13.736 -0.3553  0.2426 -0.2004
  849MPD2    C512526   2.227   0.510  13.675  0.3914  0.4750  2.0366
  849MPD2     H12527   2.512   0.267  13.639  0.1664  0.6123 -1.1318
  849MPD2    H112528   2.121   0.364  13.793 -0.7648 -0.9218 -1.3488
  849MPD2    H212529   2.353   0.651  13.569  1.6881 -0.5806  0.1152
  849MPD2    H312530   2.142   0.576  13.683 -0.0796  0.2432 -1.1957
  849MPD2     N12531   2.285   0.165  13.768  0.0134  0.9329  0.2744
  849MPD2    H512532   2.208   0.144  13.830 -0.1117  1.1241  0.1804
  849MPD2    N112533   2.561   0.507  13.539  0.2510 -0.0855  0.6743
  849MPD2    H712534   2.567   0.593  13.486 -0.7461 -0.6970 -0.4227
  850MPD2     C12535   0.474   3.019  14.747 -0.6206  0.6389 -0.1398
  850MPD2    C112536   0.504   3.066  14.873  0.1212 -0.5483  0.6044
  850MPD2    C212537   0.629   3.069  14.917  0.8408  1.4301 -0.0057
  850MPD2    C312538   0.732   3.055  14.831 -0.8092  0.3451  0.8977
  850MPD2    C412539   0.702   2.995  14.713 -0.7774  0.4489 -0.1821
  850MPD2    C512540   0.575   2.973  14.668 -1.0210  0.5379 -0.9758
  850MPD2     H12541   0.640   3.108  15.017 -0.3119  0.3253  0.5495
  850MPD2    H112542   0.773   2.976  14.633 -1.2698  0.5159 -0.6339
  850MPD2    H212543   0.376   3.027  14.701 -0.4743  0.6254 -0.4576
  850MPD2    H312544   0.552   2.940  14.567 -0.6389 -1.9021 -0.2598
  850MPD2     N12545   0.863   3.102  14.852  0.0406 -0.2496  0.1316
  850MPD2    H512546   0.935   3.085  14.782 -0.6166 -2.4447 -0.0033
  850MPD2    N112547   0.405   3.119  14.958 -0.1586 -0.2709 -0.4044
  850MPD2    H712548   0.435   3.121  15.054 -1.4396 -2.7878  0.0781
  851MPD2     C12549   0.689   3.354  15.531  0.8214 -0.3781 -0.2808
  851MPD2    C112550   0.634   3.263  15.434  0.3934  0.1641 -0.0619
  851MPD2    C212551   0.715   3.160  15.382  0.1155 -0.2756  0.2253
  851MPD2    C312552   0.835   3.128  15.434  0.1951  0.1123 -0.0283
  851MPD2    C412553   0.891   3.212  15.529  0.3003  0.5769  0.2661
  851MPD2    C512554   0.823   3.327  15.570 -0.6074  0.1669  0.2618
  851MPD2     H12555   0.679   3.090  15.308 -0.6533  1.1339 -0.7531
  851MPD2    H112556   0.988   3.183  15.568 -0.1813 -1.4807 -0.0763
  851MPD2    H212557   0.636   3.442  15.565 -2.0655 -2.0415 -0.5171
  851MPD2    H312558   0.876   3.386  15.644 -0.1610 -0.4486  0.4312
  851MPD2     N12559   0.894   3.016  15.383 -0.0689 -0.0323 -0.1427
  851MPD2    H512560   0.838   2.963  15.318  1.1946  0.0512 -1.2910
  851MPD2    N112561   0.505   3.282  15.389 -0.0938  0.5227 -0.5880
  851MPD2    H712562   0.454   3.352  15.442 -0.5655 -0.8972  0.8355
  852MPD2     C12563   3.683   1.696   9.779 -0.0443  0.0126 -0.9482
  852MPD2    C112564   3.751   1.655   9.891  0.5955  0.4730 -0.1376
  852MPD2    C212565   3.835   1.740   9.953  0.5116  0.2166 -0.6972
  852MPD2    C312566   3.868   1.863   9.899 -0.2681 -0.2120 -0.0541
  852MPD2    C412567   3.799   1.902   9.788  0.0235 -0.2203 -0.0586
  852MPD2    C512568   3.701   1.823   9.730 -0.6011 -0.5661 -0.3055
  852MPD2     H12569   3.894   1.699  10.035  0.3627  1.2348 -0.0857
  852MPD2    H112570   3.812   1.996   9.735 -1.5976  0.9230  1.5769
  852MPD2    H212571   3.599   1.642   9.736  0.3967 -2.4622  1.3318
  852MPD2    H312572   3.653   1.861   9.640 -3.5107 -0.1729  1.4070
  852MPD2     N12573   3.977   1.930   9.955 -0.2092 -0.2026  0.1524
  852MPD2    H512574   4.006   1.900  10.047  0.1267 -3.5462 -1.0216
  852MPD2    N112575   3.750   1.523   9.931 -0.1643  0.3220 -0.4641
  852MPD2    H712576   3.792   1.498  10.019 -2.0637 -1.0873  0.0581
  853MPD2     C12577   1.362   0.714  12.219 -0.3136  0.4861  0.1460
  853MPD2    C112578   1.453   0.806  12.238  0.2509 -0.3867 -1.3442
  853MPD2    C212579   1.518   0.875  12.129  0.2636  0.0195  0.9775
  853MPD2    C312580   1.465   0.839  12.003 -0.2026 -1.0449 -0.1195
  853MPD2    C412581   1.364   0.749  11.987  0.6411  0.7567  0.2849
  853MPD2    C512582   1.322   0.682  12.094 -0.0643 -0.1264 -0.4606
  853MPD2     H12583   1.599   0.946  12.142  0.6947 -0.1800 -0.5796
  853MPD2    H112584   1.328   0.721  11.889 -0.4283 -1.2141  1.2465
  853MPD2    H212585   1.322   0.658  12.304 -0.6940  1.0039  0.3072
  853MPD2    H312586   1.246   0.608  12.072  0.5303 -0.9579  0.2441
  853MPD2     N12587   1.509   0.900  11.883  0.2484  0.4470 -0.0435
  853MPD2    H512588   1.462   0.898  11.793  0.9927 -0.3743 -0.4135
  853MPD2    N112589   1.469   0.845  12.373 -0.1618  0.6022  0.4742
  853MPD2    H712590   1.402   0.807  12.439  1.2197 -1.8440  0.4549
  854MPD2     C12591   2.702   1.253  12.746  0.0202 -0.0026  0.2656
  854MPD2    C112592   2.816   1.269  12.665 -0.1067 -0.7983  0.3641
  854MPD2    C212593   2.897   1.157  12.651  0.2700 -0.4753 -0.7207
  854MPD2    C312594   2.870   1.036  12.715  0.2179  0.2680  0.2228
  854MPD2    C412595   2.760   1.028  12.795 -0.4181 -0.4616  0.3182
  854MPD2    C512596   2.678   1.134  12.809  0.0600  0.2472  0.0370
  854MPD2     H12597   3.000   1.165  12.617  0.0967 -2.2047 -1.6466
  854MPD2    H112598   2.720   0.935  12.832 -2.6697  0.9848  1.5720
  854MPD2    H212599   2.644   1.344  12.760 -0.4120  0.0371 -1.7656
  854MPD2    H312600   2.585   1.130  12.865 -1.0935  1.3806 -1.7965
  854MPD2     N12601   2.953   0.916  12.711  0.2334 -0.0762  0.5141
  854MPD2    H512602   2.934   0.833  12.765  3.3518 -1.1970 -0.0969
  854MPD2    N112603   2.849   1.400  12.623  0.5834 -0.0338  0.2268
  854MPD2    H712604   2.776   1.469  12.634  0.1935 -0.4975  0.5238
  855MPD2     C12605   3.557   0.762  13.319  0.2157  0.5233  0.4434
  855MPD2    C112606   3.546   0.630  13.275  0.6477 -0.6378  0.3746
  855MPD2    C212607   3.448   0.604  13.177  0.9020 -0.0046 -0.0858
  855MPD2    C312608   3.367   0.704  13.123  0.3387  0.7160  0.0558
  855MPD2    C412609   3.376   0.830  13.178  1.0626 -0.0535 -0.4659
  855MPD2    C512610   3.474   0.864  13.272 -0.3241 -0.9315  0.3039
  855MPD2     H12611   3.435   0.501  13.145 -1.1741 -0.0319  0.8225
  855MPD2    H112612   3.305   0.904  13.142  1.0449 -0.0587 -0.4418
  855MPD2    H212613   3.626   0.792  13.397  0.4429  2.2495 -0.4105
  855MPD2    H312614   3.472   0.966  13.308  1.2860 -0.0479 -2.0359
  855MPD2     N12615   3.282   0.691  13.010  0.1204 -0.0091 -0.6508
  855MPD2    H512616   3.230   0.773  12.980 -1.8995 -1.9472 -2.4708
  855MPD2    N112617   3.625   0.519  13.322  0.1014  0.0597  0.3462
  855MPD2    H712618   3.612   0.431  13.274 -0.1764  0.5722 -0.5106
  856MPD2     C12619   1.394   1.330  14.001 -0.2000  0.1279  0.4232
  856MPD2    C112620   1.426   1.459  13.967 -0.2763 -0.3855 -0.6505
  856MPD2    C212621   1.327   1.535  13.926 -0.2379  0.0669  0.0100
  856MPD2    C312622   1.194   1.490  13.920 -0.2279  1.1535 -0.1173
  856MPD2    C412623   1.159   1.369  13.973  0.1483 -0.0645  0.4770
  856MPD2    C512624   1.264   1.288  14.010  0.0986  0.1253  0.3305
  856MPD2     H12625   1.350   1.627  13.874  0.8201 -0.5127 -0.5553
  856MPD2    H112626   1.059   1.327  13.986 -0.4382  1.4592  0.8918
  856MPD2    H212627   1.474   1.259  14.022  0.8066  0.9022 -0.7619
  856MPD2    H312628   1.239   1.189  14.047 -1.2734  0.7389  1.0298
  856MPD2     N12629   1.093   1.578  13.873 -0.1785  0.7415  0.3944
  856MPD2    H512630   0.998   1.543  13.872  0.1959 -0.2205 -3.1464
  856MPD2    N112631   1.553   1.516  13.976 -0.6329 -0.1358  0.1571
  856MPD2    H712632   1.562   1.612  13.942  0.0087 -0.0134  0.6846
  857MPD2     C12633   2.378   4.034  12.813 -0.2707  0.3010 -0.4676
  857MPD2    C112634   2.510   3.999  12.773  0.3913 -0.2293  0.5124
  857MPD2    C212635   2.607   4.100  12.778  0.0342  0.7382 -0.4586
  857MPD2    C312636   2.576   4.223  12.834  0.4203  0.0368 -0.1812
  857MPD2    C412637   2.450   4.249  12.878 -0.3187 -0.0785  0.9222
  857MPD2    C512638   2.349   4.152  12.874 -0.0473  0.1559  0.1154
  857MPD2     H12639   2.707   4.072  12.748 -0.5163 -1.8269  0.0841
  857MPD2    H112640   2.424   4.335  12.938 -1.2705  1.8110 -2.1967
  857MPD2    H212641   2.300   3.958  12.813 -0.5111  0.5424  0.5980
  857MPD2    H312642   2.249   4.180  12.906  0.5073  1.3601  0.8356
  857MPD2     N12643   2.680   4.315  12.832 -0.0673 -0.7692 -0.0101
  857MPD2    H512644   2.767   4.278  12.796  0.6533  1.8592 -0.9964
  857MPD2    N112645   2.546   3.872  12.732  0.7589  0.6103 -0.4471
  857MPD2    H712646   2.641   3.857  12.702  0.5205 -0.5386 -0.6110
  858MPD2     C12647   3.670   2.409  16.491 -0.6843  0.5488 -0.1976
  858MPD2    C112648   3.720   2.527  16.446 -0.2476  0.4876  0.1068
  858MPD2    C212649   3.786   2.609  16.538 -0.0548  0.6381  0.4133
  858MPD2    C312650   3.779   2.577  16.670 -0.6003 -0.3774  0.1471
  858MPD2    C412651   3.706   2.468  16.714 -0.2997  1.2767 -0.1223
  858MPD2    C512652   3.672   2.371  16.625 -0.2135  0.5242  0.3726
  858MPD2     H12653   3.836   2.701  16.510  0.4157  0.6169  1.1837
  858MPD2    H112654   3.683   2.440  16.816 -1.6420 -2.0820 -1.3554
  858MPD2    H212655   3.647   2.339  16.412 -1.1117  2.1302 -1.4846
  858MPD2    H312656   3.635   2.272  16.649 -1.1715  0.7210 -0.3149
  858MPD2     N12657   3.827   2.662  16.774 -0.2722  0.1522  0.2557
  858MPD2    H512658   3.800   2.648  16.871 -1.1743  0.6572  0.0800
  858MPD2    N112659   3.692   2.568  16.313  0.1191 -0.5950  0.1024
  858MPD2    H712660   3.640   2.502  16.256  0.1040 -0.3411 -0.1795
  859MPD2     C12661   1.972   0.341  15.518 -0.4935  0.1005  0.5368
  859MPD2    C112662   2.076   0.253  15.493  0.1893  0.0780  0.3333
  859MPD2    C212663   2.070   0.121  15.536 -0.0119  0.2082 -0.1595
  859MPD2    C312664   1.963   0.080  15.610 -0.0540 -0.7522 -0.1009
  859MPD2    C412665   1.867   0.173  15.647  0.0147 -0.3806 -0.8022
  859MPD2    C512666   1.869   0.298  15.595 -0.1929  0.3666 -0.2851
  859MPD2     H12667   2.142   0.050  15.498  0.5095  1.7831 -2.1596
  859MPD2    H112668   1.780   0.151  15.707 -0.2001 -0.0557 -0.9894
  859MPD2    H212669   1.971   0.447  15.494 -1.4430  0.3397  1.6145
  859MPD2    H312670   1.786   0.366  15.606 -0.9615 -0.7876  1.0611
  859MPD2     N12671   1.932   4.684  15.633  0.3507  0.0657 -0.5305
  859MPD2    H512672   1.869   4.671  15.711 -0.5335  2.7385 -0.8051
  859MPD2    N112673   2.184   0.310  15.417 -0.1006 -0.8004  0.2273
  859MPD2    H712674   2.171   0.409  15.395 -0.0729 -0.8804 -0.1537
  860MPD2     C12675   4.351   0.347  11.369  0.3566  0.2601  0.2710
  860MPD2    C112676   4.360   0.389  11.501  0.1017  0.1223 -0.0414
  860MPD2    C212677   4.239   0.427  11.564 -0.7680 -0.2622 -0.5793
  860MPD2    C312678   4.125   0.434  11.489 -0.3521  0.2280  0.2235
  860MPD2    C412679   4.128   0.410  11.348 -0.4852  0.3874 -0.0924
  860MPD2    C512680   4.240   0.358  11.296  0.0166  0.0803 -0.0500
  860MPD2     H12681   4.245   0.470  11.664 -2.4198 -1.0722 -0.1406
  860MPD2    H112682   4.038   0.425  11.290 -1.8892  0.0130  1.9635
  860MPD2    H212683   4.440   0.311  11.319  1.8164  1.7202  1.7944
  860MPD2    H312684   4.240   0.324  11.193  1.8913 -0.8131  0.2488
  860MPD2     N12685   4.014   0.493  11.550 -0.1282  0.1718 -0.1759
  860MPD2    H512686   4.025   0.510  11.649  0.3825  1.0702 -0.3939
  860MPD2    N112687   4.478   0.400  11.583  0.4744  0.8421 -0.2939
  860MPD2    H712688   4.455   0.429  11.678 -2.8120  0.4333 -0.9636
  861MPD2     C12689   3.536   3.912  10.692 -0.3416  0.0257 -0.5318
  861MPD2    C112690   3.477   4.015  10.770  0.4548  0.2191  0.3127
  861MPD2    C212691   3.415   4.116  10.695 -0.0546  0.2160 -0.3959
  861MPD2    C312692   3.405   4.107  10.558 -0.9435  0.2987 -0.6039
  861MPD2    C412693   3.474   4.013  10.482 -1.2696 -0.6216 -0.0803
  861MPD2    C512694   3.534   3.910  10.554 -0.6570 -0.6076  0.4499
  861MPD2     H12695   3.374   4.199  10.752  1.4611  1.4911 -1.1830
  861MPD2    H112696   3.477   4.009  10.374  0.4960  0.8327 -0.0802
  861MPD2    H212697   3.574   3.820  10.735  1.5282 -0.0339 -2.3332
  861MPD2    H312698   3.577   3.835  10.489  0.2406  0.1836  0.1444
  861MPD2     N12699   3.332   4.203  10.474  0.0610  0.1182  0.0675
  861MPD2    H512700   3.328   4.179  10.376 -0.1452 -0.1429  0.1400
  861MPD2    N112701   3.472   4.011  10.913 -0.5168  0.4201 -0.7314
  861MPD2    H712702   3.420   4.082  10.963 -0.9101 -1.2623  1.2581
  862MPD2     C12703   2.927   4.135   9.943  0.2914 -0.0635 -0.7379
  862MPD2    C112704   3.000   4.109  10.053  0.0667 -0.2352 -0.3141
  862MPD2    C212705   3.012   3.977  10.100  0.0729 -0.1908 -0.3891
  862MPD2    C312706   2.956   3.875  10.041  0.3543 -0.3640  0.2424
  862MPD2    C412707   2.881   3.898   9.925  0.2549 -0.0118  0.0568
  862MPD2    C512708   2.869   4.031   9.872  0.5952 -0.2447  0.3848
  862MPD2     H12709   3.065   3.956  10.193  4.4068 -1.4206 -3.1415
  862MPD2    H112710   2.836   3.823   9.861  1.7712 -1.6076  0.8767
  862MPD2    H212711   2.910   4.231   9.896 -0.5144 -0.3945 -1.1166
  862MPD2    H312712   2.808   4.048   9.784 -0.9275 -2.2005  1.0537
  862MPD2     N12713   2.954   3.741  10.091  0.2727 -0.5472  0.3783
  862MPD2    H512714   2.893   3.676  10.043  0.7657  0.7831 -2.0838
  862MPD2    N112715   3.066   4.210  10.132  0.0561  0.3422  0.1915
  862MPD2    H712716   3.114   4.172  10.213 -0.6732  1.7846  1.3224
  863MPD2     C12717   2.008   1.517  16.431 -0.1367 -0.2226 -0.0002
  863MPD2    C112718   2.003   1.638  16.495  0.3129 -0.4760  0.1935
  863MPD2    C212719   2.078   1.654  16.610 -0.0071  0.5547 -0.0299
  863MPD2    C312720   2.148   1.558  16.675 -0.1605  0.1220 -0.1811
  863MPD2    C412721   2.135   1.428  16.613 -0.4355 -0.1719  0.4502
  863MPD2    C512722   2.070   1.409  16.493  0.3264  0.1952  0.5676
  863MPD2     H12723   2.091   1.755  16.647  0.8338 -0.5519  2.6859
  863MPD2    H112724   2.181   1.342  16.660  0.0912 -0.5046 -0.6751
  863MPD2    H212725   1.960   1.502  16.335  0.1965 -0.9579 -0.0474
  863MPD2    H312726   2.061   1.308  16.456 -2.1723  0.2405  1.0295
  863MPD2     N12727   2.204   1.568  16.806  0.0701 -0.0194  0.5246
  863MPD2    H512728   2.243   1.486  16.851 -0.7730 -1.8145 -1.9946
  863MPD2    N112729   1.930   1.738  16.430 -0.0204 -0.4408  0.3403
  863MPD2    H712730   1.928   1.722  16.330  0.9175  0.7550  0.1291
  864MPD2     C12731   2.536   2.868  17.117 -0.7213  0.0071  0.4707
  864MPD2    C112732   2.618   2.800  17.028 -0.0807  0.2755  0.1391
  864MPD2    C212733   2.702   2.870  16.946  0.7860  0.5581 -0.1790
  864MPD2    C312734   2.725   3.001  16.969  0.6164  0.1899 -0.4747
  864MPD2    C412735   2.648   3.071  17.060  0.1214 -0.0663 -0.2248
  864MPD2    C512736   2.556   3.004  17.130  0.5226  0.0232 -0.4459
  864MPD2     H12737   2.756   2.818  16.868 -0.2405 -0.8092  0.0153
  864MPD2    H112738   2.650   3.180  17.062 -0.4970 -0.0380 -0.7616
  864MPD2    H212739   2.456   2.830  17.180 -0.2760 -1.9406 -0.1423
  864MPD2    H312740   2.492   3.051  17.204  0.9041  0.9736 -0.7237
  864MPD2     N12741   2.804   3.079  16.875  0.5984 -0.8229 -0.2640
  864MPD2    H512742   2.804   3.180  16.891  2.4531 -0.3082 -3.4766
  864MPD2    N112743   2.606   2.655  17.022 -0.6557  0.5384  0.6123
  864MPD2    H712744   2.551   2.610  17.096  0.7055 -0.7672  0.8237
  865MPD2     C12745   2.793   3.348  16.029 -0.5542  0.1630  0.1988
  865MPD2    C112746   2.783   3.250  16.125 -0.0106  0.3095 -0.1104
  865MPD2    C212747   2.764   3.285  16.257  0.1487 -0.1101 -0.7717
  865MPD2    C312748   2.743   3.420  16.282 -1.6195 -0.2166  0.0389
  865MPD2    C412749   2.745   3.517  16.179 -0.3666  0.7166 -0.5131
  865MPD2    C512750   2.779   3.477  16.053  0.2881  0.8868  0.0163
  865MPD2     H12751   2.777   3.216  16.339  2.3414 -0.0048 -1.0214
  865MPD2    H112752   2.717   3.618  16.209 -2.0534 -0.5681  2.2113
  865MPD2    H212753   2.804   3.319  15.926 -1.0041 -0.9124  0.4571
  865MPD2    H312754   2.782   3.554  15.977 -0.7650  2.3755  1.4562
  865MPD2     N12755   2.718   3.468  16.408  0.3074 -0.3193  0.4775
  865MPD2    H512756   2.684   3.564  16.406 -2.0362 -1.1970 -0.9499
  865MPD2    N112757   2.796   3.116  16.080  0.3949 -0.3863 -0.0339
  865MPD2    H712758   2.831   3.102  15.986 -0.1527  2.3203 -0.6652
  866MPD2     C12759   3.763   4.131  11.293 -0.1065 -0.4005  0.0785
  866MPD2    C112760   3.772   4.161  11.155  0.1642  0.4856 -0.2462
  866MPD2    C212761   3.690   4.257  11.097  0.3952  0.5808  0.0320
  866MPD2    C312762   3.601   4.326  11.178 -0.2370  0.8835  0.1072
  866MPD2    C412763   3.610   4.308  11.316  0.3854  0.5278  0.2926
  866MPD2    C512764   3.685   4.213  11.371 -0.5281  0.6075  0.5735
  866MPD2     H12765   3.696   4.274  10.990  0.3193  2.6556  0.3764
  866MPD2    H112766   3.549   4.373  11.378  0.5662  1.1268 -0.1639
  866MPD2    H212767   3.835   4.068  11.344 -0.6172 -2.0276 -1.1956
  866MPD2    H312768   3.674   4.201  11.478  0.6487 -1.2114  0.4844
  866MPD2     N12769   3.516   4.427  11.134 -0.4582 -0.3425 -0.0434
  866MPD2    H512770   3.453   4.462  11.206 -0.3604  0.7703 -0.5003
  866MPD2    N112771   3.848   4.085  11.061  0.2627 -0.2583 -0.2835
  866MPD2    H712772   3.850   4.126  10.969  1.2840  0.7788  0.2033
  867MPD2     C12773   2.449   3.225  16.322  0.0235  0.5768  0.2025
  867MPD2    C112774   2.470   3.180  16.445  0.0651  0.6869  0.9719
  867MPD2    C212775   2.431   3.259  16.556  0.1698 -0.0905  0.0858
  867MPD2    C312776   2.349   3.374  16.539  0.4953 -0.5770 -0.7604
  867MPD2    C412777   2.328   3.416  16.408  0.4239  0.0322 -0.1608
  867MPD2    C512778   2.386   3.345  16.302  0.1015 -0.6405 -0.0431
  867MPD2     H12779   2.456   3.218  16.653 -0.6274  1.2650  0.8773
  867MPD2    H112780   2.275   3.506  16.380  1.7404  1.2994  1.4202
  867MPD2    H212781   2.467   3.167  16.232  0.7023 -1.8192  1.8789
  867MPD2    H312782   2.368   3.379  16.201  2.9192  0.5691 -0.1291
  867MPD2     N12783   2.297   3.446  16.644 -0.1526 -0.0881 -0.5221
  867MPD2    H512784   2.219   3.506  16.617 -1.3897 -0.4355  2.3667
  867MPD2    N112785   2.533   3.053  16.460  0.5200  0.6034  0.0327
  867MPD2    H712786   2.581   3.014  16.380 -2.2369  0.7538 -1.6588
  868MPD2     C12787   3.170   2.633  12.901  0.8621 -0.1543  0.1657
  868MPD2    C112788   3.201   2.507  12.959 -1.1621 -0.5873 -0.0491
  868MPD2    C212789   3.116   2.470  13.064  0.4148 -0.8807 -0.9013
  868MPD2    C312790   3.017   2.552  13.121 -0.0706 -0.2516  0.4039
  868MPD2    C412791   2.991   2.665  13.059 -0.0488 -0.1260  1.1687
  868MPD2    C512792   3.070   2.703  12.954 -0.7243  1.1682 -0.6804
  868MPD2     H12793   3.129   2.373  13.110 -0.3477 -0.1716  0.8063
  868MPD2    H112794   2.917   2.736  13.093  0.8471  0.0787  2.7084
  868MPD2    H212795   3.233   2.685  12.829  0.2409 -0.6261 -0.7254
  868MPD2    H312796   3.037   2.793  12.902 -1.9214 -0.4130 -2.6471
  868MPD2     N12797   2.949   2.525  13.244 -0.3415  0.0121  0.1881
  868MPD2    H512798   2.974   2.433  13.280  1.9279  0.3421 -0.5296
  868MPD2    N112799   3.311   2.435  12.903  0.1136  0.0045  0.1889
  868MPD2    H712800   3.370   2.481  12.835 -0.3021 -1.4370 -1.1563
  869MPD2     C12801   3.884   0.438   0.607  0.3017  0.6091  0.1667
  869MPD2    C112802   3.905   0.564   0.569  0.4697  0.2360 -0.1524
  869MPD2    C212803   4.017   0.585   0.498 -0.4956  0.2373  0.3772
  869MPD2    C312804   4.105   0.485   0.466 -0.1241 -0.3785 -0.1594
  869MPD2    C412805   4.079   0.353   0.505 -0.0018  0.2848 -0.3104
  869MPD2    C512806   3.964   0.333   0.582  0.2636  0.4748 -0.2211
  869MPD2     H12807   4.036   0.682   0.454  2.3789 -0.6173 -0.2883
  869MPD2    H112808   4.149   0.270   0.493 -0.6712 -0.3181 -0.0742
  869MPD2    H212809   3.795   0.423   0.667 -0.5460  3.6047 -0.3448
  869MPD2    H312810   3.925   0.238   0.618 -0.8880  0.6157 -1.0950
  869MPD2     N12811   4.228   0.500   0.406 -0.0338  0.1874 -0.0418
  869MPD2    H512812   4.286   0.417   0.414 -0.1205  0.1301 -0.0092
  869MPD2    N112813   3.811   0.657   0.600 -0.7179  0.0375 -0.3069
  869MPD2    H712814   3.734   0.621   0.655 -1.2047  2.7468  0.8399
  870MPD2     C12815   3.475   3.637   1.588  0.0944 -0.2656  0.6041
  870MPD2    C112816   3.581   3.626   1.495  0.2300  0.7066 -0.0889
  870MPD2    C212817   3.593   3.732   1.408  0.0805 -0.8132 -0.4881
  870MPD2    C312818   3.502   3.838   1.405  0.1547  0.1760  0.8327
  870MPD2    C412819   3.391   3.841   1.485  0.6178 -0.2357 -0.1182
  870MPD2    C512820   3.392   3.744   1.584  0.3823 -0.6434  0.1190
  870MPD2     H12821   3.663   3.738   1.325  3.0904 -1.3904  2.0022
  870MPD2    H112822   3.313   3.916   1.490  0.4388 -0.4334  0.0754
  870MPD2    H212823   3.463   3.574   1.676  4.0790  0.4801  1.6825
  870MPD2    H312824   3.320   3.762   1.663  1.3916 -3.3332  1.6483
  870MPD2     N12825   3.503   3.931   1.298  0.4045  0.0592  0.4340
  870MPD2    H512826   3.571   3.912   1.224 -0.2931  0.8283 -0.4019
  870MPD2    N112827   3.674   3.518   1.504  0.2070 -0.1316 -0.4528
  870MPD2    H712828   3.647   3.436   1.557  1.2135  0.0504  0.3297
  871MPD2     C12829   0.251   3.226  16.134  0.1878 -0.9537 -0.0495
  871MPD2    C112830   0.238   3.186  16.261 -0.0918 -0.3165  0.0582
  871MPD2    C212831   0.255   3.047  16.287  0.7081  0.1994  0.2785
  871MPD2    C312832   0.300   2.963  16.188 -0.3628  0.8792 -0.4266
  871MPD2    C412833   0.321   3.010  16.065  0.2803 -0.0749 -0.2920
  871MPD2    C512834   0.285   3.135  16.034  1.3108  0.3882  0.2574
  871MPD2     H12835   0.241   3.004  16.386 -1.0762  1.9568  0.7857
  871MPD2    H112836   0.345   2.939  15.987  0.0548 -1.3208  0.7727
  871MPD2    H212837   0.230   3.325  16.095  0.4820 -0.7274  0.3768
  871MPD2    H312838   0.299   3.169  15.932 -1.3111 -2.9875 -1.2200
  871MPD2     N12839   0.338   2.835  16.228  0.7560  0.1441 -0.0699
  871MPD2    H512840   0.313   2.804  16.320  1.1447 -4.0126 -1.3755
  871MPD2    N112841   0.186   3.283  16.356  0.1231  0.3059 -0.2452
  871MPD2    H712842   0.161   3.372  16.316 -0.8828 -0.4375 -1.2595
  872MPD2     C12843   1.276   1.139  13.509 -0.0672 -0.2948  0.6828
  872MPD2    C112844   1.219   1.235  13.587 -0.5359  0.4818  0.0506
  872MPD2    C212845   1.093   1.210  13.636 -0.6323 -0.4756  0.5457
  872MPD2    C312846   1.032   1.087  13.615 -0.6053  0.3052 -0.3131
  872MPD2    C412847   1.096   0.996  13.536  0.4659  0.5147 -0.6086
  872MPD2    C512848   1.217   1.030  13.476  0.3215 -0.5811 -0.6616
  872MPD2     H12849   1.038   1.285  13.692 -1.7356 -1.1867  0.4228
  872MPD2    H112850   1.068   0.892  13.523  0.9499  0.1261  1.5154
  872MPD2    H212851   1.373   1.150  13.462 -1.6905  3.5294 -1.8470
  872MPD2    H312852   1.271   0.961  13.412  1.4989  0.5242 -0.8641
  872MPD2     N12853   0.917   1.042  13.677  0.1831 -0.0786 -0.4003
  872MPD2    H512854   0.890   0.950  13.643 -0.6907  0.5902 -1.5363
  872MPD2    N112855   1.276   1.360  13.606 -0.5025  0.2313  0.2917
  872MPD2    H712856   1.216   1.420  13.661 -0.3332  0.8141 -0.1702
  873MPD2     C12857   3.404   1.334   0.507  0.4333  0.1452  0.2140
  873MPD2    C112858   3.312   1.374   0.604  0.4470 -0.9571  0.4482
  873MPD2    C212859   3.207   1.288   0.640  0.1084 -0.4081  0.2907
  873MPD2    C312860   3.182   1.173   0.563 -0.5056  0.9489 -0.2947
  873MPD2    C412861   3.254   1.157   0.453  1.0829  0.4038 -0.2822
  873MPD2    C512862   3.373   1.224   0.427  0.2505 -0.1134  0.4736
  873MPD2     H12863   3.153   1.324   0.726 -0.5601  2.8194 -1.4318
  873MPD2    H112864   3.250   1.066   0.394 -0.5484 -0.6057  1.3762
  873MPD2    H212865   3.491   1.396   0.488 -0.9881  1.9717 -0.3069
  873MPD2    H312866   3.443   1.184   0.354  1.3659  2.7477 -0.0085
  873MPD2     N12867   3.084   1.080   0.595  0.3064 -0.0388 -0.5239
  873MPD2    H512868   3.065   1.005   0.530 -0.7035 -0.5945  0.3966
  873MPD2    N112869   3.338   1.491   0.670 -0.1890  0.4334 -0.3079
  873MPD2    H712870   3.427   1.538   0.667  0.0339 -0.0429 -1.2674
  874MPD2     C12871   2.386   0.620  16.018 -0.3047  0.5080 -0.5525
  874MPD2    C112872   2.501   0.569  16.075  0.3731 -0.1768 -0.9865
  874MPD2    C212873   2.609   0.659  16.098 -0.9001 -0.3175  0.8546
  874MPD2    C312874   2.604   0.793  16.065 -0.0023  0.2029 -0.5081
  874MPD2    C412875   2.493   0.838  16.005  0.2185 -0.5510  0.0231
  874MPD2    C512876   2.385   0.753  15.985  0.2433 -0.3178 -0.0063
  874MPD2     H12877   2.698   0.621  16.148  0.5950  2.9619  0.6687
  874MPD2    H112878   2.471   0.937  15.967  0.5586 -0.7000 -0.5579
  874MPD2    H212879   2.293   0.564  16.010 -1.0485  1.4857  1.2098
  874MPD2    H312880   2.289   0.795  15.958  0.4037  0.7376  1.1011
  874MPD2     N12881   2.714   0.866  16.110 -0.4758 -0.8475  0.3848
  874MPD2    H512882   2.783   0.808  16.157 -0.1875 -0.7664  0.0598
  874MPD2    N112883   2.496   0.444  16.125  0.2997 -0.8202 -0.4106
  874MPD2    H712884   2.420   0.385  16.094  1.2915 -2.9768  1.2502
  875MPD2     C12885   3.500   3.815  14.443 -0.1430 -0.2251  0.7746
  875MPD2    C112886   3.548   3.940  14.415 -0.5697 -0.6945  0.0488
  875MPD2    C212887   3.618   4.016  14.504  0.4496  0.1063  0.3115
  875MPD2    C312888   3.640   3.957  14.633  0.1659 -0.1259  0.4621
  875MPD2    C412889   3.599   3.822  14.659  0.7282  0.1278  0.1181
  875MPD2    C512890   3.528   3.748  14.562 -0.1211 -0.2466 -0.2623
  875MPD2     H12891   3.640   4.120  14.484  1.6845 -0.1629  0.3103
  875MPD2    H112892   3.629   3.772  14.751  2.6330  0.0038 -0.5826
  875MPD2    H212893   3.440   3.753  14.379 -0.4963  1.0486 -0.1291
  875MPD2    H312894   3.475   3.656  14.585 -2.4611  1.5930  1.6746
  875MPD2     N12895   3.685   4.030  14.743  0.3937  0.1142  0.2872
  875MPD2    H512896   3.674   3.991  14.836 -0.2586  0.5767  0.4085
  875MPD2    N112897   3.510   4.006  14.299 -0.2992  0.2819  0.0786
  875MPD2    H712898   3.523   4.106  14.293  0.5417  0.2419  1.1666
  876MPD2     C12899   2.174   0.365  15.869  0.1618 -0.3276  0.3417
  876MPD2    C112900   2.311   0.353  15.828  0.1907 -0.5817  0.7128
  876MPD2    C212901   2.380   0.232  15.845 -0.1027 -0.1090  0.1200
  876MPD2    C312902   2.324   0.133  15.924  0.2590  0.2227  0.4776
  876MPD2    C412903   2.194   0.137  15.949 -0.2443 -0.8467  0.3716
  876MPD2    C512904   2.120   0.252  15.920  0.6586  0.0256  0.0792
  876MPD2     H12905   2.485   0.224  15.821  0.2404 -0.1969  1.6893
  876MPD2    H112906   2.144   0.046  15.979  0.7546 -1.7276 -0.6565
  876MPD2    H212907   2.107   0.450  15.854  0.4331 -0.6104 -2.6104
  876MPD2    H312908   2.013   0.263  15.934  0.7326 -0.5348  1.0436
  876MPD2     N12909   2.406   0.028  15.967 -0.0430  0.3451 -0.1230
  876MPD2    H512910   2.502   0.022  15.934 -0.2117 -0.4403 -0.4609
  876MPD2    N112911   2.364   0.458  15.752  0.2731 -0.2900 -0.4804
  876MPD2    H712912   2.296   0.530  15.730 -1.1306 -1.5177 -0.1194
  877MPD2     C12913   2.255   0.862  15.100  0.1242  0.6864  0.5504
  877MPD2    C112914   2.384   0.813  15.101 -0.3489  0.2538  0.4695
  877MPD2    C212915   2.456   0.806  14.988 -0.5718  0.0366 -0.5649
  877MPD2    C312916   2.398   0.828  14.861 -1.2038 -0.9890 -0.6157
  877MPD2    C412917   2.260   0.852  14.868  0.9159 -0.2672 -0.6349
  877MPD2    C512918   2.187   0.874  14.983 -1.0303 -0.4512 -0.2575
  877MPD2     H12919   2.562   0.782  14.987 -0.9724 -1.7873  3.7837
  877MPD2    H112920   2.210   0.872  14.774 -2.9343 -0.0657  1.4453
  877MPD2    H212921   2.202   0.891  15.190 -0.7614 -0.2364  0.3226
  877MPD2    H312922   2.084   0.905  14.977 -1.2444 -1.1248 -0.0751
  877MPD2     N12923   2.460   0.825  14.734 -0.0754 -0.0564  0.2470
  877MPD2    H512924   2.401   0.840  14.653 -0.8221 -0.8388  0.6480
  877MPD2    N112925   2.444   0.780  15.225 -0.9163  0.4551 -0.0458
  877MPD2    H712926   2.542   0.753  15.220 -1.5053 -1.9679  1.7559
  878MPD2     C12927   2.342   0.380  12.751 -0.6839 -0.4873 -0.5584
  878MPD2    C112928   2.420   0.492  12.761 -0.2752  0.2881  0.1560
  878MPD2    C212929   2.514   0.517  12.864  0.3677  0.5154 -0.7178
  878MPD2    C312930   2.544   0.409  12.948 -0.0344  0.1291 -0.2703
  878MPD2    C412931   2.476   0.291  12.923 -0.2276 -0.7014  0.1535
  878MPD2    C512932   2.379   0.277  12.833 -0.3331 -0.0786 -0.0654
  878MPD2     H12933   2.565   0.613  12.865  0.8850  0.2447 -0.9483
  878MPD2    H112934   2.507   0.202  12.977 -0.7153  0.5756  2.5743
  878MPD2    H212935   2.260   0.362  12.683  0.1755 -1.2465 -1.3887
  878MPD2    H312936   2.323   0.184  12.824  0.9257 -1.0935  2.6735
  878MPD2     N12937   2.622   0.423  13.058 -0.3027 -0.0056 -0.0550
  878MPD2    H512938   2.666   0.514  13.071 -0.7326  0.0773  0.8730
  878MPD2    N112939   2.380   0.593  12.668 -0.3966 -0.0238  0.1853
  878MPD2    H712940   2.298   0.566  12.614 -0.2048  1.0988 -0.6538
  879MPD2     C12941   2.589   1.850  16.544  0.2591 -0.4446  0.6462
  879MPD2    C112942   2.646   1.741  16.613  0.3720 -0.4603  1.0658
  879MPD2    C212943   2.615   1.607  16.570  0.1855  0.7615 -0.0391
  879MPD2    C312944   2.514   1.587  16.476 -0.2876  0.3767  0.6409
  879MPD2    C412945   2.456   1.699  16.421 -0.8355 -0.1435 -0.2768
  879MPD2    C512946   2.491   1.825  16.452 -0.0902 -0.5552 -0.2897
  879MPD2     H12947   2.673   1.520  16.597 -2.5593 -1.0588 -0.0823
  879MPD2    H112948   2.394   1.690  16.333  2.3434 -1.4082 -2.3760
  879MPD2    H212949   2.609   1.952  16.575 -0.5215 -1.1485  3.3803
  879MPD2    H312950   2.449   1.909  16.398 -1.1275 -0.5038  0.5895
  879MPD2     N12951   2.471   1.462  16.432  0.0252 -0.0707 -0.3348
  879MPD2    H512952   2.405   1.456  16.356 -1.2126 -0.2440  0.7670
  879MPD2    N112953   2.723   1.768  16.723 -1.0931  0.0516 -0.5093
  879MPD2    H712954   2.743   1.866  16.740  0.4967 -0.4784  0.6024
  880MPD2     C12955   4.009   3.137   0.138 -0.8898 -0.4286 -0.7889
  880MPD2    C112956   3.921   3.167   0.236  0.0844  0.4367  0.6337
  880MPD2    C212957   3.905   3.084   0.345  0.2499 -0.9625  0.1810
  880MPD2    C312958   3.994   2.980   0.359  0.1829 -0.5969 -0.1524
  880MPD2    C412959   4.079   2.950   0.250  0.2672  0.2996 -0.5852
  880MPD2    C512960   4.089   3.029   0.143 -0.4598 -0.5271  0.0458
  880MPD2     H12961   3.841   3.121   0.425 -0.0877  0.9762 -1.0089
  880MPD2    H112962   4.137   2.860   0.270 -0.9417 -0.2059  0.5904
  880MPD2    H212963   4.014   3.201   0.050  3.1706  2.6619  1.7209
  880MPD2    H312964   4.151   3.004   0.058 -1.9883 -1.0478 -0.9222
  880MPD2     N12965   3.996   2.911   0.483 -0.2046 -0.2493  0.6668
  880MPD2    H512966   3.919   2.921   0.548 -0.0770 -2.0432  1.0813
  880MPD2    N112967   3.844   3.287   0.215  0.7720  0.1024  0.2311
  880MPD2    H712968   3.849   3.322   0.120  0.2024 -1.3453 -0.3360
  881MPD2     C12969   3.513   3.916  17.274 -0.4096  0.2061  0.4918
  881MPD2    C112970   3.602   3.811  17.281  0.2212 -0.2726  0.4894
  881MPD2    C212971   3.626   3.754  17.406  0.2926 -0.4961  0.4406
  881MPD2    C312972   3.548   3.780  17.516  0.1792 -0.5261  0.3543
  881MPD2    C412973   3.433   3.856  17.499 -0.8059  0.3821  0.0601
  881MPD2    C512974   3.422   3.923  17.378  0.0756  0.0664 -0.0434
  881MPD2     H12975   3.714   3.692  17.419  0.7470  0.3301  1.3296
  881MPD2    H112976   3.366   3.883  17.579 -0.0237  3.0566 -0.1925
  881MPD2    H212977   3.510   3.966  17.178  0.5009 -1.2088 -0.2762
  881MPD2    H312978   3.343   3.995  17.362 -0.0476 -0.2844 -1.0328
  881MPD2     N12979   3.571   3.716  17.644  0.1617 -0.4245 -0.1843
  881MPD2    H512980   3.506   3.737  17.719 -2.3795  0.9228 -2.7401
  881MPD2    N112981   3.696   3.801  17.174  0.3833  0.6272  0.3237
  881MPD2    H712982   3.672   3.863  17.097  1.4987  1.1727  0.4064
  882MPD2     C12983   2.355   0.799  13.946 -0.4223  0.7457 -0.0330
  882MPD2    C112984   2.355   0.808  14.082  0.5870  0.4518  0.1141
  882MPD2    C212985   2.235   0.791  14.148  0.4284 -0.2336 -0.2570
  882MPD2    C312986   2.119   0.772  14.075  0.7115 -0.3923 -0.1818
  882MPD2    C412987   2.123   0.780  13.938 -0.6238 -0.2896  0.0755
  882MPD2    C512988   2.243   0.796  13.878 -0.0586 -0.0193 -0.0176
  882MPD2     H12989   2.245   0.793  14.256  0.8001  0.9980 -0.3117
  882MPD2    H112990   2.031   0.766  13.883  0.0055 -0.3116 -0.9874
  882MPD2    H212991   2.447   0.773  13.894 -0.5415  1.7073 -0.7198
  882MPD2    H312992   2.260   0.784  13.771  0.1801 -0.2673  0.0459
  882MPD2     N12993   1.999   0.751  14.146 -0.5267 -0.1945  0.3161
  882MPD2    H512994   1.911   0.747  14.095 -0.0984 -2.6737 -0.2228
  882MPD2    N112995   2.475   0.814  14.156  0.4682 -0.9150 -0.4328
  882MPD2    H712996   2.557   0.782  14.106 -0.6250 -0.3602 -2.6124
  883MPD2     C12997   4.296   0.716  15.945 -0.0126 -0.1227 -0.7638
  883MPD2    C112998   4.331   0.840  15.894 -0.8502  0.5400  0.0786
  883MPD2    C212999   4.413   0.919  15.965 -0.1553 -0.1539  0.0944
  883MPD2    C313000   4.462   0.883  16.085  0.7028 -0.6114  0.3232
  883MPD2    C413001   4.431   0.756  16.142  0.5479 -0.6321 -0.2727
  883MPD2    C513002   4.353   0.672  16.066 -0.2189 -0.8283  0.1814
  883MPD2     H13003   4.455   1.005  15.914 -0.0679 -0.8567 -1.0056
  883MPD2    H113004   4.482   0.715  16.229 -1.0316  0.0785  0.9894
  883MPD2    H213005   4.225   0.647  15.900 -0.5222 -0.2085  0.1793
  883MPD2    H313006   4.352   0.565  16.083  0.0630 -1.1188 -1.6034
  883MPD2     N13007   4.568   0.973  16.132 -0.2604  0.3367 -0.6841
  883MPD2    H513008   4.570   1.058  16.076  1.0444  0.1182 -0.9600
  883MPD2    N113009   4.291   0.897  15.765  0.2595 -0.2370  0.2076
  883MPD2    H713010   4.330   0.988  15.740  0.7108 -0.0142  1.7162
  884MPD2     C13011   1.582   1.635  15.060 -0.1853  0.1218  0.1876
  884MPD2    C113012   1.519   1.722  14.978 -0.1461 -0.1491  0.2137
  884MPD2    C213013   1.444   1.825  15.033 -0.7103 -0.0075 -0.6503
  884MPD2    C313014   1.417   1.829  15.171  0.4844 -0.4493 -0.1118
  884MPD2    C413015   1.474   1.729  15.256 -0.3086 -0.2351  0.2180
  884MPD2    C513016   1.557   1.639  15.197 -0.3441 -0.2047  0.6241
  884MPD2     H13017   1.394   1.890  14.963 -1.2529  0.6427  0.3387
  884MPD2    H113018   1.453   1.727  15.363  2.4473  2.3409  0.8000
  884MPD2    H213019   1.650   1.561  15.019 -1.3618 -0.1535 -1.2572
  884MPD2    H313020   1.613   1.569  15.258 -1.3957  2.0719  4.1900
  884MPD2     N13021   1.323   1.934  15.209 -0.0504 -0.0659 -0.6848
  884MPD2    H513022   1.284   1.996  15.139  3.5072  0.8646 -1.8317
  884MPD2    N113023   1.520   1.705  14.835 -0.1255 -0.0097 -0.6031
  884MPD2    H713024   1.464   1.776  14.789 -0.0101  1.6862  1.8692
  885MPD2     C13025   0.022   2.747  17.539 -0.1714 -0.1077 -0.3180
  885MPD2    C113026   0.064   2.620  17.515  0.3936  0.0759 -1.2689
  885MPD2    C213027   4.726   2.517  17.468  0.4129  0.1816  0.2451
  885MPD2    C313028   4.614   2.552  17.413  0.0559  0.1354  0.0235
  885MPD2    C413029   4.561   2.672  17.442 -0.2042 -0.3447  0.1686
  885MPD2    C513030   4.633   2.766  17.511  0.2265 -0.1283 -0.6537
  885MPD2     H13031   0.022   2.416  17.464  0.5285  0.3815 -3.9020
  885MPD2    H113032   4.464   2.705  17.406 -0.0404 -0.6803 -0.5752
  885MPD2    H213033   0.092   2.820  17.577 -0.7657  0.6012 -0.5874
  885MPD2    H313034   4.594   2.867  17.520 -0.1610 -0.2321 -1.1414
  885MPD2     N13035   4.545   2.452  17.328 -0.4729  0.0173  0.2297
  885MPD2    H513036   4.591   2.361  17.323 -2.3464 -0.9508  0.7325
  885MPD2    N113037   0.200   2.600  17.540 -0.3616 -0.5060  0.5908
  885MPD2    H713038   0.248   2.681  17.577  0.2059 -0.3582 -0.4608
  886MPD2     C13039   1.006   0.373  15.667  0.5103 -0.3688  0.4520
  886MPD2    C113040   1.142   0.382  15.665  0.7053 -0.4920 -0.0348
  886MPD2    C213041   1.209   0.483  15.597  0.4198  0.3965 -0.2484
  886MPD2    C313042   1.140   0.580  15.523 -0.5080  0.6906  0.3263
  886MPD2    C413043   0.998   0.566  15.529  0.4630 -0.5322 -0.1827
  886MPD2    C513044   0.943   0.475  15.604 -0.0106  0.3288 -0.1684
  886MPD2     H13045   1.315   0.498  15.606  0.2008  0.3685  2.6253
  886MPD2    H113046   0.931   0.636  15.480  0.4818  2.1647  3.6504
  886MPD2    H213047   0.938   0.317  15.730  1.6489 -0.9099  1.1961
  886MPD2    H313048   0.834   0.470  15.604 -0.0031  0.1362  0.0777
  886MPD2     N13049   1.193   0.676  15.434  0.0605  0.2002 -0.5008
  886MPD2    H513050   1.129   0.738  15.386  2.4748  2.1950 -1.1362
  886MPD2    N113051   1.214   0.285  15.741 -0.1829  0.1273  0.0979
  886MPD2    H713052   1.314   0.297  15.732 -0.0763 -1.8177 -1.1707
  887MPD2     C13053   1.832   0.223  16.162 -0.3990  0.0744 -0.5963
  887MPD2    C113054   1.753   0.279  16.067  0.0017 -0.3032 -0.1232
  887MPD2    C213055   1.781   0.413  16.038  0.1151 -0.1568  0.1196
  887MPD2    C313056   1.885   0.484  16.093 -0.0551 -0.1619 -0.1068
  887MPD2    C413057   1.965   0.421  16.185 -0.6555 -0.3554 -0.2658
  887MPD2    C513058   1.936   0.295  16.221 -0.7343 -0.1102 -0.4996
  887MPD2     H13059   1.717   0.462  15.967  0.3932 -1.0300 -0.7321
  887MPD2    H113060   2.060   0.458  16.223 -1.6673  1.2230  0.7381
  887MPD2    H213061   1.820   0.118  16.186  2.1077  0.5633  2.7979
  887MPD2    H313062   2.004   0.242  16.287 -0.6525  1.9810  1.0820
  887MPD2     N13063   1.914   0.612  16.042  0.0007  0.1732 -0.5773
  887MPD2    H513064   1.858   0.649  15.966 -2.3247  0.8677  1.4638
  887MPD2    N113065   1.635   0.219  16.012  0.1464  0.8380 -0.3250
  887MPD2    H713066   1.584   0.282  15.950 -1.4411  0.1642  0.2913
  888MPD2     C13067   3.699   0.276  14.917  0.1821  0.4543 -0.2316
  888MPD2    C113068   3.758   0.350  15.020  0.6009 -0.8016  0.6795
  888MPD2    C213069   3.749   0.491  15.026 -0.1887  0.6513  0.6486
  888MPD2    C313070   3.699   0.566  14.928 -0.1478  0.4029  0.9302
  888MPD2    C413071   3.646   0.495  14.816 -0.5865 -0.1580 -0.7021
  888MPD2    C513072   3.656   0.357  14.810  0.8607 -0.2008  0.5302
  888MPD2     H13073   3.797   0.539  15.111  0.5970 -0.9184  1.1111
  888MPD2    H113074   3.605   0.549  14.731  2.1314  2.9402 -0.0661
  888MPD2    H213075   3.716   0.171  14.897  0.1594  0.2503  0.8191
  888MPD2    H313076   3.637   0.302  14.719 -0.5759 -1.6750  1.7114
  888MPD2     N13077   3.713   0.703  14.935  0.1172 -0.1924  0.4088
  888MPD2    H513078   3.746   0.738  15.024 -1.2752  1.3082  0.3427
  888MPD2    N113079   3.826   0.282  15.118  0.4744  0.0552 -0.2972
  888MPD2    H713080   3.866   0.333  15.196 -2.3504  0.4530  0.8779
  889MPD2     C13081   2.879   0.376  12.720  0.1740 -0.2148  0.3100
  889MPD2    C113082   2.951   0.335  12.833 -0.4363 -1.3796  0.0398
  889MPD2    C213083   2.969   0.428  12.938 -0.2746  0.3106  0.5542
  889MPD2    C313084   2.917   0.556  12.943  0.8990 -0.1386  0.5748
  889MPD2    C413085   2.845   0.597  12.828  0.2601 -0.4227  0.2952
  889MPD2    C513086   2.841   0.507  12.723 -1.0988  0.6261  0.2241
  889MPD2     H13087   3.006   0.391  13.033  0.7210 -1.0808 -0.3725
  889MPD2    H113088   2.799   0.695  12.829 -1.5544 -1.2483 -2.1228
  889MPD2    H213089   2.862   0.325  12.626  0.6315 -0.9651  0.6352
  889MPD2    H313090   2.784   0.533  12.635 -1.1920 -0.1092  0.0693
  889MPD2     N13091   2.928   0.629  13.065  0.5131 -0.7194  0.3645
  889MPD2    H513092   3.001   0.606  13.132  1.4440  0.3239 -0.3091
  889MPD2    N113093   2.966   0.200  12.868  0.3047  0.0517  0.5094
  889MPD2    H713094   3.017   0.174  12.952 -0.7728  0.4894  1.3152
  890MPD2     C13095   2.594   1.607  14.390  0.0318  0.6283  0.5849
  890MPD2    C113096   2.630   1.694  14.501  0.1242  0.1828  0.3315
  890MPD2    C213097   2.644   1.637  14.627  0.1104  0.3605 -0.0959
  890MPD2    C313098   2.600   1.507  14.650  0.0565 -0.1478 -0.2717
  890MPD2    C413099   2.542   1.435  14.546  0.1764  0.1345 -0.3269
  890MPD2    C513100   2.546   1.485  14.418 -0.6918  0.5951  0.8114
  890MPD2     H13101   2.686   1.685  14.714 -1.8476  1.3590  0.3042
  890MPD2    H113102   2.493   1.338  14.559 -3.0348  1.5132 -2.0619
  890MPD2    H213103   2.572   1.646  14.291 -0.9187  0.2887  0.6627
  890MPD2    H313104   2.501   1.425  14.339  1.2122 -0.3037  0.4299
  890MPD2     N13105   2.607   1.463  14.785 -0.1676 -0.8423 -0.2440
  890MPD2    H513106   2.635   1.532  14.854  1.1094 -0.8429 -0.7649
  890MPD2    N113107   2.673   1.826  14.461 -0.1081  0.1780 -0.1979
  890MPD2    H713108   2.671   1.849  14.362  0.0511 -0.7003 -0.4002
  891MPD2     C13109   0.725   0.748  16.244  0.3491 -0.3431 -0.2254
  891MPD2    C113110   0.624   0.691  16.312  0.5686  0.3091  0.2367
  891MPD2    C213111   0.665   0.610  16.414  0.2796 -0.3742 -0.0242
  891MPD2    C313112   0.795   0.580  16.434 -0.5356 -0.0863 -0.4912
  891MPD2    C413113   0.900   0.635  16.366 -0.2094 -0.1523 -0.1429
  891MPD2    C513114   0.854   0.718  16.267  0.0005  0.3813  0.4639
  891MPD2     H13115   0.589   0.560  16.474  1.2275 -0.1046  1.4036
  891MPD2    H113116   1.006   0.626  16.383  0.3271 -0.5060 -3.7914
  891MPD2    H213117   0.704   0.827  16.173  0.9580  0.5071  0.5443
  891MPD2    H313118   0.923   0.774  16.205  1.1650 -1.3580  0.2107
  891MPD2     N13119   0.844   0.504  16.540  0.0602 -0.3167 -0.1037
  891MPD2    H513120   0.942   0.506  16.568  0.0897 -0.0728 -0.2224
  891MPD2    N113121   0.487   0.737  16.291  0.2842  0.4029 -0.3132
  891MPD2    H713122   0.474   0.792  16.207 -3.0815 -1.5851 -1.0799
  892MPD2     C13123   1.733   1.138  15.015 -0.5196  0.4840  0.6755
  892MPD2    C113124   1.616   1.124  14.943  0.1746  0.5240 -0.2383
  892MPD2    C213125   1.618   1.050  14.826  0.4379 -0.0067  0.7919
  892MPD2    C313126   1.736   0.983  14.786  0.3182  0.2522 -0.0060
  892MPD2    C413127   1.853   1.001  14.864  0.5592  0.1592 -0.3789
  892MPD2    C513128   1.853   1.079  14.977  0.6850  0.7894 -0.1139
  892MPD2     H13129   1.536   1.049  14.755  2.0808 -1.5584 -1.1391
  892MPD2    H113130   1.950   0.967  14.831  0.7258  1.2705 -1.0539
  892MPD2    H213131   1.739   1.214  15.092  2.7134  1.2449 -0.3295
  892MPD2    H313132   1.949   1.096  15.023  0.7771  0.6948 -0.2733
  892MPD2     N13133   1.747   0.911  14.667 -0.3868 -0.5296 -0.2474
  892MPD2    H513134   1.838   0.870  14.647 -0.4914 -1.1349  0.5035
  892MPD2    N113135   1.495   1.193  14.974  0.2815 -0.1318 -0.3482
  892MPD2    H713136   1.423   1.211  14.905  1.2940  1.4500 -0.9985
  893MPD2     C13137   2.379   0.482   0.629 -0.5172 -0.6135  0.0529
  893MPD2    C113138   2.392   0.397   0.521 -0.4623  0.7348 -0.6442
  893MPD2    C213139   2.283   0.375   0.437 -0.0661 -0.7741  0.5002
  893MPD2    C313140   2.170   0.450   0.459 -0.4180  0.4564 -0.3138
  893MPD2    C413141   2.156   0.538   0.568  0.0325  0.0237 -0.5782
  893MPD2    C513142   2.265   0.561   0.647 -0.5225  0.2016  0.1031
  893MPD2     H13143   2.303   0.314   0.349 -0.9833  0.2611 -0.4212
  893MPD2    H113144   2.065   0.596   0.579  0.0221 -0.6395  2.8210
  893MPD2    H213145   2.461   0.496   0.699 -1.4685 -0.0391  1.0441
  893MPD2    H313146   2.255   0.622   0.735 -1.5112 -1.4451  1.1351
  893MPD2     N13147   2.056   0.437   0.372 -0.3163 -0.3224 -0.4203
  893MPD2    H513148   1.968   0.479   0.403 -0.1894 -1.7756  1.9495
  893MPD2    N113149   2.511   0.320   0.533  0.2250  0.0733  0.8040
  893MPD2    H713150   2.583   0.363   0.590 -1.8339  1.9086  2.0000
  894MPD2     C13151   1.683   2.570   1.228 -0.6145 -0.1022 -0.1662
  894MPD2    C113152   1.651   2.668   1.135 -0.2303 -0.4495 -0.3866
  894MPD2    C213153   1.734   2.776   1.121  0.0848  0.7806 -0.8972
  894MPD2    C313154   1.849   2.783   1.202  0.0210 -0.1607 -0.2983
  894MPD2    C413155   1.873   2.695   1.306  0.1078 -0.2359 -1.1787
  894MPD2    C513156   1.792   2.582   1.308  0.2567 -0.0733 -0.4760
  894MPD2     H13157   1.714   2.863   1.060 -1.1019 -0.4879 -2.3116
  894MPD2    H113158   1.955   2.711   1.375 -0.6051  2.2680 -0.8873
  894MPD2    H213159   1.617   2.487   1.252 -2.0538  1.2750  0.6593
  894MPD2    H313160   1.812   2.505   1.382  1.0187 -0.8024 -1.4592
  894MPD2     N13161   1.932   2.894   1.182  0.2489 -0.7575  0.0181
  894MPD2    H513162   1.896   2.963   1.118  0.7906 -1.8614 -1.4611
  894MPD2    N113163   1.524   2.678   1.073  0.2014 -0.0781 -0.3538
  894MPD2    H713164   1.501   2.769   1.035  1.9420 -0.3903 -2.1740
  895MPD2     C13165   1.094   0.469  13.430  0.3674 -0.2905  0.2186
  895MPD2    C113166   0.964   0.508  13.414  0.8075  0.1536 -0.4194
  895MPD2    C213167   0.865   0.432  13.481  0.4757  0.3453 -0.7346
  895MPD2    C313168   0.892   0.320  13.548  0.1588  0.1517  0.5395
  895MPD2    C413169   1.026   0.286  13.570  0.0248  0.0251  0.4197
  895MPD2    C513170   1.128   0.366  13.514  0.3908  0.3291  0.4341
  895MPD2     H13171   0.761   0.459  13.464  0.5419  1.8618  1.1919
  895MPD2    H113172   1.059   0.205  13.634  1.5750 -0.2034 -0.7052
  895MPD2    H213173   1.171   0.524  13.377 -0.0549  0.1856  0.0955
  895MPD2    H313174   1.232   0.341  13.533  0.9300  1.0020 -1.6194
  895MPD2     N13175   0.792   0.230  13.562  0.7062 -0.5059  0.6401
  895MPD2    H513176   0.707   0.250  13.510  1.2130  0.0833  0.0388
  895MPD2    N113177   0.935   0.623  13.330 -0.0720 -0.5304 -0.6636
  895MPD2    H713178   0.839   0.655  13.337  0.1278 -0.0799 -0.0550
  896MPD2     C13179   2.583   3.328   1.408 -0.0604 -0.1423  0.7774
  896MPD2    C113180   2.601   3.382   1.282 -0.0874 -0.1192 -0.1308
  896MPD2    C213181   2.524   3.487   1.232 -0.5846 -0.1593  0.4050
  896MPD2    C313182   2.416   3.526   1.306 -0.1652  0.3056  0.2538
  896MPD2    C413183   2.378   3.459   1.421  0.5822 -1.5399  0.6003
  896MPD2    C513184   2.464   3.364   1.467  0.4767 -0.2073  0.4303
  896MPD2     H13185   2.549   3.535   1.139 -1.1314  0.2725  0.4827
  896MPD2    H113186   2.285   3.478   1.473  0.6079 -0.2813  0.2016
  896MPD2    H213187   2.642   3.250   1.453 -0.8146 -1.1573  0.0108
  896MPD2    H313188   2.435   3.317   1.560  0.4379  2.3981  1.7448
  896MPD2     N13189   2.337   3.630   1.246  0.8985  0.3819  0.0287
  896MPD2    H513190   2.373   3.665   1.158  2.4836 -2.7721 -0.5863
  896MPD2    N113191   2.697   3.317   1.206  0.2803 -0.1755  0.0006
  896MPD2    H713192   2.738   3.235   1.250  1.7584  1.4610  1.6710
  897MPD2     C13193   4.085   4.623  10.345  0.3883 -0.5419 -0.2831
  897MPD2    C113194   4.060   0.015  10.347 -0.9535  0.4597  0.4582
  897MPD2    C213195   3.984   0.066  10.457 -0.1082  0.6047  0.4102
  897MPD2    C313196   3.937   4.727  10.555  0.3598 -0.6917  0.6665
  897MPD2    C413197   3.975   4.596  10.552 -0.0358 -0.0533 -1.1376
  897MPD2    C513198   4.051   4.549  10.453  0.4327 -0.1860  0.5072
  897MPD2     H13199   3.945   0.167  10.457  1.5044  1.2348  2.4804
  897MPD2    H113200   3.949   4.522  10.627 -0.6823  1.1033 -0.2218
  897MPD2    H213201   4.134   4.570  10.265 -0.3285 -1.3055 -0.2166
  897MPD2    H313202   4.089   4.447  10.448 -1.9360 -1.0151 -0.5656
  897MPD2     N13203   3.861   0.040  10.657  0.2744 -0.0213  0.2571
  897MPD2    H513204   3.833   0.137  10.649  2.2666  0.5547  0.3453
  897MPD2    N113205   4.096   0.092  10.233 -0.4823  0.1129 -0.1727
  897MPD2    H713206   4.151   0.039  10.166  1.3481  1.5569  0.1845
  898MPD2     C13207   1.337   0.669  17.334 -0.4687 -0.4030 -0.3729
  898MPD2    C113208   1.383   0.778  17.403 -0.0205 -0.3438  0.5209
  898MPD2    C213209   1.296   0.888  17.417 -0.1135 -0.5624  0.5683
  898MPD2    C313210   1.171   0.886  17.352 -0.1757 -0.6136  0.7480
  898MPD2    C413211   1.137   0.775  17.274  0.9062  0.1444 -0.2355
  898MPD2    C513212   1.218   0.667  17.275  0.0758  0.0687  0.1655
  898MPD2     H13213   1.330   0.971  17.477 -0.1078  1.7693 -2.6442
  898MPD2    H113214   1.047   0.761  17.215  2.0747  1.9208 -2.4371
  898MPD2    H213215   1.405   0.588  17.310  0.7666  1.0522 -1.8131
  898MPD2    H313216   1.190   0.572  17.232  2.4355 -1.1090  1.2766
  898MPD2     N13217   1.075   0.988  17.362 -0.1645  0.5845 -0.0961
  898MPD2    H513218   1.003   0.972  17.293 -0.6146 -1.2180  0.7834
  898MPD2    N113219   1.511   0.789  17.463 -0.1025 -0.2826  0.3131
  898MPD2    H713220   1.532   0.876  17.511  1.8068 -0.2080 -0.6409
  899MPD2     C13221   1.890   1.495  17.399  0.1751  0.1322  0.1875
  899MPD2    C113222   2.015   1.549  17.425  0.0278 -0.1670 -0.4187
  899MPD2    C213223   2.048   1.584  17.557 -0.3206 -0.6015 -0.3814
  899MPD2    C313224   1.971   1.537  17.659 -0.5649 -0.2473 -0.0303
  899MPD2    C413225   1.852   1.470  17.636 -0.0307  0.3070  1.2214
  899MPD2    C513226   1.810   1.452  17.507  0.3377 -0.3682  0.2107
  899MPD2     H13227   2.149   1.618  17.578  0.3211 -3.7388  1.5280
  899MPD2    H113228   1.788   1.440  17.719 -0.7389 -0.1252  0.5284
  899MPD2    H213229   1.855   1.472  17.299 -0.5019  1.2692  0.1670
  899MPD2    H313230   1.707   1.421  17.497  0.0543  0.4329  0.6300
  899MPD2     N13231   2.003   1.553   0.030 -0.1850 -0.5609  0.3826
  899MPD2    H513232   1.941   1.507   0.096 -2.9493  2.0082 -0.4123
  899MPD2    N113233   2.100   1.585  17.322  0.8996  0.1255 -0.5026
  899MPD2    H713234   2.064   1.576  17.228 -0.5802 -0.5291  0.1237
  900MPD2     C13235   1.790   3.173  12.558  0.1618  0.8965  0.0437
  900MPD2    C113236   1.666   3.115  12.561  0.0746 -0.0894  0.1278
  900MPD2    C213237   1.559   3.198  12.543 -0.0327  0.2966 -1.0030
  900MPD2    C313238   1.575   3.333  12.528 -0.0885 -0.3774 -0.6514
  900MPD2    C413239   1.697   3.388  12.521  0.4532  0.0435 -0.0564
  900MPD2    C513240   1.810   3.310  12.551 -0.0409  0.0881 -0.3493
  900MPD2     H13241   1.458   3.160  12.554 -1.2143  2.7814 -3.2746
  900MPD2    H113242   1.700   3.494  12.499 -0.9626  0.0281 -0.2713
  900MPD2    H213243   1.880   3.114  12.568 -0.5770 -0.1942  0.2707
  900MPD2    H313244   1.908   3.357  12.553 -0.5296  1.0768  0.6786
  900MPD2     N13245   1.458   3.403  12.532  0.0077 -0.2946 -0.2064
  900MPD2    H513246   1.373   3.348  12.525 -1.7361  2.0127  3.1027
  900MPD2    N113247   1.664   2.972  12.580 -0.3948  0.0721  0.7556
  900MPD2    H713248   1.752   2.926  12.598 -0.9343 -1.1275  0.2758
  901MPD2     C13249   1.336   2.010  12.288  0.0862  0.2184 -0.7429
  901MPD2    C113250   1.476   2.032  12.305 -0.3952 -0.9270 -0.0992
  901MPD2    C213251   1.506   2.141  12.392 -0.3627  0.0482  0.9541
  901MPD2    C313252   1.413   2.234  12.429 -0.1849 -0.2286 -0.5556
  901MPD2    C413253   1.284   2.220  12.400  0.4060 -0.0417  0.5510
  901MPD2    C513254   1.246   2.096  12.346 -0.0463 -0.3379 -0.1683
  901MPD2     H13255   1.609   2.172  12.407 -0.6321  1.1408  0.5666
  901MPD2    H113256   1.203   2.278  12.442 -1.3373 -1.5879 -0.6809
  901MPD2    H213257   1.300   1.919  12.242  3.4377 -2.4928  1.8838
  901MPD2    H313258   1.140   2.072  12.343 -0.6015  2.0850  0.5289
  901MPD2     N13259   1.459   2.337  12.497  0.2047  0.2090 -0.2847
  901MPD2    H513260   1.557   2.335  12.523  0.0345  0.9109  0.4031
  901MPD2    N113261   1.563   1.931  12.267  0.1289 -0.1281  0.5256
  901MPD2    H713262   1.539   1.850  12.211 -0.1831  1.0666 -1.0983
  902MPD2     C13263   0.398   0.571  12.122 -0.7615 -0.0724  0.1388
  902MPD2    C113264   0.510   0.640  12.148 -0.0211  0.7682  0.0768
  902MPD2    C213265   0.632   0.573  12.169 -0.5157 -0.0267 -1.0232
  902MPD2    C313266   0.645   0.436  12.167  0.5520 -0.2802 -0.7050
  902MPD2    C413267   0.524   0.370  12.152  0.2193 -0.5314 -0.1625
  902MPD2    C513268   0.407   0.435  12.138 -0.0278 -0.7073  0.1670
  902MPD2     H13269   0.721   0.634  12.181  0.0785 -1.4480  1.9109
  902MPD2    H113270   0.518   0.265  12.178  1.2701 -0.8284 -1.0806
  902MPD2    H213271   0.300   0.610  12.096  0.7470  3.1094 -0.7285
  902MPD2    H313272   0.313   0.381  12.142 -1.0135  1.0607  0.4991
  902MPD2     N13273   0.758   0.360  12.169  0.0520  0.1617  0.2878
  902MPD2    H513274   0.743   0.265  12.135  2.2441  0.3360 -1.2033
  902MPD2    N113275   0.494   0.779  12.142 -0.4269  0.6345  0.2436
  902MPD2    H713276   0.399   0.814  12.137 -0.7165 -0.2661 -0.6162
  903MPD2     C13277   0.798   0.539  11.614  0.0800  0.5683  0.4722
  903MPD2    C113278   0.761   0.483  11.730  0.8659  0.3069 -0.8906
  903MPD2    C213279   0.631   0.483  11.779  0.3221  0.6771 -0.0160
  903MPD2    C313280   0.530   0.549  11.705 -0.0283 -0.1639 -0.1628
  903MPD2    C413281   0.570   0.608  11.590 -0.2341  0.0482 -0.3443
  903MPD2    C513282   0.700   0.612  11.551 -0.3854 -0.2421  0.5530
  903MPD2     H13283   0.605   0.414  11.858  1.0066  0.2651 -0.1472
  903MPD2    H113284   0.501   0.665  11.529  1.2869  0.6211 -1.5051
  903MPD2    H213285   0.892   0.544  11.561  0.0945  1.3663  0.5769
  903MPD2    H313286   0.731   0.673  11.467 -0.4526  1.1436  1.5311
  903MPD2     N13287   0.398   0.512  11.739 -0.0515  0.2406  0.4032
  903MPD2    H513288   0.386   0.442  11.812 -1.2223 -0.2252 -0.2298
  903MPD2    N113289   0.859   0.415  11.808  1.0402 -0.3804 -0.4147
  903MPD2    H713290   0.827   0.382  11.898 -0.0483  0.1227 -0.6165
  904MPD2     C13291   0.721   3.899  14.079 -1.0400 -0.4113  0.3983
  904MPD2    C113292   0.691   4.027  14.030 -0.8634  0.6705  0.1958
  904MPD2    C213293   0.787   4.094  13.962 -0.0660 -0.6603  0.1454
  904MPD2    C313294   0.922   4.060  13.963  0.0668  0.5997 -0.0925
  904MPD2    C413295   0.959   3.942  14.032  0.2058 -0.4461  0.4758
  904MPD2    C513296   0.859   3.861  14.079  0.1050 -0.0721  0.0423
  904MPD2     H13297   0.757   4.183  13.907  0.7224 -1.4605 -1.5762
  904MPD2    H113298   1.061   3.908  14.048  0.3570 -0.8279 -1.3559
  904MPD2    H213299   0.645   3.832  14.116 -0.4381 -0.3633  1.7245
  904MPD2    H313300   0.897   3.769  14.123 -0.7314  0.7091  2.3256
  904MPD2     N13301   1.015   4.152  13.903 -0.1206  0.8318 -0.8418
  904MPD2    H513302   0.979   4.233  13.853 -1.6558  0.8312  0.2674
  904MPD2    N113303   0.569   4.089  14.029 -0.5963 -0.4378 -0.0957
  904MPD2    H713304   0.572   4.183  13.993 -1.4653 -0.6258 -0.6626
  905MPD2     C13305   0.073   0.012  13.842 -0.1255 -0.1084 -0.0201
  905MPD2    C113306   0.182   4.664  13.835  0.4948  0.2041  0.1411
  905MPD2    C213307   0.266   4.672  13.724 -0.0821  0.5713  0.3751
  905MPD2    C313308   0.254   0.039  13.640  0.6383  0.0862  0.4152
  905MPD2    C413309   0.164   0.139  13.671  0.6825 -0.2770 -0.0681
  905MPD2    C513310   0.068   0.126  13.774  0.1162 -0.3850 -0.5855
  905MPD2     H13311   0.343   4.598  13.709 -0.9625 -0.5275  1.2751
  905MPD2    H113312   0.169   0.232  13.614  0.3856 -0.0299  0.3103
  905MPD2    H213313   0.001   4.739  13.922  0.9152 -3.8081  0.1839
  905MPD2    H313314   4.733   0.199  13.796  0.2528 -0.4102 -0.0416
  905MPD2     N13315   0.351   0.060  13.544  0.0119 -0.1192 -0.0298
  905MPD2    H513316   0.373   0.150  13.501  0.1459  0.4755  1.2978
  905MPD2    N113317   0.196   4.564  13.931 -0.4140 -0.6064  0.6050
  905MPD2    H713318   0.115   4.544  13.989  1.1461  0.8959  3.3092
  906MPD2     C13319   2.449   0.296  11.120  0.2055  0.1514  0.5298
  906MPD2    C113320   2.395   0.227  11.016 -0.2968  0.7864  0.3327
  906MPD2    C213321   2.279   0.162  11.042  0.2720  0.5270  0.3114
  906MPD2    C313322   2.233   0.144  11.168  0.4719  0.1283  0.7342
  906MPD2    C413323   2.288   0.211  11.270  0.4316  0.0770  0.7470
  906MPD2    C513324   2.390   0.295  11.239 -0.2016  0.1320 -1.1021
  906MPD2     H13325   2.234   0.113  10.956 -0.1977 -1.9823  2.0098
  906MPD2    H113326   2.253   0.197  11.371 -1.6712 -0.0587  0.0007
  906MPD2    H213327   2.545   0.347  11.123  0.6566 -0.8030  2.1172
  906MPD2    H313328   2.442   0.346  11.320 -3.3154 -0.4440  1.2491
  906MPD2     N13329   2.125   0.062  11.211  0.4472 -0.5351  0.1855
  906MPD2    H513330   2.114   0.047  11.311 -0.0473 -0.6446  0.1129
  906MPD2    N113331   2.439   0.225  10.884 -0.4676  0.1731 -0.0795
  906MPD2    H713332   2.375   0.188  10.816 -0.4618  2.3250 -1.2593
  907MPD2     C13333   2.075   3.636  15.471 -0.2414  0.4684 -0.2057
  907MPD2    C113334   1.956   3.567  15.474 -0.1838  0.0525  0.2482
  907MPD2    C213335   1.924   3.496  15.586  0.0879 -0.5061  0.3813
  907MPD2    C313336   2.008   3.484  15.697  0.3869 -0.0063 -0.0652
  907MPD2    C413337   2.125   3.550  15.696 -0.3659 -0.8613  0.2956
  907MPD2    C513338   2.154   3.617  15.580 -0.3312 -0.0574 -0.7093
  907MPD2     H13339   1.827   3.447  15.583 -0.5793  0.9514 -2.0671
  907MPD2    H113340   2.188   3.544  15.784  1.1766  0.8940 -0.6975
  907MPD2    H213341   2.111   3.696  15.388 -1.4615 -0.7890 -1.6257
  907MPD2    H313342   2.250   3.668  15.584 -0.0260 -0.4754 -2.8800
  907MPD2     N13343   1.967   3.407  15.799  0.2512  0.1068 -0.0198
  907MPD2    H513344   1.878   3.359  15.795 -0.8303  2.0292  0.5482
  907MPD2    N113345   1.859   3.577  15.375 -0.4978 -0.2807 -0.6922
  907MPD2    H713346   1.781   3.518  15.400 -0.5220  0.4733  1.0497
  908MPD2     C13347   4.070   4.479   9.455 -0.6080  0.4200 -0.3812
  908MPD2    C113348   4.062   4.434   9.584  0.3673 -0.1723  0.4406
  908MPD2    C213349   4.071   4.529   9.686  0.4310  0.2353 -0.0764
  908MPD2    C313350   4.066   4.668   9.655 -0.5275 -0.1504  0.2642
  908MPD2    C413351   4.068   4.707   9.517 -0.0900 -0.6977 -1.3380
  908MPD2    C513352   4.077   4.610   9.425 -0.3577  0.1461 -0.4486
  908MPD2     H13353   4.084   4.500   9.790 -1.5080  0.2790  0.1796
  908MPD2    H113354   4.082   0.070   9.494 -0.8698 -0.0933  0.8864
  908MPD2    H213355   4.084   4.417   9.367 -0.2943 -2.5420  1.7342
  908MPD2    H313356   4.087   4.633   9.319  2.0046  0.1409 -0.2098
  908MPD2     N13357   4.066   0.017   9.763 -0.9433 -0.2595 -0.0712
  908MPD2    H513358   4.078   4.721   9.856  0.6389  0.0461 -0.1510
  908MPD2    N113359   4.079   4.297   9.612  0.7267 -0.0300  0.4737
  908MPD2    H713360   4.112   4.284   9.707  3.6502  0.6435 -0.4472
  909MPD2     C13361   4.370   3.041  11.664  0.9505  0.0110 -0.3669
  909MPD2    C113362   4.280   3.128  11.605  0.0453  0.5101  0.5710
  909MPD2    C213363   4.183   3.177  11.685 -0.9167 -0.1075  0.1652
  909MPD2    C313364   4.181   3.153  11.822  0.3148  0.0454 -0.6257
  909MPD2    C413365   4.273   3.067  11.882 -0.6516 -0.8508 -0.8275
  909MPD2    C513366   4.363   3.005  11.797  0.1529 -0.9385  1.1215
  909MPD2     H13367   4.108   3.237  11.635 -1.2578 -1.0522 -0.4529
  909MPD2    H113368   4.268   3.029  11.984 -1.4407 -0.1516 -0.6089
  909MPD2    H213369   4.439   2.986  11.602 -0.8237 -1.6415 -0.8697
  909MPD2    H313370   4.441   2.944  11.842  0.4234 -0.4335  1.3285
  909MPD2     N13371   4.078   3.214  11.900  0.0480 -0.2362  0.3289
  909MPD2    H513372   4.019   3.282  11.852 -1.9430 -0.5568  2.3170
  909MPD2    N113373   4.276   3.157  11.465 -0.1061  0.5799  0.3231
  909MPD2    H713374   4.202   3.218  11.432  1.5547  1.5200 -1.6107
  910MPD2     C13375   1.116   0.015  16.341  0.2326  1.0539 -0.0326
  910MPD2    C113376   1.047   4.641  16.313 -0.2269 -0.2216 -0.0032
  910MPD2    C213377   0.989   4.623  16.184 -0.2338  0.3341  0.3867
  910MPD2    C313378   0.986   4.728  16.098 -0.1156 -0.3002  0.2412
  910MPD2    C413379   1.071   0.090  16.119  0.5075 -0.4799 -0.1510
  910MPD2    C513380   1.130   0.112  16.243 -0.2592  0.1004 -0.1492
  910MPD2     H13381   0.948   4.529  16.149 -0.6502  0.6418  0.0365
  910MPD2    H113382   1.074   0.169  16.045  0.4835 -1.5716 -1.3101
  910MPD2    H213383   1.171   0.029  16.433  0.7508 -1.0962 -0.0225
  910MPD2    H313384   1.179   0.207  16.261  1.1081 -0.1282 -2.7148
  910MPD2     N13385   0.916   4.711  15.979 -0.0726 -0.9731  0.0135
  910MPD2    H513386   0.923   0.045  15.912 -0.7466 -0.8133  0.1219
  910MPD2    N113387   1.022   4.537  16.403  0.3305  0.0987  0.2585
  910MPD2    H713388   0.979   4.452  16.368 -0.0842  0.4220 -0.0228
  911MPD2     C13389   3.813   0.142  15.859  0.4152 -0.2567  0.1169
  911MPD2    C113390   3.819   0.165  15.992  0.5323  0.0125 -0.2420
  911MPD2    C213391   3.761   0.274  16.056 -0.6303  0.1253  0.1489
  911MPD2    C313392   3.711   0.383  15.982 -0.4581  0.0518 -0.1376
  911MPD2    C413393   3.705   0.364  15.842 -0.0621  0.4234  0.0456
  911MPD2    C513394   3.760   0.249  15.791  0.4511  0.9813 -0.2127
  911MPD2     H13395   3.751   0.280  16.163  2.1813  0.5725  0.3889
  911MPD2    H113396   3.639   0.419  15.775  2.5785  1.3777 -1.7853
  911MPD2    H213397   3.850   0.053  15.809 -0.4562 -0.6580  0.1808
  911MPD2    H313398   3.734   0.238  15.686 -2.0397  0.6701  0.4354
  911MPD2     N13399   3.646   0.497  16.032  0.7810  0.2924 -0.0804
  911MPD2    H513400   3.623   0.569  15.964  0.3717 -1.5627 -1.9251
  911MPD2    N113401   3.906   0.074  16.064  0.0190 -0.4406  0.3044
  911MPD2    H713402   3.948   4.736  16.017  1.0682  0.6725 -0.6273
  912MPD2     C13403   3.393   0.394  15.694 -0.1416  0.8182  0.0281
  912MPD2    C113404   3.362   0.390  15.825  0.1853 -0.4344  0.0232
  912MPD2    C213405   3.390   0.271  15.885 -0.1334  0.3443 -0.4763
  912MPD2    C313406   3.427   0.156  15.817 -0.1860  0.4861  0.0815
  912MPD2    C413407   3.450   0.162  15.680 -0.4441  0.0346  0.3255
  912MPD2    C513408   3.427   0.283  15.612  0.4722 -0.1816  0.1154
  912MPD2     H13409   3.374   0.260  15.992 -0.4322  1.2006 -0.4326
  912MPD2    H113410   3.478   0.074  15.623  0.3245  0.7680 -0.4179
  912MPD2    H213411   3.385   0.487  15.638  1.2572 -0.6941 -2.7001
  912MPD2    H313412   3.445   0.288  15.505 -0.5586 -0.0068 -0.0502
  912MPD2     N13413   3.464   0.043  15.899  0.2767 -0.1300  0.0597
  912MPD2    H513414   3.450   0.057  15.999  0.1167  0.1159  0.0021
  912MPD2    N113415   3.325   0.505  15.891  0.3205 -0.4472 -0.7262
  912MPD2    H713416   3.329   0.599  15.853  2.2849 -0.9276 -1.7372
  913MPD2     C13417   3.569   1.624  10.840 -0.5341  0.3849  0.1901
  913MPD2    C113418   3.634   1.748  10.826  0.6049 -0.4466 -0.0066
  913MPD2    C213419   3.636   1.812  10.703  1.1657 -0.8214 -0.0071
  913MPD2    C313420   3.565   1.765  10.594 -0.7752 -0.3840 -0.3602
  913MPD2    C413421   3.497   1.645  10.614 -0.3680  0.4450  0.0318
  913MPD2    C513422   3.499   1.579  10.733 -0.4635 -0.1091 -0.2720
  913MPD2     H13423   3.688   1.904  10.680  0.0834 -0.2721 -0.2558
  913MPD2    H113424   3.433   1.602  10.537 -2.4481  1.3302  1.2736
  913MPD2    H213425   3.572   1.568  10.933  3.3493 -0.9681 -0.7500
  913MPD2    H313426   3.428   1.500  10.753  0.1199 -0.5994 -0.1492
  913MPD2     N13427   3.550   1.822  10.461 -0.4247 -0.0995  0.0603
  913MPD2    H513428   3.495   1.760  10.402 -0.1647  1.2106 -1.5562
  913MPD2    N113429   3.709   1.803  10.933  0.1129  0.1318 -0.7153
  913MPD2    H713430   3.686   1.761  11.023  1.0542 -2.5241 -1.7155
  914MPD2     C13431   1.967   2.039  11.476  0.3303  0.0326 -0.1260
  914MPD2    C113432   1.917   2.114  11.583  0.5210 -0.2310  0.1688
  914MPD2    C213433   1.856   2.062  11.693  0.4940  0.4520 -1.0870
  914MPD2    C313434   1.851   1.927  11.708 -0.2773 -0.0082 -0.5720
  914MPD2    C413435   1.902   1.849  11.607 -0.7224  0.4011  0.4513
  914MPD2    C513436   1.953   1.903  11.491 -0.4143  0.6180 -0.4556
  914MPD2     H13437   1.818   2.123  11.774 -3.2309 -1.7739 -1.1211
  914MPD2    H113438   1.905   1.741  11.610 -0.8087  0.3908  0.1212
  914MPD2    H213439   2.025   2.088  11.398  0.5394 -1.7401 -1.0944
  914MPD2    H313440   1.985   1.829  11.419  0.0224 -1.1183  1.5273
  914MPD2     N13441   1.809   1.875  11.832  0.6511  0.2847 -0.1066
  914MPD2    H513442   1.763   1.939  11.894  0.8344  0.5409 -0.2348
  914MPD2    N113443   1.941   2.252  11.571  0.3227 -0.1494  0.6207
  914MPD2    H713444   1.995   2.280  11.490  2.8565  0.3833  2.5063
  915MPD2     C13445   0.164   1.642  15.126  0.2271  0.1819 -0.2570
  915MPD2    C113446   0.029   1.611  15.109  0.1573  0.6375 -0.1688
  915MPD2    C213447   4.685   1.626  15.215 -0.3467  0.3697  0.3249
  915MPD2    C313448   4.740   1.668  15.339  0.6957  0.1337  0.8235
  915MPD2    C413449   0.131   1.693  15.354  0.4085  0.2857 -0.1441
  915MPD2    C513450   0.220   1.674  15.251  0.4413 -0.4408  0.6112
  915MPD2     H13451   4.579   1.604  15.222 -0.2871  0.4868  1.6146
  915MPD2    H113452   0.174   1.727  15.449  0.5616  0.1974 -0.1810
  915MPD2    H213453   0.227   1.627  15.039  0.8763  0.9313  0.0842
  915MPD2    H313454   0.324   1.698  15.269 -0.3386  2.2593  1.4236
  915MPD2     N13455   4.649   1.685  15.445 -0.0788  0.0455  0.0538
  915MPD2    H513456   4.549   1.678  15.430  0.3904 -0.8387 -2.6549
  915MPD2    N113457   4.731   1.566  14.982 -0.2893 -0.0041 -0.2873
  915MPD2    H713458   0.059   1.554  14.910  1.2765  1.3187  1.0288
  916MPD2     C13459   3.026   4.691  15.823 -0.0862  0.7817 -0.5082
  916MPD2    C113460   2.971   4.566  15.823  0.4245  0.7821  1.1181
  916MPD2    C213461   3.043   4.461  15.770  0.5035 -0.2212  0.1191
  916MPD2    C313462   3.166   4.476  15.706  0.3792  0.7704  0.4312
  916MPD2    C413463   3.224   4.603  15.707  0.2510 -0.1460 -0.1752
  916MPD2    C513464   3.150   4.707  15.762 -0.1313  0.2631 -0.5635
  916MPD2     H13465   2.990   4.366  15.762 -1.3019  0.6635  1.6184
  916MPD2    H113466   3.320   4.626  15.661 -0.1633  2.9398  0.4803
  916MPD2    H213467   2.980   0.037  15.865 -2.8314 -0.9929  0.1993
  916MPD2    H313468   3.199   0.062  15.763  1.5917 -0.5972 -1.6927
  916MPD2     N13469   3.224   4.366  15.636 -0.3452  0.1222  0.3766
  916MPD2    H513470   3.179   4.278  15.658  0.5601 -0.2060  0.8829
  916MPD2    N113471   2.838   4.553  15.885 -0.2771 -0.1281  0.8981
  916MPD2    H713472   2.808   4.641  15.926  0.8476 -0.4170  2.3518
  917MPD2     C13473   2.654   2.460  11.037 -0.1000  0.2096  0.2824
  917MPD2    C113474   2.746   2.441  11.138  0.7488 -0.4382 -0.0067
  917MPD2    C213475   2.875   2.498  11.141  0.5548  0.0721 -0.5192
  917MPD2    C313476   2.913   2.574  11.031 -0.1557  0.0397 -1.0864
  917MPD2    C413477   2.820   2.599  10.928  0.3190 -0.1127 -1.0530
  917MPD2    C513478   2.691   2.538  10.935 -0.1051  1.0440 -0.6562
  917MPD2     H13479   2.940   2.478  11.226  0.6408  1.4755 -0.2688
  917MPD2    H113480   2.853   2.664  10.848  2.4181 -0.5968 -0.5962
  917MPD2    H213481   2.558   2.411  11.048 -0.1400  0.2116 -0.0444
  917MPD2    H313482   2.624   2.559  10.852 -0.0860 -1.3496 -1.2516
  917MPD2     N13483   3.030   2.647  11.028  0.0512  0.1180 -0.5186
  917MPD2    H513484   3.044   2.697  10.941 -1.2499 -1.4672 -1.6276
  917MPD2    N113485   2.692   2.366  11.240  0.0760 -0.0938 -0.0822
  917MPD2    H713486   2.606   2.315  11.219 -1.3309  2.0751  0.4641
  918MPD2     C13487   2.784   2.652  12.204  0.0387 -0.4111  0.0112
  918MPD2    C113488   2.864   2.667  12.093 -0.0403  0.0716 -0.3569
  918MPD2    C213489   2.819   2.608  11.974  0.4711 -0.1446 -0.0369
  918MPD2    C313490   2.699   2.543  11.962  0.0885  0.9891  0.8738
  918MPD2    C413491   2.619   2.533  12.075  0.7582 -0.7843 -0.0356
  918MPD2    C513492   2.667   2.582  12.192  0.0030  0.3530 -1.3252
  918MPD2     H13493   2.885   2.619  11.888  0.4255  3.7186  0.4269
  918MPD2    H113494   2.520   2.489  12.083  0.3727  0.3087  1.4334
  918MPD2    H213495   2.812   2.700  12.297 -2.9615 -2.2344  1.8601
  918MPD2    H313496   2.600   2.581  12.278  0.4020 -1.7902 -1.0284
  918MPD2     N13497   2.674   2.494  11.836  0.1175 -0.5037 -0.1062
  918MPD2    H513498   2.736   2.518  11.759  0.6567 -2.4977 -0.2799
  918MPD2    N113499   2.988   2.729  12.084 -0.2304 -0.0731  0.0916
  918MPD2    H713500   3.047   2.707  12.004 -2.0223 -2.8478 -0.4399
  919MPD2     C13501   3.620   1.958  11.635 -0.9358 -0.1617  0.1743
  919MPD2    C113502   3.570   1.840  11.590  0.5995 -0.0767  0.0381
  919MPD2    C213503   3.526   1.836  11.457 -0.0703  0.1403  0.1814
  919MPD2    C313504   3.516   1.953  11.379 -0.4102  0.5794 -0.6883
  919MPD2    C413505   3.551   2.066  11.441  0.1563  0.4184 -0.1768
  919MPD2    C513506   3.618   2.073  11.559 -0.4623  0.1088  0.2448
  919MPD2     H13507   3.500   1.739  11.416  4.0048 -0.5202 -0.7675
  919MPD2    H113508   3.537   2.160  11.389  1.3198  0.4813 -0.3665
  919MPD2    H213509   3.665   1.961  11.734 -1.6561  0.5524  0.4748
  919MPD2    H313510   3.651   2.167  11.600  0.3012 -0.0637  0.0301
  919MPD2     N13511   3.462   1.962  11.247  0.0340 -0.4239 -0.4078
  919MPD2    H513512   3.461   2.047  11.192 -2.3481 -0.9461 -1.1426
  919MPD2    N113513   3.570   1.726  11.680 -0.0824  0.5877  0.2887
  919MPD2    H713514   3.587   1.743  11.779  2.4637 -2.2982  0.3500
  920MPD2     C13515   3.282   2.492  10.448 -0.3367 -0.3823 -0.2514
  920MPD2    C113516   3.165   2.421  10.459  0.3217  0.2330  0.2365
  920MPD2    C213517   3.176   2.317  10.550  0.9891  0.1051 -0.0536
  920MPD2    C313518   3.287   2.285  10.625  0.4463  0.0827  0.6644
  920MPD2    C413519   3.402   2.363  10.602  0.1361 -0.2002  0.2496
  920MPD2    C513520   3.392   2.476  10.521  0.5200  0.4119  0.3275
  920MPD2     H13521   3.093   2.247  10.555  1.7120 -0.7365  0.1513
  920MPD2    H113522   3.487   2.344  10.666  0.3870  0.6256  0.1527
  920MPD2    H213523   3.280   2.576  10.379 -1.1224  0.7859  1.1825
  920MPD2    H313524   3.473   2.547  10.506  0.4260  0.7659  1.5581
  920MPD2     N13525   3.289   2.164  10.698 -0.0113  0.5332  0.1215
  920MPD2    H513526   3.203   2.110  10.703 -0.4624  1.3218  0.8740
  920MPD2    N113527   3.050   2.434  10.380  0.8172  0.3821 -0.0847
  920MPD2    H713528   2.983   2.359  10.395  0.5915  0.7533  0.7252
  921MPD2     C13529   4.670   0.345  16.672 -0.3364  0.2240  0.5102
  921MPD2    C113530   4.646   0.358  16.540  0.4424 -0.0149  0.0046
  921MPD2    C213531   4.555   0.259  16.486 -0.0368 -0.2700  0.7198
  921MPD2    C313532   4.494   0.160  16.565  0.5832  0.9328  0.4214
  921MPD2    C413533   4.521   0.150  16.701  0.2545  0.5841  0.6717
  921MPD2    C513534   4.613   0.240  16.747  1.1423  0.6936 -0.1860
  921MPD2     H13535   4.530   0.268  16.381  2.0000  1.0262  0.3458
  921MPD2    H113536   4.471   0.079  16.765  0.7966 -0.7551 -0.3888
  921MPD2    H213537   4.736   0.418  16.719 -1.1352  1.7803 -0.7844
  921MPD2    H313538   4.643   0.231  16.851 -1.1897  1.4295  0.5467
  921MPD2     N13539   4.396   0.072  16.516 -0.2511 -0.2876  0.5997
  921MPD2    H513540   4.347   0.005  16.573  0.2648 -1.2431 -0.0776
  921MPD2    N113541   4.700   0.470  16.468  0.0017  0.5627 -0.3036
  921MPD2    H713542   0.013   0.529  16.530  0.8413  1.2832 -1.7305
  922MPD2     C13543   0.843   2.636  17.278 -0.2357  0.2254  0.4787
  922MPD2    C113544   0.769   2.752  17.286 -0.2555 -0.0875 -0.3501
  922MPD2    C213545   0.640   2.749  17.254  0.3589 -0.4172  0.1174
  922MPD2    C313546   0.572   2.637  17.227  0.2218 -0.2073 -0.4125
  922MPD2    C413547   0.643   2.515  17.225 -0.3335  0.0160  0.3656
  922MPD2    C513548   0.774   2.515  17.258  0.1854 -0.1673 -0.0679
  922MPD2     H13549   0.579   2.838  17.262  1.3530  0.1393  1.4171
  922MPD2    H113550   0.596   2.423  17.194 -1.1153 -0.2914  2.4686
  922MPD2    H213551   0.946   2.625  17.309  0.0929 -0.3181 -0.7948
  922MPD2    H313552   0.829   2.424  17.239 -0.6023  0.1569 -3.7713
  922MPD2     N13553   0.435   2.638  17.200  0.2695  0.1222  0.0784
  922MPD2    H513554   0.384   2.726  17.208 -0.0071 -0.1284  1.0396
  922MPD2    N113555   0.832   2.873  17.329  0.0097 -0.0098 -0.0711
  922MPD2    H713556   0.784   2.961  17.319  0.6981  0.2458 -1.0426
  923MPD2     C13557   1.604   0.435   9.039  0.5869 -0.0449  0.3097
  923MPD2    C113558   1.545   0.549   9.090 -0.3915  0.6024  0.4819
  923MPD2    C213559   1.585   0.595   9.212  0.1402  0.2805 -0.8671
  923MPD2    C313560   1.689   0.530   9.272 -0.6039 -0.4460  0.6903
  923MPD2    C413561   1.751   0.425   9.211 -0.1470  0.1655 -0.1147
  923MPD2    C513562   1.702   0.371   9.097 -0.5354 -0.7342 -0.0904
  923MPD2     H13563   1.519   0.666   9.262 -0.9531 -1.4749  0.1733
  923MPD2    H113564   1.833   0.378   9.263  0.6932  1.4026 -0.3290
  923MPD2    H213565   1.573   0.398   8.942  0.4004 -1.8716  1.0645
  923MPD2    H313566   1.761   0.290   9.055  3.5048  1.4126  1.4537
  923MPD2     N13567   1.716   0.539   9.405  0.2222  0.1071  0.0930
  923MPD2    H513568   1.780   0.468   9.438 -0.2608 -0.5942 -0.4679
  923MPD2    N113569   1.446   0.610   9.008 -0.0209  0.2971  0.1908
  923MPD2    H713570   1.414   0.546   8.937  0.2503 -0.9531  1.1835
  924MPD2     C13571   1.328   2.811  16.228  0.3924  0.0093  0.0325
  924MPD2    C113572   1.381   2.900  16.322  0.1677 -0.2432 -0.5896
  924MPD2    C213573   1.494   2.965  16.282  0.3572 -0.1107  0.4859
  924MPD2    C313574   1.557   2.938  16.160  0.6405 -0.0333 -0.1402
  924MPD2    C413575   1.507   2.849  16.069 -0.5382 -0.5097  0.1888
  924MPD2    C513576   1.391   2.786  16.109  0.8114  0.4304 -0.5060
  924MPD2     H13577   1.544   3.039  16.343  1.3788  1.8180 -2.6661
  924MPD2    H113578   1.547   2.829  15.971 -0.0298  0.1663  0.2575
  924MPD2    H213579   1.230   2.767  16.240  0.4457  0.2933  1.5792
  924MPD2    H313580   1.352   2.716  16.035 -1.2307 -1.4588  2.3470
  924MPD2     N13581   1.673   3.021  16.139  0.0800  0.2048 -0.1119
  924MPD2    H513582   1.689   3.095  16.206  3.1029  0.3691 -1.0139
  924MPD2    N113583   1.309   2.940  16.441 -0.4718 -0.8821  0.5215
  924MPD2    H713584   1.215   2.903  16.449 -0.6407 -0.8466 -1.1656
  925MPD2     C13585   0.710   0.734  14.398 -0.3211 -0.3410 -0.6264
  925MPD2    C113586   0.651   0.852  14.365 -0.1820  0.1751  0.2633
  925MPD2    C213587   0.607   0.931  14.472  0.5689  0.0573  0.1183
  925MPD2    C313588   0.624   0.898  14.606  0.1777 -0.5023  0.0717
  925MPD2    C413589   0.700   0.793  14.634 -0.1239  0.1676 -0.3725
  925MPD2    C513590   0.740   0.710  14.531 -0.0982  0.2038 -0.3894
  925MPD2     H13591   0.555   1.023  14.448  1.9728  0.8228  0.0179
  925MPD2    H113592   0.736   0.777  14.734  0.9143  3.5840 -0.2056
  925MPD2    H213593   0.756   0.666  14.327 -0.0459 -0.3399 -0.4485
  925MPD2    H313594   0.803   0.625  14.553 -0.5068 -0.1768 -0.6991
  925MPD2     N13595   0.574   0.981  14.708  0.0053 -0.1993 -0.4673
  925MPD2    H513596   0.593   0.946  14.801 -2.4619  0.1733  0.1810
  925MPD2    N113597   0.630   0.904  14.238 -0.2668  0.1805 -0.3620
  925MPD2    H713598   0.598   0.998  14.220 -1.8783 -0.2367  0.3653
  926MPD2     C13599   4.224   4.161  13.243  0.7339  0.2020 -0.8117
  926MPD2    C113600   4.113   4.201  13.173 -0.1713  0.0587 -0.6209
  926MPD2    C213601   4.135   4.279  13.060  0.7657 -0.2145 -0.7634
  926MPD2    C313602   4.267   4.319  13.024 -0.1918  0.0240 -0.4784
  926MPD2    C413603   4.370   4.271  13.098 -0.3023 -0.1101  0.3814
  926MPD2    C513604   4.346   4.201  13.209 -0.2075 -0.0540  0.5915
  926MPD2     H13605   4.057   4.314  12.992  1.3292  0.1674 -1.2206
  926MPD2    H113606   4.474   4.287  13.070 -0.4615 -2.3156 -1.5296
  926MPD2    H213607   4.213   4.107  13.336  1.8861  2.5354  0.6796
  926MPD2    H313608   4.436   4.174  13.262  0.8548 -1.1179 -1.7515
  926MPD2     N13609   4.297   4.410  12.922 -0.8533  0.4740 -0.3779
  926MPD2    H513610   4.395   4.428  12.903 -0.8734 -1.9142 -2.7993
  926MPD2    N113611   3.983   4.156  13.210  0.2201 -0.0003 -0.1243
  926MPD2    H713612   3.902   4.176  13.153 -0.3016  0.9208  0.9470
  927MPD2     C13613   3.966   1.377  17.109  0.6940  0.2847  0.2512
  927MPD2    C113614   3.931   1.498  17.163  0.5639  0.4130  0.2149
  927MPD2    C213615   3.923   1.601  17.072 -0.5784  1.3675 -0.3507
  927MPD2    C313616   3.977   1.588  16.943 -0.6115  0.3318 -0.0801
  927MPD2    C413617   4.024   1.464  16.896 -0.1705  0.3423  0.0329
  927MPD2    C513618   4.010   1.359  16.977 -0.0864 -0.3659 -0.2377
  927MPD2     H13619   3.900   1.699  17.111  0.2878  1.8690 -1.0902
  927MPD2    H113620   4.070   1.454  16.799  0.6968 -0.5619  0.5264
  927MPD2    H213621   3.959   1.292  17.176 -0.9655  0.5742  0.4460
  927MPD2    H313622   4.042   1.261  16.943 -0.2885 -0.6823  0.4902
  927MPD2     N13623   3.983   1.707  16.872  0.0539 -0.3351  0.0232
  927MPD2    H513624   3.949   1.792  16.915 -2.0299 -0.8211 -0.6615
  927MPD2    N113625   3.892   1.510  17.301  0.1285 -0.8099 -0.7354
  927MPD2    H713626   3.915   1.432  17.361  1.9277 -0.1886 -0.6355
  928MPD2     C13627   1.564   0.957   0.600 -0.0593  0.1358 -0.7393
  928MPD2    C113628   1.677   0.947   0.679  0.3944  0.1887 -0.2036
  928MPD2    C213629   1.801   0.922   0.624  0.0138  0.0851  0.3620
  928MPD2    C313630   1.813   0.907   0.490 -0.1264 -0.1187 -0.2186
  928MPD2    C413631   1.700   0.928   0.415  0.4005 -0.1531 -0.2974
  928MPD2    C513632   1.578   0.958   0.464 -0.1893 -0.2431 -0.2945
  928MPD2     H13633   1.891   0.918   0.683  1.9343 -0.9457 -2.6172
  928MPD2    H113634   1.712   0.930   0.307 -0.3271 -0.0888 -0.3820
  928MPD2    H213635   1.475   0.992   0.651 -0.4498  0.5320 -1.6794
  928MPD2    H313636   1.500   0.984   0.395 -1.4449 -2.8050  0.1688
  928MPD2     N13637   1.936   0.877   0.422 -0.3793 -0.0427  0.2762
  928MPD2    H513638   1.927   0.869   0.321 -0.9289  1.6373  0.1988
  928MPD2    N113639   1.658   0.983   0.822  0.2607  0.2989 -0.5719
  928MPD2    H713640   1.564   1.007   0.852  0.6474  1.1350 -0.0297
  929MPD2     C13641   1.200   0.565   9.270  0.1832  0.0290 -0.0061
  929MPD2    C113642   1.270   0.505   9.374 -0.3925  0.3744 -0.3628
  929MPD2    C213643   1.267   0.558   9.498 -0.5817 -0.3555  0.2405
  929MPD2    C313644   1.173   0.653   9.528 -0.0468 -0.3836 -0.4018
  929MPD2    C413645   1.100   0.711   9.429  0.0829 -0.3396  0.7256
  929MPD2    C513646   1.123   0.677   9.299  0.3208  0.2154  0.2965
  929MPD2     H13647   1.307   0.493   9.575  3.1619 -1.2835 -2.4836
  929MPD2    H113648   1.024   0.785   9.452  0.7590  1.3340 -2.4366
  929MPD2    H213649   1.187   0.518   9.173  3.9104  0.8255 -0.8970
  929MPD2    H313650   1.072   0.723   9.216  0.3454  0.2284  0.2886
  929MPD2     N13651   1.143   0.691   9.669 -0.2592 -0.0488  0.7508
  929MPD2    H513652   1.075   0.765   9.685 -1.8010 -1.4060  0.5209
  929MPD2    N113653   1.338   0.384   9.363  0.3370 -0.3235  0.2735
  929MPD2    H713654   1.381   0.351   9.449  1.3749 -0.7151 -0.3968
  930MPD2     C13655   3.357   2.074  14.092 -0.0377  0.7236 -1.2609
  930MPD2    C113656   3.494   2.081  14.093  0.3625  0.4446 -0.4612
  930MPD2    C213657   3.571   2.031  13.992  0.5151  0.1298 -0.7423
  930MPD2    C313658   3.506   2.005  13.872 -0.8139 -0.1657 -0.4891
  930MPD2    C413659   3.369   2.010  13.875 -0.5599  0.1779 -0.2097
  930MPD2    C513660   3.292   2.043  13.979  0.6759  0.1660  0.0709
  930MPD2     H13661   3.679   2.037  13.995  0.4855 -0.0418  0.4479
  930MPD2    H113662   3.321   1.993  13.779 -1.8798  1.8936  0.1347
  930MPD2    H213663   3.296   2.111  14.174  0.2396 -2.4386  0.3756
  930MPD2    H313664   3.185   2.059  13.976  0.5581 -0.7716 -0.9050
  930MPD2     N13665   3.567   1.994  13.741  0.3019 -0.2591  0.0248
  930MPD2    H513666   3.515   1.979  13.655  0.9984  1.1551 -0.6516
  930MPD2    N113667   3.548   2.117  14.213 -0.3688  0.4167  0.8007
  930MPD2    H713668   3.479   2.114  14.288 -2.5567 -1.5219 -1.2709
  931MPD2     C13669   4.248   1.326  17.740  0.2262 -0.1663  0.0924
  931MPD2    C113670   4.125   1.340   0.038  0.0301 -0.6001 -0.2106
  931MPD2    C213671   4.109   1.286   0.164  0.6665 -0.5058 -0.0314
  931MPD2    C313672   4.211   1.201   0.208 -0.7199 -0.0787 -0.3106
  931MPD2    C413673   4.330   1.186   0.144  0.2574  0.7276  1.3933
  931MPD2    C513674   4.349   1.246   0.022  0.9410 -0.2260 -0.2323
  931MPD2     H13675   4.020   1.285   0.226  1.0648  1.7149  0.5505
  931MPD2    H113676   4.411   1.119   0.173  1.3170  0.7190 -1.5754
  931MPD2    H213677   4.263   1.385  17.651  0.9528 -1.4333 -0.6203
  931MPD2    H313678   4.446   1.239  17.740  1.4777  1.3618  0.6149
  931MPD2     N13679   4.216   1.142   0.335  0.3805 -0.2999 -0.0705
  931MPD2    H513680   4.300   1.087   0.346 -1.0880 -3.0736 -2.5684
  931MPD2    N113681   4.027   1.421  17.740  0.2466  0.1614 -0.3986
  931MPD2    H713682   4.038   1.438  17.641  1.3880  0.8020 -0.1574
  932MPD2     C13683   0.094   1.100  11.298  0.6380  0.2852  0.1582
  932MPD2    C113684   0.227   1.105  11.299 -0.8483 -0.1903  0.0051
  932MPD2    C213685   0.306   0.992  11.286 -0.4126 -0.0093 -0.8611
  932MPD2    C313686   0.253   0.869  11.242  0.5059  0.0854  0.4375
  932MPD2    C413687   0.116   0.870  11.236 -0.6854  0.7629  0.3949
  932MPD2    C513688   0.045   0.985  11.256  0.3903  0.0630 -0.0631
  932MPD2     H13689   0.413   1.002  11.301  0.0039 -1.6539 -2.7498
  932MPD2    H113690   0.057   0.783  11.209  0.5051 -0.1642  0.7698
  932MPD2    H213691   0.026   1.179  11.330  1.3748  0.7955  0.4772
  932MPD2    H313692   4.680   0.983  11.243  0.7701 -2.1659 -2.9605
  932MPD2     N13693   0.329   0.748  11.224 -0.0265 -0.3054  0.1768
  932MPD2    H513694   0.278   0.665  11.197  2.7377 -2.1099  0.5341
  932MPD2    N113695   0.305   1.225  11.342 -0.1286  0.2693  0.2240
  932MPD2    H713696   0.406   1.216  11.340 -0.0083  1.5217  0.8322
  933MPD2     C13697   1.112   1.163   1.113 -0.1637 -0.0762  0.1813
  933MPD2    C113698   1.225   1.226   1.159  0.1030  0.1085 -0.1870
  933MPD2    C213699   1.219   1.360   1.195 -0.5451  0.4342 -0.5654
  933MPD2    C313700   1.108   1.435   1.167  0.7058 -0.2322  0.0560
  933MPD2    C413701   0.996   1.372   1.105 -0.1969  0.0171  0.0080
  933MPD2    C513702   0.994   1.232   1.075 -0.1394  0.1461  0.8192
  933MPD2     H13703   1.308   1.415   1.224 -1.2937  1.9763 -1.1823
  933MPD2    H113704   0.914   1.433   1.071 -0.6189 -1.1361 -1.0470
  933MPD2    H213705   1.117   1.057   1.091  3.1528  0.2557 -0.6603
  933MPD2    H313706   0.908   1.175   1.042 -0.1101  1.0334 -0.7849
  933MPD2     N13707   1.112   1.577   1.204 -0.2590  0.6501 -0.5744
  933MPD2    H513708   1.195   1.605   1.256  0.3277  0.7686 -1.5838
  933MPD2    N113709   1.338   1.139   1.175  0.2417  1.0061  0.8756
  933MPD2    H713710   1.348   1.046   1.135  2.5114  2.7880 -2.7252
  934MPD2     C13711   3.532   2.981   1.721 -0.5306 -0.0564  0.8045
  934MPD2    C113712   3.593   2.914   1.614  0.4584  0.5508 -0.7198
  934MPD2    C213713   3.515   2.840   1.533  0.0380  0.2062  0.6675
  934MPD2    C313714   3.377   2.842   1.541 -1.0214 -0.5442 -0.0708
  934MPD2    C413715   3.318   2.916   1.641 -0.0256 -0.0932 -0.5629
  934MPD2    C513716   3.398   2.981   1.736  0.1549  0.0469  0.0904
  934MPD2     H13717   3.567   2.787   1.454  0.8555  3.5280 -0.9942
  934MPD2    H113718   3.210   2.915   1.654  0.0149  0.3203 -0.1618
  934MPD2    H213719   3.592   3.038   1.791  1.0523 -0.1794 -0.4619
  934MPD2    H313720   3.347   3.030   1.818  0.7072  0.9623 -0.1245
  934MPD2     N13721   3.295   2.769   1.452  0.2495 -0.2183 -0.7137
  934MPD2    H513722   3.196   2.766   1.476 -0.3667 -1.4024 -3.4482
  934MPD2    N113723   3.735   2.911   1.597  0.3970 -0.2286 -0.7152
  934MPD2    H713724   3.761   2.872   1.507  1.4552  2.2356 -1.4820
  935MPD2     C13725   3.512   2.032   0.803  0.9018 -0.3575 -0.1240
  935MPD2    C113726   3.385   2.075   0.764  0.4159  0.2121 -1.0659
  935MPD2    C213727   3.322   2.185   0.828 -0.0784  0.6007 -1.2129
  935MPD2    C313728   3.386   2.246   0.938  0.6292 -0.0641  0.1041
  935MPD2    C413729   3.521   2.215   0.968  0.3799  0.0624 -0.1189
  935MPD2    C513730   3.569   2.102   0.901  0.0318  0.1076 -0.3049
  935MPD2     H13731   3.223   2.215   0.796 -0.5026  0.0387 -0.4160
  935MPD2    H113732   3.577   2.243   1.056 -0.2404 -2.4274  1.0573
  935MPD2    H213733   3.563   1.944   0.766 -1.4617 -1.9168  0.2864
  935MPD2    H313734   3.668   2.064   0.927 -0.9635 -0.9981  1.8969
  935MPD2     N13735   3.333   2.348   1.013 -0.6755 -0.0175  0.6450
  935MPD2    H513736   3.407   2.397   1.061  0.5164 -0.2558 -0.9562
  935MPD2    N113737   3.311   2.006   0.665 -0.6456 -0.0221  0.0470
  935MPD2    H713738   3.219   2.044   0.647 -0.6692 -0.2471 -0.2967
  936MPD2     C13739   0.671   4.486  12.415  0.4770  0.2165 -0.5738
  936MPD2    C113740   0.761   4.399  12.470 -0.4426 -0.3445 -0.0407
  936MPD2    C213741   0.893   4.400  12.441 -0.4398  0.1558 -0.1421
  936MPD2    C313742   0.945   4.497  12.360  0.2836 -0.7855  0.0438
  936MPD2    C413743   0.860   4.589  12.295 -0.2615  0.0745 -0.1670
  936MPD2    C513744   0.727   4.574  12.318  0.2857 -0.0273 -0.0249
  936MPD2     H13745   0.963   4.325  12.476 -0.1730  0.5092  0.0803
  936MPD2    H113746   0.902   4.669  12.236  0.4110 -0.5650 -0.5574
  936MPD2    H213747   0.566   4.498  12.437  0.5644  0.8454 -0.5095
  936MPD2    H313748   0.659   4.642  12.267  1.7617  1.1396 -0.4158
  936MPD2     N13749   1.087   4.488  12.344 -0.8088  0.2212 -0.1666
  936MPD2    H513750   1.130   4.415  12.400  0.5075 -0.4859 -2.0642
  936MPD2    N113751   0.718   4.301  12.558  0.2012  0.1255  0.0977
  936MPD2    H713752   0.794   4.240  12.586 -1.5093 -1.1590  2.0016
  937MPD2     C13753   3.445   0.921  11.535  0.5507  0.3248  0.3528
  937MPD2    C113754   3.530   1.026  11.512 -0.2265 -0.6290 -0.1950
  937MPD2    C213755   3.588   1.048  11.387  0.3846  0.5034 -0.3577
  937MPD2    C313756   3.573   0.957  11.284  0.1787  0.3224  0.0130
  937MPD2    C413757   3.494   0.846  11.311 -0.2052 -0.0780  0.2391
  937MPD2    C513758   3.428   0.835  11.430  0.0116  0.5898 -0.0569
  937MPD2     H13759   3.649   1.137  11.371 -1.1373  1.4615 -0.8228
  937MPD2    H113760   3.486   0.766  11.240  0.0115  0.5284 -0.4740
  937MPD2    H213761   3.396   0.895  11.628 -1.8573 -0.7029 -1.1676
  937MPD2    H313762   3.361   0.752  11.447 -0.9661  1.4394  0.2798
  937MPD2     N13763   3.639   0.977  11.160  0.1115 -0.3008 -0.0362
  937MPD2    H513764   3.706   1.053  11.162  1.4900 -1.5093 -0.4577
  937MPD2    N113765   3.538   1.141  11.604  0.0378  0.5151 -0.7553
  937MPD2    H713766   3.595   1.222  11.581  2.2251 -0.8092  0.0370
  938MPD2     C13767   2.247   2.889   0.790 -0.2885 -0.8223  0.1747
  938MPD2    C113768   2.145   2.870   0.709 -0.2833  0.3894  0.2589
  938MPD2    C213769   2.044   2.780   0.739 -0.0020 -0.3220 -0.3378
  938MPD2    C313770   2.052   2.704   0.847 -0.4202 -0.2949 -0.5921
  938MPD2    C413771   2.160   2.725   0.936 -0.1091  1.0641 -0.2737
  938MPD2    C513772   2.259   2.809   0.899  0.2140 -0.5879 -0.4134
  938MPD2     H13773   1.956   2.778   0.676 -0.8042  2.0577  0.7009
  938MPD2    H113774   2.173   2.674   1.031 -1.3794 -0.6155 -1.0032
  938MPD2    H213775   2.319   2.970   0.783 -0.2618 -0.4121  5.2336
  938MPD2    H313776   2.336   2.836   0.970  1.7838  0.7710 -2.6175
  938MPD2     N13777   1.961   2.606   0.884 -0.1222  0.1993 -0.3580
  938MPD2    H513778   1.985   2.555   0.969  2.3582  2.9289  0.6027
  938MPD2    N113779   2.138   2.949   0.594  0.3482  0.1287  0.2177
  938MPD2    H713780   2.054   2.956   0.537 -0.0731 -0.9803  0.6989
  939MPD2     C13781   2.659   3.281   0.514 -0.9709 -0.3249  0.4295
  939MPD2    C113782   2.703   3.396   0.457 -0.3438 -0.2057 -0.4695
  939MPD2    C213783   2.780   3.400   0.343  0.1941  0.0563  0.1944
  939MPD2    C313784   2.797   3.287   0.270 -0.8588  0.1284 -0.4169
  939MPD2    C413785   2.757   3.165   0.336 -0.1514 -0.0212 -0.0583
  939MPD2    C513786   2.694   3.159   0.454 -0.3978  0.1872  0.0571
  939MPD2     H13787   2.833   3.486   0.306  1.3935 -0.8475 -0.1683
  939MPD2    H113788   2.799   3.070   0.304 -1.2188  0.0825 -1.7730
  939MPD2    H213789   2.599   3.281   0.603  0.7124  3.0632  1.5818
  939MPD2    H313790   2.674   3.064   0.504 -0.7842 -1.3045 -2.9309
  939MPD2     N13791   2.868   3.294   0.148 -0.3015  1.0083  0.5577
  939MPD2    H513792   2.894   3.386   0.115 -0.6616  1.4433  1.4936
  939MPD2    N113793   2.676   3.512   0.526  0.9622  0.7833  0.4536
  939MPD2    H713794   2.612   3.499   0.603  0.3257 -1.3299 -0.4137
  940MPD2     C13795   1.651   3.955  13.288  0.2876  0.3202  1.1311
  940MPD2    C113796   1.567   3.853  13.249  0.1703  0.3288 -0.0381
  940MPD2    C213797   1.534   3.844  13.113 -0.0352  0.6465  0.0586
  940MPD2    C313798   1.585   3.926  13.020  0.0874  0.3484  0.0869
  940MPD2    C413799   1.638   4.045  13.063 -0.1770 -0.1827 -0.9027
  940MPD2    C513800   1.679   4.055  13.195 -0.0687  0.3652 -1.1573
  940MPD2     H13801   1.480   3.755  13.085 -1.0938  0.4278  2.8838
  940MPD2    H113802   1.676   4.123  12.997  0.2650  1.5417  1.3799
  940MPD2    H213803   1.693   3.956  13.388  2.4051 -0.1418  0.2323
  940MPD2    H313804   1.750   4.136  13.209  0.0008 -0.1864  1.6544
  940MPD2     N13805   1.581   3.895  12.881 -0.1158 -0.7811 -0.3356
  940MPD2    H513806   1.543   3.804  12.858 -0.2646 -0.2283 -2.2997
  940MPD2    N113807   1.524   3.744  13.332  0.2066  0.0877  0.2143
  940MPD2    H713808   1.470   3.676  13.280  0.9816 -0.0913 -0.3649
  941MPD2     C13809   1.223   3.301   9.931 -0.0944  0.5201  0.0369
  941MPD2    C113810   1.121   3.374   9.992 -0.4212  0.3456 -0.6928
  941MPD2    C213811   1.110   3.363  10.128 -0.2406 -0.2286 -0.3992
  941MPD2    C313812   1.176   3.275  10.214 -0.0069  0.0564 -0.0139
  941MPD2    C413813   1.281   3.203  10.151  0.1797 -0.1521  0.5104
  941MPD2    C513814   1.303   3.227  10.016  0.0215  0.8116  0.2608
  941MPD2     H13815   1.022   3.408  10.172 -1.1413 -2.1510 -0.2209
  941MPD2    H113816   1.346   3.142  10.212 -1.1875 -1.2587  0.8708
  941MPD2    H213817   1.247   3.297   9.825 -0.7105 -3.9385  0.0568
  941MPD2    H313818   1.392   3.180   9.975 -0.9684 -3.1798  2.6895
  941MPD2     N13819   1.162   3.266  10.353 -0.4540 -0.1933  0.0120
  941MPD2    H513820   1.223   3.195  10.391  1.3571  1.8782  1.0049
  941MPD2    N113821   1.033   3.466   9.928 -1.2660 -0.0886 -0.1985
  941MPD2    H713822   0.961   3.502   9.991  0.9442  3.0010  0.5788
  942MPD2     C13823   0.646   0.656   9.508 -0.1503 -0.1162  0.4689
  942MPD2    C113824   0.537   0.664   9.422 -0.5856 -0.1013  0.1006
  942MPD2    C213825   0.549   0.634   9.288 -0.2305  0.5262 -0.2299
  942MPD2    C313826   0.671   0.588   9.244  0.0713  0.7298  0.7846
  942MPD2    C413827   0.776   0.576   9.332 -0.0013  0.9654  0.9926
  942MPD2    C513828   0.768   0.610   9.466 -0.5504  0.9263  0.1362
  942MPD2     H13829   0.467   0.654   9.221 -0.2562  0.7104 -0.1445
  942MPD2    H113830   0.874   0.542   9.301 -0.4589  1.2998 -0.8061
  942MPD2    H213831   0.632   0.663   9.615 -4.1397  0.0479 -0.0464
  942MPD2    H313832   0.852   0.599   9.533  0.9031  1.2909 -1.6201
  942MPD2     N13833   0.685   0.572   9.105  0.4840  0.2813  0.7822
  942MPD2    H513834   0.603   0.587   9.048  0.0900 -1.0403  0.9935
  942MPD2    N113835   0.406   0.703   9.464 -0.8723  0.5350 -0.0585
  942MPD2    H713836   0.335   0.688   9.394  1.1709 -1.2881 -1.7281
  943MPD2     C13837   4.592   2.992   9.333 -0.1217  0.6819 -0.4770
  943MPD2    C113838   4.510   2.965   9.436 -0.0264  0.3314  0.0049
  943MPD2    C213839   4.476   3.059   9.530  0.6562 -0.4073 -0.2470
  943MPD2    C313840   4.521   3.190   9.523  0.4348  0.0314 -0.1749
  943MPD2    C413841   4.618   3.213   9.421  0.0589 -1.0448 -0.9463
  943MPD2    C513842   4.648   3.115   9.331  0.4718  0.5132  0.3030
  943MPD2     H13843   4.418   3.034   9.618  2.1034 -2.3670  0.1645
  943MPD2    H113844   4.682   3.301   9.426  0.3919 -1.3998  1.3571
  943MPD2    H213845   4.616   2.922   9.253  0.7726  1.1306 -0.6077
  943MPD2    H313846   4.734   3.126   9.265  1.7083 -1.9881  1.5080
  943MPD2     N13847   4.512   3.285   9.633  0.0411  0.1309 -0.6966
  943MPD2    H513848   4.581   3.359   9.636 -1.3556  1.2949  2.2746
  943MPD2    N113849   4.465   2.835   9.446  0.4123  0.1584 -0.7223
  943MPD2    H713850   4.476   2.786   9.358  0.3539 -0.3208 -0.4598
  944MPD2     C13851   3.951   2.862  10.759  0.4156 -0.1771 -0.1228
  944MPD2    C113852   4.022   2.861  10.870  0.1605  1.0271 -0.8415
  944MPD2    C213853   4.007   2.959  10.967  0.4142  0.5522 -0.4688
  944MPD2    C313854   3.892   3.041  10.958  0.2821  0.6754 -0.1737
  944MPD2    C413855   3.809   3.031  10.849 -1.1567 -0.7164  0.5924
  944MPD2    C513856   3.842   2.947  10.748 -0.2179  1.4456  0.1234
  944MPD2     H13857   4.070   2.961  11.055 -0.2528  0.5323  0.0077
  944MPD2    H113858   3.720   3.086  10.822 -0.5558 -0.8830 -1.6992
  944MPD2    H213859   3.973   2.789  10.682 -1.2519  1.3993 -2.0997
  944MPD2    H313860   3.783   2.943  10.657 -2.2587  0.7947  1.4434
  944MPD2     N13861   3.868   3.135  11.059  0.0317  0.2924  0.1497
  944MPD2    H513862   3.938   3.147  11.132 -0.1202  1.0793  0.1670
  944MPD2    N113863   4.117   2.760  10.879  0.1712 -0.3963  0.4040
  944MPD2    H713864   4.120   2.688  10.807 -0.5961  1.2647 -1.2750
    1TMC1    C113865   2.643   3.000  14.339  0.1303  0.3876 -0.6674
    1TMC1    C213866   2.545   3.051  14.262 -0.8830  0.1807  0.2748
    1TMC1    C313867   2.429   2.979  14.260 -0.0395  0.6886  0.0267
    1TMC1    C413868   2.654   2.877  14.392  0.2611 -0.2561 -0.5716
    1TMC1    C513869   2.534   2.801  14.378 -0.3318 -0.8541  0.1433
    1TMC1    C613870   2.421   2.857  14.313  0.1517  0.0679 -0.5933
    1TMC1     C13871   2.779   3.059  14.328  0.7954 -0.6629  0.0490
    1TMC1     O13872   2.857   3.022  14.412 -0.2941 -0.2284 -0.6729
    1TMC1     H13873   2.545   3.156  14.237  0.5457  0.0466 -0.2593
    1TMC1    H113874   2.735   2.851  14.459 -0.9489  1.1800  1.4797
    1TMC1    H213875   2.331   2.796  14.324 -0.0228  0.3482 -0.4645
    1TMC1    C713876   2.518   2.665  14.430  0.5071 -0.1057  0.2916
    1TMC1    C813877   2.304   3.046  14.220  0.9129 -0.1539 -0.3125
    1TMC1    O113878   2.416   2.619  14.471  0.2830  0.4870 -0.4549
    1TMC1    O213879   2.189   3.005  14.233 -0.1297  0.0552 -0.7752
    1TMC1    O313880   2.642   2.617  14.451 -0.5271 -0.5694  0.2230
    1TMC1    H313881   2.706   2.670  14.399  0.4000 -0.3640  1.5439
    1TMC1    O513882   2.336   3.135  14.117 -0.5112 -0.3464 -0.2521
    1TMC1    H513883   2.431   3.158  14.101 -0.4104 -0.4108  0.2744
    2MPD2     C13884   3.137   3.368  14.146  0.3392  0.2433  0.2453
    2MPD2    C113885   3.026   3.395  14.083 -0.5464  0.1574 -0.2544
    2MPD2    C213886   2.913   3.322  14.116 -0.8386  0.6792 -0.0793
    2MPD2    C313887   2.916   3.211  14.200  0.1513 -0.2898  0.2374
    2MPD2    C413888   3.044   3.179  14.253  0.6224 -0.3962  0.1747
    2MPD2    C513889   3.149   3.264  14.229  0.3160 -0.5584  0.0872
    2MPD2     H13890   2.818   3.354  14.074 -1.4180 -0.9050  0.0132
    2MPD2    H113891   3.073   3.096  14.316 -0.4884 -1.1462 -0.3000
    2MPD2    H213892   3.222   3.432  14.124  0.0665  1.2053  1.9892
    2MPD2    H313893   3.243   3.251  14.281  0.9752 -2.0216 -1.5003
    2MPD2     N13894   2.797   3.142  14.221 -0.3600 -0.3104  0.3935
    2MPD2    H513895   2.717   3.164  14.162  0.4916 -0.7792 -0.9513
    2MPD2    N113896   3.028   3.501  13.991 -0.3256 -0.0229  0.1298
    2MPD2    H713897   3.113   3.556  13.986  0.2808 -1.1199 -1.4837
    3TMC2    C113898   2.952   3.650  13.837  0.6427  0.2054  0.3069
    3TMC2    C213899   2.980   3.768  13.898  0.6286 -0.5510 -0.6142
    3TMC2    C313900   2.919   3.882  13.864  1.2725 -0.9894  0.6484
    3TMC2    C413901   2.880   3.647  13.718  0.0920 -0.4075  0.6479
    3TMC2    C513902   2.820   3.772  13.687 -0.1602  0.2889 -0.0087
    3TMC2    C613903   2.834   3.892  13.758  0.2734 -0.1380 -0.1978
    3TMC2     C13904   2.918   3.539  13.910  0.2538 -0.2388  0.6698
    3TMC2     O13905   2.799   3.502  13.899  0.6262  0.2259 -0.0582
    3TMC2     H13906   3.012   3.767  14.001  0.0612  0.0312 -0.4291
    3TMC2    H113907   2.849   3.555  13.670  2.0943 -0.4911 -0.4526
    3TMC2    H213908   2.795   3.986  13.721 -0.9494 -0.3812  0.5043
    3TMC2    C713909   2.733   3.774  13.572  0.5765  0.5021 -0.0792
    3TMC2    C813910   2.926   3.990  13.965  0.6527 -0.7521  0.3303
    3TMC2    O113911   2.735   3.668  13.505  0.0596 -0.1662  0.5994
    3TMC2    O213912   3.008   3.987  14.052 -0.1818  0.0325  0.0249
    3TMC2    O513913   2.832   4.084  13.945 -0.0336  1.0245  0.0358
    3TMC2    H513914   2.760   4.061  13.882 -1.3162 -0.9612  2.2400
    4TMC2    C113915   1.910   4.352  13.499 -0.6094 -0.5092  0.6236
    4TMC2    C213916   1.922   4.460  13.580 -1.2018  0.3382  0.2374
    4TMC2    C313917   2.038   4.480  13.656  0.7540  0.0977 -0.3712
    4TMC2    C413918   2.010   4.258  13.488 -0.3716  0.0297  0.4128
    4TMC2    C513919   2.119   4.276  13.568  0.0511 -0.5320  0.1457
    4TMC2    C613920   2.134   4.383  13.654  0.1929 -0.6446  1.2934
    4TMC2     C13921   1.779   4.291  13.480 -0.6497  0.3813  0.5283
    4TMC2     O13922   1.769   4.170  13.502  0.2995  0.2748  0.2205
    4TMC2     H13923   1.839   4.530  13.583  0.3413  2.2751 -2.0225
    4TMC2    H113924   1.993   4.168  13.431 -0.3431 -0.3323  0.9717
    4TMC2    H213925   2.213   4.386  13.728  3.1924  2.7373 -2.0542
    4TMC2    C713926   2.230   4.177  13.576 -0.0189 -0.8678 -0.5242
    4TMC2    C813927   2.033   4.559  13.772  0.5431  0.3677  0.3189
    4TMC2    O113928   2.320   4.201  13.655  0.1148 -0.4649 -0.4300
    4TMC2    O213929   2.101   4.519  13.869 -0.3698  0.2182 -0.0442
    4TMC2    O513930   1.921   4.639  13.767 -0.3049  0.4699 -0.2558
    4TMC2    H513931   1.914   4.670  13.674  1.4109  2.1886  0.2029
    5MPD2     C13932   1.306   4.285  13.294  0.4099 -0.3906 -0.1356
    5MPD2    C113933   1.367   4.397  13.243  0.0474  0.4920  0.2493
    5MPD2    C213934   1.492   4.434  13.292  0.1223  0.0548  0.4273
    5MPD2    C313935   1.562   4.347  13.374 -0.2628 -0.2084  0.0645
    5MPD2    C413936   1.494   4.231  13.418 -0.5354  0.3488 -0.5172
    5MPD2    C513937   1.366   4.203  13.374  0.0238 -0.2009 -0.4696
    5MPD2     H13938   1.550   4.522  13.267  0.7187 -0.7452 -0.9954
    5MPD2    H113939   1.535   4.163  13.492 -1.9619  0.7810  0.6607
    5MPD2    H213940   1.209   4.257  13.255  0.3238 -0.5287  0.1720
    5MPD2    H313941   1.316   4.115  13.413 -0.2988  1.0639  1.9042
    5MPD2     N13942   1.693   4.377  13.412 -0.9394 -0.0542  0.0962
    5MPD2    H513943   1.722   4.471  13.389 -1.2986  0.2099  0.7067
    5MPD2    N113944   1.294   4.471  13.149 -0.0012 -0.3307 -0.1413
    5MPD2    H713945   1.202   4.442  13.119 -1.9879  3.5136  2.1611
    6MPD1     C13946   0.006   0.926  12.873 -0.3581  0.1258 -0.4002
    6MPD1    C113947   0.131   0.981  12.860  0.0808  0.6230  0.4608
    6MPD1    C213948   0.224   0.910  12.783 -0.4657 -0.1211  0.1575
    6MPD1    C313949   0.204   0.784  12.736 -0.2287  0.2542 -0.8657
    6MPD1    C413950   0.085   0.724  12.760  0.0766 -0.7206 -0.2540
    6MPD1    C513951   4.730   0.796  12.820 -0.1721 -0.0973 -0.4872
    6MPD1     H13952   0.323   0.954  12.771 -0.6326  0.2018 -0.0394
    6MPD1    H113953   0.060   0.629  12.715  1.8470  0.1088 -2.9752
    6MPD1    H213954   4.671   0.979  12.929 -0.8066  0.3603 -1.2356
    6MPD1    H313955   4.633   0.748  12.827  0.1434 -0.5175  1.0326
    6MPD1     N13956   0.302   0.714  12.666  0.3910 -0.0549  0.9581
    6MPD1    H513957   0.306   0.613  12.656 -0.4909  0.3848 -3.7296
    6MPD1    N113958   0.153   1.117  12.896 -0.6318  0.4575 -0.1886
    6MPD1    H613959   0.112   1.151  12.983 -0.4027  2.0763 -0.7134
    6MPD1    H713960   0.254   1.129  12.905 -0.4339 -0.0181 -1.7093
    7MPD2     C13961   0.528   0.026  12.629  0.9083  0.2859  0.5615
    7MPD2    C113962   0.632   0.100  12.587  0.0319  0.0082  0.6819
    7MPD2    C213963   0.758   0.047  12.612 -0.2247 -0.5014  0.7288
    7MPD2    C313964   0.785   4.670  12.677  0.3026  0.2764  1.0160
    7MPD2    C413965   0.679   4.597  12.724 -0.0368 -0.3390 -0.2964
    7MPD2    C513966   0.553   4.648  12.687  0.0120 -0.2357 -0.4082
    7MPD2     H13967   0.847   0.105  12.594  0.7566 -1.9464  0.9643
    7MPD2    H113968   0.692   4.507  12.783  0.6421  0.1977  0.3700
    7MPD2    H213969   0.426   0.058  12.615  0.3898 -1.2107  0.9074
    7MPD2    H313970   0.468   4.598  12.731  1.4278 -1.7142  0.6491
    7MPD2     N13971   0.922   4.640  12.700  0.8149 -0.0973 -0.2364
    7MPD2    H513972   0.988   4.699  12.650 -0.6497  2.2356  0.6076
    7MPD2    N113973   0.631   0.227  12.522 -0.3010  0.3467 -0.0702
    7MPD2    H713974   0.722   0.269  12.507 -0.9952  2.0053  0.4318
    8TMC3    C113975   1.114   4.546  12.813  0.6245 -0.1348 -0.2978
    8TMC3    C213976   1.150   4.536  12.948  0.2403  0.0546 -0.2657
    8TMC3    C313977   1.242   4.627  12.992  0.2495  0.0736 -0.2734
    8TMC3    C413978   1.178   4.627  12.724 -0.3196  0.2017  0.1397
    8TMC3    C513979   1.258   4.726  12.780  0.3443  0.6667  0.8858
    8TMC3    C613980   1.301   4.729  12.912  0.1572  0.6216 -0.8937
    8TMC3     C13981   0.968   4.546  12.794 -0.0133 -0.6071 -0.0069
    8TMC3     O13982   0.905   4.489  12.881  0.0904  0.4693 -0.3368
    8TMC3     H13983   1.105   4.462  13.014  0.3490  1.3221  1.2329
    8TMC3    H113984   1.143   4.622  12.622  0.7264  2.5322 -0.3228
    8TMC3    H213985   1.368   0.064  12.947  2.2999 -0.9640 -1.4458
    8TMC3    C713986   1.227   0.115  12.715 -0.3856  0.0956  0.1767
    8TMC3    C813987   1.335   4.591  13.096 -0.3703 -0.4292  0.1141
    8TMC3    O113988   1.158   0.111  12.616 -0.2691 -0.0600  0.2847
    8TMC3    O213989   1.447   4.640  13.094 -0.3608  0.2550 -0.6196
    9TMC3    C113990   0.511   0.666  12.564 -0.0456 -0.2395 -0.3056
    9TMC3    C213991   0.640   0.706  12.551 -0.5703  0.4582  0.7081
    9TMC3    C313992   0.727   0.603  12.521  0.0177  0.0719  0.6447
    9TMC3    C413993   0.476   0.537  12.541 -0.6209  0.0157 -0.7432
    9TMC3    C513994   0.563   0.440  12.508 -0.3226 -0.1159 -1.1984
    9TMC3    C613995   0.694   0.473  12.505 -0.1858  0.1938  0.6144
    9TMC3     C13996   0.415   0.771  12.607 -0.2235  0.5638 -0.0287
    9TMC3     O13997   0.438   0.890  12.586  0.0527  0.3452 -0.5863
    9TMC3     H13998   0.682   0.803  12.572 -0.8677  0.6741  0.2982
    9TMC3    H113999   0.376   0.497  12.551  0.3355 -1.8764  1.0786
    9TMC3    H214000   0.761   0.411  12.447 -0.3513 -0.6300  1.3045
    9TMC3    C714001   0.521   0.305  12.507  0.0039 -0.3809 -0.1080
    9TMC3    C814002   0.863   0.634  12.562  0.6643  0.2590 -0.1760
    9TMC3    O114003   0.403   0.271  12.513  0.4497  0.6752 -0.8601
    9TMC3    O214004   0.898   0.751  12.562 -0.4728 -0.4509  0.1895
   10MPD2     C14005   1.318   0.468  12.781 -0.3228 -0.3480 -0.6241
   10MPD2    C114006   1.233   0.359  12.755  0.2475 -0.3399  0.1081
   10MPD2    C214007   1.106   0.387  12.710  0.4268 -0.5339  0.2931
   10MPD2    C314008   1.067   0.516  12.667 -0.8649  0.8078 -0.8359
   10MPD2    C414009   1.148   0.623  12.691 -1.0879 -0.5963  0.3361
   10MPD2    C514010   1.273   0.593  12.743  0.2865 -0.5143  0.2805
   10MPD2     H14011   1.044   0.301  12.687  0.2190 -0.3440  0.1419
   10MPD2    H114012   1.124   0.727  12.668  0.0923 -0.5268 -0.5911
   10MPD2    H214013   1.418   0.450  12.819  0.0437  2.5722 -0.2080
   10MPD2    H314014   1.330   0.685  12.757  0.4199 -0.4397 -0.7379
   10MPD2     N14015   0.935   0.519  12.609  0.0947  0.3200 -0.4810
   10MPD2    H514016   0.889   0.430  12.595 -0.1180 -0.0373  2.4145
   10MPD2    N114017   1.276   0.228  12.767 -0.6074  0.6126  0.4422
   10MPD2    H714018   1.374   0.213  12.791 -0.2770  3.1458  0.6471
   11MPD2     C14019   2.468   3.751  13.439  0.2227 -0.6753  1.4238
   11MPD2    C114020   2.514   3.854  13.516 -0.0257 -0.1461  0.0551
   11MPD2    C214021   2.428   3.967  13.540 -0.5601 -0.2914  0.5520
   11MPD2    C314022   2.295   3.957  13.497  0.1261 -0.3620 -0.2584
   11MPD2    C414023   2.256   3.855  13.417 -0.0785 -0.1481  0.7367
   11MPD2    C514024   2.346   3.757  13.378 -0.7921 -0.7676  0.1637
   11MPD2     H14025   2.461   4.050  13.602  2.8950 -2.2503  1.3512
   11MPD2    H114026   2.164   3.841  13.362 -0.6410  1.2546  1.3357
   11MPD2    H214027   2.528   3.669  13.402 -1.4748 -1.1394 -0.3342
   11MPD2    H314028   2.321   3.674  13.312 -1.4226  1.1090 -1.9414
   11MPD2     N14029   2.206   4.065  13.501 -0.0480 -0.4391  0.2378
   11MPD2    H514030   2.127   4.067  13.437  0.6734  3.0014 -0.5677
   11MPD2    N114031   2.636   3.867  13.581 -0.3535 -0.6350  0.8750
   11MPD2    H714032   2.643   3.932  13.659  0.0233  3.0220 -2.2065
    1MPD1     C14033   0.582   4.713   0.152  0.2764 -0.2028 -0.0751
    1MPD1    C114034   0.631   0.065   0.060 -0.1624 -0.0411 -0.2374
    1MPD1    C214035   0.550   0.100  17.717  0.3260 -0.1730 -0.0159
    1MPD1    C314036   0.418   0.050  17.706 -0.6685 -0.1756  0.4625
    1MPD1    C414037   0.371   4.718   0.044 -1.1642  0.3752  0.7997
    1MPD1    C514038   0.452   4.676   0.145  0.0770  0.0867 -0.5310
    1MPD1     H14039   0.605   0.147  17.636 -1.2956  2.1480  0.2392
    1MPD1    H114040   0.269   4.683   0.042 -0.3704 -1.9335  1.0574
    1MPD1    H214041   0.647   4.668   0.227  0.0216  0.7730  0.7185
    1MPD1    H314042   0.422   4.601   0.216 -0.6303  2.5240  1.7327
    1MPD1     N14043   0.346   0.069  17.589  0.2781  0.4442  0.5467
    1MPD1    H514044   0.266   0.008  17.579  1.6212 -1.4593  1.3400
    1MPD1    N114045   0.770   0.073   0.049  0.5630  0.4708 -0.2600
    1MPD1    H614046   0.806   0.152  17.763  1.2608 -0.0728 -0.6070
    1MPD1    H714047   0.807   0.070   0.144 -2.8018 -1.7149  0.9840
    2MPD1     C14048   0.290   0.258  16.515  0.2461 -0.2704  0.2733
    2MPD1    C114049   0.223   0.151  16.558 -0.2250 -0.7090  0.2383
    2MPD1    C214050   0.214   0.135  16.695  0.9808 -0.1005  0.5792
    2MPD1    C314051   0.249   0.232  16.789  0.1969 -0.3681  0.6520
    2MPD1    C414052   0.312   0.346  16.746 -0.2081 -0.5513  0.6063
    2MPD1    C514053   0.335   0.351  16.611  0.0057 -0.7676  0.1202
    2MPD1     H14054   0.179   0.044  16.742  2.5924 -0.7974  0.4349
    2MPD1    H114055   0.342   0.428  16.811 -3.6454 -0.8640  2.6011
    2MPD1    H214056   0.308   0.271  16.409 -1.6668  3.4749  0.3860
    2MPD1    H314057   0.392   0.435  16.573 -0.7558 -0.2917  0.0134
    2MPD1     N14058   0.223   0.201  16.927  0.2656  0.0499 -0.0336
    2MPD1    H514059   0.174   0.116  16.950 -0.5940  0.9956  1.6078
    2MPD1    N114060   0.212   0.030  16.481 -1.0800 -0.3404  0.2047
    2MPD1    H614061   0.129   4.717  16.501 -0.8797 -1.1062 -1.0366
    2MPD1    H714062   0.202   0.055  16.382 -1.1998  0.5774  0.4433
    3TMC3    C114063   0.227   0.224  17.159  0.2790 -0.0788  0.3489
    3TMC3    C214064   0.116   0.145  17.165 -0.0668  0.4950  0.1770
    3TMC3    C314065   0.079   0.079  17.276 -0.1519  0.9873  0.0694
    3TMC3    C414066   0.311   0.217  17.271  0.3438  0.2511 -0.2862
    3TMC3    C514067   0.273   0.148  17.379  0.1139 -0.7260  0.2280
    3TMC3    C614068   0.152   0.081  17.388 -0.3934  0.2534  0.8508
    3TMC3     C14069   0.267   0.277  17.030 -0.4298  0.4903 -0.5606
    3TMC3     O14070   0.338   0.376  17.034 -0.2040 -0.5858 -0.4473
    3TMC3     H14071   0.054   0.136  17.076  0.8110  0.4893 -0.4371
    3TMC3    H114072   0.397   0.282  17.267  0.1322  0.5122 -0.6439
    3TMC3    H214073   0.114   0.034  17.478  0.5651  0.5972  1.4305
    3TMC3    C714074   0.363   0.169  17.493 -0.5531 -0.0461  0.2495
    3TMC3    C814075   4.712   4.722  17.267 -0.2064 -0.1962 -0.4456
    3TMC3    O114076   0.456   0.250  17.484 -0.2247 -0.2393  0.1762
    3TMC3    O214077   4.624   4.735  17.181  0.4361  0.4092 -0.6272
    4MPD1     C14078   4.430   4.342  17.429 -0.1373  0.2527  0.2685
    4MPD1    C114079   4.555   4.310  17.470 -0.0351  0.3821 -0.3116
    4MPD1    C214080   4.652   4.404  17.445 -0.2453  0.0796 -0.0415
    4MPD1    C314081   4.626   4.514  17.366  0.0679 -0.3892 -0.0566
    4MPD1    C414082   4.500   4.530  17.310  0.0551 -0.2774  0.0345
    4MPD1    C514083   4.399   4.438  17.346  0.0356  0.4880 -0.2619
    4MPD1     H14084   0.010   4.385  17.482 -1.3707 -1.1828  2.3942
    4MPD1    H114085   4.457   4.616  17.260 -0.8199 -1.0635 -0.5584
    4MPD1    H214086   4.354   4.272  17.463  0.5247 -0.5935 -0.0298
    4MPD1    H314087   4.297   4.450  17.312 -0.3077 -2.9774 -0.4640
    4MPD1     N14088   4.727   4.611  17.352 -0.3428  0.1004  0.1309
    4MPD1    H514089   0.066   4.601  17.413 -1.3614  1.0201  1.6424
    4MPD1    N114090   4.581   4.208  17.566  0.0620  0.4140 -0.2091
    4MPD1    H614091   4.513   4.133  17.560  1.0264 -0.2559 -2.7641
    4MPD1    H714092   4.681   4.188  17.561  0.3342  1.6665  0.1084
    1TCq1    O114093   0.359   0.893  10.917 -0.2434 -0.7800 -0.6299
    1TCq1    C114094   0.425   1.011  10.895 -0.0719  0.4937  0.3600
    1TCq1    O214095   0.369   1.116  10.878  0.2808 -0.6734 -0.2831
    1TCq1    C214096   0.568   1.006  10.920 -0.0781 -0.0891 -0.0421
    1TCq1    C314097   0.645   0.900  10.967 -0.3784  0.7143  0.9571
    1TCq1    C414098   0.779   0.904  10.949  0.3223 -0.6998  0.1203
    1TCq1    C514099   0.840   1.015  10.896  0.0368  0.1012  0.8421
    1TCq1    C614100   0.766   1.112  10.831 -0.2317 -0.9243  0.1047
    1TCq1    C714101   0.628   1.093  10.833 -0.3904  0.1011 -0.4682
    1TCq1    C814102   0.821   1.224  10.750  0.0713 -0.1588  0.2701
    1TCq1    O414103   0.737   1.293  10.691  0.3166 -0.3845 -0.3217
    1TCq1    C914104   0.862   0.839  11.044  0.5736  0.4906 -0.2305
    1TCq1    O514105   0.846   0.713  11.047  0.3371  0.2575  0.1181
    1TCq1    O614106   0.917   0.912  11.131  0.0257  0.0435 -0.2476
    1TCq1    H114107   0.423   0.824  10.945  1.1775 -0.3098 -2.6637
    1TCq1    H214108   0.616   0.843  11.054  0.5583  1.0521  1.4882
    1TCq1    H314109   0.947   1.022  10.906  0.0744 -0.1239  0.5930
    1TCq1    H414110   0.577   1.163  10.768 -1.8070 -0.0461  0.4793
    2MPD1     C14111   1.215   1.498  10.546 -0.6815 -0.2974  0.0085
    2MPD1    C114112   1.262   1.379  10.592  0.6996  0.1535  0.0483
    2MPD1    C214113   1.175   1.302  10.665 -0.3140  0.2970 -0.3937
    2MPD1    C314114   1.042   1.320  10.664  0.9984  0.1758  0.2081
    2MPD1    C414115   0.991   1.436  10.613  0.1015 -1.3451 -0.3171
    2MPD1    C514116   1.083   1.531  10.566 -0.5443  0.1738 -0.1068
    2MPD1     H14117   1.219   1.213  10.708 -0.6325  0.3502  0.0422
    2MPD1    H114118   0.889   1.469  10.635  0.6256 -0.9230  1.4677
    2MPD1    H214119   1.281   1.569  10.497 -1.7336  0.7797  0.1342
    2MPD1    H314120   1.044   1.629  10.541 -0.2593 -0.5432 -3.2920
    2MPD1     N14121   0.960   1.231  10.745 -0.3348 -0.4207  0.5259
    2MPD1    H514122   1.012   1.166  10.803  0.0593 -1.4340 -0.9531
    2MPD1    N114123   1.402   1.366  10.596  0.3607  0.0884  0.3611
    2MPD1    H614124   1.450   1.413  10.519  0.9480 -1.1671 -0.0395
    2MPD1    H714125   1.427   1.268  10.596 -1.2667 -0.3306 -0.9718
    1TMC1    C114126   3.613   3.517   0.729 -0.6362 -0.8195  0.4020
    1TMC1    C214127   3.567   3.389   0.718 -0.7987  0.4822 -0.5681
    1TMC1    C314128   3.438   3.352   0.735  0.2652  0.0016  0.3682
    1TMC1    C414129   3.519   3.622   0.748 -0.5102 -0.3522  0.0006
    1TMC1    C514130   3.393   3.578   0.763  0.2804 -0.1721  0.3786
    1TMC1    C614131   3.344   3.445   0.761 -0.5973 -0.1914 -0.1075
    1TMC1     C14132   3.754   3.547   0.747  0.0249 -0.1979 -0.8752
    1TMC1     O14133   3.780   3.653   0.806 -0.0465 -0.1780  0.0364
    1TMC1     H14134   3.634   3.304   0.717  1.9251  2.6133  0.6206
    1TMC1    H114135   3.561   3.722   0.752 -1.2704 -0.1391  2.6875
    1TMC1    H214136   3.237   3.429   0.761 -0.5659 -0.4452  1.6700
    1TMC1    C714137   3.300   3.685   0.767  0.1949  0.6356  0.2594
    1TMC1    C814138   3.407   3.210   0.725  0.4465  0.2315 -0.3130
    1TMC1    O114139   3.198   3.686   0.830 -0.2557  0.0345  0.5714
    1TMC1    O214140   3.434   3.135   0.635  0.1785 -0.3678  0.2963
    1TMC1    O314141   3.323   3.757   0.653 -0.1242  0.0092  0.1611
    1TMC1    H314142   3.412   3.748   0.612 -1.0812 -1.2952 -1.6377
    1TMC1    O514143   3.338   3.196   0.843  0.1171  0.3599  0.1814
    1TMC1    H514144   3.331   3.277   0.898 -1.4408  1.1667 -1.2202
    2MPD1     C14145   4.234   3.480   0.566 -0.2544 -0.0297  0.4601
    2MPD1    C114146   4.151   3.388   0.511  0.1763 -0.3580 -0.3110
    2MPD1    C214147   4.016   3.379   0.549  0.1968 -0.0088 -0.4916
    2MPD1    C314148   3.961   3.462   0.646  1.2028 -0.8965  0.3837
    2MPD1    C414149   4.046   3.551   0.708 -0.7110  0.2397 -0.7913
    2MPD1    C514150   4.180   3.556   0.670  0.0546  0.3502  0.1495
    2MPD1     H14151   3.958   3.311   0.487 -0.2652 -0.8382  0.8473
    2MPD1    H114152   4.010   3.609   0.792 -1.6709  0.1794 -1.1711
    2MPD1    H214153   4.337   3.486   0.533 -0.3394 -1.7414 -0.0989
    2MPD1    H314154   4.243   3.627   0.723  0.6225 -1.1375  1.4615
    2MPD1     N14155   3.821   3.451   0.680  1.0087 -0.4364  0.9440
    2MPD1    H514156   3.774   3.374   0.633 -0.8627 -0.9059  3.5635
    2MPD1    N114157   4.211   3.291   0.421 -0.1149  0.3076 -0.0327
    2MPD1    H614158   4.270   3.345   0.357  0.9442 -2.0867 -1.0637
    2MPD1    H714159   4.139   3.251   0.362 -0.3948 -1.2484  1.3745
    1MPD1     C14160   3.081   0.733  11.848  0.5395 -0.1009 -0.1200
    1MPD1    C114161   3.040   0.806  11.958 -0.2294 -0.0605 -0.2389
    1MPD1    C214162   3.020   0.939  11.944 -0.1223 -0.1798  0.0438
    1MPD1    C314163   3.064   1.009  11.830 -0.6861 -0.2202 -0.0660
    1MPD1    C414164   3.147   0.935  11.741  0.2900  0.0117 -0.2697
    1MPD1    C514165   3.139   0.797  11.743 -0.9299  0.3110 -0.6508
    1MPD1     H14166   2.972   0.996  12.022 -0.8685 -0.8885  0.0982
    1MPD1    H114167   3.176   0.988  11.651 -0.8948 -0.5307 -0.9603
    1MPD1    H214168   3.081   0.625  11.851  1.2241 -0.0760  0.7087
    1MPD1    H314169   3.189   0.737  11.667 -2.3155 -1.7301  0.0487
    1MPD1     N14170   3.035   1.142  11.806 -0.0835  0.7494 -0.4356
    1MPD1    H514171   2.977   1.185  11.876 -1.7553  0.0852 -1.4230
    1MPD1    N114172   2.991   0.742  12.070  0.0742  0.1578 -0.2738
    1MPD1    H614173   3.043   0.657  12.093  2.1705  1.8690  1.2139
    1MPD1    H714174   2.987   0.805  12.150 -1.0811  1.4086 -1.3147
    2MPD1     C14175   1.401   0.854  11.229 -0.4002  0.1500 -0.0331
    2MPD1    C114176   1.336   0.770  11.137  0.5766  0.5534  0.4761
    2MPD1    C214177   1.406   0.712  11.034 -0.3010  0.2923  0.4270
    2MPD1    C314178   1.541   0.745  11.016 -0.1035 -0.2275 -0.1931
    2MPD1    C414179   1.598   0.838  11.100 -0.0106 -0.9260  0.0714
    2MPD1    C514180   1.526   0.893  11.205 -0.5857 -0.1101  0.5071
    2MPD1     H14181   1.356   0.646  10.964 -0.4112  1.0905 -0.2467
    2MPD1    H114182   1.702   0.870  11.098 -1.4506  3.6614 -0.6410
    2MPD1    H214183   1.344   0.903  11.308  1.2470  0.8418  0.7364
    2MPD1    H314184   1.569   0.973  11.264 -1.1882  0.7657 -0.2397
    2MPD1     N14185   1.628   0.696  10.918  0.2097 -0.1048 -0.0114
    2MPD1    H514186   1.726   0.715  10.934  0.1375  1.0940 -0.9615
    2MPD1    N114187   1.206   0.741  11.169  0.1494 -0.4507 -0.2357
    2MPD1    H614188   1.146   0.819  11.196  2.0715  1.4090 -1.3964
    2MPD1    H714189   1.159   0.695  11.091  0.0609 -1.0747  0.1819
    3MPD1     C14190   1.596   0.111  10.056 -0.2119  1.1805 -0.6341
    3MPD1    C114191   1.497   0.175  10.126 -0.1099 -0.8727 -0.5308
    3MPD1    C214192   1.539   0.252  10.233 -0.2190  0.0354 -0.2456
    3MPD1    C314193   1.656   0.233  10.305 -0.1101  0.0506  0.0980
    3MPD1    C414194   1.746   0.144  10.242 -0.3420  0.0038  0.4846
    3MPD1    C514195   1.723   0.101  10.117  0.1733 -0.3237  0.7340
    3MPD1     H14196   1.466   0.315  10.284  3.2284  4.5088 -0.8448
    3MPD1    H114197   1.846   0.130  10.281  0.2178 -0.0562 -0.9839
    3MPD1    H214198   1.581   0.082   9.953  2.1782  0.2472 -0.7088
    3MPD1    H314199   1.800   0.053  10.057  0.4018  1.2104 -0.1992
    3MPD1     N14200   1.681   0.313  10.419 -0.5849 -0.5369 -0.1764
    3MPD1    H514201   1.616   0.389  10.435  2.0739  1.5175  0.7226
    3MPD1    N114202   1.384   0.199  10.050 -0.0301 -0.6693  0.0425
    3MPD1    H614203   1.350   0.121   9.994  0.9790 -0.7273 -0.4949
    3MPD1    H714204   1.310   0.253  10.095  0.0315 -2.2964  2.0728
    4MPD2     C14205   2.418   1.281  11.541  0.4858  0.2249  0.5795
    4MPD2    C114206   2.500   1.382  11.489 -0.1664  0.2180 -0.7405
    4MPD2    C214207   2.491   1.410  11.354  0.1273  0.5640  0.3559
    4MPD2    C314208   2.401   1.340  11.267  0.3708 -0.7159 -0.0303
    4MPD2    C414209   2.317   1.252  11.322 -0.1389 -0.0118 -1.0290
    4MPD2    C514210   2.327   1.224  11.454 -1.1205 -0.3355 -0.4439
    4MPD2     H14211   2.564   1.479  11.313 -1.0834  1.4954 -0.2304
    4MPD2    H114212   2.249   1.194  11.260 -0.1085 -0.2865 -0.8044
    4MPD2    H214213   2.424   1.244  11.643 -2.1769 -1.6349  0.0706
    4MPD2    H314214   2.264   1.138  11.478 -2.2278  0.5961 -0.0109
    4MPD2     N14215   2.401   1.352  11.125  0.0273 -0.1024 -0.5907
    4MPD2    H514216   2.338   1.296  11.069  1.8760 -1.8414 -0.9618
    4MPD2    N114217   2.610   1.432  11.555  0.2943 -0.4167 -0.9201
    4MPD2    H714218   2.676   1.488  11.502  0.9451 -0.8644 -0.5851
    5TMC3    C114219   2.780   1.441  11.703 -0.6184  0.4399 -0.6804
    5TMC3    C214220   2.871   1.350  11.752  0.6612 -0.8772  0.5675
    5TMC3    C314221   3.000   1.349  11.703 -0.1862  0.9586 -0.2594
    5TMC3    C414222   2.819   1.532  11.612 -0.5890 -0.3530  0.1078
    5TMC3    C514223   2.947   1.530  11.560  0.0533  0.2204 -0.0449
    5TMC3    C614224   3.040   1.440  11.605  0.1416  0.3111 -0.4848
    5TMC3     C14225   2.653   1.389  11.678 -0.5832 -0.6152  1.0962
    5TMC3     O14226   2.604   1.309  11.758  0.3923  0.5454  0.2240
    5TMC3     H14227   2.833   1.262  11.803  3.0403 -1.0517  2.0559
    5TMC3    H114228   2.755   1.608  11.569 -0.4933 -0.6685 -0.6077
    5TMC3    H214229   3.141   1.447  11.567  0.1905  0.8434 -0.2674
    5TMC3    C714230   2.931   1.528  11.426 -0.1459 -0.8546  0.5026
    5TMC3    C814231   3.074   1.224  11.699 -0.2315 -0.0750 -0.6056
    5TMC3    O114232   2.813   1.509  11.386  0.7477 -0.3207  0.6727
    5TMC3    O214233   3.150   1.211  11.608 -0.0258 -0.5896 -0.3988
    6TMC3    C114234   1.714   0.574  10.729  0.0281  0.4358  0.0347
    6TMC3    C214235   1.696   0.466  10.647 -0.7776  0.0093 -0.6446
    6TMC3    C314236   1.808   0.413  10.590  0.3256  0.0941 -0.0422
    6TMC3    C414237   1.828   0.643  10.731 -0.1464 -0.6963 -0.1550
    6TMC3    C514238   1.942   0.591  10.676  0.1805 -0.6738 -0.3000
    6TMC3    C614239   1.930   0.470  10.610  0.3959  0.0172  0.4976
    6TMC3     C14240   1.600   0.624  10.802  0.4286 -0.0451 -0.2200
    6TMC3     O14241   1.492   0.576  10.789 -0.7566 -0.5502 -0.1489
    6TMC3     H14242   1.598   0.420  10.642 -0.2419 -1.4342  2.2163
    6TMC3    H114243   1.843   0.735  10.786 -0.6694 -0.5686 -0.2345
    6TMC3    H214244   2.014   0.434  10.551 -0.0749  0.1596 -0.2621
    6TMC3    C714245   2.060   0.673  10.696  0.4108 -1.0107 -0.1093
    6TMC3    C814246   1.795   0.305  10.498 -0.8204 -0.1702  0.2399
    6TMC3    O114247   2.049   0.794  10.729  0.2278 -0.5961  0.4473
    6TMC3    O214248   1.890   0.232  10.479 -0.0086 -0.3723  0.6013
    7MPD2     C14249   3.067   1.424  10.939  0.9418 -0.0950  0.5038
    7MPD2    C114250   2.945   1.442  11.002 -0.1562  0.0993 -0.6517
    7MPD2    C214251   2.933   1.489  11.132  0.3643  0.4194  0.2912
    7MPD2    C314252   3.047   1.493  11.211 -1.0455  0.1751 -0.4008
    7MPD2    C414253   3.168   1.484  11.149 -0.4830 -1.4083 -0.1877
    7MPD2    C514254   3.178   1.441  11.019 -1.0072 -0.4402  0.0207
    7MPD2     H14255   2.828   1.502  11.158 -0.0113 -1.0479 -0.4818
    7MPD2    H114256   3.260   1.486  11.206  0.5079 -0.8613 -1.8029
    7MPD2    H214257   3.079   1.393  10.836  0.2475  2.8550 -0.4794
    7MPD2    H314258   3.275   1.418  10.976 -0.4119  1.5353  0.2964
    7MPD2     N14259   3.043   1.512  11.354  0.2856  0.4997  0.0700
    7MPD2    H514260   3.131   1.535  11.400  0.2577 -1.3248  1.0113
    7MPD2    N114261   2.826   1.410  10.932  0.0005  0.1275 -0.1136
    7MPD2    H714262   2.739   1.435  10.978 -0.1004  0.7032 -0.6260
    8TMC3    C114263   2.666   1.362  10.778 -0.1930  0.4089 -0.1040
    8TMC3    C214264   2.614   1.238  10.741 -0.1258 -0.5333  0.5405
    8TMC3    C314265   2.490   1.202  10.783 -1.0900 -0.2313  0.3557
    8TMC3    C414266   2.591   1.445  10.851  0.0644  0.4193 -0.0287
    8TMC3    C514267   2.473   1.407  10.907 -0.2685  0.0830 -0.2295
    8TMC3    C614268   2.414   1.287  10.865 -0.4762  0.4551 -0.1478
    8TMC3     C14269   2.809   1.370  10.806  0.1079 -0.2075 -0.4972
    8TMC3     O14270   2.884   1.304  10.738  0.0114 -0.0187  0.0416
    8TMC3     H14271   2.686   1.168  10.701 -1.5203 -0.7590 -1.5804
    8TMC3    H114272   2.630   1.545  10.867  0.0552  0.3630  0.3532
    8TMC3    H214273   2.311   1.261  10.889 -0.5290  0.7702 -0.0387
    8TMC3    C714274   2.498   1.421  11.052 -0.8375  0.4937 -0.3517
    8TMC3    C814275   2.433   1.068  10.768  0.0712  0.0139  0.0317
    8TMC3    O114276   2.604   1.463  11.095 -0.6013 -0.1309 -0.2597
    8TMC3    O214277   2.312   1.057  10.787 -0.1053 -0.1927 -0.1543
    9MPD2     C14278   2.572   0.752  10.635 -0.0655  0.1864 -0.2235
    9MPD2    C114279   2.468   0.837  10.675 -0.4211 -0.2757  0.3775
    9MPD2    C214280   2.337   0.790  10.682 -0.7343  0.0621 -0.2700
    9MPD2    C314281   2.312   0.659  10.642 -0.7125  0.1150 -0.3972
    9MPD2    C414282   2.415   0.578  10.606 -0.9209  0.6389 -0.0931
    9MPD2    C514283   2.543   0.627  10.594 -0.0176  0.1597  0.0078
    9MPD2     H14284   2.259   0.860  10.709 -0.5230 -0.0352  0.5814
    9MPD2    H114285   2.398   0.473  10.586 -1.6959  0.8254 -0.4425
    9MPD2    H214286   2.676   0.778  10.622  0.2758 -1.4914 -0.8302
    9MPD2    H314287   2.625   0.563  10.565 -0.3647 -0.0861 -0.4271
    9MPD2     N14288   2.176   0.611  10.640 -0.4288  0.2425 -0.3453
    9MPD2    H514289   2.166   0.521  10.594  2.6735 -0.0236 -0.4846
    9MPD2    N114290   2.514   0.969  10.719  0.0493 -0.4091  0.2223
    9MPD2    H714291   2.614   0.985  10.716 -0.1496  0.7911  0.2598
    1MPD1     C14292   3.068   4.305  16.192  0.1511 -0.2961  0.6876
    1MPD1    C114293   2.950   4.227  16.189  0.0330  1.2407  0.4289
    1MPD1    C214294   2.934   4.133  16.094 -0.5507  0.3078 -1.0583
    1MPD1    C314295   3.018   4.121  15.987  0.1447  0.6313  0.3090
    1MPD1    C414296   3.132   4.196  15.988  0.0283  0.3404  0.4564
    1MPD1    C514297   3.154   4.296  16.085 -0.0642  0.7524  0.0280
    1MPD1     H14298   2.847   4.069  16.090 -2.2147  2.4427  0.9623
    1MPD1    H114299   3.204   4.183  15.908 -1.5740  1.8811 -1.2336
    1MPD1    H214300   3.109   4.364  16.273  1.7404 -0.7706  0.2475
    1MPD1    H314301   3.244   4.356  16.075  0.4947 -0.2257 -0.8188
    1MPD1     N14302   3.003   4.025  15.882  0.4397 -0.1862 -0.1915
    1MPD1    H514303   3.075   4.011  15.811  1.6094  1.9071  0.5935
    1MPD1    N114304   2.860   4.231  16.295  0.3911 -0.4133 -0.1962
    1MPD1    H614305   2.840   4.325  16.330 -0.1932 -0.7602  0.3970
    1MPD1    H714306   2.774   4.187  16.263 -0.8399  1.4874  0.4781
    2TMC2    C114307   2.895   3.952  15.498  0.6245 -0.1982  0.6479
    2TMC2    C214308   2.861   3.822  15.464  0.3293 -0.2528 -0.1464
    2TMC2    C314309   2.819   3.743  15.568 -0.0567  0.1099 -0.3975
    2TMC2    C414310   2.912   3.989  15.629 -0.0895  0.1178 -0.6495
    2TMC2    C514311   2.886   3.895  15.728 -0.2380 -0.2556  0.1122
    2TMC2    C614312   2.832   3.772  15.703  0.2186 -0.5601  0.0850
    2TMC2     C14313   2.902   4.055  15.394 -0.0491  0.3896  0.3523
    2TMC2     O14314   2.963   4.024  15.293  0.7445  0.0287  0.1908
    2TMC2     H14315   2.843   3.785  15.364  1.6598 -1.6011  0.1201
    2TMC2    H114316   2.954   4.089  15.642  0.7855 -0.0690 -2.0301
    2TMC2    H214317   2.817   3.697  15.780 -0.4568 -0.9999 -0.4700
    2TMC2    C714318   2.897   3.942  15.861  0.0753  0.1914  0.1938
    2TMC2    C814319   2.768   3.614  15.520 -0.3359 -0.2539 -0.4264
    2TMC2    O114320   2.838   3.875  15.948  0.3033  0.1673 -0.0825
    2TMC2    O214321   2.821   3.559  15.426  0.1698  0.1368  0.0858
    2TMC2    O514322   2.718   3.549  15.629 -0.6050 -1.1431 -0.0365
    2TMC2    H514323   2.663   3.600  15.692  2.0445 -0.1316  1.4644
    3MPD1     C14324   3.000   4.563  15.321  0.0544  0.2132 -0.1314
    3MPD1    C114325   2.926   4.547  15.438 -1.3489 -0.0624  0.1247
    3MPD1    C214326   2.883   4.419  15.471  0.4184  0.5009  0.1882
    3MPD1    C314327   2.914   4.303  15.401  0.0129 -0.1666  0.2390
    3MPD1    C414328   2.996   4.325  15.287 -0.7381 -0.1490 -0.1073
    3MPD1    C514329   3.028   4.450  15.253 -0.5365  0.4489 -0.7599
    3MPD1     H14330   2.823   4.402  15.560  2.8328 -2.2615  1.2718
    3MPD1    H114331   3.023   4.243  15.222  1.4562 -1.2020  2.1823
    3MPD1    H214332   3.040   4.658  15.289 -3.4028  0.5970 -3.3172
    3MPD1    H314333   3.078   4.470  15.159  2.7306  0.9635  1.0670
    3MPD1     N14334   2.861   4.178  15.439  0.0543  0.0255 -0.1643
    3MPD1    H514335   2.797   4.183  15.517  1.2157  0.8744  0.7297
    3MPD1    N114336   2.872   4.659  15.509 -0.7365 -0.0220 -0.4437
    3MPD1    H614337   2.935   4.739  15.500  0.4768 -0.9973 -0.5636
    3MPD1    H714338   2.863   4.644  15.609  1.6647  1.1444 -0.0480
    1TMC1    C114339   0.534   3.075  12.835 -0.2181 -0.2101 -0.0783
    1TMC1    C214340   0.587   3.193  12.873 -0.4114 -0.0783  0.5528
    1TMC1    C314341   0.516   3.300  12.901  0.0464  0.4204  0.4121
    1TMC1    C414342   0.398   3.066  12.827  0.2754 -0.1068  0.5640
    1TMC1    C514343   0.326   3.167  12.870  0.4000 -0.2186  0.4975
    1TMC1    C614344   0.378   3.289  12.902  0.2224  0.2629 -0.9844
    1TMC1     C14345   0.618   2.963  12.792 -0.4844 -0.0887  0.2008
    1TMC1     O14346   0.567   2.874  12.725 -0.2662  0.4295  0.5896
    1TMC1     H14347   0.694   3.211  12.864 -0.3753 -1.7741 -2.1942
    1TMC1    H114348   0.343   2.979  12.792 -0.3201 -0.3899  2.2334
    1TMC1    H214349   0.334   3.386  12.922  1.8160  0.5969  1.0050
    1TMC1    C714350   0.187   3.151  12.839 -0.7260  0.5338 -0.2212
    1TMC1    C814351   0.576   3.431  12.921 -0.5846 -0.4469  0.2426
    1TMC1    O114352   0.159   3.103  12.732  0.7341 -0.0322 -0.0681
    1TMC1    O214353   0.515   3.532  12.896  0.2207  0.6478 -0.0235
    1TMC1    O314354   0.122   3.257  12.898 -0.0507 -0.2439  0.0794
    1TMC1    H314355   0.156   3.251  12.990  1.7194  0.8537 -0.5113
    1TMC1    O514356   0.684   3.432  13.001 -0.4723 -0.2722  0.5635
    1TMC1    H514357   0.732   3.346  13.004 -3.6416 -1.9878  1.6097
    2MPD2     C14358   0.848   2.775  12.752 -0.2701  0.4617 -0.1306
    2MPD2    C114359   0.850   2.880  12.849  0.6656 -0.3677 -0.0539
    2MPD2    C214360   0.964   2.893  12.925  0.4386  0.0974  0.1169
    2MPD2    C314361   1.077   2.824  12.887 -0.0025  0.5962 -0.4249
    2MPD2    C414362   1.079   2.732  12.789  0.0039 -0.5725 -0.7630
    2MPD2    C514363   0.960   2.710  12.726  0.3207 -0.3194  0.5901
    2MPD2     H14364   0.967   2.972  12.999 -0.3968  1.7048 -1.5476
    2MPD2    H114365   1.163   2.670  12.761 -0.5369 -1.8618  0.4755
    2MPD2    H214366   0.758   2.749  12.699 -0.4432  0.2871  0.2436
    2MPD2    H314367   0.946   2.640  12.644  1.5837  1.0065 -0.7578
    2MPD2     N14368   1.188   2.859  12.966  0.8508 -0.3439 -0.3881
    2MPD2    H514369   1.182   2.936  13.033 -1.6526 -1.0355  0.1652
    2MPD2    N114370   0.743   2.968  12.859  0.1088  0.9664 -0.3496
    2MPD2    H714371   0.762   3.046  12.922  0.8927  1.2144 -0.9016
    3TCq1    O114372   1.827   2.838  13.148 -0.1204 -0.0874  0.4887
    3TCq1    C114373   1.752   2.739  13.091 -0.3888 -0.4991  0.1390
    3TCq1    O214374   1.784   2.668  12.999 -0.7390 -0.0336  0.1143
    3TCq1    C214375   1.616   2.766  13.123  0.1862  0.3564  0.3480
    3TCq1    C314376   1.585   2.813  13.250  0.1403 -0.1581  0.3012
    3TCq1    C414377   1.459   2.870  13.274 -0.0871 -0.3714  0.1376
    3TCq1    C514378   1.359   2.868  13.178  0.4127  0.0638 -0.3552
    3TCq1    C614379   1.401   2.811  13.061 -0.3984 -0.0604  0.3123
    3TCq1    C714380   1.525   2.770  13.027  0.0340  0.3809 -0.8280
    3TCq1    C814381   1.305   2.790  12.957 -0.0981 -0.0097 -0.3354
    3TCq1    O414382   1.347   2.717  12.868  0.1867 -0.2509 -0.0473
    3TCq1    C914383   1.420   2.916  13.408  0.1970 -0.3455  0.3465
    3TCq1    O514384   1.340   3.013  13.417  0.0857 -0.2775  0.5795
    3TCq1    O614385   1.474   2.855  13.506 -0.4343  0.5235 -0.2805
    3TCq1    H114386   1.771   2.909  13.186  0.3321  1.1405 -1.1350
    3TCq1    H214387   1.652   2.811  13.336 -1.4688 -0.9088  1.5226
    3TCq1    H314388   1.264   2.913  13.204  0.9460  0.6563  0.5768
    3TCq1    H414389   1.552   2.727  12.931  0.9482 -1.2670  0.1720
    1MPD2     C14390   0.434   4.184  14.628 -0.8545 -0.4963 -1.1376
    1MPD2    C114391   0.347   4.088  14.689 -0.1788 -0.0054  0.0371
    1MPD2    C214392   0.399   3.959  14.721 -0.0563  0.1273 -0.2985
    1MPD2    C314393   0.538   3.939  14.711  0.2105  0.2056 -0.5306
    1MPD2    C414394   0.619   4.034  14.657  0.3104  0.4923  0.5631
    1MPD2    C514395   0.566   4.145  14.605 -0.9614  0.0586  0.2347
    1MPD2     H14396   0.343   3.876  14.763  2.3909 -1.4655 -0.2027
    1MPD2    H114397   0.726   4.014  14.657  0.3642  0.7984 -0.5767
    1MPD2    H214398   0.412   4.289  14.615 -0.2696 -0.0856  1.2450
    1MPD2    H314399   0.635   4.221  14.570 -0.7204 -0.1330  0.2929
    1MPD2     N14400   0.572   3.808  14.752 -0.3082 -0.4341  0.1071
    1MPD2    H514401   0.493   3.753  14.784 -0.3806 -0.2999  0.1580
    1MPD2    N114402   0.212   4.128  14.710 -0.3607  0.0997  0.0208
    1MPD2    H714403   0.177   4.203  14.652  0.5492  1.9359  1.8834
    2TMC3    C114404   4.734   4.104  14.784 -0.0571 -0.1949  1.0679
    2TMC3    C214405   4.656   4.002  14.822  0.7160 -0.2739  0.0177
    2TMC3    C314406   4.543   3.971  14.746  0.2245  0.3772 -0.9580
    2TMC3    C414407   4.704   4.184  14.681 -0.4965  0.7447 -0.3851
    2TMC3    C514408   4.590   4.163  14.608  0.7757  0.1750  0.0624
    2TMC3    C614409   4.517   4.049  14.638  0.3504 -0.1742 -0.1778
    2TMC3     C14410   0.130   4.056  14.791  0.2976  0.4065 -0.0212
    2TMC3     O14411   0.147   3.950  14.847 -0.3615 -0.0841 -0.1619
    2TMC3     H14412   4.662   3.945  14.914 -2.0331 -1.3598 -0.4533
    2TMC3    H114413   0.029   4.265  14.656  0.6687  0.1499  0.8140
    2TMC3    H214414   4.423   4.026  14.589  0.1164 -1.1125  0.7288
    2TMC3    C714415   4.533   4.249  14.513  0.0333 -0.1878  0.0879
    2TMC3    C814416   4.526   3.831  14.714  0.1633 -0.1481 -0.1963
    2TMC3    O114417   4.418   4.228  14.474 -0.9946  0.1394 -0.6844
    2TMC3    O214418   4.433   3.795  14.648 -0.9470 -0.1126 -0.1110
    3TCq1    O114419   0.460   0.230  13.807  0.1551  0.0298  0.2931
    3TCq1    C114420   0.394   0.305  13.899  0.4415  1.0215 -0.2371
    3TCq1    O214421   0.347   0.417  13.883 -0.2511 -0.4107 -0.1244
    3TCq1    C214422   0.370   0.215  14.007  0.5435 -0.3238  0.2754
    3TCq1    C314423   0.468   0.130  14.041  0.2136 -0.5256  0.2453
    3TCq1    C414424   0.438   0.031  14.139 -0.1956 -0.3236 -0.1367
    3TCq1    C514425   0.313   0.026  14.194  0.5801 -0.4773  0.5323
    3TCq1    C614426   0.212   0.117  14.157  0.1555 -0.1711 -0.6163
    3TCq1    C714427   0.243   0.210  14.062 -0.6414  0.4566 -0.0403
    3TCq1    C814428   0.067   0.092  14.175  1.0330 -0.3117  0.3751
    3TCq1    O414429   4.723   0.159  14.117  0.4635  0.0110  1.2537
    3TCq1    C914430   0.536   4.677  14.172 -0.4888  0.0332 -0.8869
    3TCq1    O514431   0.637   4.681  14.099  0.1497  0.4372  0.0439
    3TCq1    O614432   0.503   4.579  14.244  0.6894  0.3370  0.2342
    3TCq1    H114433   0.481   0.139  13.837  0.3006  0.2543  0.8746
    3TCq1    H214434   0.567   0.143  13.999 -1.0916  2.1060 -2.0310
    3TCq1    H314435   0.296   4.692  14.270  2.8706 -0.2419  1.2829
    3TCq1    H414436   0.163   0.272  14.022 -0.6793 -0.2729 -1.0962
    4MPD2     C14437   4.559   4.678  14.225  0.6802 -0.0313 -0.0994
    4MPD2    C114438   4.674   4.660  14.292 -0.4760  0.2651 -0.4410
    4MPD2    C214439   4.696   4.548  14.376 -0.6703  0.1469  0.0312
    4MPD2    C314440   4.584   4.468  14.410  0.5645 -0.6759 -0.3907
    4MPD2    C414441   4.465   4.501  14.349 -0.6704  0.7690 -0.1033
    4MPD2    C514442   4.457   4.596  14.250  0.3157  0.0765 -0.7639
    4MPD2     H14443   0.051   4.529  14.421 -0.8910  0.5760  0.6968
    4MPD2    H114444   4.374   4.454  14.385 -0.9401  3.8774  3.2505
    4MPD2    H214445   4.535   0.009  14.149 -1.5687 -0.5455  0.1240
    4MPD2    H314446   4.366   4.624  14.198 -0.1955  0.1328  0.1672
    4MPD2     N14447   4.616   4.359  14.494  0.1086 -0.0181  0.0822
    4MPD2    H514448   4.713   4.358  14.524 -0.4743 -0.2748  1.9545
    4MPD2    N114449   0.054   4.731  14.263  0.0878  0.0793 -0.1566
    4MPD2    H714450   0.138   4.697  14.308 -0.3769 -2.3696 -1.1098
    5TMC2    C114451   0.492   3.477  14.789  0.1781  0.2651  0.3672
    5TMC2    C214452   0.543   3.396  14.692  0.0280 -0.0511 -0.1427
    5TMC2    C314453   0.671   3.422  14.635 -0.4731 -0.0270  0.0134
    5TMC2    C414454   0.565   3.578  14.835  0.1198  0.2376  0.0638
    5TMC2    C514455   0.690   3.606  14.784 -0.6603  0.0500  0.4815
    5TMC2    C614456   0.750   3.526  14.690  0.1504  0.5270 -0.2095
    5TMC2     C14457   0.352   3.516  14.782  0.9819 -0.0662 -0.0578
    5TMC2     O14458   0.329   3.617  14.847 -0.2819  0.1319  0.5144
    5TMC2     H14459   0.490   3.306  14.665  0.0147 -0.1028  0.0583
    5TMC2    H114460   0.526   3.648  14.909 -0.7416 -0.8474  0.6303
    5TMC2    H214461   0.853   3.533  14.659 -0.0833 -1.5416 -1.5269
    5TMC2    C714462   0.696   3.745  14.740 -0.4338 -0.3910 -0.9055
    5TMC2    C814463   0.750   3.295  14.603  0.3319 -0.6389  0.6442
    5TMC2    O114464   0.802   3.795  14.698 -0.0452 -0.3147 -0.3727
    5TMC2    O214465   0.871   3.289  14.610  0.0215 -0.0484 -0.6374
    5TMC2    O514466   0.679   3.245  14.493 -0.4282  0.3442 -0.4600
    5TMC2    H514467   0.582   3.252  14.505 -0.5512  0.8282 -1.7597
    6MPD2     C14468   4.618   3.547  14.619  0.3215 -0.4140  0.2437
    6MPD2    C114469   4.694   3.649  14.672 -0.8331 -0.2596 -0.1325
    6MPD2    C214470   0.085   3.609  14.691  1.1740  0.1659 -0.1549
    6MPD2    C314471   0.138   3.484  14.671 -0.1040  0.5106 -0.0549
    6MPD2    C414472   0.057   3.394  14.602 -0.1676 -0.2289 -0.9420
    6MPD2    C514473   4.667   3.425  14.578  0.4420  0.7948 -0.0756
    6MPD2     H14474   0.144   3.686  14.739  2.2266  0.0161 -1.2082
    6MPD2    H114475   0.085   3.291  14.584 -2.3923 -0.8490 -0.9081
    6MPD2    H214476   4.512   3.566  14.623 -0.0710 -2.4620 -0.6902
    6MPD2    H314477   4.602   3.350  14.534  1.2301 -0.4600  0.9045
    6MPD2     N14478   0.270   3.442  14.702 -0.1377 -0.4906 -0.4776
    6MPD2    H514479   0.295   3.350  14.667 -1.7068 -0.3580 -1.9335
    6MPD2    N114480   4.653   3.778  14.714 -0.0897  0.0977 -0.3478
    6MPD2    H714481   4.724   3.836  14.757  1.0268 -0.2039 -1.7781
  945NH3     N114482   1.466   4.010   1.831 -0.1118  0.4087  0.3292
  945NH3     H214483   1.424   3.918   1.837  0.1598  0.1561 -1.7211
  945NH3     H314484   1.533   4.012   1.908 -0.3129  1.2502  0.4756
  945NH3     H414485   1.396   4.074   1.867  1.4598  2.5921 -0.5701
  946SOD     NA14486   3.290   0.853  10.982  0.3051 -0.5419  0.3922
  947SOD     NA14487   1.543   3.232  15.571 -0.2984 -0.1055 -0.3083
  948SOD     NA14488   1.029   0.248  17.324  0.0304  0.0881 -0.0226
  949SOD     NA14489   0.469   2.877  10.300  0.1921 -0.7400 -0.0622
  950SOD     NA14490   0.826   0.006  14.159  0.3052 -0.4866  0.1103
  951SOD     NA14491   2.340   3.002   3.293  0.1157  0.2502  0.1531
  952SOD     NA14492   0.694   4.474  14.212  0.0120 -0.1768 -0.2918
  953SOD     NA14493   1.580   1.427  15.838 -0.0478  0.3533 -0.1519
  954SOL     OW14494   2.684   4.636   4.051 -0.2011 -0.0944 -0.0326
  954SOL    HW114495   2.713   4.603   3.966 -0.8045 -1.9413  0.4854
  954SOL    HW214496   2.767   4.627   4.097 -0.6316  1.0119  0.9666
  955SOL     OW14497   1.602   1.582   1.480 -0.2729 -0.0154  0.2582
  955SOL    HW114498   1.627   1.547   1.394 -0.3934  0.7328 -0.0822
  955SOL    HW214499   1.626   1.507   1.534 -0.8924 -0.2287  0.2364
  956SOL     OW14500   1.978   2.348   5.314 -0.7258  0.5547  0.0298
  956SOL    HW114501   2.012   2.262   5.337 -0.0925  0.8270  0.0961
  956SOL    HW214502   2.040   2.383   5.251  0.3344 -1.6696 -0.1730
  957SOL     OW14503   4.205   2.010   8.745  0.8941  0.3682 -0.4329
  957SOL    HW114504   4.150   1.953   8.798  1.2541  1.0946  0.7157
  957SOL    HW214505   4.289   2.017   8.790 -0.7053  0.4658  2.5293
  958SOL     OW14506   2.369   2.859  15.582 -0.3133 -0.0338 -0.2523
  958SOL    HW114507   2.310   2.915  15.632 -1.4098 -0.6251 -0.8875
  958SOL    HW214508   2.439   2.924  15.572 -0.9583  0.5293 -1.0701
  959SOL     OW14509   2.085   1.690  16.158 -0.7023  0.1775  0.3373
  959SOL    HW114510   2.037   1.655  16.083  0.1688  1.2677 -0.7366
  959SOL    HW214511   2.161   1.633  16.151 -1.3454 -0.7743  1.2110
  960SOL     OW14512   2.667   0.265  15.528 -0.1385  0.4252  0.4535
  960SOL    HW114513   2.664   0.326  15.602  2.0902  4.0163 -2.4092
  960SOL    HW214514   2.649   0.319  15.451  4.2584  2.2145  0.6888
  961SOL     OW14515   1.733   3.969   1.405 -0.1577  0.2796  0.4958
  961SOL    HW114516   1.798   3.899   1.416 -0.7976 -0.7107 -1.9169
  961SOL    HW214517   1.706   3.939   1.318  3.2192  0.8949 -0.7694
  962SOL     OW14518   3.327   4.165  12.027 -0.2087 -0.0817 -0.7336
  962SOL    HW114519   3.414   4.202  12.012  0.0142 -0.7771 -1.1466
  962SOL    HW214520   3.305   4.226  12.097  0.8424 -0.6241  0.0683
  963SOL     OW14521   0.993   2.879   1.919  0.7784  0.1274  0.2799
  963SOL    HW114522   0.946   2.955   1.885 -0.2712 -0.1082  1.2132
  963SOL    HW214523   1.010   2.836   1.834 -0.7007  0.4725 -0.1917
  964SOL     OW14524   0.267   1.418   9.538 -0.1995  0.2498  0.4382
  964SOL    HW114525   0.351   1.445   9.575 -0.5793  1.3490  0.5175
  964SOL    HW214526   0.297   1.395   9.450  1.2550 -0.1003  1.0240
  965SOL     OW14527   4.378   2.005   1.416 -0.3027 -0.6214  0.3625
  965SOL    HW114528   4.341   2.084   1.455 -0.8293 -2.0857  2.8458
  965SOL    HW214529   4.459   1.992   1.466 -1.5717  0.8325  2.8059
  966SOL     OW14530   2.133   0.761   7.750 -0.4503 -0.0812  0.1403
  966SOL    HW114531   2.166   0.722   7.831  1.1364 -0.6138 -0.7524
  966SOL    HW214532   2.060   0.809   7.787 -0.3255  0.7583 -0.7286
  967SOL     OW14533   4.162   4.181  10.325 -0.0226 -0.0061  0.3338
  967SOL    HW114534   4.164   4.093  10.288 -0.9552  0.7822 -1.6116
  967SOL    HW214535   4.195   4.168  10.414  1.2580 -0.8494 -0.2752
  968SOL     OW14536   1.390   3.594   8.964 -0.3835 -0.2205 -0.2944
  968SOL    HW114537   1.370   3.534   9.035  0.2032 -1.1624 -0.9370
  968SOL    HW214538   1.406   3.538   8.888  1.0725  1.4977 -1.2781
  969SOL     OW14539   2.643   4.232   1.022 -0.6586  0.4255 -0.0407
  969SOL    HW114540   2.560   4.195   1.054 -2.9364  2.3769 -3.7948
  969SOL    HW214541   2.701   4.201   1.092  0.5787  0.7770 -0.9139
  970SOL     OW14542   1.603   1.199  14.445  0.0330  0.0061  0.2068
  970SOL    HW114543   1.610   1.236  14.358 -0.8842  0.6326  0.3958
  970SOL    HW214544   1.691   1.162  14.456 -0.8193 -3.1002 -3.5554
  971SOL     OW14545   1.105   3.605   8.768  0.3776 -0.1941  0.3929
  971SOL    HW114546   1.016   3.637   8.785  0.5107  0.2231  0.2903
  971SOL    HW214547   1.168   3.677   8.774  0.4134 -0.2767  1.0099
  972SOL     OW14548   0.032   0.550   8.566 -0.3822 -0.5082  0.5100
  972SOL    HW114549   0.010   0.475   8.621 -0.6145 -1.7999 -1.3489
  972SOL    HW214550   0.055   0.505   8.484  0.1871  1.7240 -0.5475
  973SOL     OW14551   1.772   0.235   2.143 -0.3441  0.2984  0.2261
  973SOL    HW114552   1.824   0.249   2.064  1.6122 -2.8902  0.9355
  973SOL    HW214553   1.693   0.195   2.106 -0.9476  0.4006  1.3971
  974SOL     OW14554   4.037   3.495   3.839 -1.4573 -0.8003 -0.2229
  974SOL    HW114555   4.110   3.557   3.835 -2.7291  0.7757  0.9952
  974SOL    HW214556   4.022   3.460   3.751  0.8650 -0.3525 -0.8068
  975SOL     OW14557   3.348   3.850   5.645  0.6203  0.5139 -0.3662
  975SOL    HW114558   3.371   3.804   5.726 -1.4954  0.1754  0.0214
  975SOL    HW214559   3.436   3.873   5.613  0.2301 -2.1371 -3.3127
  976SOL     OW14560   4.505   3.784   4.712  0.3141  0.2833  0.3908
  976SOL    HW114561   4.442   3.775   4.784 -0.2909 -0.6700 -0.2412
  976SOL    HW214562   4.589   3.797   4.756  1.3186 -0.0195 -1.4429
  977SOL     OW14563   2.454   3.968   3.092  0.2371  0.4290 -0.1472
  977SOL    HW114564   2.471   4.063   3.090 -0.1318  0.4559 -2.1341
  977SOL    HW214565   2.359   3.969   3.101  0.1882  1.7645 -0.6816
  978SOL     OW14566   1.438   2.198  12.011 -0.1591 -0.1577 -0.0263
  978SOL    HW114567   1.370   2.265  12.007 -1.6031 -1.5905  0.2578
  978SOL    HW214568   1.477   2.231  12.091 -1.5773 -0.6412  0.8527
  979SOL     OW14569   1.887   1.697  13.373  0.0803  0.3931 -0.3886
  979SOL    HW114570   1.795   1.668  13.369  0.5075 -1.0163  0.0088
  979SOL    HW214571   1.869   1.790  13.358 -1.1955  0.2593  0.2317
  980SOL     OW14572   4.672   3.772   6.460  0.1324  0.1240  1.0028
  980SOL    HW114573   4.708   3.684   6.470  1.3472  0.5946  0.8414
  980SOL    HW214574   0.003   3.824   6.494 -0.2681 -0.1347  2.2383
  981SOL     OW14575   1.401   1.258  12.350 -0.1007  0.0386  0.0290
  981SOL    HW114576   1.490   1.243  12.319  0.4000 -1.0053  1.9768
  981SOL    HW214577   1.343   1.203  12.297 -0.5347  0.6698 -0.1468
  982SOL     OW14578   0.512   4.267   5.301  0.3940  0.4193 -0.0905
  982SOL    HW114579   0.457   4.336   5.263  0.7572  1.6860  1.6938
  982SOL    HW214580   0.598   4.302   5.281  1.3218 -0.7103  1.9106
  983SOL     OW14581   1.898   3.494  10.066  0.4263 -0.0682  0.3057
  983SOL    HW114582   1.835   3.468   9.999  1.1885  1.3886 -0.9786
  983SOL    HW214583   1.950   3.414  10.073  1.5878  0.8749  2.3752
  984SOL     OW14584   0.865   3.923   8.718 -0.0367 -0.3458 -0.1526
  984SOL    HW114585   0.782   3.966   8.739 -0.8485 -2.0554  0.1593
  984SOL    HW214586   0.851   3.838   8.759 -2.1718  0.7132  1.3572
  985SOL     OW14587   3.092   4.175   7.569  0.0717 -0.4789 -0.0589
  985SOL    HW114588   3.019   4.237   7.568  0.7562  0.3053 -1.4719
  985SOL    HW214589   3.153   4.222   7.512  1.2839 -2.8236 -0.6568
  986SOL     OW14590   3.123   3.641   1.910 -0.3175 -0.4811  0.0535
  986SOL    HW114591   3.137   3.574   1.844 -1.2677  0.2487 -0.8946
  986SOL    HW214592   3.144   3.590   1.988  0.4447  1.2313  0.9730
  987SOL     OW14593   0.022   3.519   7.075 -0.4205  0.4796  0.4020
  987SOL    HW114594   0.113   3.507   7.099 -0.1380 -1.0663 -1.4343
  987SOL    HW214595   4.722   3.452   7.130 -0.9478 -0.2552 -0.8980
  988SOL     OW14596   0.934   1.054   2.143  0.4486 -0.1285 -0.3855
  988SOL    HW114597   0.998   0.983   2.132 -0.8013 -1.2782 -0.2293
  988SOL    HW214598   0.987   1.116   2.194 -1.1070  1.2146 -0.4220
  989SOL     OW14599   0.836   0.522   7.383  0.2609  0.1033  0.0408
  989SOL    HW114600   0.812   0.614   7.377  0.0029  0.0998  1.0107
  989SOL    HW214601   0.928   0.538   7.402  1.2905 -2.1070 -3.1386
  990SOL     OW14602   1.033   2.903   5.461  0.1221 -0.0689 -0.6527
  990SOL    HW114603   0.976   2.950   5.521 -1.2846 -1.3686 -0.9761
  990SOL    HW214604   1.105   2.877   5.519  0.2791 -0.0021 -0.8159
  991SOL     OW14605   3.473   3.762  12.810  0.4050  0.0214 -0.7804
  991SOL    HW114606   3.469   3.787  12.718  0.6451 -1.1834 -1.1144
  991SOL    HW214607   3.559   3.719  12.815  1.0806  1.6319  1.4667
  992SOL     OW14608   2.855   4.067   2.828 -0.5024 -0.7409 -0.2208
  992SOL    HW114609   2.903   4.012   2.891 -0.6972  0.2365  0.7844
  992SOL    HW214610   2.833   4.138   2.889 -0.8633 -0.1853 -0.9941
  993SOL     OW14611   2.990   2.654   7.803  0.5227  0.2568 -0.1081
  993SOL    HW114612   2.995   2.693   7.715  0.6739  0.3564 -0.0547
  993SOL    HW214613   3.030   2.725   7.853 -0.6899 -1.4313  3.2331
  994SOL     OW14614   1.809   3.386   1.966 -0.1546  0.0289 -0.5848
  994SOL    HW114615   1.782   3.441   2.039  0.8988 -0.9998  0.5822
  994SOL    HW214616   1.899   3.410   1.947 -0.2147  0.7476  0.0284
  995SOL     OW14617   2.515   2.999   1.498 -0.0084  0.1509  0.2681
  995SOL    HW114618   2.497   2.947   1.419 -0.0765  0.9147 -0.2200
  995SOL    HW214619   2.429   3.033   1.523 -0.1550  1.1561 -1.6202
  996SOL     OW14620   0.086   0.802   5.733  0.2969  0.1420 -0.2935
  996SOL    HW114621   0.110   0.854   5.809 -4.4243  0.3391  1.0505
  996SOL    HW214622   0.104   0.869   5.667 -1.1610 -0.0480 -0.8942
  997SOL     OW14623   2.137   4.723   0.721  0.2682  0.5687  0.1228
  997SOL    HW114624   2.200   0.024   0.664 -0.1891  0.2049 -0.6559
  997SOL    HW214625   2.057   0.033   0.711  0.4910  1.2084  1.6216
  998SOL     OW14626   0.156   3.486   0.362 -0.6652  0.3453  0.3562
  998SOL    HW114627   0.183   3.538   0.286  2.4402  1.0158  1.9469
  998SOL    HW214628   0.061   3.484   0.347 -0.6648 -1.1767  0.5520
  999SOL     OW14629   4.265   3.314   6.811  0.2211  0.3601  0.1588
  999SOL    HW114630   4.303   3.399   6.831  0.2830 -0.3484  3.0119
  999SOL    HW214631   4.343   3.276   6.771  0.2156  1.0518 -0.4981
 1000SOL     OW14632   1.897   1.769   7.496  0.4149 -0.6905  0.2084
 1000SOL    HW114633   1.913   1.801   7.585  2.4464  0.8988 -0.7165
 1000SOL    HW214634   1.979   1.799   7.456 -0.0095 -0.5400 -0.5327
 1001SOL     OW14635   2.070   1.549   7.019 -0.3470  0.9057 -0.0915
 1001SOL    HW114636   2.105   1.637   7.031 -0.6036  0.8240  1.2462
 1001SOL    HW214637   2.137   1.529   6.953 -0.9312 -0.0618 -0.3923
 1002SOL     OW14638   1.375   0.380  15.203 -0.1729  0.2122 -0.2875
 1002SOL    HW114639   1.300   0.321  15.213 -0.0157  0.1510  0.4845
 1002SOL    HW214640   1.339   0.463  15.174 -1.5654 -0.1703  0.3344
 1003SOL     OW14641   3.720   0.159  17.317  0.2844 -0.0530  0.5100
 1003SOL    HW114642   3.726   0.254  17.310  0.4648 -0.1696 -0.9005
 1003SOL    HW214643   3.722   0.146  17.412 -1.0816  0.4995  0.6134
 1004SOL     OW14644   0.933   1.267   2.466  0.1347  0.5710 -0.0090
 1004SOL    HW114645   0.852   1.218   2.453  0.7159 -0.2435 -0.5268
 1004SOL    HW214646   1.002   1.207   2.437  0.0726  0.4118  0.1716
 1005SOL     OW14647   0.373   2.995   5.903  0.5758  0.0203  0.1262
 1005SOL    HW114648   0.415   3.068   5.949 -1.9957 -0.6839  3.5859
 1005SOL    HW214649   0.297   2.990   5.960 -0.2432  0.9443 -0.8841
 1006SOL     OW14650   0.321   4.473   7.725 -0.5123  0.0902  0.3123
 1006SOL    HW114651   0.306   4.451   7.633  1.3526  2.1493 -0.4856
 1006SOL    HW214652   0.376   4.397   7.747  0.2592  0.4917 -0.2367
 1007SOL     OW14653   3.037   4.144  17.663 -0.5351  0.6048  0.0647
 1007SOL    HW114654   3.012   4.102  17.745 -0.4750  1.1032  0.3415
 1007SOL    HW214655   2.968   4.211  17.656  0.6690  1.8801  0.4983
 1008SOL     OW14656   1.693   0.726  15.878  0.2780 -0.5413  0.3889
 1008SOL    HW114657   1.654   0.709  15.792 -1.0286  0.1442  0.8478
 1008SOL    HW214658   1.622   0.767  15.927  2.2520  3.8339 -0.4770
 1009SOL     OW14659   1.392   0.701   8.228  0.3374 -0.7695  0.6730
 1009SOL    HW114660   1.345   0.725   8.148  2.8249  0.3146 -0.4935
 1009SOL    HW214661   1.372   0.611   8.252 -1.5659 -0.7437 -0.8025
 1010SOL     OW14662   3.410   2.455   2.834  0.2912 -0.5140 -0.2697
 1010SOL    HW114663   3.422   2.368   2.796  0.4150 -1.5419  2.0783
 1010SOL    HW214664   3.458   2.448   2.917 -2.4688 -0.4928  1.3049
 1011SOL     OW14665   3.843   0.802  12.150  0.1664  0.4972  0.3236
 1011SOL    HW114666   3.846   0.765  12.238  0.1159  0.6105  0.3729
 1011SOL    HW214667   3.825   0.893  12.173 -2.4966 -0.2701  1.2111
 1012SOL     OW14668   0.506   2.364   7.501  0.0931 -0.2925 -0.1571
 1012SOL    HW114669   0.568   2.292   7.494 -0.8012 -0.8027 -2.5080
 1012SOL    HW214670   0.559   2.439   7.529  0.4460 -1.4295  2.2101
 1013SOL     OW14671   0.097   2.387  11.869 -0.8425  0.0676  0.2464
 1013SOL    HW114672   0.050   2.344  11.797 -0.2396 -0.3177  0.0813
 1013SOL    HW214673   0.075   2.480  11.870 -2.4700 -0.3249  0.8043
 1014SOL     OW14674   2.061   1.056   2.720  0.3036 -0.0904 -0.1465
 1014SOL    HW114675   2.049   1.005   2.640  0.8736 -1.2245  0.4980
 1014SOL    HW214676   1.973   1.093   2.720  0.3186 -0.0512 -0.3644
 1015SOL     OW14677   1.981   0.167  10.803  0.6024  0.1948  0.1970
 1015SOL    HW114678   2.004   0.118  10.882 -1.1755 -1.3133 -0.2042
 1015SOL    HW214679   1.889   0.145  10.788 -0.6890  6.2657 -0.6421
 1016SOL     OW14680   0.641   2.591   5.064  0.3473 -0.3602  0.5022
 1016SOL    HW114681   0.608   2.589   5.154  2.0459 -0.8086  1.1054
 1016SOL    HW214682   0.675   2.502   5.065  1.7255  0.1776  1.4550
 1017SOL     OW14683   1.444   3.922   6.132  0.0676  0.2094 -0.5144
 1017SOL    HW114684   1.499   3.879   6.197 -1.0176 -0.2434  0.1028
 1017SOL    HW214685   1.495   3.998   6.104  1.7400 -0.9420 -0.6331
 1018SOL     OW14686   1.483   3.693   9.663  0.0703 -0.2296 -0.3911
 1018SOL    HW114687   1.474   3.668   9.755 -2.2453 -0.6160 -0.7136
 1018SOL    HW214688   1.424   3.631   9.620 -0.0912  0.9306 -1.8581
 1019SOL     OW14689   2.705   4.145   1.825 -0.5892  0.2843 -0.2523
 1019SOL    HW114690   2.772   4.211   1.844  0.1675 -0.5954  0.0784
 1019SOL    HW214691   2.647   4.153   1.902  0.4037  0.3514  0.4865
 1020SOL     OW14692   2.253   2.310   4.414 -0.5675 -0.0999 -0.2787
 1020SOL    HW114693   2.203   2.308   4.332 -1.8210  0.8111  0.4586
 1020SOL    HW214694   2.180   2.315   4.475  1.1050  0.6158  1.6543
 1021SOL     OW14695   3.669   4.651  14.918 -0.4661  0.5960 -0.0101
 1021SOL    HW114696   3.710   4.688  14.996  0.8249  1.4909 -1.1095
 1021SOL    HW214697   3.732   4.665  14.848  1.1237 -0.6242  1.1696
 1022SOL     OW14698   4.349   3.136  13.639  0.4308  0.1990 -0.6691
 1022SOL    HW114699   4.295   3.162  13.713 -0.4470  0.4475 -1.3841
 1022SOL    HW214700   4.419   3.081  13.674 -0.9193 -0.6063  0.7644
 1023SOL     OW14701   2.290   1.701   3.745  0.5035  0.3878 -0.0650
 1023SOL    HW114702   2.262   1.700   3.653  1.8456 -1.6626 -0.4366
 1023SOL    HW214703   2.260   1.617   3.778  1.8781  0.5208  1.5158
 1024SOL     OW14704   0.716   2.879  11.705  0.4179  0.0394  0.3118
 1024SOL    HW114705   0.687   2.813  11.641 -0.2542  1.1480 -0.5349
 1024SOL    HW214706   0.698   2.830  11.785  1.0389  0.4422  0.6924
 1025SOL     OW14707   1.496   2.172  11.467  0.0308 -0.2578  0.1296
 1025SOL    HW114708   1.504   2.149  11.374  0.8666  1.4284 -0.2284
 1025SOL    HW214709   1.498   2.088  11.513 -1.6680 -1.9723 -2.9273
 1026SOL     OW14710   1.324   2.418   3.195  0.2165  0.0888  0.4512
 1026SOL    HW114711   1.343   2.500   3.150  1.4747 -0.7912 -0.6418
 1026SOL    HW214712   1.234   2.417   3.164  0.0497 -1.5884  0.9797
 1027SOL     OW14713   0.898   1.424   4.797 -0.3526 -0.3806 -0.2960
 1027SOL    HW114714   0.873   1.332   4.804 -0.4386 -0.2798  0.8407
 1027SOL    HW214715   0.976   1.430   4.852  0.7975 -3.1825 -1.6289
 1028SOL     OW14716   3.062   0.896   8.385  0.0304  0.1273 -0.5454
 1028SOL    HW114717   2.967   0.882   8.389  0.1013 -0.3936 -0.6413
 1028SOL    HW214718   3.063   0.959   8.314 -3.8391 -0.6043 -1.2522
 1029SOL     OW14719   2.939   0.465  14.629  0.6050  0.4687  0.0237
 1029SOL    HW114720   2.924   0.540  14.687 -0.6139  1.5536 -1.6672
 1029SOL    HW214721   2.981   0.402  14.686  2.4840  1.0745 -0.7015
 1030SOL     OW14722   2.846   2.292  15.200 -0.3854 -0.4571  0.1388
 1030SOL    HW114723   2.917   2.258  15.255  0.1749 -0.3885 -0.5475
 1030SOL    HW214724   2.895   2.273  15.120 -1.4080  1.2993 -0.9206
 1031SOL     OW14725   2.861   4.326   2.603 -0.2590 -0.3016  0.5938
 1031SOL    HW114726   2.890   4.409   2.642  0.5801 -0.3053 -0.0050
 1031SOL    HW214727   2.884   4.268   2.675 -2.1636 -1.4133  0.3002
 1032SOL     OW14728   3.555   4.703   8.798  0.4269 -0.2750  0.8696
 1032SOL    HW114729   3.529   0.003   8.879  2.2599 -0.2255  1.4427
 1032SOL    HW214730   3.487   4.639   8.779  0.7584 -0.8292  1.5508
 1033SOL     OW14731   4.714   3.868   6.150  0.4498 -0.0999  0.1594
 1033SOL    HW114732   4.702   3.788   6.202  1.4456 -0.3230  0.0439
 1033SOL    HW214733   4.740   3.930   6.218  1.4838 -0.5876  0.2058
 1034SOL     OW14734   3.987   0.393   1.610 -0.0622  0.3989  0.2534
 1034SOL    HW114735   3.999   0.352   1.696 -1.9653 -0.8040 -0.0486
 1034SOL    HW214736   4.034   0.332   1.553 -2.8614 -0.2879 -1.3473
 1035SOL     OW14737   3.601   1.815   4.946  0.1373 -1.2909  0.1492
 1035SOL    HW114738   3.543   1.828   4.871  0.2927 -2.0633 -0.1072
 1035SOL    HW214739   3.634   1.903   4.963 -1.1889 -0.8728  0.6054
 1036SOL     OW14740   1.825   3.749   6.875 -0.0462  0.4090  0.1486
 1036SOL    HW114741   1.895   3.765   6.939  1.2504  1.4507 -1.5260
 1036SOL    HW214742   1.746   3.736   6.928 -1.0919 -0.2238 -1.5631
 1037SOL     OW14743   3.893   3.162   7.551 -0.1919 -0.9153 -0.1483
 1037SOL    HW114744   3.897   3.087   7.609 -2.7641  2.0217  3.8347
 1037SOL    HW214745   3.929   3.121   7.472  1.8683  0.1555  0.2219
 1038SOL     OW14746   2.900   0.818   8.672  0.0528 -0.1598  1.1589
 1038SOL    HW114747   2.874   0.838   8.762 -0.9999  0.2538  0.7552
 1038SOL    HW214748   2.983   0.862   8.657 -0.7353  0.2141 -2.2220
 1039SOL     OW14749   1.044   2.274  13.351  0.0739 -0.0982  0.1865
 1039SOL    HW114750   0.977   2.247  13.415  1.6139  1.8519  2.6253
 1039SOL    HW214751   1.078   2.190  13.321 -0.8818  0.5228 -2.6722
 1040SOL     OW14752   0.800   2.354  12.250 -0.2763  0.2722 -0.1115
 1040SOL    HW114753   0.851   2.275  12.233 -0.7786  0.0497 -0.5563
 1040SOL    HW214754   0.839   2.392  12.329 -0.0076  1.8681 -1.0068
 1041SOL     OW14755   3.056   0.963  14.742 -0.3848 -0.3584  0.1592
 1041SOL    HW114756   2.996   1.035  14.722 -1.2525 -0.6938  1.5717
 1041SOL    HW214757   3.111   1.001  14.810  1.3159 -0.8137 -0.9608
 1042SOL     OW14758   1.301   1.375   1.562  0.3982  0.5560  0.4293
 1042SOL    HW114759   1.287   1.280   1.570 -2.4007  1.0324  1.2455
 1042SOL    HW214760   1.360   1.383   1.487  0.4076 -0.4482  0.3238
 1043SOL     OW14761   2.454   1.116  15.490  0.9084 -0.5227 -0.0077
 1043SOL    HW114762   2.428   1.075  15.573  1.7400 -1.8081 -0.3854
 1043SOL    HW214763   2.546   1.123  15.513  0.5885  2.4917  0.3592
 1044SOL     OW14764   3.871   2.253   2.371 -0.2812 -0.2210 -0.3859
 1044SOL    HW114765   3.832   2.270   2.457 -0.6222 -0.6762 -0.4521
 1044SOL    HW214766   3.937   2.323   2.371 -0.7141  0.1838  0.0930
 1045SOL     OW14767   0.275   1.628   0.843 -0.2770 -0.5427 -0.5573
 1045SOL    HW114768   0.322   1.662   0.919  0.5843  1.1249 -1.8693
 1045SOL    HW214769   0.253   1.542   0.881 -0.7986 -0.1127  0.1068
 1046SOL     OW14770   2.935   3.650   6.357 -0.1638 -0.2775 -0.8929
 1046SOL    HW114771   2.851   3.685   6.327  0.3566  3.9023  2.6010
 1046SOL    HW214772   2.975   3.614   6.277 -0.5164  0.0450 -1.2146
 1047SOL     OW14773   1.634   4.704   8.999  0.1331  0.3298 -0.3619
 1047SOL    HW114774   1.555   4.651   9.004  0.3317  0.0909  0.2145
 1047SOL    HW214775   1.638   4.738   9.088 -1.6607 -2.8451  0.9283
 1048SOL     OW14776   2.695   3.535  17.127 -0.3025 -0.2528 -0.4900
 1048SOL    HW114777   2.738   3.488  17.055  2.1946 -0.7886  1.3441
 1048SOL    HW214778   2.675   3.467  17.192  0.8203  0.4277  0.5702
 1049SOL     OW14779   3.233   0.764   2.130  0.0674  0.0146  0.8281
 1049SOL    HW114780   3.241   0.830   2.062 -1.0940 -0.3140  0.3589
 1049SOL    HW214781   3.204   0.812   2.208  3.0297  1.8393  0.7765
 1050SOL     OW14782   4.637   1.032  13.305 -0.1859  0.2389  0.0590
 1050SOL    HW114783   4.729   1.052  13.320  0.2606 -1.1396 -0.8204
 1050SOL    HW214784   4.585   1.112  13.317  1.4219  0.9453  2.1081
 1051SOL     OW14785   3.728   0.022   5.485 -0.5295 -0.7646  0.1261
 1051SOL    HW114786   3.674   4.695   5.446  2.2084 -0.9899 -3.3041
 1051SOL    HW214787   3.779   0.053   5.410 -0.1843 -0.8693  0.3170
 1052SOL     OW14788   2.313   4.354   6.798 -0.4707 -0.4383 -0.6806
 1052SOL    HW114789   2.224   4.325   6.782 -0.7832 -0.3214  0.8001
 1052SOL    HW214790   2.299   4.445   6.824  3.9352  0.2189 -0.4970
 1053SOL     OW14791   1.149   1.283   3.206  0.2110 -0.3054  0.6118
 1053SOL    HW114792   1.114   1.236   3.130  0.7067  1.2605 -0.5683
 1053SOL    HW214793   1.089   1.357   3.213  0.6230  0.1584 -0.7136
 1054SOL     OW14794   3.671   1.049   7.291  0.0826 -0.5671  0.0291
 1054SOL    HW114795   3.746   1.067   7.348 -1.0617 -0.5478  1.5253
 1054SOL    HW214796   3.700   1.090   7.209 -0.0386  2.7416  1.6654
 1055SOL     OW14797   2.048   0.532   8.708 -0.4077  0.1360 -0.4051
 1055SOL    HW114798   2.041   0.627   8.721  1.9425  0.2039  0.3446
 1055SOL    HW214799   2.130   0.509   8.666  0.2100  0.1713  0.7896
 1056SOL     OW14800   3.152   1.252   7.705 -0.2646 -0.1949 -0.4450
 1056SOL    HW114801   3.174   1.316   7.637 -0.1962 -0.3316 -0.5521
 1056SOL    HW214802   3.233   1.201   7.697  0.7296  1.3799 -0.4688
 1057SOL     OW14803   1.985   0.735   4.378  0.6403 -0.3924 -0.2389
 1057SOL    HW114804   2.010   0.655   4.424 -1.2209  0.1170  1.6641
 1057SOL    HW214805   1.982   0.800   4.448  1.7020 -1.7724  1.0771
 1058SOL     OW14806   1.544   2.042   9.735  0.4699  0.2525  0.2272
 1058SOL    HW114807   1.562   2.130   9.703 -0.2884  0.9222  1.6462
 1058SOL    HW214808   1.581   2.048   9.823  2.1082  1.9396 -0.5673
 1059SOL     OW14809   1.018   1.222   7.232 -0.2164  0.2098  0.0186
 1059SOL    HW114810   0.973   1.306   7.241  1.0639  0.5557  2.9491
 1059SOL    HW214811   0.956   1.173   7.287  0.3600  0.3770  0.8043
 1060SOL     OW14812   2.821   4.637   5.338  0.4418  0.1159 -0.1192
 1060SOL    HW114813   2.777   4.609   5.418 -1.1112  0.9876 -0.6765
 1060SOL    HW214814   2.904   4.594   5.358  0.9068 -0.2409 -2.8210
 1061SOL     OW14815   2.686   1.043  11.696 -0.0741  0.3267  0.1298
 1061SOL    HW114816   2.620   0.986  11.734  0.9550  0.2968  1.8931
 1061SOL    HW214817   2.639   1.126  11.705 -0.9616 -0.2544  0.8390
 1062SOL     OW14818   3.442   0.593  11.955  0.7218 -0.6582  0.6966
 1062SOL    HW114819   3.411   0.683  11.944 -0.8233 -1.7082 -3.5983
 1062SOL    HW214820   3.403   0.547  11.881 -1.0733 -0.9025  1.8040
 1063SOL     OW14821   0.027   2.632   4.808  0.2877  0.1184  0.3564
 1063SOL    HW114822   0.098   2.583   4.766 -0.3277  0.1753 -0.7552
 1063SOL    HW214823   0.005   2.692   4.737  2.6056  0.2326 -0.2835
 1064SOL     OW14824   1.714   2.049   1.656 -0.0175  0.1339 -0.0014
 1064SOL    HW114825   1.749   2.098   1.582 -0.6104  0.3127 -0.1612
 1064SOL    HW214826   1.652   1.988   1.616  1.1829 -1.2707  0.2985
 1065SOL     OW14827   2.994   3.886   4.263 -0.1093 -0.3560  0.3135
 1065SOL    HW114828   3.010   3.940   4.341  3.0733 -0.9826  0.1029
 1065SOL    HW214829   3.013   3.796   4.291  0.9176 -0.0782  0.5100
 1066SOL     OW14830   1.371   2.796  14.452  0.1208  0.3864 -0.0437
 1066SOL    HW114831   1.387   2.806  14.358  2.0407 -0.8008  0.1578
 1066SOL    HW214832   1.457   2.812  14.491 -0.1115  0.6634  0.3521
 1067SOL     OW14833   0.023   4.460   7.753  0.2961  0.7495 -0.0421
 1067SOL    HW114834   0.017   4.501   7.667 -1.7478  1.2225  0.3145
 1067SOL    HW214835   0.118   4.459   7.762  0.1014 -0.2226  1.9655
 1068SOL     OW14836   2.481   4.506   9.611  0.0899 -0.2212  0.5079
 1068SOL    HW114837   2.555   4.549   9.654 -0.2422 -1.2067  2.0805
 1068SOL    HW214838   2.522   4.474   9.531 -0.0396  0.6456  0.0955
 1069SOL     OW14839   2.374   2.246  11.126  0.3178  0.4882  0.4462
 1069SOL    HW114840   2.339   2.335  11.136  0.2418  0.4774  0.2791
 1069SOL    HW214841   2.306   2.210  11.069  1.8435 -0.5255 -0.7483
 1070SOL     OW14842   1.766   4.498   6.679 -0.0426  0.0044  0.3485
 1070SOL    HW114843   1.731   4.508   6.768 -1.5569 -0.6817 -0.1606
 1070SOL    HW214844   1.762   4.586   6.642 -0.7003 -0.9076 -1.7761
 1071SOL     OW14845   0.666   1.483  13.648  0.0368 -0.1872 -0.1984
 1071SOL    HW114846   0.581   1.443  13.664  0.5771 -1.8064 -1.4199
 1071SOL    HW214847   0.638   1.564  13.606 -0.0024 -0.2792 -0.3478
 1072SOL     OW14848   0.394   2.719   4.966  0.4539  0.3717  0.4310
 1072SOL    HW114849   0.333   2.647   4.982  0.5024  1.2064  4.5500
 1072SOL    HW214850   0.474   2.676   4.996  1.0593  1.2547  0.0880
 1073SOL     OW14851   3.162   0.907  13.950  0.1104 -0.2169 -0.2692
 1073SOL    HW114852   3.132   0.998  13.946  0.1491 -0.3245 -3.0404
 1073SOL    HW214853   3.256   0.924  13.941  0.6771 -3.9939 -1.3134
 1074SOL     OW14854   1.888   1.420  16.893  0.4729  0.4136 -0.0205
 1074SOL    HW114855   1.931   1.490  16.941  0.3810 -0.1906  0.9650
 1074SOL    HW214856   1.932   1.424  16.809  0.5859  0.7563  0.0553
 1075SOL     OW14857   1.863   4.198  11.170 -0.6245 -0.1446 -0.5725
 1075SOL    HW114858   1.871   4.105  11.194 -0.1461 -0.1398 -0.7292
 1075SOL    HW214859   1.771   4.212  11.192 -0.6888  0.2454 -1.1108
 1076SOL     OW14860   2.315   3.255  13.152 -0.0183 -0.1523 -0.0450
 1076SOL    HW114861   2.360   3.326  13.106  0.5041 -1.3561 -1.3705
 1076SOL    HW214862   2.372   3.231  13.225 -0.1134 -0.2688 -0.0093
 1077SOL     OW14863   2.628   2.377   5.007  0.4554  0.4547 -0.1566
 1077SOL    HW114864   2.607   2.471   5.005 -1.5036  0.0072 -1.2170
 1077SOL    HW214865   2.679   2.369   5.087  1.5017  1.4829 -0.7077
 1078SOL     OW14866   4.484   0.793   9.084  0.1681 -0.0585  0.1840
 1078SOL    HW114867   4.424   0.867   9.093  1.0272  0.5518  1.0167
 1078SOL    HW214868   4.506   0.786   8.992 -0.2520 -1.3079  0.1853
 1079SOL     OW14869   2.506   4.555   5.082 -0.2405  0.0788 -0.1410
 1079SOL    HW114870   2.510   4.643   5.120  1.1317  0.7772 -1.9292
 1079SOL    HW214871   2.528   4.561   4.989 -0.7037 -0.2874 -0.2742
 1080SOL     OW14872   4.016   1.804   8.833 -0.3330  0.0397  1.0135
 1080SOL    HW114873   3.939   1.819   8.889 -1.3810  0.6226 -0.5802
 1080SOL    HW214874   4.038   1.713   8.853  0.8719  0.4072  1.3667
 1081SOL     OW14875   0.939   0.066   1.092  0.2326 -0.4993 -0.8763
 1081SOL    HW114876   0.991   4.734   1.123 -0.3202 -0.4740  0.1317
 1081SOL    HW214877   0.925   0.115   1.174 -0.7702 -1.8137 -0.2657
 1082SOL     OW14878   0.706   3.335   1.260  0.2067  0.8498  0.0387
 1082SOL    HW114879   0.612   3.352   1.269  0.8019  3.7502  0.8242
 1082SOL    HW214880   0.716   3.335   1.164 -1.4338  1.0123 -0.1373
 1083SOL     OW14881   1.047   0.293   1.679 -0.5680  0.0026  0.1035
 1083SOL    HW114882   1.049   0.213   1.731  0.1761 -0.3345 -0.4478
 1083SOL    HW214883   0.985   0.268   1.610  0.3677 -1.3059 -0.2529
 1084SOL     OW14884   1.852   1.489   1.886  0.0484 -0.2021  0.0803
 1084SOL    HW114885   1.882   1.568   1.932  2.4647 -1.2509  0.3023
 1084SOL    HW214886   1.926   1.430   1.902 -0.4764 -0.8224  0.1951
 1085SOL     OW14887   3.109   4.094   7.853 -0.1136 -0.0952  0.7430
 1085SOL    HW114888   3.159   4.176   7.855 -0.5924  0.2388 -1.1433
 1085SOL    HW214889   3.085   4.082   7.761  2.0086  2.1500 -0.0926
 1086SOL     OW14890   2.053   1.857   8.184 -0.1099  0.4660  0.0378
 1086SOL    HW114891   2.062   1.953   8.188 -0.3959  0.6220 -3.5787
 1086SOL    HW214892   1.962   1.843   8.210 -0.2752 -1.2746 -1.5211
 1087SOL     OW14893   0.073   0.958   5.500  0.1263  0.2797 -0.3790
 1087SOL    HW114894   0.059   1.043   5.541 -2.0072  0.0176 -0.5183
 1087SOL    HW214895   0.113   0.986   5.417  1.2533  1.0469  0.4344
 1088SOL     OW14896   1.939   3.756  11.675 -0.5177 -0.0102  0.4749
 1088SOL    HW114897   1.889   3.707  11.610  0.7981 -0.8570  0.1035
 1088SOL    HW214898   1.891   3.837  11.656  0.3518  0.3795 -0.0872
 1089SOL     OW14899   0.841   3.539   7.024  0.0349  0.2198  0.2327
 1089SOL    HW114900   0.901   3.589   6.968  2.0255 -1.2508  1.0440
 1089SOL    HW214901   0.828   3.609   7.088 -0.8416  0.2139  0.0608
 1090SOL     OW14902   0.790   0.211   1.782 -0.1389  1.0783  0.2365
 1090SOL    HW114903   0.821   0.292   1.821  0.4716  0.5226  0.8948
 1090SOL    HW214904   0.764   0.232   1.692 -1.4930 -2.5672 -0.2526
 1091SOL     OW14905   0.281   2.340   7.337 -0.4104  0.1621 -0.6798
 1091SOL    HW114906   0.306   2.361   7.427 -2.4226 -0.5567  0.0362
 1091SOL    HW214907   0.349   2.376   7.281 -1.6340 -1.0141 -2.9045
 1092SOL     OW14908   2.411   2.836  17.426 -0.3313  0.1799 -0.3095
 1092SOL    HW114909   2.502   2.805  17.429 -0.3486  0.3264  1.6351
 1092SOL    HW214910   2.431   2.929  17.422 -0.6380  0.2861  0.6056
 1093SOL     OW14911   3.947   0.506   8.694 -0.2957  0.4669 -0.2557
 1093SOL    HW114912   3.955   0.541   8.605 -0.5016  0.9391 -0.0897
 1093SOL    HW214913   3.946   0.411   8.682  1.5457  0.0390  2.9002
 1094SOL     OW14914   0.169   2.091   0.776 -0.0180 -0.3576 -0.4642
 1094SOL    HW114915   0.110   2.123   0.844  1.4008  0.2929  0.4462
 1094SOL    HW214916   0.254   2.088   0.819 -0.5534  0.5660  0.6777
 1095SOL     OW14917   0.489   0.187  14.982 -0.2057 -0.3256 -0.3013
 1095SOL    HW114918   0.439   0.222  14.908 -0.7064 -1.9254 -0.7245
 1095SOL    HW214919   0.440   0.225  15.055 -1.3264 -0.7991 -0.8023
 1096SOL     OW14920   2.542   3.318  17.270  0.1218 -0.3062 -0.1487
 1096SOL    HW114921   2.516   3.285  17.183 -1.1186 -4.4747  1.7816
 1096SOL    HW214922   2.531   3.234  17.315  0.6970  0.9438  2.2652
 1097SOL     OW14923   2.835   1.353   8.115  0.0636  0.1240 -0.2324
 1097SOL    HW114924   2.779   1.288   8.158 -0.8462  0.9611 -0.1538
 1097SOL    HW214925   2.787   1.435   8.127 -0.3334 -0.0441 -0.6357
 1098SOL     OW14926   4.132   2.625  15.530  0.4586 -0.0288  0.2813
 1098SOL    HW114927   4.217   2.591  15.560  1.5226  3.3649  1.1194
 1098SOL    HW214928   4.071   2.576  15.585  1.1890 -1.2276  0.0177
 1099SOL     OW14929   2.078   3.234   3.270 -0.4534 -0.2164  0.7872
 1099SOL    HW114930   2.057   3.291   3.196  0.8306 -0.8723 -0.0844
 1099SOL    HW214931   2.164   3.265   3.299  0.4282 -1.5739 -0.3924
 1100SOL     OW14932   1.053   2.670   7.088 -0.0563  0.0587 -0.3601
 1100SOL    HW114933   1.056   2.705   6.999 -0.5603  0.0391 -0.3862
 1100SOL    HW214934   0.962   2.692   7.109  0.1042  0.4016 -0.0317
 1101SOL     OW14935   1.487   0.834   4.364  0.7114  0.5238 -0.8086
 1101SOL    HW114936   1.577   0.820   4.335  1.9061  0.5241  2.8061
 1101SOL    HW214937   1.443   0.803   4.285  4.3319 -3.8830 -1.0511
 1102SOL     OW14938   3.841   2.650   0.440  0.1303  0.0708  0.3904
 1102SOL    HW114939   3.797   2.610   0.365  1.1964  1.6457 -1.0801
 1102SOL    HW214940   3.903   2.581   0.464 -0.1460  0.2632  1.6412
 1103SOL     OW14941   2.842   0.028   3.104  0.6063  0.2026  0.2639
 1103SOL    HW114942   2.833   0.106   3.159  1.9707  0.9926 -0.6322
 1103SOL    HW214943   2.750   0.011   3.083  1.2520 -2.0048 -0.7671
 1104SOL     OW14944   0.993   2.766   6.463  0.6852 -0.5569  0.5241
 1104SOL    HW114945   0.997   2.846   6.515 -0.8618 -0.5923  0.7170
 1104SOL    HW214946   1.087   2.754   6.451  0.4832 -1.8616  0.2500
 1105SOL     OW14947   1.405   3.042   5.439 -0.0789 -0.2865 -0.5757
 1105SOL    HW114948   1.372   3.106   5.501  0.8973 -0.5443  0.2034
 1105SOL    HW214949   1.334   3.038   5.375  0.2539 -0.5912 -0.9339
 1106SOL     OW14950   2.947   2.653   1.970  0.1175 -0.0132 -0.1149
 1106SOL    HW114951   2.939   2.732   1.918 -2.3722  0.9942  1.8030
 1106SOL    HW214952   3.042   2.645   1.986  0.0152 -0.7815  0.1139
 1107SOL     OW14953   1.597   0.897  15.650 -0.0950  0.1291 -0.0321
 1107SOL    HW114954   1.664   0.952  15.688 -0.1822  1.4149 -1.7165
 1107SOL    HW214955   1.521   0.935  15.694 -0.6704 -1.1530  0.1056
 1108SOL     OW14956   1.022   0.399  17.139 -0.6525  0.1158 -0.5677
 1108SOL    HW114957   1.099   0.392  17.082  0.3311  0.2106  0.7516
 1108SOL    HW214958   0.961   0.447  17.083  0.3335  0.6388 -1.2100
 1109SOL     OW14959   2.214   0.068   8.397  0.2295  0.5605 -0.2673
 1109SOL    HW114960   2.281   0.035   8.457  0.9420  0.5997 -1.0407
 1109SOL    HW214961   2.169   0.132   8.452  1.7093  0.1897  1.3888
 1110SOL     OW14962   1.783   3.446   9.807 -0.0554  0.3246  0.0354
 1110SOL    HW114963   1.716   3.393   9.763 -0.7510  0.7809  0.5419
 1110SOL    HW214964   1.855   3.385   9.795  0.4404  0.9092  0.0231
 1111SOL     OW14965   4.607   2.400   2.301 -0.4351  0.4738  0.5789
 1111SOL    HW114966   4.609   2.345   2.380  0.4038 -0.3776 -0.0367
 1111SOL    HW214967   4.654   2.351   2.234  0.5589  2.1621  0.0318
 1112SOL     OW14968   4.690   4.199   7.806 -0.2810  0.0095 -0.3962
 1112SOL    HW114969   4.672   4.180   7.714  1.4446  0.0891 -0.7492
 1112SOL    HW214970   4.684   4.294   7.805 -0.8814 -0.0484 -1.8521
 1113SOL     OW14971   3.367   1.688   6.097  0.5754  0.2728  0.0861
 1113SOL    HW114972   3.453   1.682   6.056 -0.3167 -1.4106 -1.5471
 1113SOL    HW214973   3.385   1.651   6.184 -2.5128 -1.0201  0.1931
 1114SOL     OW14974   3.884   1.665   3.625  0.4480  0.0937  0.5997
 1114SOL    HW114975   3.788   1.668   3.633  0.4426  0.6798  0.3336
 1114SOL    HW214976   3.899   1.633   3.536 -0.5930 -0.1251  0.4911
 1115SOL     OW14977   1.805   0.433   7.342 -0.0193  0.0841  0.1556
 1115SOL    HW114978   1.742   0.399   7.405 -1.2393  0.5257 -0.8167
 1115SOL    HW214979   1.768   0.521   7.337 -1.6883 -0.7839 -2.5583
 1116SOL     OW14980   0.847   1.467  13.885  0.2673 -0.1832  0.1580
 1116SOL    HW114981   0.801   1.481  13.802  0.1736  0.5200  0.3290
 1116SOL    HW214982   0.827   1.374  13.899  3.2728 -1.0879 -1.6662
 1117SOL     OW14983   3.839   1.293   4.935 -0.4376 -0.3494  0.7956
 1117SOL    HW114984   3.902   1.314   5.004  1.0181 -1.3702 -0.2153
 1117SOL    HW214985   3.835   1.379   4.892 -2.7062  0.4993  2.6958
 1118SOL     OW14986   1.558   4.603  17.272 -0.3318 -0.2572 -0.5473
 1118SOL    HW114987   1.579   4.519  17.312  1.3652  0.0697 -0.7725
 1118SOL    HW214988   1.499   4.581  17.200  0.6875  1.2274 -1.8145
 1119SOL     OW14989   0.791   3.693   6.363 -0.4479  0.2602 -0.5491
 1119SOL    HW114990   0.720   3.637   6.334  0.2453 -0.5687 -0.6513
 1119SOL    HW214991   0.862   3.652   6.314 -1.4064 -1.6744 -0.3259
 1120SOL     OW14992   1.516   0.612  13.072 -0.4151 -0.2611  0.1318
 1120SOL    HW114993   1.541   0.692  13.026  1.0475 -1.9847 -2.0420
 1120SOL    HW214994   1.590   0.581  13.124  0.6417  0.0541 -1.1702
 1121SOL     OW14995   2.096   3.781   6.999  0.2227 -0.2312 -0.6919
 1121SOL    HW114996   2.172   3.726   7.014 -0.3602 -0.9090 -0.2379
 1121SOL    HW214997   2.060   3.810   7.083  3.3342  3.2188 -0.5617
 1122SOL     OW14998   0.545   4.321  10.544  0.3204 -0.6039 -0.5709
 1122SOL    HW114999   0.587   4.366  10.471 -1.1621  2.3559  0.3963
 1122SOL    HW215000   0.459   4.302  10.507  0.6177 -0.2194 -1.4750
 1123SOL     OW15001   0.722   1.431   6.919 -0.3362 -0.1235 -0.1706
 1123SOL    HW115002   0.767   1.445   6.835  1.1729 -0.9933  0.4917
 1123SOL    HW215003   0.791   1.448   6.983 -1.8582  2.2613  0.8167
 1124SOL     OW15004   1.910   0.045   4.147  0.2595  0.7179 -0.1839
 1124SOL    HW115005   1.860   0.093   4.213 -1.3875 -0.4152 -0.5971
 1124SOL    HW215006   1.855   4.709   4.137  1.5505 -0.7073  3.8133
 1125SOL     OW15007   3.887   1.357   2.354 -0.5707  0.4900  0.2156
 1125SOL    HW115008   3.839   1.382   2.275 -0.6554 -2.4021 -0.6689
 1125SOL    HW215009   3.976   1.334   2.328 -0.3251  0.6461  0.9181
 1126SOL     OW15010   1.968   4.329   2.089  0.5716  0.5728  0.0061
 1126SOL    HW115011   1.964   4.408   2.035  1.3863  1.5147  1.3150
 1126SOL    HW215012   1.901   4.272   2.052 -0.5704  2.9138 -1.5226
 1127SOL     OW15013   1.393   1.624   7.198 -0.8362 -0.1574 -0.0859
 1127SOL    HW115014   1.387   1.579   7.114 -1.7171  0.9331 -0.6142
 1127SOL    HW215015   1.400   1.548   7.255 -1.4079  1.8047  2.6159
 1128SOL     OW15016   0.049   0.026   4.429  0.4945 -0.2868  0.2208
 1128SOL    HW115017   0.083   0.106   4.470  1.1038 -0.8913  0.9114
 1128SOL    HW215018   0.117   4.708   4.460  0.0766 -1.6126 -1.4564
 1129SOL     OW15019   1.293   3.135   5.661  0.4729 -0.2045 -0.6060
 1129SOL    HW115020   1.320   3.087   5.738 -2.4366 -0.5787  0.1723
 1129SOL    HW215021   1.256   3.216   5.697  1.1609 -0.6758  1.1516
 1130SOL     OW15022   2.058   2.464   5.878  0.5889 -0.2856 -0.1717
 1130SOL    HW115023   2.004   2.478   5.956 -0.6690  0.1202 -1.1212
 1130SOL    HW215024   2.126   2.529   5.898  0.4839 -0.0255 -0.6564
 1131SOL     OW15025   3.908   0.984   7.877 -0.5569  0.0886 -0.2807
 1131SOL    HW115026   3.833   0.927   7.893 -1.3370  0.8683 -1.1424
 1131SOL    HW215027   3.953   0.916   7.827  0.7195  1.0027 -0.3679
 1132SOL     OW15028   2.155   2.621   7.626  0.1781 -0.3115  0.3958
 1132SOL    HW115029   2.212   2.597   7.700  0.2822 -1.1032  0.0599
 1132SOL    HW215030   2.210   2.684   7.580  0.7185  0.0192  1.5022
 1133SOL     OW15031   4.339   4.179  17.139  0.0255  0.3111  0.3114
 1133SOL    HW115032   4.259   4.196  17.189  0.0388  0.4508  0.2858
 1133SOL    HW215033   4.322   4.087  17.120 -1.0524 -0.0603  3.1368
 1134SOL     OW15034   2.337   3.511   6.724 -0.3151 -0.3918 -0.6028
 1134SOL    HW115035   2.294   3.550   6.648  0.0226  1.0980 -0.0341
 1134SOL    HW215036   2.380   3.593   6.750 -1.5343  0.1391 -0.2909
 1135SOL     OW15037   1.936   2.155   6.570 -0.0313 -0.7636  0.1706
 1135SOL    HW115038   2.008   2.158   6.507 -2.5054  2.8389 -2.4546
 1135SOL    HW215039   1.929   2.061   6.585  0.5877 -0.9316 -0.5753
 1136SOL     OW15040   4.336   1.269   1.462 -0.0412 -0.3001 -0.2910
 1136SOL    HW115041   4.359   1.310   1.379  1.1205 -1.6903 -0.6624
 1136SOL    HW215042   4.267   1.321   1.502  1.5308  1.4957  0.1048
 1137SOL     OW15043   0.524   0.237   2.300 -0.4353  0.1925 -0.7143
 1137SOL    HW115044   0.468   0.305   2.338 -0.7466 -0.7482  0.4810
 1137SOL    HW215045   0.579   0.210   2.374 -0.4607  2.5074  0.1556
 1138SOL     OW15046   1.467   3.662   3.172 -0.6087 -0.0336 -0.2207
 1138SOL    HW115047   1.513   3.627   3.095 -2.5264 -1.6617 -0.6234
 1138SOL    HW215048   1.404   3.724   3.136  0.3216  1.1218  0.1596
 1139SOL     OW15049   2.287   3.221   4.373  0.4076  0.3609  0.0549
 1139SOL    HW115050   2.285   3.132   4.338 -0.2170 -0.2548  1.6843
 1139SOL    HW215051   2.236   3.221   4.453  1.3307  0.5279  0.6481
 1140SOL     OW15052   2.877   3.649   1.055  0.0153 -0.1819 -0.0274
 1140SOL    HW115053   2.791   3.612   1.072 -0.7540  0.2360 -2.9014
 1140SOL    HW215054   2.914   3.659   1.142  0.8216  1.5017 -0.5656
 1141SOL     OW15055   2.624   3.300   5.688 -0.2676 -0.2550  0.3970
 1141SOL    HW115056   2.565   3.294   5.763  0.0476 -0.1813  0.6522
 1141SOL    HW215057   2.696   3.249   5.726  1.8255  1.8289 -0.7649
 1142SOL     OW15058   1.413   0.734  13.398 -0.0035 -0.2112 -0.5899
 1142SOL    HW115059   1.486   0.674  13.413  1.4055  1.2418 -1.6342
 1142SOL    HW215060   1.374   0.746  13.484  2.0207  0.0419  0.3054
 1143SOL     OW15061   3.486   0.317  16.985 -0.2846 -0.7919  0.6949
 1143SOL    HW115062   3.571   0.297  17.024 -0.8228 -1.5908  1.4765
 1143SOL    HW215063   3.433   0.240  17.005 -3.1663  1.1205  0.5695
 1144SOL     OW15064   0.841   4.190   1.821 -0.3406  0.7637  0.3119
 1144SOL    HW115065   0.812   4.099   1.826  0.2306  0.5720  0.1197
 1144SOL    HW215066   0.769   4.224   1.768 -0.1937  0.0392 -0.3477
 1145SOL     OW15067   1.731   1.052   8.000  0.0131  0.4659  0.0339
 1145SOL    HW115068   1.699   1.140   8.017  1.1570  1.0160 -0.7215
 1145SOL    HW215069   1.687   1.003   8.071 -1.9874 -0.6679 -1.9807
 1146SOL     OW15070   4.212   1.045   3.145 -0.7092 -0.1425  0.0801
 1146SOL    HW115071   4.256   1.129   3.154  1.2809 -1.3334  1.5479
 1146SOL    HW215072   4.126   1.064   3.182 -0.6747 -0.0689  0.1209
 1147SOL     OW15073   3.190   1.870   3.154  0.3262  0.0883  0.0475
 1147SOL    HW115074   3.171   1.928   3.080 -0.0713  1.4188  1.2026
 1147SOL    HW215075   3.243   1.798   3.120  0.5322  1.2323 -2.0107
 1148SOL     OW15076   2.761   3.641   2.435  0.7473 -0.4048 -0.0153
 1148SOL    HW115077   2.707   3.706   2.390 -2.0084 -1.6446  1.4884
 1148SOL    HW215078   2.749   3.667   2.526 -1.5745 -0.2363 -0.3658
 1149SOL     OW15079   3.055   0.270  14.306 -0.1674  0.0682  0.3724
 1149SOL    HW115080   3.117   0.343  14.310  1.7104 -1.3476 -2.8945
 1149SOL    HW215081   2.986   0.317  14.260  0.7261 -0.0473 -1.1032
 1150SOL     OW15082   3.180   3.812   4.089  0.4896  0.3388  0.0523
 1150SOL    HW115083   3.181   3.904   4.114  1.0974  0.0044  1.2923
 1150SOL    HW215084   3.094   3.791   4.125  1.3769 -0.8503  1.4980
 1151SOL     OW15085   0.112   2.610  11.020  0.2005 -0.0018  0.2377
 1151SOL    HW115086   0.039   2.666  11.045  0.2846 -0.7000  2.0309
 1151SOL    HW215087   0.182   2.675  11.014 -0.4709  0.6735 -0.3974
 1152SOL     OW15088   2.648   1.596  17.349  0.3818  0.2214 -0.5143
 1152SOL    HW115089   2.735   1.580  17.311  0.0218 -0.2829 -1.1159
 1152SOL    HW215090   2.663   1.548  17.431  1.1326  1.3607  0.0054
 1153SOL     OW15091   4.465   4.410   4.065  0.2314 -0.0780 -0.4105
 1153SOL    HW115092   4.381   4.390   4.025  1.1303  0.5297 -2.6342
 1153SOL    HW215093   4.455   4.502   4.091  0.6230  0.2347 -1.3487
 1154SOL     OW15094   2.367   1.241   7.505 -0.2877 -0.1864  0.1401
 1154SOL    HW115095   2.295   1.191   7.466 -0.5676  0.4579 -0.1655
 1154SOL    HW215096   2.350   1.227   7.598 -2.5057 -2.0297 -0.5511
 1155SOL     OW15097   3.172   3.293   1.447  0.3484  0.6713  0.0606
 1155SOL    HW115098   3.155   3.250   1.364  0.4641  1.0171 -0.1387
 1155SOL    HW215099   3.175   3.385   1.421  1.2080  0.5423 -0.3090
 1156SOL     OW15100   2.769   0.461   6.539 -0.1741 -0.2437  0.0297
 1156SOL    HW115101   2.736   0.549   6.521  0.8913  0.1512 -0.0080
 1156SOL    HW215102   2.691   0.428   6.584  0.4710 -2.2614 -0.3266
 1157SOL     OW15103   1.275   1.081   6.325 -0.4283 -0.0749  0.4627
 1157SOL    HW115104   1.339   1.138   6.284 -2.2851  1.4419 -0.3589
 1157SOL    HW215105   1.281   1.113   6.415  0.1331 -0.3840  0.5353
 1158SOL     OW15106   0.463   3.032   5.334 -0.2664  0.4065 -0.3188
 1158SOL    HW115107   0.543   3.075   5.367 -0.1502  0.9139 -1.2508
 1158SOL    HW215108   0.394   3.094   5.357 -0.7244 -0.2536  0.0678
 1159SOL     OW15109   0.250   4.331  17.393  0.3163 -0.0651  0.2340
 1159SOL    HW115110   0.231   4.262  17.456  0.2312  0.9899  1.3453
 1159SOL    HW215111   0.303   4.285  17.327 -1.2871 -0.6899 -0.6255
 1160SOL     OW15112   1.974   3.795  12.169 -0.0535  0.1550 -0.1676
 1160SOL    HW115113   2.046   3.852  12.140  0.6700 -1.1681 -0.9523
 1160SOL    HW215114   1.956   3.825  12.259  2.3786 -0.4066  0.4932
 1161SOL     OW15115   1.756   3.632   6.642 -0.3628 -0.5862  0.3357
 1161SOL    HW115116   1.820   3.680   6.590 -1.3859 -1.3886 -1.6559
 1161SOL    HW215117   1.794   3.646   6.729  0.8895 -2.4773  0.0940
 1162SOL     OW15118   2.014   0.551   6.759  0.0354 -0.0005 -0.6381
 1162SOL    HW115119   1.981   0.640   6.755 -0.0790 -0.0773 -1.5169
 1162SOL    HW215120   2.076   0.559   6.832  0.1596 -0.5410 -0.6834
 1163SOL     OW15121   3.784   2.313   7.680  0.4514  0.0073 -0.3193
 1163SOL    HW115122   3.744   2.397   7.704 -2.0879 -1.4524  0.5761
 1163SOL    HW215123   3.784   2.266   7.763  0.9850  0.0922 -0.2747
 1164SOL     OW15124   1.381   2.463  12.086 -0.4704  0.1795  0.5844
 1164SOL    HW115125   1.448   2.514  12.131  1.5368 -0.5970 -1.5060
 1164SOL    HW215126   1.307   2.482  12.145  2.1574  0.9314  3.6421
 1165SOL     OW15127   0.841   2.568   5.644  0.2237  0.1282  0.1632
 1165SOL    HW115128   0.936   2.564   5.649  0.2681  0.2215 -0.6009
 1165SOL    HW215129   0.829   2.658   5.673 -0.9389  0.6534 -1.9362
 1166SOL     OW15130   1.586   4.518   6.094  0.3432 -0.1495 -0.4975
 1166SOL    HW115131   1.644   4.586   6.058 -1.9588  2.6573  1.1195
 1166SOL    HW215132   1.646   4.465   6.146 -1.5840 -0.2389  1.5912
 1167SOL     OW15133   0.041   1.182  12.587 -0.6643 -0.3710 -0.0479
 1167SOL    HW115134   0.077   1.132  12.661 -0.3066  1.1932  0.8292
 1167SOL    HW215135   0.120   1.224  12.553  0.1760  0.1025  2.4535
 1168SOL     OW15136   1.866   2.149  12.022  0.1143  0.5948 -0.2191
 1168SOL    HW115137   1.788   2.178  12.070  1.4997  2.5775  0.8464
 1168SOL    HW215138   1.860   2.191  11.936  2.1286  0.6851 -0.3037
 1169SOL     OW15139   2.250   2.997   1.561 -0.0054 -0.0349  0.0230
 1169SOL    HW115140   2.242   2.904   1.538  2.0312 -0.8747  2.6415
 1169SOL    HW215141   2.167   3.029   1.526 -1.7149 -1.2743  2.9865
 1170SOL     OW15142   4.214   2.875   5.223  0.6830  0.2076 -0.1281
 1170SOL    HW115143   4.174   2.904   5.141 -2.2344  0.8321  1.5026
 1170SOL    HW215144   4.252   2.958   5.252  1.3136 -0.9136  2.2669
 1171SOL     OW15145   4.391   0.610   7.983  0.0181  0.1341  0.0107
 1171SOL    HW115146   4.478   0.585   8.015  0.4813  1.2426 -0.3747
 1171SOL    HW215147   4.385   0.703   8.006  2.6420 -0.2011  2.0533
 1172SOL     OW15148   2.840   3.647  10.618  0.3055  0.4254  0.1763
 1172SOL    HW115149   2.825   3.581  10.685  1.8122  1.6228  1.6613
 1172SOL    HW215150   2.932   3.670  10.624  0.2199  0.6992  0.3941
 1173SOL     OW15151   1.419   3.995  14.846  0.3444  0.1096 -0.2962
 1173SOL    HW115152   1.456   4.050  14.915  0.7848 -0.5971  0.0353
 1173SOL    HW215153   1.391   3.918  14.897 -1.3188  2.7478  2.7680
 1174SOL     OW15154   2.289   3.135   7.057  0.0574  0.3838 -0.8028
 1174SOL    HW115155   2.284   3.222   7.017  0.9809  1.2752  1.0309
 1174SOL    HW215156   2.197   3.110   7.060 -0.0274  0.9842  1.3163
 1175SOL     OW15157   0.487   3.743   6.630  0.6726 -0.0374 -0.3978
 1175SOL    HW115158   0.548   3.797   6.679 -0.4406  0.9780 -0.1210
 1175SOL    HW215159   0.459   3.684   6.700 -2.2961 -1.6504 -2.9338
 1176SOL     OW15160   1.418   1.107   9.230  0.5405 -0.0709  0.7419
 1176SOL    HW115161   1.464   1.079   9.151 -2.1267  1.3656 -1.3282
 1176SOL    HW215162   1.387   1.029   9.276  1.4528 -0.4436  0.7066
 1177SOL     OW15163   3.167   4.141   2.808 -0.0928  0.4507 -0.6110
 1177SOL    HW115164   3.075   4.113   2.805 -0.3511  1.1552  0.9426
 1177SOL    HW215165   3.186   4.094   2.889 -3.1451 -2.3614 -1.5053
 1178SOL     OW15166   1.408   0.667   1.639 -0.3939  0.3363  0.3742
 1178SOL    HW115167   1.406   0.727   1.714  1.5378 -1.6896  2.0332
 1178SOL    HW215168   1.336   0.701   1.586  0.8509  2.3019 -0.0858
 1179SOL     OW15169   4.704   4.344  16.614  0.0672 -0.1894 -0.0173
 1179SOL    HW115170   0.043   4.393  16.631 -0.0717 -0.2375  0.8021
 1179SOL    HW215171   4.641   4.413  16.633 -1.8708 -2.3703  1.4410
 1180SOL     OW15172   3.173   0.536   0.018  0.0010 -0.1056 -0.3871
 1180SOL    HW115173   3.260   0.518  17.748  0.2352 -0.3091  0.3058
 1180SOL    HW215174   3.152   0.618  17.738 -2.3351 -1.5883 -2.0499
 1181SOL     OW15175   4.091   1.505   8.265  0.7435  0.1495  0.1236
 1181SOL    HW115176   4.156   1.562   8.306 -0.5096  0.2860  1.9087
 1181SOL    HW215177   4.114   1.425   8.313 -0.9878  0.1449  0.9306
 1182SOL     OW15178   1.123   1.980   5.590 -0.2708  0.2711 -0.6259
 1182SOL    HW115179   1.091   1.999   5.678  1.0938 -0.0161 -0.0663
 1182SOL    HW215180   1.207   2.026   5.585 -0.3794  0.7397  1.9073
 1183SOL     OW15181   1.568   2.380   1.586  0.0413 -0.4176  0.2190
 1183SOL    HW115182   1.646   2.326   1.571  1.2722  1.0612  1.2317
 1183SOL    HW215183   1.525   2.361   1.504 -0.0374 -0.5679  0.2963
 1184SOL     OW15184   4.071   0.857   7.161  0.7551 -0.0917 -0.1766
 1184SOL    HW115185   4.009   0.828   7.229 -0.2484 -0.0766 -1.0836
 1184SOL    HW215186   4.092   0.770   7.127  0.7378  0.9692 -2.9049
 1185SOL     OW15187   1.091   3.003  14.661  0.0807 -0.2030 -0.0631
 1185SOL    HW115188   1.167   3.048  14.627  0.0958  0.2141  0.5201
 1185SOL    HW215189   1.085   2.921  14.612 -0.6907  0.5750 -1.2782
 1186SOL     OW15190   3.993   1.417   7.517 -0.6261 -0.1328 -0.2841
 1186SOL    HW115191   4.081   1.415   7.480 -0.2145  0.1790  0.6941
 1186SOL    HW215192   4.001   1.483   7.586  0.3811 -0.4734 -0.0741
 1187SOL     OW15193   2.349   4.321   3.793 -0.2411  0.0184  0.7974
 1187SOL    HW115194   2.431   4.351   3.832 -0.0577 -1.1210  1.2748
 1187SOL    HW215195   2.378   4.282   3.711 -2.9605 -0.1220 -0.1239
 1188SOL     OW15196   1.952   4.017  12.349  0.3511  0.1059 -0.3789
 1188SOL    HW115197   2.046   4.019  12.334  0.6870 -0.4423  1.6544
 1188SOL    HW215198   1.947   4.048  12.440  0.0899  1.5867 -0.8960
 1189SOL     OW15199   4.036   2.261  14.474 -0.2724  0.7013  0.1517
 1189SOL    HW115200   3.991   2.340  14.505 -0.4411  0.5416  0.3139
 1189SOL    HW215201   4.075   2.223  14.552 -0.2875 -1.5525 -0.9551
 1190SOL     OW15202   0.080   1.608   8.251  0.1139  0.4253  0.6504
 1190SOL    HW115203   0.043   1.532   8.206 -0.2935  1.2544 -0.4436
 1190SOL    HW215204   0.004   1.661   8.277 -0.1001  1.1464 -1.4242
 1191SOL     OW15205   1.963   3.456   5.813 -0.0493  0.5550 -0.0923
 1191SOL    HW115206   1.927   3.385   5.866  0.6329  1.0055  0.9664
 1191SOL    HW215207   1.933   3.436   5.724 -0.3838  0.0627  0.1343
 1192SOL     OW15208   3.205   0.912   3.704  0.0963 -0.7175 -0.1677
 1192SOL    HW115209   3.233   0.960   3.781  0.8532 -0.7753 -0.4075
 1192SOL    HW215210   3.278   0.854   3.682 -0.3267 -0.4255 -2.3828
 1193SOL     OW15211   1.092   3.955   4.056 -0.2314 -0.0010 -0.3538
 1193SOL    HW115212   1.079   3.906   3.974 -1.0754 -4.0772  2.2405
 1193SOL    HW215213   1.015   4.010   4.046 -1.4817 -2.0539 -1.9543
 1194SOL     OW15214   1.727   4.591   5.381 -0.3193  0.0343 -0.6709
 1194SOL    HW115215   1.696   4.534   5.451  0.6722  1.0201  0.5801
 1194SOL    HW215216   1.643   4.637   5.379 -0.8890 -0.8296  2.6257
 1195SOL     OW15217   1.180   4.601   7.967  0.1877  0.2933 -0.2712
 1195SOL    HW115218   1.090   4.571   7.979 -0.3439  2.2704  0.5838
 1195SOL    HW215219   1.230   4.527   8.003  0.9201 -0.4423 -2.8393
 1196SOL     OW15220   3.133   3.239   6.898 -0.4341  0.1802 -0.0981
 1196SOL    HW115221   3.211   3.253   6.844  0.1116  0.3300  0.7343
 1196SOL    HW215222   3.077   3.310   6.869 -1.3133 -1.0536 -1.4119
 1197SOL     OW15223   3.326   1.988   5.424 -0.2224  0.1697  0.1976
 1197SOL    HW115224   3.255   1.941   5.381 -0.4172 -0.0640  0.7732
 1197SOL    HW215225   3.277   2.002   5.505 -2.2149 -0.3789 -0.8927
 1198SOL     OW15226   2.590   3.975  17.764  0.5640  0.0219  0.2123
 1198SOL    HW115227   2.532   4.027   0.053 -0.3049 -1.0800  0.3457
 1198SOL    HW215228   2.595   4.020  17.680  0.5643 -0.0965  0.1478
 1199SOL     OW15229   3.969   3.459   5.801 -0.0379 -0.2654  0.5941
 1199SOL    HW115230   4.060   3.439   5.779 -0.2352 -0.5859  0.0763
 1199SOL    HW215231   3.918   3.392   5.756 -0.9493  0.8013  0.0352
 1200SOL     OW15232   0.501   0.376   0.786  0.1350 -0.2497 -0.6401
 1200SOL    HW115233   0.457   0.344   0.866 -1.0751 -0.2047 -1.2805
 1200SOL    HW215234   0.421   0.415   0.749  1.6296  2.8620 -0.5988
 1201SOL     OW15235   4.420   3.688   8.807 -0.2660 -0.0322 -0.0948
 1201SOL    HW115236   4.341   3.662   8.760  0.8248 -1.7942 -0.9510
 1201SOL    HW215237   4.407   3.641   8.889  0.1202 -0.5261 -0.3206
 1202SOL     OW15238   0.947   2.361   2.933  0.2963 -0.7842 -0.3799
 1202SOL    HW115239   0.975   2.359   2.842 -2.4923  0.8797 -1.2942
 1202SOL    HW215240   0.861   2.400   2.918  0.7541  0.5984  0.6097
 1203SOL     OW15241   2.130   4.373  12.590 -0.4851  0.0980 -0.4121
 1203SOL    HW115242   2.223   4.366  12.610 -0.1203  1.6543 -1.6066
 1203SOL    HW215243   2.130   4.406  12.500 -1.7841  0.2552 -0.3521
 1204SOL     OW15244   1.308   1.868   4.898 -0.2658 -0.2082  0.1088
 1204SOL    HW115245   1.314   1.896   4.807 -0.8728  1.1187  0.4815
 1204SOL    HW215246   1.299   1.952   4.943  0.0706 -0.2606  0.2742
 1205SOL     OW15247   3.907   3.253   3.353 -0.1113  0.5111 -0.4316
 1205SOL    HW115248   3.878   3.258   3.261 -1.0648  0.0329 -0.1632
 1205SOL    HW215249   3.872   3.168   3.379 -0.7858  0.8896 -0.1012
 1206SOL     OW15250   4.438   3.893   6.948 -0.3466  0.4359 -0.0320
 1206SOL    HW115251   4.492   3.836   7.003 -1.7865  0.3331  1.2681
 1206SOL    HW215252   4.504   3.924   6.886 -0.7123  1.5780  0.1646
 1207SOL     OW15253   0.799   2.179   7.257  0.5453  0.2162  0.2958
 1207SOL    HW115254   0.760   2.137   7.334 -0.2910 -0.6502 -0.6008
 1207SOL    HW215255   0.861   2.240   7.296 -0.9362  0.3392  2.4490
 1208SOL     OW15256   1.349   2.289   2.514  0.3061  0.1670 -0.5996
 1208SOL    HW115257   1.421   2.267   2.573  0.0284  0.9048  0.0228
 1208SOL    HW215258   1.291   2.333   2.577  1.3128  0.6856 -0.0404
 1209SOL     OW15259   2.183   4.402  15.123 -0.1112 -0.2390  0.3473
 1209SOL    HW115260   2.187   4.417  15.217  0.9049 -0.7650  0.3828
 1209SOL    HW215261   2.146   4.315  15.139 -0.5910  0.0845  0.9690
 1210SOL     OW15262   1.247   2.273   8.075 -0.1821  0.4506 -0.1883
 1210SOL    HW115263   1.209   2.231   7.998  0.0297  1.5401 -0.8845
 1210SOL    HW215264   1.170   2.325   8.101  0.2522  1.8333 -1.6500
 1211SOL     OW15265   3.638   0.035   6.524 -0.0901  0.9086  0.4652
 1211SOL    HW115266   3.703   4.728   6.473 -0.4357  0.2934  0.6223
 1211SOL    HW215267   3.674   0.012   6.610 -1.3742 -1.3483  0.3892
 1212SOL     OW15268   0.689   1.853   1.305 -0.2852  0.0118 -0.4524
 1212SOL    HW115269   0.672   1.763   1.278 -1.1625  0.6042 -1.8564
 1212SOL    HW215270   0.662   1.894   1.223  0.1984  0.6105 -0.3168
 1213SOL     OW15271   3.409   4.217   4.527  0.0912  0.1360  0.1038
 1213SOL    HW115272   3.461   4.265   4.591 -2.0388 -1.1880  2.8496
 1213SOL    HW215273   3.464   4.196   4.452 -1.5911  0.7760 -1.3073
 1214SOL     OW15274   2.220   0.462   7.600  0.0845  0.0880 -0.1104
 1214SOL    HW115275   2.292   0.406   7.571  0.0467  0.5562 -1.1238
 1214SOL    HW215276   2.219   0.456   7.695 -1.9409 -0.0415 -0.1286
 1215SOL     OW15277   2.508   4.011   1.360 -0.3252 -0.5607  0.5523
 1215SOL    HW115278   2.458   4.053   1.430 -0.0167 -0.9417  1.0019
 1215SOL    HW215279   2.474   4.060   1.285  1.6604 -0.3324 -0.1889
 1216SOL     OW15280   3.228   3.367   8.529 -0.2579  0.6620 -0.5068
 1216SOL    HW115281   3.166   3.393   8.461 -1.0815  0.6040  0.2245
 1216SOL    HW215282   3.283   3.445   8.532 -0.0439  0.5168 -0.6506
 1217SOL     OW15283   3.526   2.335   9.386 -0.3681  0.2049 -0.5716
 1217SOL    HW115284   3.615   2.314   9.414 -1.4138 -1.8491  1.2206
 1217SOL    HW215285   3.484   2.358   9.469 -2.3186  0.3346 -1.6046
 1218SOL     OW15286   0.742   4.591   5.138 -0.3431 -0.5049  0.0570
 1218SOL    HW115287   0.662   4.634   5.167 -1.8858 -1.9643 -2.0455
 1218SOL    HW215288   0.786   4.670   5.109  2.2965 -2.0322 -0.1439
 1219SOL     OW15289   3.836   1.768   0.811  0.1201  0.2079 -0.2158
 1219SOL    HW115290   3.857   1.846   0.759  3.5707  0.2359  1.2117
 1219SOL    HW215291   3.827   1.816   0.894 -4.2993  1.1718 -1.2143
 1220SOL     OW15292   2.694   0.781   9.426 -0.0969  0.1585 -0.3371
 1220SOL    HW115293   2.695   0.850   9.493 -0.0885 -0.0325 -0.1386
 1220SOL    HW215294   2.605   0.786   9.390  0.2772  0.4677 -1.2066
 1221SOL     OW15295   0.457   2.647  15.830  0.0654 -0.4124 -0.3114
 1221SOL    HW115296   0.486   2.712  15.894  1.1024  0.1802 -1.3786
 1221SOL    HW215297   0.505   2.572  15.864 -0.2023 -0.2152  0.5156
 1222SOL     OW15298   3.080   3.936   3.744 -0.5868 -0.3822 -0.3107
 1222SOL    HW115299   3.175   3.945   3.750 -0.7989  1.0000  0.8248
 1222SOL    HW215300   3.051   3.984   3.821  0.7801 -0.5298  0.2975
 1223SOL     OW15301   0.412   2.368   7.099  0.1104 -0.2260  0.0813
 1223SOL    HW115302   0.337   2.407   7.054  0.1327 -0.5502 -0.2363
 1223SOL    HW215303   0.437   2.302   7.034  2.9003  1.3654 -0.4433
 1224SOL     OW15304   0.304   2.239   4.377 -0.4085 -0.5130  0.0519
 1224SOL    HW115305   0.286   2.332   4.366  0.6265 -0.0496  2.3341
 1224SOL    HW215306   0.301   2.213   4.285  2.4414 -0.1046 -0.1573
 1225SOL     OW15307   3.279   3.946   8.186  0.4666  0.0488 -0.0886
 1225SOL    HW115308   3.286   3.890   8.109 -0.3406 -1.4170  0.9065
 1225SOL    HW215309   3.295   3.892   8.263  0.4531 -2.5300 -1.8928
 1226SOL     OW15310   0.144   2.435   2.166 -0.2566 -0.0899  0.4680
 1226SOL    HW115311   0.192   2.401   2.242  2.8362 -0.3877 -1.5684
 1226SOL    HW215312   0.097   2.510   2.201  0.2628  0.8842 -0.9363
 1227SOL     OW15313   4.700   0.073   0.488 -0.0575  0.1119 -0.6071
 1227SOL    HW115314   4.634   0.015   0.449  0.2538 -1.9703  2.0157
 1227SOL    HW215315   0.032   0.012   0.489 -0.6652 -0.6482 -1.6777
 1228SOL     OW15316   1.798   3.179  15.160 -0.1737 -0.0531  0.2603
 1228SOL    HW115317   1.864   3.224  15.107 -2.2703  1.9512 -0.6723
 1228SOL    HW215318   1.770   3.110  15.100 -0.3031 -0.5891  0.9396
 1229SOL     OW15319   2.749   1.028   7.064  0.0570 -0.3521 -0.1710
 1229SOL    HW115320   2.746   0.957   7.128 -0.5437  1.6734  2.0451
 1229SOL    HW215321   2.809   0.998   6.996 -0.5565  0.3343 -1.0287
 1230SOL     OW15322   0.917   0.785   7.831 -0.3234  0.1945  0.3984
 1230SOL    HW115323   0.896   0.697   7.800 -2.1712  1.2820 -1.4020
 1230SOL    HW215324   0.933   0.756   7.921 -1.0892  0.6040  0.6606
 1231SOL     OW15325   1.840   0.759   7.662 -0.3571 -0.0469  0.2120
 1231SOL    HW115326   1.878   0.682   7.704  1.7316  0.1936 -1.2503
 1231SOL    HW215327   1.848   0.816   7.739  0.4335  0.7054 -0.4344
 1232SOL     OW15328   2.029   4.578   6.413 -0.2439 -0.6679 -0.4864
 1232SOL    HW115329   1.998   4.625   6.336 -2.2070 -3.3424 -1.3389
 1232SOL    HW215330   2.028   4.649   6.477 -0.1401  0.1278 -1.3731
 1233SOL     OW15331   4.247   3.646  14.522 -0.3040  0.2068  0.0751
 1233SOL    HW115332   4.277   3.637  14.431  0.1481 -0.1833  0.2565
 1233SOL    HW215333   4.299   3.716  14.563 -0.9220  0.7671 -0.1109
 1234SOL     OW15334   1.690   1.915   8.500  0.0303  0.3475 -0.7124
 1234SOL    HW115335   1.666   2.003   8.528  0.0435  0.6375 -1.6149
 1234SOL    HW215336   1.610   1.875   8.534 -0.3548  1.0918 -0.7452
 1235SOL     OW15337   1.906   1.643  17.047  0.1073 -0.5893  0.5519
 1235SOL    HW115338   1.924   1.724  16.998  1.9791  0.2398  2.6474
 1235SOL    HW215339   1.833   1.674  17.101  1.2199 -0.0912  1.7548
 1236SOL     OW15340   4.293   2.261   7.732  0.3463  0.2358 -0.2459
 1236SOL    HW115341   4.260   2.252   7.821  0.9159  0.1607 -0.0406
 1236SOL    HW215342   4.324   2.174   7.708 -2.3324 -0.6779 -0.3511
 1237SOL     OW15343   3.465   1.740   8.248  0.2918 -0.0487  0.1962
 1237SOL    HW115344   3.464   1.800   8.174  3.6330 -1.4875 -1.0250
 1237SOL    HW215345   3.514   1.785   8.317  3.2554 -0.2133 -1.7856
 1238SOL     OW15346   4.424   1.489   9.202  0.1134  0.3430 -1.0516
 1238SOL    HW115347   4.447   1.573   9.161  0.1950 -0.5667 -2.8732
 1238SOL    HW215348   4.444   1.504   9.294  0.4579  0.1525 -1.0970
 1239SOL     OW15349   4.150   1.567  17.486 -0.1819 -0.3079  0.0239
 1239SOL    HW115350   4.205   1.635  17.525  0.8010 -1.6355  0.9287
 1239SOL    HW215351   4.216   1.511  17.446  2.5744  1.7153  1.7383
 1240SOL     OW15352   2.012   4.656  16.177 -0.5960 -0.6168  0.0115
 1240SOL    HW115353   2.105   4.677  16.167 -0.8095  1.3990  2.2713
 1240SOL    HW215354   1.992   4.713  16.251  0.8120  1.4035 -1.1627
 1241SOL     OW15355   0.481   3.620  17.510  0.1194 -0.4112 -0.3555
 1241SOL    HW115356   0.487   3.689  17.443 -2.1014  2.0421  1.9713
 1241SOL    HW215357   0.463   3.543  17.456 -0.2364 -0.4821 -0.1297
 1242SOL     OW15358   4.581   0.066   5.781 -0.2169  0.2828  0.8644
 1242SOL    HW115359   4.530   0.075   5.862 -1.1416  0.5471  0.2498
 1242SOL    HW215360   4.657   0.115   5.812  0.6505 -1.4432  1.4653
 1243SOL     OW15361   3.309   1.614   9.111 -0.3449 -0.2284  0.4833
 1243SOL    HW115362   3.373   1.581   9.174  1.9653  0.2371 -1.6538
 1243SOL    HW215363   3.231   1.631   9.164 -0.9685  0.1075 -0.5501
 1244SOL     OW15364   0.452   1.418   2.749  0.0737 -0.0997  0.3310
 1244SOL    HW115365   0.511   1.393   2.678 -0.3482  2.5893 -0.9892
 1244SOL    HW215366   0.457   1.514   2.745  1.8321 -0.2116 -0.0771
 1245SOL     OW15367   0.032   2.352   7.544 -0.4753  0.1005 -1.0236
 1245SOL    HW115368   0.048   2.284   7.609  1.0556  2.4391  1.0589
 1245SOL    HW215369   0.081   2.419   7.591 -0.6818 -0.8600  0.5584
 1246SOL     OW15370   0.830   3.996   2.342  0.0370  0.3045 -0.4168
 1246SOL    HW115371   0.861   4.003   2.433  1.1385  0.2843 -0.7947
 1246SOL    HW215372   0.760   4.060   2.344 -0.2527 -0.0726  1.4643
 1247SOL     OW15373   4.377   0.194  11.017  0.3754 -0.6425  0.5672
 1247SOL    HW115374   4.462   0.203  11.061 -0.9236 -0.7945  3.0956
 1247SOL    HW215375   4.372   0.283  10.982 -0.2359 -0.4238  1.1984
 1248SOL     OW15376   2.932   3.165  10.790  0.4247 -0.2167 -0.4563
 1248SOL    HW115377   2.969   3.220  10.721  1.6164 -1.7877 -1.0488
 1248SOL    HW215378   3.014   3.145  10.835 -0.5887 -0.8705  1.0716
 1249SOL     OW15379   4.545   4.483   5.706  0.6288  0.0472 -0.5206
 1249SOL    HW115380   4.478   4.540   5.744 -0.0021  0.3847 -2.1209
 1249SOL    HW215381   4.490   4.458   5.632 -0.2649  0.6044 -0.0428
 1250SOL     OW15382   0.085   3.257   0.000 -0.8797 -0.1067  0.0504
 1250SOL    HW115383   0.140   3.326  17.728 -2.2634  0.6579 -0.5862
 1250SOL    HW215384   0.021   3.315   0.043 -0.0896  0.9478 -0.1907
 1251SOL     OW15385   0.038   1.685   1.077  0.1002 -0.1570 -0.5528
 1251SOL    HW115386   4.711   1.750   1.084 -1.6880 -2.1745  0.7041
 1251SOL    HW215387   0.106   1.748   1.057  0.0029  0.1909  0.2012
 1252SOL     OW15388   4.041   2.494   4.749 -0.1937  0.7174 -0.5651
 1252SOL    HW115389   4.035   2.402   4.721 -1.8585  0.7569 -0.3557
 1252SOL    HW215390   4.115   2.528   4.698  0.0265  1.6109  0.3590
 1253SOL     OW15391   4.265   1.971   7.694 -0.2145 -0.2517  0.3577
 1253SOL    HW115392   4.177   1.991   7.726 -0.3333  0.5270 -0.4344
 1253SOL    HW215393   4.261   1.876   7.700 -2.8950 -0.1934 -0.4259
 1254SOL     OW15394   1.036   4.611  13.806  0.5242  0.1993 -0.3335
 1254SOL    HW115395   1.102   4.670  13.842 -0.6450 -0.5359  3.0272
 1254SOL    HW215396   0.978   4.669  13.756  0.4967 -0.4620 -1.0829
 1255SOL     OW15397   0.416   2.536   6.231  0.0867 -0.1425  1.1008
 1255SOL    HW115398   0.442   2.582   6.310  0.6463  0.5687  0.5097
 1255SOL    HW215399   0.496   2.517   6.182  0.4712  0.7425  1.3999
 1256SOL     OW15400   3.579   2.042   9.417  0.4006 -0.0920 -0.0757
 1256SOL    HW115401   3.587   2.063   9.510  1.2653  0.9667 -0.3961
 1256SOL    HW215402   3.513   2.107   9.396 -1.7959 -1.3705  2.8274
 1257SOL     OW15403   3.758   2.706   8.039 -0.5934 -0.1544 -0.1682
 1257SOL    HW115404   3.700   2.782   8.043  2.2539  1.9993  0.5570
 1257SOL    HW215405   3.767   2.671   8.128 -1.1148 -1.4256 -0.6210
 1258SOL     OW15406   0.335   1.319   3.979 -0.4461 -0.2067 -0.3290
 1258SOL    HW115407   0.287   1.258   3.923 -2.7146 -0.9590  2.4129
 1258SOL    HW215408   0.422   1.306   3.943 -0.2561  0.0856  0.0263
 1259SOL     OW15409   0.613   3.427   9.995  0.0276  0.2181  0.0337
 1259SOL    HW115410   0.668   3.355   9.964  0.1915  0.1055  0.5769
 1259SOL    HW215411   0.534   3.374  10.001 -1.0491  1.6409 -1.4659
 1260SOL     OW15412   4.671   3.362   6.869  0.3757 -0.6704 -0.2281
 1260SOL    HW115413   4.628   3.323   6.945 -0.4489 -0.1868 -0.4436
 1260SOL    HW215414   4.726   3.425   6.917 -0.2562  0.2374 -0.6942
 1261SOL     OW15415   2.682   1.212  17.410  0.0837 -0.7993  0.2496
 1261SOL    HW115416   2.702   1.246  17.323 -1.5605 -0.5729 -0.0416
 1261SOL    HW215417   2.645   1.131  17.377  1.2753 -1.0253 -0.5062
 1262SOL     OW15418   0.226   4.612   8.007  0.4710 -0.6477  0.0340
 1262SOL    HW115419   0.238   4.661   7.925  0.0075 -0.0302  0.3409
 1262SOL    HW215420   0.291   4.542   8.003  1.7376  0.3431  3.5199
 1263SOL     OW15421   3.464   1.755   6.953 -0.3976  0.1079 -0.0655
 1263SOL    HW115422   3.481   1.715   7.039 -1.4561  0.8869  0.4993
 1263SOL    HW215423   3.501   1.688   6.895 -1.6785  0.3557 -1.1586
 1264SOL     OW15424   3.437   1.174  10.508 -0.2358 -0.5350 -0.1597
 1264SOL    HW115425   3.487   1.101  10.545 -0.6383 -1.6425 -1.8147
 1264SOL    HW215426   3.361   1.131  10.470  1.4176 -0.5777 -3.4347
 1265SOL     OW15427   1.151   1.326   9.054 -0.2567 -0.0491 -0.0817
 1265SOL    HW115428   1.077   1.372   9.013  0.6542  1.1221 -0.3919
 1265SOL    HW215429   1.195   1.287   8.978 -3.3644 -1.1573 -1.3311
 1266SOL     OW15430   0.735   1.500   0.568  1.0097  0.0089  0.0014
 1266SOL    HW115431   0.802   1.456   0.620 -0.4791 -0.3635  1.6141
 1266SOL    HW215432   0.757   1.477   0.478  0.9798  0.6452 -0.1704
 1267SOL     OW15433   2.292   0.542   2.580  0.3635 -0.0179 -0.2602
 1267SOL    HW115434   2.335   0.486   2.515  0.8608 -1.2579  1.1401
 1267SOL    HW215435   2.216   0.496   2.616  2.6955 -0.4782  4.0694
 1268SOL     OW15436   0.627   0.869  14.971 -0.2649  0.2264  0.1373
 1268SOL    HW115437   0.702   0.810  14.961 -0.4518  0.2742 -1.5448
 1268SOL    HW215438   0.586   0.832  15.049  1.7625 -1.1794  0.5364
 1269SOL     OW15439   1.958   2.205   6.172  0.0433 -0.5555  0.3196
 1269SOL    HW115440   2.026   2.209   6.105 -0.9084 -1.0886 -0.6826
 1269SOL    HW215441   1.962   2.114   6.200  2.4582 -0.7757 -0.7013
 1270SOL     OW15442   1.580   2.864   8.854  0.0354  0.7088 -0.1409
 1270SOL    HW115443   1.639   2.907   8.917  0.0263 -0.5931  0.7562
 1270SOL    HW215444   1.500   2.875   8.905  1.1817 -1.8601  2.2024
 1271SOL     OW15445   3.080   2.811   9.174  0.0732 -0.2858  0.0145
 1271SOL    HW115446   3.031   2.854   9.103  0.7055  1.6936  0.7882
 1271SOL    HW215447   3.081   2.720   9.145  0.1948  0.4021 -2.1758
 1272SOL     OW15448   4.540   0.428   1.886 -0.1460  0.4716 -0.0104
 1272SOL    HW115449   4.499   0.412   1.801 -1.0029  2.0650  0.1127
 1272SOL    HW215450   4.521   0.349   1.937 -0.6514  0.8221  0.3477
 1273SOL     OW15451   4.478   3.336   7.499 -0.1221 -0.2652  0.2597
 1273SOL    HW115452   4.565   3.301   7.481  0.6174  1.7426 -0.0256
 1273SOL    HW215453   4.425   3.260   7.476 -0.0609  0.0994 -1.0896
 1274SOL     OW15454   0.912   3.040  17.714 -0.1897 -0.1409  0.1518
 1274SOL    HW115455   0.933   2.953  17.750  2.2311  0.4341  0.1168
 1274SOL    HW215456   0.828   3.030  17.668  1.1649 -1.1324 -2.1108
 1275SOL     OW15457   4.734   1.635   3.069 -0.0320  0.6946 -0.7285
 1275SOL    HW115458   4.736   1.686   2.988 -3.1779  1.0459 -0.5921
 1275SOL    HW215459   0.075   1.589   3.076 -1.3115 -1.5338 -0.3087
 1276SOL     OW15460   3.270   2.440  14.090 -0.0799  0.6783  0.1989
 1276SOL    HW115461   3.318   2.464  14.170  0.2679  0.1812  0.1418
 1276SOL    HW215462   3.334   2.397  14.033 -0.6194 -2.0156  1.6218
 1277SOL     OW15463   0.122   3.085   6.546  0.2475  0.8119 -0.3279
 1277SOL    HW115464   0.151   3.074   6.455  2.6473  1.1642  0.3890
 1277SOL    HW215465   0.028   3.085   6.529 -0.1601 -1.5772  1.9204
 1278SOL     OW15466   1.343   0.429   5.605 -0.6532 -0.1513  0.2159
 1278SOL    HW115467   1.303   0.512   5.628 -0.4968 -0.0387  0.0869
 1278SOL    HW215468   1.271   0.380   5.644 -1.3196 -0.2187 -1.0879
 1279SOL     OW15469   4.332   0.323  10.659  0.0139 -0.4912 -0.2127
 1279SOL    HW115470   4.328   0.363  10.745 -2.1833  3.7869 -2.3226
 1279SOL    HW215471   4.413   0.369  10.635 -1.4359  2.0156 -0.2462
 1280SOL     OW15472   2.786   3.545   5.731  0.1962  0.5185 -0.1511
 1280SOL    HW115473   2.702   3.572   5.693 -0.3225  0.1210  0.7034
 1280SOL    HW215474   2.795   3.450   5.719 -3.4812  0.1878 -0.5015
 1281SOL     OW15475   2.914   4.298   4.117 -0.6544  0.1913 -0.3381
 1281SOL    HW115476   2.914   4.279   4.210  1.7098 -0.5511 -0.5025
 1281SOL    HW215477   2.829   4.266   4.086 -0.3119 -1.4743  0.4271
 1282SOL     OW15478   1.928   4.616  16.888 -0.6354  0.5585  0.3687
 1282SOL    HW115479   1.994   4.643  16.824  0.7579 -3.4012  0.1872
 1282SOL    HW215480   1.906   4.696  16.936  0.7243  1.3850 -0.3758
 1283SOL     OW15481   4.630   0.601   4.791  0.6340  0.1724  0.2605
 1283SOL    HW115482   4.677   0.627   4.712 -0.8037 -0.6561 -0.8695
 1283SOL    HW215483   4.541   0.638   4.790  0.7741  0.6040  2.3067
 1284SOL     OW15484   1.123   0.666   1.556  0.5004 -0.1834  0.4231
 1284SOL    HW115485   1.086   0.745   1.596  1.0353  0.2010  0.1612
 1284SOL    HW215486   1.091   0.600   1.618  0.2226 -2.3578 -2.0471
 1285SOL     OW15487   3.879   1.688   9.491  0.2185 -0.4628 -0.3146
 1285SOL    HW115488   3.905   1.778   9.511 -1.1878 -0.5657  1.9844
 1285SOL    HW215489   3.810   1.656   9.549 -0.4124  1.1205 -0.1904
 1286SOL     OW15490   4.384   4.730   6.952  0.0564  0.1953 -0.5155
 1286SOL    HW115491   4.434   0.019   6.877  1.3734  0.2456  0.3911
 1286SOL    HW215492   4.294   0.021   6.944  0.1535  0.5241 -0.2854
 1287SOL     OW15493   4.258   3.198  14.089 -0.0708 -0.4103 -0.1526
 1287SOL    HW115494   4.324   3.129  14.092  0.5734  0.2972  1.6024
 1287SOL    HW215495   4.239   3.215  13.996  1.7976  0.2500 -0.3990
 1288SOL     OW15496   3.625   4.689  12.213 -0.1372 -0.4803 -0.6591
 1288SOL    HW115497   3.655   4.641  12.291 -1.6802 -2.2033 -1.1364
 1288SOL    HW215498   3.543   4.643  12.193 -0.4328 -0.1534 -0.2074
 1289SOL     OW15499   2.872   2.642   6.092  0.2612 -0.4015 -0.2097
 1289SOL    HW115500   2.892   2.629   5.999 -0.2246 -1.1530 -0.2106
 1289SOL    HW215501   2.947   2.598   6.133 -0.4678  1.2625  2.8738
 1290SOL     OW15502   2.068   1.738   5.158  0.5427 -0.1585  0.7355
 1290SOL    HW115503   1.980   1.763   5.130  0.3630  0.6740  2.0320
 1290SOL    HW215504   2.062   1.768   5.249  2.1868 -0.2082  0.8583
 1291SOL     OW15505   3.343   2.772  15.795  0.2254 -0.3283 -0.0333
 1291SOL    HW115506   3.306   2.860  15.787 -1.0543 -0.9345 -0.7604
 1291SOL    HW215507   3.424   2.795  15.750 -2.1553  1.7451 -3.2712
 1292SOL     OW15508   0.691   1.849   0.756 -0.1124 -0.5681 -0.4763
 1292SOL    HW115509   0.644   1.825   0.676  2.0728 -1.5347 -1.4725
 1292SOL    HW215510   0.705   1.943   0.744 -0.8279 -0.2109  1.4488
 1293SOL     OW15511   1.548   3.844  17.393 -0.5317  0.0221 -0.5542
 1293SOL    HW115512   1.455   3.821  17.392 -0.1839 -1.1856 -3.6397
 1293SOL    HW215513   1.572   3.846  17.486  1.0047 -1.6307 -0.9058
 1294SOL     OW15514   0.350   2.387   8.712 -0.8452 -0.0897  0.2747
 1294SOL    HW115515   0.328   2.470   8.671  1.2646 -0.8666 -2.4857
 1294SOL    HW215516   0.260   2.360   8.731 -1.1253  0.2010 -0.6619
 1295SOL     OW15517   2.554   1.110   7.858  0.1186 -0.1381 -0.4021
 1295SOL    HW115518   2.493   1.036   7.870 -1.4607  0.7931 -2.6591
 1295SOL    HW215519   2.608   1.083   7.784  4.2694  1.2597  2.1454
 1296SOL     OW15520   3.228   0.691  11.119  0.2876  0.5899 -0.4143
 1296SOL    HW115521   3.177   0.686  11.200  0.6643  2.3331 -0.0750
 1296SOL    HW215522   3.221   0.597  11.102 -1.1726  0.8640 -1.3459
 1297SOL     OW15523   2.603   1.178  10.265 -0.1421 -0.1405  0.3615
 1297SOL    HW115524   2.629   1.090  10.293 -1.1499 -1.3348 -2.5082
 1297SOL    HW215525   2.528   1.207  10.316 -0.4596 -1.3760  0.6040
 1298SOL     OW15526   2.664   3.436  11.059  0.6284  0.1467  0.5364
 1298SOL    HW115527   2.597   3.380  11.101  0.3172 -1.3059 -1.8643
 1298SOL    HW215528   2.610   3.515  11.054 -0.3594 -0.6346 -1.2297
 1299SOL     OW15529   2.700   4.505  11.584  0.5461  0.1004 -0.3216
 1299SOL    HW115530   2.779   4.547  11.618  0.5726  0.3340 -0.6581
 1299SOL    HW215531   2.723   4.417  11.556  1.2281  1.4034 -3.9641
 1300SOL     OW15532   0.275   2.231  14.055  0.2308  0.3180  0.1859
 1300SOL    HW115533   0.220   2.189  14.121  0.1773 -1.1371 -0.7966
 1300SOL    HW215534   0.361   2.234  14.097 -0.0777  0.6787  0.8012
 1301SOL     OW15535   2.412   0.097   6.567  0.1914 -0.1939 -0.1640
 1301SOL    HW115536   2.418   0.001   6.568 -0.1783 -0.2162  0.1568
 1301SOL    HW215537   2.357   0.124   6.641  0.6841  0.7336 -0.1366
 1302SOL     OW15538   4.216   1.014   8.196 -0.1694  0.4980  0.0850
 1302SOL    HW115539   4.154   0.989   8.265  1.8701 -0.4585  1.5545
 1302SOL    HW215540   4.281   1.058   8.250  0.7762 -1.9467  0.9326
 1303SOL     OW15541   1.087   0.569   1.290 -0.2309 -0.7307 -0.3003
 1303SOL    HW115542   1.085   0.555   1.384  0.5241 -1.7137 -0.4232
 1303SOL    HW215543   1.180   0.593   1.282 -1.1260  2.8111  0.2118
 1304SOL     OW15544   1.414   0.031   5.655  0.1836  0.0334  0.2843
 1304SOL    HW115545   1.437   4.680   5.663 -1.1048 -0.5392 -2.5728
 1304SOL    HW215546   1.330   0.037   5.610  0.0327 -2.0100  0.2763
 1305SOL     OW15547   2.037   3.418   5.485 -0.0738  0.3744 -0.4784
 1305SOL    HW115548   1.979   3.352   5.449 -0.0448 -0.6595  1.3947
 1305SOL    HW215549   1.981   3.489   5.516  1.6269  0.9098  1.3759
 1306SOL     OW15550   3.706   0.438   5.337  0.3678  0.1055 -1.2052
 1306SOL    HW115551   3.640   0.369   5.344  0.9656 -0.6169 -2.4817
 1306SOL    HW215552   3.728   0.437   5.244 -0.1158 -1.8235 -1.3055
 1307SOL     OW15553   2.451   2.511   2.662  1.0828  0.1037  0.3684
 1307SOL    HW115554   2.402   2.464   2.595 -0.0507 -0.7117  1.7885
 1307SOL    HW215555   2.542   2.497   2.633 -0.9372 -1.7876 -5.0283
 1308SOL     OW15556   3.318   3.366   6.102  0.2394 -0.3729 -0.0175
 1308SOL    HW115557   3.253   3.424   6.141  1.5589  1.1044 -0.0081
 1308SOL    HW215558   3.325   3.301   6.172  1.6777  0.9732  1.1045
 1309SOL     OW15559   2.608   1.731   4.622  0.2274  0.2350 -0.0811
 1309SOL    HW115560   2.565   1.753   4.704 -0.1376 -0.0326 -0.2041
 1309SOL    HW215561   2.574   1.796   4.561  0.8010  0.8338  0.2351
 1310SOL     OW15562   1.055   1.040   5.571 -0.6359  0.5909  0.2006
 1310SOL    HW115563   1.031   1.132   5.560 -0.0416  0.6714 -0.3797
 1310SOL    HW215564   0.974   1.001   5.605  0.2088 -0.1110  1.4058
 1311SOL     OW15565   2.722   1.271  17.150  0.4143  0.2440 -0.2357
 1311SOL    HW115566   2.686   1.198  17.099  0.8934 -0.3500  0.2822
 1311SOL    HW215567   2.806   1.273  17.104  0.1393  1.0714 -0.7050
 1312SOL     OW15568   2.094   4.181  13.916 -0.1595  0.3348 -0.0739
 1312SOL    HW115569   2.087   4.106  13.975  0.5858 -1.8156 -2.6671
 1312SOL    HW215570   2.068   4.255  13.969  2.1106  0.3560  1.0148
 1313SOL     OW15571   0.291   4.068   3.626  1.0793  0.0760  0.2060
 1313SOL    HW115572   0.225   4.136   3.644  1.6901  0.1305  2.3349
 1313SOL    HW215573   0.349   4.126   3.576  0.6473  1.2357  1.0260
 1314SOL     OW15574   2.801   4.340   8.050  0.1635 -0.2822  0.8232
 1314SOL    HW115575   2.776   4.249   8.030  1.0946 -0.2887 -0.2740
 1314SOL    HW215576   2.768   4.344   8.140  0.2592  1.0420  0.7970
 1315SOL     OW15577   0.773   2.276   0.885 -0.2178 -0.5771  0.3908
 1315SOL    HW115578   0.810   2.236   0.964 -1.6435 -1.0736  0.7957
 1315SOL    HW215579   0.845   2.333   0.855 -1.2480  1.3787  1.6737
 1316SOL     OW15580   3.641   1.505  13.240  0.4649  0.0527 -0.1256
 1316SOL    HW115581   3.704   1.530  13.172 -0.3488  2.4696  0.0312
 1316SOL    HW215582   3.634   1.410  13.231  1.0703  0.0034 -0.0917
 1317SOL     OW15583   1.750   4.594   0.792 -0.2964  0.5823  0.5846
 1317SOL    HW115584   1.785   4.587   0.881 -2.3548 -0.5586  1.3185
 1317SOL    HW215585   1.773   4.683   0.765 -1.6748  0.1375 -2.0191
 1318SOL     OW15586   2.454   0.959  10.356  0.0195 -0.0009  0.5391
 1318SOL    HW115587   2.533   0.907  10.340 -0.8435 -1.0016 -0.3843
 1318SOL    HW215588   2.390   0.896  10.388 -2.6403  1.8913 -1.0546
 1319SOL     OW15589   3.152   0.611   0.299 -0.0706  0.3541 -0.5567
 1319SOL    HW115590   3.114   0.529   0.329 -0.9663  0.3966 -1.5907
 1319SOL    HW215591   3.147   0.603   0.203 -3.1743  1.5687 -0.4952
 1320SOL     OW15592   0.004   2.993   5.504 -0.1197 -0.5432  0.0802
 1320SOL    HW115593   0.074   3.037   5.553 -1.8909  1.8654  0.4924
 1320SOL    HW215594   4.674   3.005   5.567 -2.5837 -2.5842 -2.3624
 1321SOL     OW15595   0.201   3.348   6.550  0.1087  0.4934  0.2590
 1321SOL    HW115596   0.172   3.262   6.580 -2.2273  1.0885 -0.2554
 1321SOL    HW215597   0.136   3.358   6.480  0.2185  1.5247  0.3024
 1322SOL     OW15598   0.956   0.514   6.464  0.4028 -0.6256  0.3027
 1322SOL    HW115599   0.940   0.601   6.427  0.1193 -0.5649  0.5726
 1322SOL    HW215600   1.004   0.522   6.546  0.8081 -1.0813  0.1097
 1323SOL     OW15601   2.605   1.854   1.283  0.4017  0.0748  0.4958
 1323SOL    HW115602   2.636   1.932   1.330 -0.2317 -0.9091  2.5309
 1323SOL    HW215603   2.683   1.835   1.231  0.2744 -0.3745  0.4725
 1324SOL     OW15604   0.962   0.032   2.133 -0.1679 -0.2688 -0.2011
 1324SOL    HW115605   0.951   0.094   2.204  2.4561 -3.1137  2.7151
 1324SOL    HW215606   0.889   0.046   2.073  0.7368 -0.7787 -1.4468
 1325SOL     OW15607   3.504   4.564  15.119  0.5624 -0.7593  0.5214
 1325SOL    HW115608   3.441   4.636  15.121  1.8037  0.3004  1.0360
 1325SOL    HW215609   3.551   4.577  15.037  1.8763 -4.4782  0.6912
 1326SOL     OW15610   2.537   3.290   9.135 -0.2662 -0.0919 -0.3494
 1326SOL    HW115611   2.526   3.384   9.117  0.2555 -0.1115 -0.7624
 1326SOL    HW215612   2.583   3.296   9.218 -1.9277  2.1511  0.4087
 1327SOL     OW15613   1.796   2.640   6.455 -0.4610  0.5650  0.0247
 1327SOL    HW115614   1.765   2.627   6.544 -0.6006  0.3813 -0.0496
 1327SOL    HW215615   1.827   2.552   6.435  0.0408  0.8436 -0.4297
 1328SOL     OW15616   4.686   1.186   6.475 -0.2291 -0.3125 -0.3140
 1328SOL    HW115617   4.659   1.098   6.448  2.3873 -0.9616 -0.7898
 1328SOL    HW215618   4.604   1.236   6.483  0.2259  0.4604 -0.4333
 1329SOL     OW15619   4.366   3.833   7.632  0.0252 -0.6573  0.0689
 1329SOL    HW115620   4.379   3.927   7.622 -1.1677 -0.4543  0.4714
 1329SOL    HW215621   4.272   3.820   7.639  0.2502 -0.6429  2.9109
 1330SOL     OW15622   4.191   3.497  13.163  0.1100 -0.6017  0.2320
 1330SOL    HW115623   4.096   3.490  13.159 -0.0257  2.1499 -0.8330
 1330SOL    HW215624   4.206   3.586  13.194 -0.7682 -0.6689  0.8660
 1331SOL     OW15625   1.129   4.483  15.606 -0.0880  0.3323  0.0962
 1331SOL    HW115626   1.045   4.476  15.562  1.1361  1.5057 -2.4640
 1331SOL    HW215627   1.129   4.400  15.653 -3.4694 -0.4133 -1.2624
 1332SOL     OW15628   0.056   2.055   1.990  0.6355  0.5707 -0.0252
 1332SOL    HW115629   0.042   2.098   1.905  0.7722  1.6543  0.4992
 1332SOL    HW215630   0.073   1.967   1.956 -1.6087  0.7160 -1.5522
 1333SOL     OW15631   4.708   3.860   3.934  0.3265  0.1954  0.0479
 1333SOL    HW115632   0.027   3.826   3.999  0.0710 -1.0709 -0.3726
 1333SOL    HW215633   4.686   3.949   3.962 -0.1243 -0.1967  0.9363
 1334SOL     OW15634   1.503   1.722   5.742  0.1708 -0.6188 -0.7258
 1334SOL    HW115635   1.488   1.672   5.661 -1.7325 -0.2148 -0.6222
 1334SOL    HW215636   1.429   1.697   5.797  0.0054  1.9265  0.1663
 1335SOL     OW15637   2.474   2.708   4.005 -0.6565 -0.1846  0.4310
 1335SOL    HW115638   2.541   2.762   3.963  0.5982 -0.2402  2.3950
 1335SOL    HW215639   2.507   2.705   4.094  1.4468  1.3349 -0.3148
 1336SOL     OW15640   0.753   0.410   2.580 -0.4745  0.5032 -0.1665
 1336SOL    HW115641   0.704   0.329   2.591 -0.9054  0.5425 -1.7675
 1336SOL    HW215642   0.705   0.455   2.511 -0.8149 -0.6013 -0.6545
 1337SOL     OW15643   2.223   3.551   5.936  0.5815  0.4063  0.3289
 1337SOL    HW115644   2.139   3.505   5.927  2.2073 -2.3723 -0.7441
 1337SOL    HW215645   2.232   3.593   5.851 -1.4807 -0.7694 -0.4865
 1338SOL     OW15646   3.005   3.170   5.326 -0.3746 -0.1177 -0.6936
 1338SOL    HW115647   2.960   3.165   5.241  1.3725 -1.9022 -1.5008
 1338SOL    HW215648   3.085   3.120   5.309  0.2123  0.0368  1.6138
 1339SOL     OW15649   2.015   4.149   7.211  0.4152 -0.3965  0.3670
 1339SOL    HW115650   2.078   4.200   7.263  2.4471 -0.2986 -2.2071
 1339SOL    HW215651   2.001   4.197   7.129  0.8354 -1.0166 -0.0632
 1340SOL     OW15652   4.093   1.859  16.258 -0.7699 -0.2454  0.0893
 1340SOL    HW115653   3.999   1.878  16.259 -0.4102  1.4710  0.8563
 1340SOL    HW215654   4.100   1.775  16.212 -1.5359 -0.8192  1.0130
 1341SOL     OW15655   0.297   0.514   2.849 -0.0744  1.3401  0.3328
 1341SOL    HW115656   0.386   0.527   2.816  0.2114 -0.9745  0.2502
 1341SOL    HW215657   0.235   0.574   2.806 -1.1941 -1.2570 -1.6480
 1342SOL     OW15658   0.353   2.262   8.120  0.1393 -0.5467 -0.3090
 1342SOL    HW115659   0.372   2.321   8.047 -2.3859  1.6253  0.8362
 1342SOL    HW215660   0.327   2.183   8.073  0.6425 -1.8267  1.5645
 1343SOL     OW15661   1.356   0.991  15.718  0.0449 -0.5763  0.0497
 1343SOL    HW115662   1.315   1.070  15.681  0.4773 -0.5248 -0.3257
 1343SOL    HW215663   1.314   0.926  15.663  0.0147 -0.5501  0.0416
 1344SOL     OW15664   2.090   1.557   9.284  0.5434  0.0183  0.3920
 1344SOL    HW115665   2.011   1.556   9.230  1.4739 -2.6909 -0.9409
 1344SOL    HW215666   2.067   1.556   9.377  1.8957  0.8626  0.7314
 1345SOL     OW15667   1.030   1.953   8.962  0.4096  0.0837 -0.0806
 1345SOL    HW115668   0.948   1.997   8.983 -1.2131 -2.2632 -1.5884
 1345SOL    HW215669   1.025   1.869   9.007 -0.5643  0.0537 -0.2461
 1346SOL     OW15670   4.279   1.015   1.730  0.2070 -0.1830  0.7371
 1346SOL    HW115671   4.226   0.972   1.796  1.0296 -0.7403  1.0330
 1346SOL    HW215672   4.217   1.030   1.659 -0.9100 -2.2811  1.2893
 1347SOL     OW15673   0.520   2.041   6.251  0.4360 -0.2794  0.2032
 1347SOL    HW115674   0.544   2.133   6.255 -0.9642  0.0634  0.6975
 1347SOL    HW215675   0.563   2.022   6.168 -0.9051  2.5433 -1.1429
 1348SOL     OW15676   4.540   1.967   2.580 -0.0191 -0.3203 -0.1342
 1348SOL    HW115677   4.556   2.060   2.564 -0.8605  0.0592  1.2422
 1348SOL    HW215678   4.583   1.946   2.663  0.8826  0.0501 -0.5017
 1349SOL     OW15679   3.047   3.550   6.126  0.0528 -0.3911 -0.3737
 1349SOL    HW115680   3.091   3.630   6.096 -2.5488  0.8473 -0.8858
 1349SOL    HW215681   3.036   3.509   6.040  0.1269  0.3388 -0.7384
 1350SOL     OW15682   3.270   3.092   5.523 -0.1533  0.3357 -0.4957
 1350SOL    HW115683   3.272   3.087   5.428  3.5388  1.8297 -0.4892
 1350SOL    HW215684   3.333   3.021   5.541  2.1805  2.1267 -1.6143
 1351SOL     OW15685   2.466   2.969   3.480 -0.1350 -0.4370 -0.2642
 1351SOL    HW115686   2.429   3.010   3.558 -0.2867  2.6463 -1.9540
 1351SOL    HW215687   2.489   2.893   3.533 -1.2795 -1.7681 -1.6855
 1352SOL     OW15688   0.486   0.169   5.050 -0.1333 -0.4573 -0.3764
 1352SOL    HW115689   0.502   0.105   4.980 -2.0538 -0.6928 -0.6003
 1352SOL    HW215690   0.494   0.250   4.999  0.7244 -0.9560 -1.0471
 1353SOL     OW15691   0.007   0.649   2.985  0.6423 -0.6261  0.3464
 1353SOL    HW115692   0.076   0.600   3.029  0.4157 -0.5441  0.7946
 1353SOL    HW215693   4.736   0.723   3.044 -1.9176 -0.5661 -0.2655
 1354SOL     OW15694   0.715   1.177   5.095  0.2056 -0.2118 -0.5059
 1354SOL    HW115695   0.803   1.183   5.132  0.6932 -0.6302 -1.5789
 1354SOL    HW215696   0.661   1.199   5.170 -1.1269  1.0910 -1.8526
 1355SOL     OW15697   2.646   3.302   9.363  0.4115 -0.3577 -0.0670
 1355SOL    HW115698   2.605   3.298   9.449  0.5199 -0.5519 -0.0237
 1355SOL    HW215699   2.740   3.300   9.382  0.1707  0.6521  1.2460
 1356SOL     OW15700   1.144   3.728   5.779  0.1829 -0.0459 -0.2382
 1356SOL    HW115701   1.170   3.819   5.794  0.7915 -0.3203  0.3794
 1356SOL    HW215702   1.149   3.723   5.684 -2.7101 -0.1351 -0.4033
 1357SOL     OW15703   2.278   0.707  11.516  0.3447 -0.2743 -0.1119
 1357SOL    HW115704   2.282   0.739  11.426 -0.5945 -0.3354 -0.1748
 1357SOL    HW215705   2.214   0.761  11.561 -0.5646 -1.0413 -0.4660
 1358SOL     OW15706   2.853   3.072   5.542 -0.0424  0.0186  0.0223
 1358SOL    HW115707   2.771   3.035   5.510 -0.8063  2.9317 -1.3118
 1358SOL    HW215708   2.894   3.107   5.463 -0.7759 -1.3235 -0.9557
 1359SOL     OW15709   0.319   3.966  17.222  0.0351 -0.0663  0.4573
 1359SOL    HW115710   0.237   4.014  17.235  0.3939  0.5264  0.5488
 1359SOL    HW215711   0.379   4.033  17.191 -0.3511 -0.0539 -0.2515
 1360SOL     OW15712   2.485   4.479  14.596 -0.1070  0.6168 -0.6811
 1360SOL    HW115713   2.479   4.449  14.506 -0.5106  0.9319 -0.7593
 1360SOL    HW215714   2.519   4.406  14.648 -2.5058  0.6789  0.9759
 1361SOL     OW15715   1.177   2.000   7.090  0.3494 -0.1022  0.4372
 1361SOL    HW115716   1.205   1.927   7.036  1.4019  1.1945 -0.7762
 1361SOL    HW215717   1.136   1.952   7.161  0.4813 -3.1923 -1.5812
 1362SOL     OW15718   3.102   1.110  11.352  0.0521  0.0744  0.4637
 1362SOL    HW115719   3.119   1.152  11.437  0.5425  0.3100  0.2490
 1362SOL    HW215720   3.009   1.089  11.351  0.0795 -0.0029 -0.8415
 1363SOL     OW15721   4.440   4.138   6.368  0.3379 -0.7375  0.1028
 1363SOL    HW115722   4.524   4.099   6.346  1.0722  0.5399  0.6439
 1363SOL    HW215723   4.417   4.185   6.287  2.4901  2.8846  1.6095
 1364SOL     OW15724   0.115   2.144  14.298 -0.0429 -0.1079  0.3009
 1364SOL    HW115725   0.127   2.161  14.392 -1.8474 -1.5150  0.7849
 1364SOL    HW215726   0.033   2.192  14.288  0.2492  0.0445 -1.3389
 1365SOL     OW15727   3.134   1.920   8.507 -0.1970  0.0985  0.3528
 1365SOL    HW115728   3.112   1.846   8.451 -0.5803 -0.5997  1.4212
 1365SOL    HW215729   3.205   1.885   8.561 -0.8451 -1.6075  0.0781
 1366SOL     OW15730   0.355   3.327  17.497  0.3802  0.5517 -0.2202
 1366SOL    HW115731   0.377   3.366  17.413 -1.7219  1.8689 -0.1771
 1366SOL    HW215732   0.299   3.395  17.534  0.2849 -0.0974  0.8247
 1367SOL     OW15733   2.872   4.622   1.420  0.9765  0.7296 -0.0987
 1367SOL    HW115734   2.897   4.564   1.347  0.2801 -1.1586  1.1536
 1367SOL    HW215735   2.920   4.581   1.492 -2.4605  1.6800  2.7229
 1368SOL     OW15736   3.279   0.037  15.370  0.0442 -0.0180 -0.9495
 1368SOL    HW115737   3.272   4.690  15.404  1.0828  1.0673  2.1019
 1368SOL    HW215738   3.221   0.082  15.431  1.6715  0.9062 -0.0957
 1369SOL     OW15739   4.605   1.252  11.516 -0.2326 -0.3212 -0.1661
 1369SOL    HW115740   4.534   1.219  11.571 -0.3074  0.6276  0.3140
 1369SOL    HW215741   4.558   1.310  11.456  0.9357 -0.1126 -0.8775
 1370SOL     OW15742   3.892   4.431  13.393 -0.2864 -0.0515 -0.2679
 1370SOL    HW115743   3.837   4.501  13.429  2.4161  2.3133 -0.7119
 1370SOL    HW215744   3.946   4.410  13.470  0.8727  1.4203 -0.6832
 1371SOL     OW15745   1.679   2.731   7.969  0.1856 -0.5775 -0.4428
 1371SOL    HW115746   1.766   2.740   8.009  0.7019  0.4088 -1.7652
 1371SOL    HW215747   1.686   2.804   7.907  1.4751  0.0673  0.4625
 1372SOL     OW15748   0.298   1.804   4.138 -0.0561 -0.4565  0.6003
 1372SOL    HW115749   0.236   1.751   4.088 -0.7655  0.5978  0.3779
 1372SOL    HW215750   0.267   1.828   4.225  0.2843 -1.0188  0.8796
 1373SOL     OW15751   3.054   3.789   1.688  0.2409  0.2187  0.1949
 1373SOL    HW115752   3.066   3.762   1.779  0.1032 -1.4290 -0.2842
 1373SOL    HW215753   3.100   3.873   1.683  1.7597 -0.6971 -1.2027
 1374SOL     OW15754   3.694   4.483  16.815  0.2596  0.5182 -0.2179
 1374SOL    HW115755   3.638   4.560  16.816 -1.0294 -0.3965 -1.2908
 1374SOL    HW215756   3.750   4.502  16.739  0.8873 -1.1856 -0.1837
 1375SOL     OW15757   4.246   1.170   3.992  0.1470 -0.0748  0.3482
 1375SOL    HW115758   4.152   1.166   3.977  0.5551 -2.6958 -1.4105
 1375SOL    HW215759   4.266   1.111   4.064  0.6810  0.8010  0.9199
 1376SOL     OW15760   0.638   0.661  13.373  0.2601 -0.1529 -0.2608
 1376SOL    HW115761   0.595   0.713  13.441 -1.2869 -0.8636 -0.6923
 1376SOL    HW215762   0.565   0.667  13.311  1.9260  2.4656 -1.9589
 1377SOL     OW15763   0.749   4.393   8.536 -0.9045  0.5158 -0.0833
 1377SOL    HW115764   0.790   4.467   8.491  0.2073 -0.1565 -0.1813
 1377SOL    HW215765   0.812   4.323   8.519 -1.2582  0.4394 -1.0765
 1378SOL     OW15766   4.199   0.056   5.019  0.4719  0.1300  0.7883
 1378SOL    HW115767   4.211   4.737   5.092 -0.8333 -2.5972 -1.2910
 1378SOL    HW215768   4.287   0.078   4.990  0.0635  0.8743  0.1114
 1379SOL     OW15769   1.888   0.495   6.516  0.5459 -0.0957  0.0871
 1379SOL    HW115770   1.891   0.585   6.483 -1.2122 -0.7225 -1.7734
 1379SOL    HW215771   1.884   0.519   6.608  3.7617 -0.6787  0.3628
 1380SOL     OW15772   4.308   1.974   5.137 -0.0470 -0.4295 -0.2350
 1380SOL    HW115773   4.232   1.944   5.087 -0.7890  2.6271 -0.9431
 1380SOL    HW215774   4.329   2.058   5.098 -0.0112 -0.8315 -1.0812
 1381SOL     OW15775   3.512   4.588   6.991 -0.2788  0.0994 -0.4180
 1381SOL    HW115776   3.417   4.582   6.985 -0.2083 -0.1955 -1.2680
 1381SOL    HW215777   3.535   4.612   7.081  1.4029 -0.6520 -0.6420
 1382SOL     OW15778   1.806   0.882  13.466 -0.3893  0.0091  0.3644
 1382SOL    HW115779   1.759   0.964  13.454 -0.5233 -0.2854 -1.1730
 1382SOL    HW215780   1.796   0.846  13.378 -0.3645 -1.9080  1.1411
 1383SOL     OW15781   3.894   1.355   6.807  0.1989 -0.1009 -0.2696
 1383SOL    HW115782   3.985   1.361   6.780  1.0429 -0.6330  2.4683
 1383SOL    HW215783   3.912   1.368   6.900  1.3436 -3.3526 -0.0236
 1384SOL     OW15784   0.069   2.171  17.641 -0.0611 -0.7199  0.2276
 1384SOL    HW115785   0.070   2.158  17.736 -0.6966 -0.5191  0.2642
 1384SOL    HW215786   0.141   2.233  17.632  0.8833 -1.5236  2.2396
 1385SOL     OW15787   1.627   2.471  13.359  0.3098 -0.2135  0.2186
 1385SOL    HW115788   1.717   2.494  13.335  1.3376 -2.2477  2.1543
 1385SOL    HW215789   1.608   2.542  13.421 -2.5630 -1.9168  1.2748
 1386SOL     OW15790   2.712   2.912  11.077  0.4677  0.5783 -0.3875
 1386SOL    HW115791   2.759   2.984  11.121  1.3194  1.1332 -2.2030
 1386SOL    HW215792   2.731   2.917  10.983 -1.0927  1.9857 -0.6211
 1387SOL     OW15793   2.201   4.022   8.519  0.0211  0.0231 -0.2032
 1387SOL    HW115794   2.281   4.020   8.467  2.1970  0.4847  3.1054
 1387SOL    HW215795   2.170   3.932   8.510 -1.9939  0.8845 -1.7326
 1388SOL     OW15796   2.159   3.276   1.720 -0.0345 -0.0226 -0.5458
 1388SOL    HW115797   2.121   3.317   1.643  0.5863 -0.5986 -1.1513
 1388SOL    HW215798   2.143   3.184   1.698  1.3816 -0.3613 -0.1287
 1389SOL     OW15799   3.755   3.706  16.279 -0.6184 -0.3413  0.0324
 1389SOL    HW115800   3.753   3.749  16.194  1.0856 -1.0723 -0.3776
 1389SOL    HW215801   3.789   3.775  16.336 -0.3107 -1.0362  0.6940
 1390SOL     OW15802   4.742   1.821   6.398 -0.1617  0.1787  0.2985
 1390SOL    HW115803   0.032   1.759   6.332 -0.6824 -0.8437  1.0210
 1390SOL    HW215804   0.050   1.900   6.375 -2.4972  1.5786 -0.0367
 1391SOL     OW15805   4.437   1.551   4.741  0.1783 -0.1657  0.8316
 1391SOL    HW115806   4.469   1.493   4.810  1.0363 -1.2549 -0.4788
 1391SOL    HW215807   4.351   1.513   4.727 -0.1947  1.5118 -1.4893
 1392SOL     OW15808   3.859   0.032  12.619  0.5372 -0.0423 -0.6260
 1392SOL    HW115809   3.933   0.091  12.632  0.0788  0.4059 -0.0394
 1392SOL    HW215810   3.896   4.707  12.562  1.7233 -0.8995  1.1676
 1393SOL     OW15811   0.268   2.638   2.436 -0.3039 -0.4984  0.1309
 1393SOL    HW115812   0.330   2.680   2.377  0.6446 -0.1836  1.3368
 1393SOL    HW215813   0.267   2.550   2.398  1.4194 -0.5807  0.2478
 1394SOL     OW15814   4.650   2.627   0.073 -0.3076  0.5215  0.0823
 1394SOL    HW115815   4.617   2.688   0.139  0.5462  0.9657  0.0901
 1394SOL    HW215816   4.637   2.671  17.754  1.7402 -1.5683 -1.2892
 1395SOL     OW15817   2.437   4.625   8.182 -0.3436  0.2628  0.2381
 1395SOL    HW115818   2.358   4.578   8.209 -1.8106  1.9146 -1.2294
 1395SOL    HW215819   2.467   4.664   8.264 -0.0019  1.2403 -0.3570
 1396SOL     OW15820   0.469   3.771  15.220 -1.1983  0.1820 -0.3638
 1396SOL    HW115821   0.388   3.724  15.237 -1.1040 -0.1409 -0.8017
 1396SOL    HW215822   0.443   3.833  15.152 -0.0622 -0.9648 -1.8470
 1397SOL     OW15823   0.570   3.832   2.401  0.0147 -0.4201  0.2211
 1397SOL    HW115824   0.639   3.863   2.459 -0.1561  1.4420 -0.5708
 1397SOL    HW215825   0.499   3.895   2.411  0.2363  0.3040 -2.8241
 1398SOL     OW15826   4.531   2.088   6.225  0.2884  0.2503 -0.0267
 1398SOL    HW115827   4.570   2.122   6.145 -0.1231  1.7350  0.4071
 1398SOL    HW215828   4.541   1.996   6.203  1.1699  0.2662  0.3260
 1399SOL     OW15829   1.524   3.943  11.215 -0.4725  0.0618  0.0386
 1399SOL    HW115830   1.442   3.933  11.168  0.6136 -1.2213 -1.5585
 1399SOL    HW215831   1.586   3.877  11.185  0.1899  0.5660  0.2842
 1400SOL     OW15832   1.063   3.968   2.798 -0.1641  0.2799  0.2922
 1400SOL    HW115833   1.016   3.969   2.881 -2.1712 -3.9431 -0.8073
 1400SOL    HW215834   1.098   3.879   2.793  3.9761  1.8981  0.5255
 1401SOL     OW15835   3.107   2.265   8.079  0.9113  0.4231  0.2404
 1401SOL    HW115836   3.096   2.181   8.035  3.6705  0.4343 -0.4729
 1401SOL    HW215837   3.188   2.252   8.128  1.2367 -0.7917 -0.6222
 1402SOL     OW15838   1.781   4.155  14.987 -0.4283 -0.3861  0.3843
 1402SOL    HW115839   1.832   4.075  14.973  0.3491  0.1139  0.3322
 1402SOL    HW215840   1.739   4.159  14.901  0.3520 -1.3099 -0.0373
 1403SOL     OW15841   0.638   2.101   4.481 -0.0195 -0.2418  0.3511
 1403SOL    HW115842   0.621   2.074   4.391 -1.8614  0.4210  0.5013
 1403SOL    HW215843   0.714   2.047   4.503  0.7134  1.2353  1.4103
 1404SOL     OW15844   4.414   2.145   5.843 -0.3937  0.0968 -0.1447
 1404SOL    HW115845   4.465   2.141   5.763  0.8660 -0.4207  0.6835
 1404SOL    HW215846   4.472   2.202   5.893  0.9480 -1.7317  0.3911
 1405SOL     OW15847   0.931   2.874   9.491 -0.4038 -0.8606  0.3169
 1405SOL    HW115848   0.950   2.804   9.554  1.2924  1.7671  2.7220
 1405SOL    HW215849   0.836   2.875   9.501 -0.1642  0.8473  2.3165
 1406SOL     OW15850   4.081   0.138   4.810 -0.7338 -0.8753 -0.3821
 1406SOL    HW115851   4.072   0.232   4.822 -0.6318 -1.1351  1.7087
 1406SOL    HW215852   4.111   0.103   4.894  2.1269  0.3868 -0.9065
 1407SOL     OW15853   1.708   2.649   0.168  0.0816  0.3200  0.2376
 1407SOL    HW115854   1.783   2.596   0.195 -1.9061 -2.1590  0.9083
 1407SOL    HW215855   1.689   2.677   0.257  0.3712  1.9549 -0.2232
 1408SOL     OW15856   2.630   4.549   7.968 -0.3251 -0.2597 -0.0917
 1408SOL    HW115857   2.577   4.558   8.047 -1.1175 -2.0111 -0.4319
 1408SOL    HW215858   2.691   4.478   7.986 -0.6462 -1.0854 -2.2365
 1409SOL     OW15859   4.168   2.198   0.924  0.1006  0.2180 -0.0692
 1409SOL    HW115860   4.135   2.272   0.975  1.2581  0.7576 -0.1068
 1409SOL    HW215861   4.259   2.223   0.909  0.9091 -3.6666 -1.6326
 1410SOL     OW15862   3.438   0.248  17.618  0.1433 -0.2751  0.9529
 1410SOL    HW115863   3.418   0.340  17.635 -0.7668 -0.1055 -1.0187
 1410SOL    HW215864   3.364   0.211  17.666 -0.0804 -1.7924 -0.5230
 1411SOL     OW15865   3.600   2.516   9.159  0.0613  0.2360  0.0839
 1411SOL    HW115866   3.527   2.575   9.140 -0.9989 -1.7068 -1.9194
 1411SOL    HW215867   3.577   2.478   9.244  5.0178 -0.6297  1.0889
 1412SOL     OW15868   2.569   4.267  14.710 -0.3509 -0.2108 -0.1051
 1412SOL    HW115869   2.542   4.179  14.685 -1.4099  0.1839 -0.3245
 1412SOL    HW215870   2.623   4.279  14.631 -1.4534 -0.1476 -0.8447
 1413SOL     OW15871   0.426   2.476   2.112 -0.0874  0.3355  0.7580
 1413SOL    HW115872   0.331   2.469   2.103 -0.0432  0.6346  0.1069
 1413SOL    HW215873   0.441   2.420   2.189  0.4529 -0.6347 -0.0540
 1414SOL     OW15874   3.032   2.339   4.269  0.2585 -0.6835  0.0543
 1414SOL    HW115875   3.081   2.272   4.316  2.3669  0.2005 -0.8512
 1414SOL    HW215876   2.940   2.316   4.273  0.2141 -0.5532 -0.2107
 1415SOL     OW15877   1.380   1.497   3.453  0.0964 -0.2491  0.6371
 1415SOL    HW115878   1.346   1.412   3.424 -0.6596 -0.3911  1.8994
 1415SOL    HW215879   1.471   1.470   3.460  0.4065  0.8245  0.7123
 1416SOL     OW15880   1.887   4.051   0.522 -0.2868  0.1523 -0.9531
 1416SOL    HW115881   1.889   4.122   0.457 -0.2816  0.6422 -0.4169
 1416SOL    HW215882   1.803   4.013   0.498 -1.0405 -0.6903  3.1596
 1417SOL     OW15883   0.472   1.781   5.365  0.7218 -0.0138  0.2016
 1417SOL    HW115884   0.559   1.795   5.329  0.0878 -1.3184 -1.8710
 1417SOL    HW215885   0.450   1.872   5.385 -1.3676 -0.5035  0.1873
 1418SOL     OW15886   3.223   3.711  11.316 -0.0063 -0.3082  0.1240
 1418SOL    HW115887   3.179   3.735  11.234 -2.8658 -1.7823  1.2018
 1418SOL    HW215888   3.158   3.752  11.373  0.7268 -0.2767  0.9340
 1419SOL     OW15889   0.976   2.881  14.315  0.0631  0.1270 -0.5413
 1419SOL    HW115890   1.049   2.875  14.253  0.2040  0.3884 -0.4027
 1419SOL    HW215891   1.009   2.825  14.385  0.6066 -0.5006 -1.2972
 1420SOL     OW15892   3.665   2.412   2.231  0.1789  0.0477  0.0796
 1420SOL    HW115893   3.722   2.469   2.282  1.8243 -0.3807 -1.2504
 1420SOL    HW215894   3.598   2.384   2.293 -0.1982  1.5670  0.3537
 1421SOL     OW15895   2.569   4.604   8.704  0.5910 -0.2202 -0.0665
 1421SOL    HW115896   2.516   4.677   8.672 -0.0902 -0.4835  0.4682
 1421SOL    HW215897   2.609   4.634   8.786  1.3632 -0.8596 -0.2115
 1422SOL     OW15898   2.679   3.741   1.840 -0.7037  0.3187  0.2043
 1422SOL    HW115899   2.634   3.803   1.783 -2.5876 -0.6862  0.5947
 1422SOL    HW215900   2.622   3.739   1.917 -1.1075  0.3653 -0.0930
 1423SOL     OW15901   4.495   2.319   8.450  0.4074  0.2662 -0.3987
 1423SOL    HW115902   4.527   2.410   8.445  4.0133 -0.9650  0.1725
 1423SOL    HW215903   4.434   2.324   8.523 -0.4509 -1.4128 -1.0211
 1424SOL     OW15904   1.807   4.421  12.863 -0.4121 -0.1142 -0.4573
 1424SOL    HW115905   1.785   4.461  12.947  0.1662 -1.9056  0.5567
 1424SOL    HW215906   1.900   4.446  12.862 -0.9389  1.9933  1.9374
 1425SOL     OW15907   3.961   3.836   0.879  0.2943 -0.6537  0.4318
 1425SOL    HW115908   3.894   3.770   0.864 -1.1891  1.0608 -0.5711
 1425SOL    HW215909   3.910   3.916   0.864  2.3943  0.9567  1.7008
 1426SOL     OW15910   0.074   2.155   8.115  0.2806  0.4339 -0.0891
 1426SOL    HW115911   4.741   2.106   8.147  1.6326 -0.6003  1.5519
 1426SOL    HW215912   0.052   2.200   8.034 -0.9548 -2.2013 -1.1723
 1427SOL     OW15913   1.402   2.634   5.095  0.0554  0.1828  0.4727
 1427SOL    HW115914   1.451   2.652   5.176 -2.8051 -2.0380  2.7266
 1427SOL    HW215915   1.331   2.698   5.092  1.3431  1.5739 -0.0508
 1428SOL     OW15916   1.833   0.031   8.134  0.0318 -0.3623  0.3382
 1428SOL    HW115917   1.800   0.060   8.218  1.6543 -0.3885  0.9860
 1428SOL    HW215918   1.918   4.737   8.158 -1.1007 -0.6608  3.7647
 1429SOL     OW15919   3.533   1.258   4.939  0.0061 -0.0344  0.0351
 1429SOL    HW115920   3.520   1.169   4.972  3.7029 -1.4949 -2.4530
 1429SOL    HW215921   3.626   1.276   4.948  0.5266 -0.6155 -4.0640
 1430SOL     OW15922   2.854   4.228  12.605 -0.4949  0.4432  0.4332
 1430SOL    HW115923   2.923   4.162  12.595 -1.8753 -0.7577 -1.2677
 1430SOL    HW215924   2.901   4.305  12.572 -0.9169 -1.2162 -4.1448
 1431SOL     OW15925   4.009   3.517   4.100 -0.0999  0.6286  0.2211
 1431SOL    HW115926   4.024   3.471   4.018  0.0793  0.9840  0.0546
 1431SOL    HW215927   3.975   3.599   4.066  0.8698 -0.0773 -2.4258
 1432SOL     OW15928   3.413   1.368   7.215  0.2685  0.1279 -0.0695
 1432SOL    HW115929   3.462   1.359   7.133 -0.5790 -2.5464 -0.3035
 1432SOL    HW215930   3.344   1.304   7.196  1.2028 -0.2608 -2.1909
 1433SOL     OW15931   0.934   2.876   5.199  0.2232  0.3592 -0.7767
 1433SOL    HW115932   0.948   2.786   5.167  0.4414 -0.3048  1.2286
 1433SOL    HW215933   0.954   2.857   5.290  1.2993  1.9836 -0.6787
 1434SOL     OW15934   1.966   0.993  12.008 -0.2370 -0.3820  0.0165
 1434SOL    HW115935   1.873   0.983  11.987 -0.1430 -0.0666 -0.5345
 1434SOL    HW215936   1.963   1.062  12.074  0.2669 -1.6025  1.3276
 1435SOL     OW15937   2.882   1.318  16.910  0.2750 -0.3268  0.1006
 1435SOL    HW115938   2.831   1.392  16.878 -0.1296  0.2197  2.0074
 1435SOL    HW215939   2.957   1.311  16.850  1.4422  0.8459  1.4011
 1436SOL     OW15940   2.910   4.140   6.318  0.4013 -0.7271  0.2786
 1436SOL    HW115941   2.953   4.225   6.331  0.4176 -0.1389 -3.5693
 1436SOL    HW215942   2.823   4.169   6.294  0.1058  0.0691  2.3154
 1437SOL     OW15943   2.892   3.900   5.372 -0.2878  0.3239 -0.4142
 1437SOL    HW115944   2.890   3.971   5.308  2.0963 -0.9603 -1.9399
 1437SOL    HW215945   2.985   3.888   5.393 -0.3600  1.1532  0.3903
 1438SOL     OW15946   2.676   3.106  14.863 -0.4230  0.1800 -0.1037
 1438SOL    HW115947   2.621   3.028  14.851  1.4177 -0.8686 -1.6844
 1438SOL    HW215948   2.616   3.173  14.832  0.3382  1.6898  1.6813
 1439SOL     OW15949   2.262   2.884   5.577  0.0213 -0.2189 -0.2436
 1439SOL    HW115950   2.182   2.892   5.525  1.2087 -0.2935 -2.0788
 1439SOL    HW215951   2.265   2.977   5.599  1.5930 -0.7568  1.7925
 1440SOL     OW15952   1.408   2.789   7.783 -0.6144 -0.3558 -0.1902
 1440SOL    HW115953   1.427   2.703   7.746  0.0064  0.6163 -2.1226
 1440SOL    HW215954   1.495   2.822   7.806 -0.6710 -0.6330  0.4370
 1441SOL     OW15955   2.041   1.602   9.569  0.0428  0.0078 -0.6079
 1441SOL    HW115956   2.071   1.674   9.624  0.4054 -1.6238  1.3480
 1441SOL    HW215957   1.955   1.585   9.609  0.7112 -0.7507  0.5083
 1442SOL     OW15958   0.453   0.373   4.260  0.0425 -0.7584 -0.4165
 1442SOL    HW115959   0.539   0.340   4.286 -0.1051 -1.8820 -1.3970
 1442SOL    HW215960   0.429   0.338   4.174  2.7410 -2.4688 -0.4581
 1443SOL     OW15961   3.022   1.910   8.207 -0.1329  0.0075  0.2731
 1443SOL    HW115962   3.012   1.837   8.269  0.1573  0.3096  0.6773
 1443SOL    HW215963   3.080   1.868   8.144  0.0802  0.0375  0.4503
 1444SOL     OW15964   4.069   0.694   4.662  0.3525  0.1943 -0.0554
 1444SOL    HW115965   3.980   0.660   4.669  0.2036  0.8892  1.6138
 1444SOL    HW215966   4.057   0.774   4.611 -2.5314 -0.3230 -0.2058
 1445SOL     OW15967   2.026   4.222   9.343 -0.1314 -0.5155 -0.0060
 1445SOL    HW115968   2.042   4.274   9.422 -1.0309 -0.2131 -0.0257
 1445SOL    HW215969   2.005   4.290   9.279  0.5467 -0.8519 -0.5877
 1446SOL     OW15970   0.065   2.105  16.516 -0.0077 -0.3815  0.7561
 1446SOL    HW115971   4.712   2.114  16.518  0.0869  0.5422  0.7722
 1446SOL    HW215972   0.099   2.193  16.499 -0.0600 -0.9483 -2.3537
 1447SOL     OW15973   0.557   1.573   4.916 -0.5111 -0.5294 -0.1588
 1447SOL    HW115974   0.645   1.611   4.920 -0.0059 -1.9065  1.8520
 1447SOL    HW215975   0.557   1.528   4.832  0.4960  0.0774 -0.4866
 1448SOL     OW15976   1.432   4.125  17.553 -0.5983 -0.0802 -0.4436
 1448SOL    HW115977   1.393   4.061  17.493 -2.6499  0.2376  0.5619
 1448SOL    HW215978   1.410   4.207  17.508 -1.0578  0.3699  0.6166
 1449SOL     OW15979   2.524   2.965   4.997  0.3794 -0.2748 -0.4652
 1449SOL    HW115980   2.472   2.984   4.919  0.9257  2.2684 -0.2061
 1449SOL    HW215981   2.581   3.042   4.997 -2.1257  1.5938  0.4791
 1450SOL     OW15982   0.851   3.069   1.824 -0.2012 -0.3457 -0.2094
 1450SOL    HW115983   0.787   3.004   1.793  0.1517 -1.2475  0.9610
 1450SOL    HW215984   0.789   3.127   1.867 -0.4577 -0.2847 -0.6661
 1451SOL     OW15985   2.350   3.900  17.090  0.2048 -0.2899  0.1813
 1451SOL    HW115986   2.382   3.884  17.001 -1.7969  1.1500 -0.8031
 1451SOL    HW215987   2.362   3.816  17.133 -1.4837 -0.7315 -0.1890
 1452SOL     OW15988   1.450   3.401   8.760  0.1736  0.1105 -0.3895
 1452SOL    HW115989   1.512   3.352   8.814  0.9012  0.8194 -0.5857
 1452SOL    HW215990   1.374   3.351   8.792  0.5631  1.1935  2.2979
 1453SOL     OW15991   1.829   2.656   7.055  0.3023 -0.0220  0.0065
 1453SOL    HW115992   1.901   2.693   7.005  0.4911 -2.0129 -1.1606
 1453SOL    HW215993   1.881   2.646   7.134  0.3821 -0.8250 -0.1525
 1454SOL     OW15994   4.400   3.901   8.418  0.0269  0.0428 -0.6046
 1454SOL    HW115995   4.486   3.940   8.435  0.6350 -1.4777 -0.1857
 1454SOL    HW215996   4.361   3.925   8.502 -1.1728 -1.7991 -0.6393
 1455SOL     OW15997   3.644   1.652  11.164 -0.0560 -0.0442 -0.1942
 1455SOL    HW115998   3.659   1.577  11.221 -0.6425 -0.0606 -0.0610
 1455SOL    HW215999   3.552   1.674  11.180  0.2975  0.7330  0.7500
 1456SOL     OW16000   0.418   4.227   1.239  0.4050 -0.2295 -0.0763
 1456SOL    HW116001   0.340   4.255   1.191 -1.1020 -2.1191  1.2616
 1456SOL    HW216002   0.476   4.296   1.206  0.4644 -0.6581 -0.8783
 1457SOL     OW16003   2.290   4.401   3.086  0.3989  0.7756 -0.1342
 1457SOL    HW116004   2.305   4.489   3.050  0.3360  1.0979  0.6265
 1457SOL    HW216005   2.212   4.379   3.035  0.4599 -0.4363  0.2969
 1458SOL     OW16006   0.704   0.340   6.944  0.3611  0.0552  0.6113
 1458SOL    HW116007   0.624   0.327   6.892  1.0680  0.4145 -0.5557
 1458SOL    HW216008   0.686   0.430   6.974  0.0132  0.8207 -1.8680
 1459SOL     OW16009   0.384   3.789  11.737 -0.4413  0.1024  0.1077
 1459SOL    HW116010   0.320   3.719  11.751 -1.3086  0.5159 -1.8016
 1459SOL    HW216011   0.453   3.767  11.800 -0.4357 -0.6911 -0.1866
 1460SOL     OW16012   1.451   1.239   2.212  0.8834  0.2119  0.2795
 1460SOL    HW116013   1.522   1.182   2.241  0.2918 -0.9750 -0.5898
 1460SOL    HW216014   1.478   1.269   2.125 -2.1503 -1.6342 -1.2991
 1461SOL     OW16015   0.260   2.243   0.449  0.3162  0.4675  0.2768
 1461SOL    HW116016   0.184   2.258   0.392 -0.6211  3.1096  2.2090
 1461SOL    HW216017   0.231   2.161   0.488  0.5209  0.2873  0.0518
 1462SOL     OW16018   2.081   0.817  13.262 -0.0486  0.5976 -0.1602
 1462SOL    HW116019   2.012   0.834  13.198 -0.5614 -2.5316 -0.4317
 1462SOL    HW216020   2.149   0.876  13.229  1.0289 -1.4718 -1.6360
 1463SOL     OW16021   1.153   1.902   8.290 -0.3531  0.0696  0.4135
 1463SOL    HW116022   1.227   1.962   8.297 -0.4418  0.2278 -0.0597
 1463SOL    HW216023   1.197   1.818   8.309  0.0030  0.2917  0.5743
 1464SOL     OW16024   1.743   1.628   5.614  0.5489 -0.5624  0.2433
 1464SOL    HW116025   1.657   1.643   5.655  0.4649  1.5012 -0.6461
 1464SOL    HW216026   1.716   1.595   5.528  1.8528  0.0893 -0.4198
 1465SOL     OW16027   0.174   0.496   7.378 -0.2067 -0.7527 -0.8253
 1465SOL    HW116028   0.230   0.508   7.301 -2.1194  1.6545 -1.8000
 1465SOL    HW216029   0.119   0.573   7.388 -0.6739 -1.6319  3.5705
 1466SOL     OW16030   1.260   1.690   5.995  0.0200  0.6439 -0.9819
 1466SOL    HW116031   1.171   1.700   6.029 -0.0478 -2.9388 -0.1002
 1466SOL    HW216032   1.289   1.638   6.069 -1.2028  2.1587  0.5803
 1467SOL     OW16033   3.155   4.414   3.691  0.1716  0.2511  0.3536
 1467SOL    HW116034   3.235   4.424   3.638 -0.5047 -3.0972 -1.3408
 1467SOL    HW216035   3.180   4.422   3.783  0.1580  2.9418  0.1190
 1468SOL     OW16036   2.670   3.373   2.371 -0.1998 -0.5955 -0.1408
 1468SOL    HW116037   2.697   3.460   2.402 -0.8257  0.5010 -2.6532
 1468SOL    HW216038   2.651   3.386   2.278 -0.2549 -0.9335 -0.1737
 1469SOL     OW16039   1.829   3.881  11.957 -0.4606  0.4488 -0.2999
 1469SOL    HW116040   1.877   3.844  12.031 -0.0288 -0.7041 -1.1548
 1469SOL    HW216041   1.858   3.817  11.892 -0.3708  0.4473 -0.2583
 1470SOL     OW16042   1.878   3.903  11.221 -0.4114 -0.2344 -0.6867
 1470SOL    HW116043   1.823   3.825  11.214 -1.6878  0.5443  0.8363
 1470SOL    HW216044   1.887   3.921  11.128 -1.8448 -2.7523 -1.3116
 1471SOL     OW16045   0.032   4.293   5.132  0.2476 -0.0312  0.4759
 1471SOL    HW116046   0.053   4.387   5.139  0.9800 -0.1736  0.2477
 1471SOL    HW216047   0.075   4.255   5.208  1.7237 -0.3609 -0.5128
 1472SOL     OW16048   2.099   3.857  13.762 -0.1008 -0.4526 -0.4721
 1472SOL    HW116049   2.037   3.929  13.767  3.9534  3.1102 -0.9540
 1472SOL    HW216050   2.166   3.898  13.708  0.9314 -0.2559  0.9422
 1473SOL     OW16051   0.389   3.758   0.729 -0.1673 -0.8574 -0.1495
 1473SOL    HW116052   0.384   3.852   0.742  0.5699 -0.7071 -0.9965
 1473SOL    HW216053   0.391   3.745   0.634 -3.5114  1.1954 -0.4743
 1474SOL     OW16054   1.511   0.415   1.913 -0.6514 -0.6240  0.0072
 1474SOL    HW116055   1.540   0.503   1.937  0.0103 -0.4275 -1.4592
 1474SOL    HW216056   1.594   0.372   1.892  0.7899  2.9285 -1.6082
 1475SOL     OW16057   2.345   2.444   1.181  0.0144  0.4160 -0.0641
 1475SOL    HW116058   2.414   2.507   1.160  0.6575 -0.2441  0.0759
 1475SOL    HW216059   2.367   2.374   1.120 -0.9622  1.2511 -1.3873
 1476SOL     OW16060   2.116   0.726  11.964  0.0833 -0.3093 -0.6168
 1476SOL    HW116061   2.080   0.815  11.967 -0.3929 -0.6552  3.6708
 1476SOL    HW216062   2.205   0.744  11.932 -0.1897  2.3915  0.1331
 1477SOL     OW16063   2.861   0.341  11.296 -0.3673  0.0965  0.2480
 1477SOL    HW116064   2.945   0.315  11.259 -0.3585  0.1226  0.2496
 1477SOL    HW216065   2.889   0.403  11.364 -3.6334  1.6595  0.1788
 1478SOL     OW16066   2.484   0.866   5.218  0.2404  0.1798 -0.6223
 1478SOL    HW116067   2.424   0.891   5.287 -0.0431 -2.6031  0.1301
 1478SOL    HW216068   2.504   0.776   5.244 -2.6114 -0.5405 -0.8649
 1479SOL     OW16069   3.417   1.604   3.763  0.3617 -0.4388 -0.1190
 1479SOL    HW116070   3.346   1.548   3.795 -0.1155  0.4002  0.2937
 1479SOL    HW216071   3.419   1.671   3.831  0.3500  1.1254 -1.6792
 1480SOL     OW16072   3.257   4.147  17.528 -0.4631  0.7736 -0.0222
 1480SOL    HW116073   3.217   4.151  17.441 -0.0258 -0.5277 -0.2772
 1480SOL    HW216074   3.182   4.168  17.585  1.4852  0.8463  2.4886
 1481SOL     OW16075   4.324   2.548   8.133  0.4234 -0.1131 -0.0233
 1481SOL    HW116076   4.274   2.466   8.134  1.8743 -0.9824  0.5378
 1481SOL    HW216077   4.411   2.510   8.146  0.2597 -1.3159 -2.4078
 1482SOL     OW16078   4.327   4.110   7.015 -0.1595  0.3935 -0.2672
 1482SOL    HW116079   4.355   4.104   7.106 -2.5144 -2.1946  0.2698
 1482SOL    HW216080   4.357   4.025   6.985 -1.6910  0.7620 -2.8887
 1483SOL     OW16081   3.289   4.327  14.471 -0.1498 -0.3224  0.1544
 1483SOL    HW116082   3.325   4.416  14.475 -1.9645  0.3971  0.5212
 1483SOL    HW216083   3.253   4.334  14.383 -1.2022 -0.9180  0.5446
 1484SOL     OW16084   0.475   2.685  12.539  0.6771  0.7172  0.1301
 1484SOL    HW116085   0.543   2.638  12.587  0.2109  0.9474  1.0183
 1484SOL    HW216086   0.473   2.767  12.587 -1.5648 -0.9172  2.8199
 1485SOL     OW16087   1.656   1.356  15.629  0.5507  0.0725  0.0806
 1485SOL    HW116088   1.608   1.300  15.568 -1.3396  0.3444  1.3311
 1485SOL    HW216089   1.745   1.321  15.628  0.7863  0.6171  1.4539
 1486SOL     OW16090   1.078   2.339   8.463 -0.1101  0.8971  0.0354
 1486SOL    HW116091   1.046   2.253   8.435  1.7795  1.2729 -3.2279
 1486SOL    HW216092   1.038   2.335   8.550  0.6505  0.0595  0.3546
 1487SOL     OW16093   0.631   2.387   0.172  0.4266 -0.1753 -0.1900
 1487SOL    HW116094   0.692   2.314   0.185 -0.5253 -0.9256  0.0647
 1487SOL    HW216095   0.676   2.462   0.212 -0.7336  0.9354 -1.0054
 1488SOL     OW16096   0.454   4.324   6.658  0.2103 -0.2433  0.0885
 1488SOL    HW116097   0.480   4.326   6.566 -4.4777 -0.6645 -1.2220
 1488SOL    HW216098   0.363   4.352   6.653  0.8457  1.9283  0.4026
 1489SOL     OW16099   3.530   3.543   6.754 -0.2096  0.4052  0.2070
 1489SOL    HW116100   3.457   3.606   6.754 -0.6468 -0.1452 -3.6176
 1489SOL    HW216101   3.508   3.503   6.838 -0.8288  0.5033  0.0955
 1490SOL     OW16102   0.895   4.660   7.275 -0.1863 -0.5867  0.3779
 1490SOL    HW116103   0.847   0.000   7.284  0.5967 -0.0755 -0.1307
 1490SOL    HW216104   0.950   4.673   7.198 -0.8627 -1.3837 -0.2406
 1491SOL     OW16105   0.285   2.373   2.398  0.0469  0.0371  0.3143
 1491SOL    HW116106   0.363   2.319   2.406  1.5831  1.9832 -1.4996
 1491SOL    HW216107   0.258   2.382   2.489  0.3329 -0.7014  0.4727
 1492SOL     OW16108   4.109   3.370   6.598 -0.4622 -0.0797 -0.0269
 1492SOL    HW116109   4.025   3.367   6.643  1.5041 -3.2384  3.3249
 1492SOL    HW216110   4.164   3.343   6.670  0.7927 -1.4071 -1.4796
 1493SOL     OW16111   3.555   0.508   7.773  0.1645 -0.2464 -0.7671
 1493SOL    HW116112   3.502   0.579   7.737 -0.6083 -0.3870  0.0947
 1493SOL    HW216113   3.513   0.493   7.858  0.5859 -0.1459 -0.5412
 1494SOL     OW16114   1.460   0.685   2.542 -0.0405  0.5521 -0.5782
 1494SOL    HW116115   1.441   0.591   2.535  1.1581  0.3276 -0.8823
 1494SOL    HW216116   1.500   0.677   2.629 -0.1540 -1.2807 -0.6932
 1495SOL     OW16117   2.914   4.630   5.629  0.5585 -0.1023 -0.0010
 1495SOL    HW116118   2.902   4.680   5.709 -0.6169  2.8094 -1.9976
 1495SOL    HW216119   2.970   4.557   5.655  0.3715  0.7136  2.6002
 1496SOL     OW16120   3.373   1.281   8.981 -0.0480  0.3076  0.2748
 1496SOL    HW116121   3.287   1.240   8.986 -0.1209  0.0863 -2.9371
 1496SOL    HW216122   3.379   1.313   9.071  0.9626 -0.9717  0.6660
 1497SOL     OW16123   4.181   0.570  12.419 -0.1661  0.0537  0.5641
 1497SOL    HW116124   4.227   0.563  12.335  1.5038 -0.1958  1.4925
 1497SOL    HW216125   4.239   0.617  12.479 -2.0247  0.8526  1.7359
 1498SOL     OW16126   4.296   0.653  12.126  0.5286  0.4539 -0.4542
 1498SOL    HW116127   4.229   0.637  12.059 -0.9830  2.9188  0.4789
 1498SOL    HW216128   4.269   0.744  12.140  1.1691  0.8524 -1.7793
 1499SOL     OW16129   2.381   4.653   2.406 -0.0117 -0.1112  0.1089
 1499SOL    HW116130   2.363   4.585   2.472  1.7640  0.6727  1.4013
 1499SOL    HW216131   2.321   4.724   2.430  0.4345  0.5401 -0.7393
 1500SOL     OW16132   1.945   3.996   8.782  0.4983 -0.1871  0.0200
 1500SOL    HW116133   1.969   3.982   8.874  2.9932  0.9910 -0.4665
 1500SOL    HW216134   1.877   4.063   8.794  0.8555  0.0529  0.7404
 1501SOL     OW16135   0.969   3.188   5.264 -0.1811  0.5522 -0.4971
 1501SOL    HW116136   0.893   3.245   5.256 -0.8766 -0.2268  0.5872
 1501SOL    HW216137   0.932   3.101   5.250  1.0720 -0.0643  0.0056
 1502SOL     OW16138   4.418   0.793  16.482 -0.3941  0.0002  0.3359
 1502SOL    HW116139   4.391   0.885  16.484 -0.9586 -0.1455 -0.6993
 1502SOL    HW216140   4.481   0.801  16.410 -1.6200  0.3201 -0.7141
 1503SOL     OW16141   3.526   3.874   7.293  0.5113 -0.0452  0.3232
 1503SOL    HW116142   3.604   3.845   7.340  2.1593 -0.0968 -2.4507
 1503SOL    HW216143   3.565   3.861   7.207 -0.1771 -1.6635  0.2574
 1504SOL     OW16144   2.065   3.908  17.087  0.5438 -0.0037 -0.0284
 1504SOL    HW116145   2.031   3.993  17.117  0.3174  0.0191 -0.3559
 1504SOL    HW216146   2.157   3.927  17.103  0.4795  0.4181 -0.1661
 1505SOL     OW16147   2.680   0.419   6.165 -0.5850 -0.1715  0.0169
 1505SOL    HW116148   2.700   0.421   6.071  2.5711  2.0776  0.7237
 1505SOL    HW216149   2.609   0.355   6.163 -1.7845  1.1820 -1.5236
 1506SOL     OW16150   3.945   4.158   2.094  0.2389  0.2272 -0.2067
 1506SOL    HW116151   3.894   4.077   2.100  1.5411 -0.5208  0.8094
 1506SOL    HW216152   3.970   4.167   2.186 -1.0503  0.2196  0.1521
 1507SOL     OW16153   2.930   3.387  11.148 -0.5423  0.0419 -0.0846
 1507SOL    HW116154   2.843   3.406  11.112  0.0205  0.6235 -1.1255
 1507SOL    HW216155   2.997   3.418  11.087  0.1654 -1.8758 -0.2767
 1508SOL     OW16156   1.857   1.023   8.360  0.1065 -0.1118 -0.0663
 1508SOL    HW116157   1.805   0.970   8.299  1.0052  0.0594 -0.9839
 1508SOL    HW216158   1.944   1.020   8.321  0.0331 -0.2570 -0.2205
 1509SOL     OW16159   2.997   4.209  13.507  0.6549 -0.4160  0.7937
 1509SOL    HW116160   2.919   4.219  13.562  0.0061 -0.1125 -0.1860
 1509SOL    HW216161   3.065   4.189  13.571  0.9512 -1.4826  0.1214
 1510SOL     OW16162   3.019   3.546   8.101 -0.2753  0.0042 -0.0068
 1510SOL    HW116163   3.070   3.570   8.178  0.1709  1.5562 -0.7925
 1510SOL    HW216164   2.934   3.523   8.138 -0.0138  0.9847  1.2001
 1511SOL     OW16165   4.332   3.521  12.397  0.0043  0.0967 -0.7519
 1511SOL    HW116166   4.414   3.570  12.396  0.1684 -0.1688 -0.6217
 1511SOL    HW216167   4.377   3.441  12.424  3.3654  1.3984 -2.5840
 1512SOL     OW16168   4.046   4.363   7.491 -0.1093  0.2927  0.4177
 1512SOL    HW116169   3.979   4.429   7.513  1.1370  1.0734  1.8675
 1512SOL    HW216170   4.122   4.408   7.527 -0.7238  1.4040  0.3265
 1513SOL     OW16171   1.605   1.330   2.695 -0.3616 -0.1460  0.1492
 1513SOL    HW116172   1.524   1.308   2.740 -1.1121 -2.1902 -2.1932
 1513SOL    HW216173   1.600   1.425   2.705 -0.2883 -0.1444  0.1745
 1514SOL     OW16174   0.956   3.538  13.304 -0.7380  0.2132 -0.0070
 1514SOL    HW116175   1.042   3.501  13.287 -0.0673  1.5634  0.4772
 1514SOL    HW216176   0.959   3.627  13.268  0.6132  0.3247  0.3895
 1515SOL     OW16177   1.981   0.211  15.202  0.1707  0.3275 -0.3272
 1515SOL    HW116178   1.971   0.228  15.108  2.3877 -0.3056 -0.6875
 1515SOL    HW216179   2.016   0.122  15.195 -1.8771 -0.4503 -0.5851
 1516SOL     OW16180   3.297   2.302  14.755  0.0786  0.5776  0.3769
 1516SOL    HW116181   3.276   2.345  14.673 -0.1009  0.5422  0.4054
 1516SOL    HW216182   3.213   2.262  14.775  1.7983 -3.1547  0.2294
 1517SOL     OW16183   1.600   3.091   5.153 -0.0352  0.0204  0.4432
 1517SOL    HW116184   1.644   3.052   5.228  1.5209 -1.7532 -1.3872
 1517SOL    HW216185   1.568   3.013   5.107 -0.2805  0.9017 -0.8586
 1518SOL     OW16186   2.158   2.046   8.476 -0.3994 -0.3724  0.6836
 1518SOL    HW116187   2.082   2.079   8.429  1.2552  1.2347 -0.8692
 1518SOL    HW216188   2.202   2.129   8.495  0.6251 -0.4557 -1.4137
 1519SOL     OW16189   3.048   1.023   4.768  0.2236  0.2715 -0.0452
 1519SOL    HW116190   3.123   1.028   4.709 -0.4185  1.3658 -0.7712
 1519SOL    HW216191   2.980   1.033   4.701 -1.5842  0.7992  1.8752
 1520SOL     OW16192   4.545   3.979   4.534  0.4799  0.1867  0.1964
 1520SOL    HW116193   4.486   4.054   4.542  0.5967  0.3534 -0.4945
 1520SOL    HW216194   4.512   3.911   4.593 -0.0999 -1.2492 -1.7827
 1521SOL     OW16195   0.641   4.541   8.071 -0.1925 -0.0657 -0.0287
 1521SOL    HW116196   0.571   4.475   8.077  1.0199 -1.2269  1.4658
 1521SOL    HW216197   0.691   4.513   7.994 -1.2838 -1.9169 -0.0642
 1522SOL     OW16198   3.197   4.631   7.419  0.6886 -0.3113  0.4752
 1522SOL    HW116199   3.105   4.606   7.413 -0.7353  4.3869  2.3648
 1522SOL    HW216200   3.217   4.612   7.511 -1.0947  2.0063  1.3556
 1523SOL     OW16201   2.756   2.740   6.585  0.5403  0.1641  0.6683
 1523SOL    HW116202   2.753   2.743   6.681  0.5877  1.0523  0.6453
 1523SOL    HW216203   2.837   2.790   6.574  1.7069 -1.6812  0.8828
 1524SOL     OW16204   0.777   2.649   7.896 -0.0432  0.0517 -0.5217
 1524SOL    HW116205   0.864   2.680   7.920  0.6459 -1.4027 -1.1312
 1524SOL    HW216206   0.752   2.702   7.821  0.1141  0.5248 -0.2396
 1525SOL     OW16207   3.117   4.185   3.898  0.1688  0.3328 -0.4192
 1525SOL    HW116208   3.108   4.278   3.919 -1.2807 -0.1495  1.0517
 1525SOL    HW216209   3.139   4.151   3.984  1.1817  2.8681  0.3250
 1526SOL     OW16210   0.986   0.590   5.994 -0.0986 -0.2026 -0.2161
 1526SOL    HW116211   0.955   0.573   5.906  0.1624  1.9925 -0.7495
 1526SOL    HW216212   0.943   0.672   6.020  2.4721  0.8632  0.7327
 1527SOL     OW16213   0.343   2.952   6.835  0.0553 -0.1065 -1.0986
 1527SOL    HW116214   0.271   3.014   6.847 -1.3132 -1.6293 -1.4591
 1527SOL    HW216215   0.364   2.964   6.742 -0.6202 -1.1690 -1.3849
 1528SOL     OW16216   0.407   4.374   8.099  0.3281 -0.7402  0.3617
 1528SOL    HW116217   0.403   4.363   8.193 -3.2234  1.2337  0.4477
 1528SOL    HW216218   0.383   4.287   8.069 -0.7409 -0.2932 -0.0947
 1529SOL     OW16219   3.510   3.635   2.225 -0.5581  0.4705  0.4439
 1529SOL    HW116220   3.525   3.611   2.134 -1.0687 -1.8046  0.9576
 1529SOL    HW216221   3.472   3.555   2.261 -2.8454  0.6369 -1.5754
 1530SOL     OW16222   2.986   2.860   1.608 -0.3413  0.5287  0.4095
 1530SOL    HW116223   2.958   2.860   1.699  4.2679 -1.8749  1.7985
 1530SOL    HW216224   3.003   2.954   1.597 -0.5651  0.5166 -0.0464
 1531SOL     OW16225   3.591   2.174   3.231 -0.0156  0.0007  0.0976
 1531SOL    HW116226   3.638   2.095   3.203  0.5956  1.1310 -2.0448
 1531SOL    HW216227   3.502   2.143   3.243 -0.1707  0.5430  0.3458
 1532SOL     OW16228   0.603   0.029   8.550 -0.0232 -0.2735  0.6217
 1532SOL    HW116229   0.655   4.739   8.476 -0.2419  1.7303 -0.3940
 1532SOL    HW216230   0.540   4.701   8.565 -3.3183  3.3657  3.7276
 1533SOL     OW16231   1.166   0.000   3.879  0.0179  0.2819 -0.5192
 1533SOL    HW116232   1.244   4.739   3.824 -0.2993 -2.8475 -0.7689
 1533SOL    HW216233   1.190   0.062   3.948  0.8552  1.2762 -1.7141
 1534SOL     OW16234   2.038   1.296   8.294 -0.0154 -0.1919 -0.1281
 1534SOL    HW116235   2.104   1.362   8.317 -1.5186  0.1884  3.0571
 1534SOL    HW216236   2.089   1.222   8.326 -0.3087  0.2959  1.4417
 1535SOL     OW16237   2.379   1.242   8.003  0.4899 -0.2103  0.3535
 1535SOL    HW116238   2.412   1.218   8.089  1.5166  0.7374  0.2244
 1535SOL    HW216239   2.441   1.187   7.954  1.5889  1.3866 -0.0435
 1536SOL     OW16240   3.488   1.234   4.672 -0.6576  0.0295  0.3381
 1536SOL    HW116241   3.498   1.227   4.767  1.9971  1.4026  0.1549
 1536SOL    HW216242   3.500   1.329   4.667  0.0359 -0.0847 -0.1315
 1537SOL     OW16243   2.621   2.604   5.799  0.0311  0.5655  0.3168
 1537SOL    HW116244   2.706   2.568   5.824 -0.6405 -1.0032  0.3715
 1537SOL    HW216245   2.643   2.605   5.706  0.7343  0.9309  0.4843
 1538SOL     OW16246   2.949   0.897   4.458  0.1497 -0.0282  0.1740
 1538SOL    HW116247   2.972   0.873   4.368  0.7452 -0.5279  0.4639
 1538SOL    HW216248   2.853   0.895   4.452  0.2268 -1.8967 -0.3986
 1539SOL     OW16249   4.306   1.424   3.510 -0.0855 -1.1810  0.0339
 1539SOL    HW116250   4.219   1.440   3.547  1.1827  3.3181  1.0740
 1539SOL    HW216251   4.333   1.367   3.582 -3.6749 -0.2678  2.1270
 1540SOL     OW16252   3.857   3.100   5.201 -0.4275  0.1554 -0.2079
 1540SOL    HW116253   3.913   3.042   5.251 -1.2452  0.8124  1.4733
 1540SOL    HW216254   3.786   3.053   5.244 -1.4637  0.2411 -1.7906
 1541SOL     OW16255   3.572   1.543   4.164 -0.3670 -0.4635  0.8872
 1541SOL    HW116256   3.577   1.457   4.123 -0.6616 -0.7981  1.5333
 1541SOL    HW216257   3.651   1.584   4.129  0.7081 -1.2969  2.3330
 1542SOL     OW16258   2.272   3.416   4.193  0.2855  0.1383 -0.2637
 1542SOL    HW116259   2.302   3.358   4.263  0.6376 -0.9650 -1.3305
 1542SOL    HW216260   2.182   3.437   4.218 -0.4585 -1.3746 -1.6682
 1543SOL     OW16261   2.584   2.810   7.868  0.1567 -0.3381  0.0526
 1543SOL    HW116262   2.604   2.822   7.776  1.9042  0.6554  0.5550
 1543SOL    HW216263   2.648   2.866   7.912 -1.1895  1.8054 -0.7004
 1544SOL     OW16264   3.385   4.585   6.497  0.1536  0.3722 -0.6187
 1544SOL    HW116265   3.452   4.651   6.479  0.2668 -0.0031 -1.5728
 1544SOL    HW216266   3.425   4.541   6.572 -1.5501  1.5680  0.9903
 1545SOL     OW16267   2.612   1.088   0.840  0.4338  0.0072 -0.0287
 1545SOL    HW116268   2.567   1.023   0.895  0.9811 -1.9227 -1.8249
 1545SOL    HW216269   2.543   1.145   0.806 -0.3985 -0.3267  1.1004
 1546SOL     OW16270   2.296   1.551   6.852  0.0775  0.1826 -0.7729
 1546SOL    HW116271   2.329   1.488   6.916 -1.2752 -2.2236 -2.4542
 1546SOL    HW216272   2.366   1.616   6.850  0.1330  0.0852 -2.0063
 1547SOL     OW16273   2.701   3.936   9.002 -0.2529  0.0336 -0.7882
 1547SOL    HW116274   2.774   3.914   9.060 -1.4926 -2.2673 -0.0831
 1547SOL    HW216275   2.636   3.988   9.050 -0.3744 -1.1040  0.2767
 1548SOL     OW16276   0.458   0.205   3.605 -0.1932 -0.8395 -0.1466
 1548SOL    HW116277   0.520   0.232   3.537 -0.2255 -2.8235 -0.9701
 1548SOL    HW216278   0.507   0.135   3.647 -0.9009 -0.1519  1.8565
 1549SOL     OW16279   0.398   2.488   3.643 -0.2750 -0.1413 -0.6206
 1549SOL    HW116280   0.354   2.571   3.661 -0.4720 -0.9471  2.5739
 1549SOL    HW216281   0.445   2.515   3.563  2.1768 -1.9258  0.2304
 1550SOL     OW16282   2.126   3.212   4.915  0.3568 -0.8569  0.0084
 1550SOL    HW116283   2.066   3.283   4.938 -0.7212 -1.8938  0.3821
 1550SOL    HW216284   2.114   3.162   4.996 -0.7337 -0.4061  0.1248
 1551SOL     OW16285   0.310   2.939   5.108 -0.1695  0.1096 -0.4291
 1551SOL    HW116286   0.358   2.953   5.189 -2.4350  2.2403  0.5492
 1551SOL    HW216287   0.343   2.857   5.070 -2.1062 -1.3520  1.0209
 1552SOL     OW16288   2.718   0.733   4.643  0.1726 -0.0830 -0.6569
 1552SOL    HW116289   2.723   0.790   4.720 -0.9633 -1.1770  0.2245
 1552SOL    HW216290   2.636   0.760   4.602 -0.5506  0.3589  1.0515
 1553SOL     OW16291   4.303   1.135   8.889  0.7271 -0.0462 -0.4628
 1553SOL    HW116292   4.287   1.133   8.795 -0.7138 -1.7498 -0.1684
 1553SOL    HW216293   4.211   1.127   8.915  0.4477 -0.4511 -1.5980
 1554SOL     OW16294   1.638   0.974   9.103  0.3184 -0.2843 -0.1464
 1554SOL    HW116295   1.635   1.006   9.013 -2.7354 -2.3003 -0.7545
 1554SOL    HW216296   1.569   0.908   9.094  1.0902 -1.1921  0.5022
 1555SOL     OW16297   0.024   4.084   4.892  0.4063 -0.1777 -0.2778
 1555SOL    HW116298   4.679   4.083   4.933  0.2893  0.3397 -0.5166
 1555SOL    HW216299   0.059   4.165   4.928 -1.5945  1.1698 -1.3432
 1556SOL     OW16300   2.044   1.779   4.871 -0.2709 -0.1636 -0.3394
 1556SOL    HW116301   2.126   1.754   4.913 -0.3599 -0.2759 -0.2344
 1556SOL    HW216302   2.015   1.853   4.925  0.2935  0.6716 -1.1636
 1557SOL     OW16303   3.866   1.120   7.468 -0.4034  0.0521 -0.3062
 1557SOL    HW116304   3.892   1.080   7.551  1.6463  2.3992  0.1684
 1557SOL    HW216305   3.897   1.207   7.492  0.5936 -1.0160  2.2188
 1558SOL     OW16306   1.798   2.974   3.377 -0.2660  0.0970  0.1757
 1558SOL    HW116307   1.755   3.051   3.340 -1.0178 -0.8015 -0.8433
 1558SOL    HW216308   1.858   3.015   3.440 -0.5655 -1.2539  1.3441
 1559SOL     OW16309   2.255   0.798  14.533  0.0076  0.0794  0.3415
 1559SOL    HW116310   2.205   0.739  14.477 -1.0870  0.5822  0.7872
 1559SOL    HW216311   2.306   0.842  14.466 -0.7347 -0.5728 -0.6424
 1560SOL     OW16312   3.710   0.123   7.921  0.0725 -0.0228  0.0402
 1560SOL    HW116313   3.709   0.194   7.858  0.7014 -0.3916 -0.3855
 1560SOL    HW216314   3.793   0.082   7.897  2.0228  2.2695  2.8122
 1561SOL     OW16315   4.400   1.414   7.037  0.0935 -0.3737 -0.2200
 1561SOL    HW116316   4.376   1.393   7.127 -0.0978 -0.9555 -0.4075
 1561SOL    HW216317   4.402   1.323   7.006  1.0283 -0.0254 -1.1655
 1562SOL     OW16318   3.708   2.874   6.393  0.1876  0.0276  0.4837
 1562SOL    HW116319   3.614   2.886   6.402  0.4967  3.2895 -0.5131
 1562SOL    HW216320   3.715   2.862   6.298 -1.5157 -3.1242  0.7606
 1563SOL     OW16321   2.133   4.466   6.078 -0.4001  0.0183 -0.2528
 1563SOL    HW116322   2.136   4.449   6.173 -1.1576  2.2540  0.1626
 1563SOL    HW216323   2.128   4.561   6.076 -0.1182  0.0342 -0.2198
 1564SOL     OW16324   1.755   2.832   5.140 -0.0217 -0.4395 -0.1216
 1564SOL    HW116325   1.837   2.785   5.124  0.2420 -0.3648  1.0004
 1564SOL    HW216326   1.708   2.832   5.056 -0.5218 -1.1212  0.1652
 1565SOL     OW16327   4.628   4.439   0.308 -0.1906  0.1424 -0.1402
 1565SOL    HW116328   4.539   4.404   0.302 -0.6374  1.1048  1.0105
 1565SOL    HW216329   4.675   4.355   0.315  1.1852  0.6742 -2.9900
 1566SOL     OW16330   0.443   1.051   3.112 -0.1763  0.4772  0.1384
 1566SOL    HW116331   0.488   1.135   3.114  1.9892 -0.7118  0.8576
 1566SOL    HW216332   0.519   0.994   3.122 -1.3732 -0.9968  0.8748
 1567SOL     OW16333   2.013   3.977  14.099 -0.6497 -0.6316  0.5179
 1567SOL    HW116334   2.102   3.950  14.123 -0.0633  0.9909  0.1888
 1567SOL    HW216335   1.962   3.908  14.141  0.8270 -2.2393 -0.3322
 1568SOL     OW16336   3.815   4.222   3.632 -0.4256  0.0568  0.2824
 1568SOL    HW116337   3.901   4.218   3.591 -0.8074 -2.3989 -0.2645
 1568SOL    HW216338   3.825   4.232   3.727 -3.8316 -1.5234  0.8364
 1569SOL     OW16339   2.449   0.890   7.965 -0.0610  0.4909 -0.0642
 1569SOL    HW116340   2.395   0.811   7.962  1.5888 -0.6234 -0.1120
 1569SOL    HW216341   2.504   0.852   8.034 -0.9728  1.3330  1.1264
 1570SOL     OW16342   3.719   1.460  11.349  0.0364 -0.6559 -0.1590
 1570SOL    HW116343   3.799   1.511  11.363 -0.4356  0.0589 -0.0827
 1570SOL    HW216344   3.662   1.497  11.417 -0.2607 -3.2916  1.0336
 1571SOL     OW16345   4.655   1.728   4.676 -0.0446 -0.5235  0.0556
 1571SOL    HW116346   4.702   1.687   4.603 -0.1531  0.4074 -0.5522
 1571SOL    HW216347   4.598   1.656   4.699 -2.4964  1.6076  0.6218
 1572SOL     OW16348   4.168   4.258   3.210 -0.1722 -0.1067 -0.1519
 1572SOL    HW116349   4.164   4.338   3.157  0.0335  0.0182  0.0193
 1572SOL    HW216350   4.078   4.228   3.198 -0.0240 -1.2163  1.4797
 1573SOL     OW16351   0.870   1.335   7.754 -0.5749 -0.4886 -0.3763
 1573SOL    HW116352   0.954   1.321   7.710  0.2307 -0.1245  1.0441
 1573SOL    HW216353   0.863   1.251   7.800 -2.1211 -0.8519 -1.2751
 1574SOL     OW16354   4.555   0.898   1.714  0.4475 -0.1048 -0.4837
 1574SOL    HW116355   4.498   0.974   1.712 -0.1582 -0.5574 -0.3025
 1574SOL    HW216356   4.491   0.829   1.699 -0.2226  0.1929  1.0095
 1575SOL     OW16357   3.940   3.193   4.573  0.0597 -0.1086  0.4375
 1575SOL    HW116358   3.900   3.245   4.503  2.6445 -3.5233 -3.5821
 1575SOL    HW216359   4.002   3.257   4.608  0.0581  0.2179 -0.1453
 1576SOL     OW16360   1.427   2.721   1.852  0.4206  0.3858 -0.2539
 1576SOL    HW116361   1.420   2.626   1.861 -2.3893  0.6620  0.5317
 1576SOL    HW216362   1.406   2.754   1.940 -0.1880 -1.5969  0.3317
 1577SOL     OW16363   4.410   4.029   3.802  0.2038  0.0782 -0.1473
 1577SOL    HW116364   4.351   4.105   3.802 -2.6797 -2.1660  2.0478
 1577SOL    HW216365   4.458   4.051   3.882 -1.4627  0.8463  0.6643
 1578SOL     OW16366   2.673   0.210   1.988 -0.3349  0.0462 -0.9832
 1578SOL    HW116367   2.585   0.181   2.010  0.1112 -1.4205 -1.0582
 1578SOL    HW216368   2.668   0.289   1.935 -3.6070 -1.1176 -2.4226
 1579SOL     OW16369   3.291   1.307  10.667 -0.1102  0.4185  1.0178
 1579SOL    HW116370   3.301   1.253  10.745  1.8890 -0.4882  0.1328
 1579SOL    HW216371   3.342   1.258  10.603  0.6424  1.8770  0.4995
 1580SOL     OW16372   0.350   1.288  13.165  0.0364 -0.5955 -0.0338
 1580SOL    HW116373   0.369   1.272  13.073  0.1392 -0.3331 -0.0574
 1580SOL    HW216374   0.272   1.233  13.170 -0.2296 -0.1801  0.3140
 1581SOL     OW16375   0.268   1.560   2.374 -0.1311  0.4765  0.0441
 1581SOL    HW116376   0.310   1.500   2.313 -0.2265 -0.6941  1.1208
 1581SOL    HW216377   0.222   1.495   2.427  2.3376 -1.2965 -0.0231
 1582SOL     OW16378   3.910   3.935   3.194 -0.4526 -0.1092 -0.0937
 1582SOL    HW116379   4.003   3.940   3.213 -0.3707  0.8836 -0.7330
 1582SOL    HW216380   3.893   4.029   3.189  0.4004  0.0926  0.8742
 1583SOL     OW16381   2.722   3.165   6.697  0.3297 -0.4069  0.3531
 1583SOL    HW116382   2.722   3.250   6.653  0.5300 -0.9383 -0.6842
 1583SOL    HW216383   2.631   3.136   6.700  0.7546 -1.8512 -0.3672
 1584SOL     OW16384   0.198   4.152   5.767  0.6562  0.3336 -0.2706
 1584SOL    HW116385   0.171   4.077   5.714 -4.0724  0.9257  1.3401
 1584SOL    HW216386   0.197   4.111   5.854  0.6302 -0.7782 -0.7900
 1585SOL     OW16387   1.893   4.240  16.242  0.6533 -0.0882  0.1253
 1585SOL    HW116388   1.825   4.195  16.192  0.0210  1.2677 -0.2376
 1585SOL    HW216389   1.846   4.292  16.307  0.8048 -0.4092  0.4982
 1586SOL     OW16390   0.974   0.499   3.611  0.4235  0.3040  0.3403
 1586SOL    HW116391   0.886   0.493   3.575  0.4895 -0.1389  0.2428
 1586SOL    HW216392   1.002   0.407   3.611 -2.0850 -0.4492  1.1420
 1587SOL     OW16393   0.298   1.723   9.989 -0.0618 -0.3957  0.1062
 1587SOL    HW116394   0.374   1.665   9.991  2.1939  2.6684  3.3319
 1587SOL    HW216395   0.240   1.668   9.936  0.2030 -0.9065  0.3527
 1588SOL     OW16396   4.646   4.406   4.386 -0.1860 -0.4997 -0.3448
 1588SOL    HW116397   4.719   4.436   4.332 -1.5676  2.3964 -0.6328
 1588SOL    HW216398   4.592   4.485   4.380  1.3070  0.4853 -0.7195
 1589SOL     OW16399   0.734   1.891   2.980  0.2784 -0.0930 -0.4069
 1589SOL    HW116400   0.782   1.852   2.908 -0.1350 -1.0732 -0.1427
 1589SOL    HW216401   0.652   1.894   2.930 -0.1582 -0.7663  0.2770
 1590SOL     OW16402   1.122   3.821   4.301  0.0738  0.3567  0.3014
 1590SOL    HW116403   1.082   3.750   4.250  0.7095  1.1948 -1.3645
 1590SOL    HW216404   1.115   3.884   4.229  1.1726 -0.4248 -0.5029
 1591SOL     OW16405   1.873   3.719  12.674  0.1009 -0.2777  0.3781
 1591SOL    HW116406   1.894   3.796  12.727  0.3480  0.6118 -0.9926
 1591SOL    HW216407   1.961   3.683  12.689 -0.2902 -1.7042 -0.7806
 1592SOL     OW16408   1.756   1.423   7.106  0.1686 -0.3606  0.3296
 1592SOL    HW116409   1.784   1.514   7.115  0.7314 -0.3378 -1.5872
 1592SOL    HW216410   1.832   1.380   7.145  0.5411  1.9044  2.1516
 1593SOL     OW16411   2.691   0.520   5.916  0.4613 -0.3162 -0.1743
 1593SOL    HW116412   2.652   0.580   5.852  0.8970 -0.4227 -0.5383
 1593SOL    HW216413   2.785   0.520   5.898  0.1673  0.3119 -1.6690
 1594SOL     OW16414   1.174   0.152   0.877 -0.4644  0.1736  0.7751
 1594SOL    HW116415   1.153   0.128   0.967  0.2999 -0.9586  0.6520
 1594SOL    HW216416   1.098   0.109   0.839  0.8189 -0.1687 -1.4176
 1595SOL     OW16417   4.180   4.705   4.491  0.0072 -0.0483  0.4859
 1595SOL    HW116418   4.224   4.674   4.569 -0.8495  0.9440  1.3716
 1595SOL    HW216419   4.234   0.041   4.485 -0.0399  0.0294  1.0646
 1596SOL     OW16420   0.699   3.653   3.077 -0.7317  0.2235 -0.1274
 1596SOL    HW116421   0.631   3.720   3.072 -0.1206  0.8757  0.2668
 1596SOL    HW216422   0.643   3.577   3.089 -0.6109  0.1490 -0.0279
 1597SOL     OW16423   0.392   0.775   5.621  0.2214 -0.5535  0.1928
 1597SOL    HW116424   0.379   0.867   5.642 -0.8439 -0.3707 -1.2373
 1597SOL    HW216425   0.430   0.792   5.535 -2.7487 -1.9576 -1.4130
 1598SOL     OW16426   4.521   1.146   3.952  0.0567 -0.1140  0.1384
 1598SOL    HW116427   4.490   1.174   4.038 -0.7903 -1.3997  0.2505
 1598SOL    HW216428   4.439   1.154   3.902 -1.6929  0.1066  3.0315
 1599SOL     OW16429   0.103   1.345   3.767 -0.0973  0.0902 -0.6660
 1599SOL    HW116430   0.088   1.330   3.861 -1.1146  1.6414 -0.5771
 1599SOL    HW216431   0.066   1.432   3.752 -1.7184 -0.2506  1.4217
 1600SOL     OW16432   1.716   3.981   4.645 -0.3593 -0.2240 -0.0095
 1600SOL    HW116433   1.810   3.962   4.655 -0.1899  0.7183  0.2221
 1600SOL    HW216434   1.700   3.924   4.569 -2.8065 -1.7636  1.6817
 1601SOL     OW16435   2.681   3.812  16.419  0.7241  0.2843 -0.9286
 1601SOL    HW116436   2.777   3.816  16.414  0.8967 -0.2755  1.9828
 1601SOL    HW216437   2.661   3.841  16.330 -1.7227  1.2718 -0.0378
 1602SOL     OW16438   2.257   0.816   8.238  0.1122  0.2251 -0.0030
 1602SOL    HW116439   2.191   0.753   8.208 -0.1379 -0.0845  1.2296
 1602SOL    HW216440   2.339   0.771   8.254  0.5641  0.4674 -1.5634
 1603SOL     OW16441   1.796   4.226   4.537 -0.4335 -0.5109  0.3487
 1603SOL    HW116442   1.756   4.144   4.564 -1.0499 -0.5557 -0.7402
 1603SOL    HW216443   1.847   4.261   4.611 -0.7139 -1.5238  1.0176
 1604SOL     OW16444   2.368   0.719   9.328  0.3284 -0.0552  0.2105
 1604SOL    HW116445   2.339   0.696   9.240 -2.0199  0.3677  0.8848
 1604SOL    HW216446   2.290   0.769   9.353  0.0926  0.2377 -1.1415
 1605SOL     OW16447   0.846   1.250   3.102 -0.1727  0.3008  0.6743
 1605SOL    HW116448   0.811   1.246   3.013 -3.0456  1.0230  1.7664
 1605SOL    HW216449   0.883   1.338   3.110 -2.3886  1.2963  0.1069
 1606SOL     OW16450   1.119   1.287   8.554 -0.0739  0.7928  0.0957
 1606SOL    HW116451   1.167   1.305   8.473 -0.6029  0.7436 -0.2271
 1606SOL    HW216452   1.155   1.359   8.605 -0.1424  0.8584  0.0530
 1607SOL     OW16453   4.497   0.248   7.804 -0.3470  0.8373 -0.2930
 1607SOL    HW116454   4.470   0.331   7.766  1.1518  0.9053 -1.2313
 1607SOL    HW216455   4.463   0.187   7.738 -1.6563 -0.0273  1.1887
 1608SOL     OW16456   0.622   4.004   8.800 -0.2566  0.1365 -0.4381
 1608SOL    HW116457   0.660   4.065   8.863 -1.0595 -0.0694  0.2363
 1608SOL    HW216458   0.577   4.075   8.753 -1.6011 -1.2606 -1.2503
 1609SOL     OW16459   0.683   1.005   0.955 -0.1140 -0.4144  0.5138
 1609SOL    HW116460   0.727   0.982   1.037  0.5511 -1.4255 -0.1243
 1609SOL    HW216461   0.737   0.956   0.893 -0.9032  0.3321 -0.7745
 1610SOL     OW16462   2.658   4.127   5.319  0.0787  0.0464  0.1606
 1610SOL    HW116463   2.686   4.170   5.400 -0.1355  2.0082 -0.7966
 1610SOL    HW216464   2.661   4.199   5.256 -0.4220  0.3562  0.4932
 1611SOL     OW16465   3.118   0.280   1.025  0.1856 -0.7468  0.5634
 1611SOL    HW116466   3.146   0.296   1.115  0.6142  0.2700  0.2425
 1611SOL    HW216467   3.112   0.370   0.994 -1.6949 -0.8223  0.6725
 1612SOL     OW16468   2.644   0.984  12.101  0.4833 -0.4939 -0.4385
 1612SOL    HW116469   2.592   0.903  12.100  1.1415 -0.9393  1.5603
 1612SOL    HW216470   2.575   1.049  12.088  2.4419  1.6902  0.3507
 1613SOL     OW16471   3.343   1.317   7.465  1.0331  0.2389  0.5874
 1613SOL    HW116472   3.334   1.235   7.416  0.8177  1.8056 -1.9617
 1613SOL    HW216473   3.390   1.361   7.395 -2.8481  1.0291 -1.5182
 1614SOL     OW16474   2.946   3.548   7.640 -0.6699  0.2731  0.2166
 1614SOL    HW116475   2.965   3.557   7.733  0.3042  2.0499 -0.1575
 1614SOL    HW216476   3.008   3.601   7.590  1.4103 -1.2797  1.1738
 1615SOL     OW16477   0.537   2.551  16.578  0.3008  0.5120 -0.0282
 1615SOL    HW116478   0.584   2.633  16.565  3.0762 -1.3356 -1.8284
 1615SOL    HW216479   0.479   2.572  16.651  0.5190  0.4837  0.1550
 1616SOL     OW16480   4.689   3.928   7.948 -0.1884  0.0330  0.4383
 1616SOL    HW116481   4.691   4.017   7.915 -1.5839  0.8197  2.4316
 1616SOL    HW216482   4.597   3.903   7.941 -1.1793  3.5975  0.7898
 1617SOL     OW16483   0.423   3.077   9.507  0.2172 -0.0882 -0.1892
 1617SOL    HW116484   0.394   3.168   9.499  0.6114 -0.0004 -0.6110
 1617SOL    HW216485   0.420   3.053   9.415 -0.5272 -1.4934  0.2045
 1618SOL     OW16486   0.742   0.276   3.626 -0.3817  0.1109  0.0621
 1618SOL    HW116487   0.712   0.354   3.579  0.3315 -1.1453 -2.4817
 1618SOL    HW216488   0.715   0.302   3.714 -1.7250 -2.0812  0.3216
 1619SOL     OW16489   3.392   3.825   2.368 -0.0696 -0.1392 -0.4786
 1619SOL    HW116490   3.318   3.859   2.318  0.4238  2.3566  0.5350
 1619SOL    HW216491   3.420   3.750   2.315  1.0421 -0.7274  0.9453
 1620SOL     OW16492   3.557   3.979   1.929 -0.3210 -0.3002 -0.0365
 1620SOL    HW116493   3.592   3.973   1.840 -1.9306  2.1284 -0.8328
 1620SOL    HW216494   3.485   3.916   1.933  0.7701 -1.5187  0.5605
 1621SOL     OW16495   3.730   3.666   4.074 -0.5835 -0.1652 -0.3540
 1621SOL    HW116496   3.705   3.590   4.126 -1.2078  0.8570  0.8326
 1621SOL    HW216497   3.688   3.648   3.990 -0.0509 -3.0281 -0.0166
 1622SOL     OW16498   1.013   4.110   7.313  0.0706  0.1246  0.5693
 1622SOL    HW116499   0.976   4.035   7.358  0.3987  0.2648  1.0728
 1622SOL    HW216500   0.951   4.179   7.338  0.5415  0.2559  1.3701
 1623SOL     OW16501   3.016   1.830   7.722  0.0594 -0.5223 -0.2387
 1623SOL    HW116502   3.054   1.901   7.774 -0.3215 -0.0250 -0.6358
 1623SOL    HW216503   3.010   1.766   7.792 -2.2982  0.5090  0.4727
 1624SOL     OW16504   3.406   3.278   8.752 -0.0535  0.0273 -0.2932
 1624SOL    HW116505   3.365   3.310   8.671  0.2161  2.9311  0.7149
 1624SOL    HW216506   3.414   3.184   8.739  0.9575  0.0944 -0.1275
 1625SOL     OW16507   2.976   3.015   7.176  0.1437 -0.0929 -0.1651
 1625SOL    HW116508   2.908   3.046   7.235 -0.2373 -2.2232  0.5266
 1625SOL    HW216509   2.936   3.060   7.102  0.0816  1.4316  0.7946
 1626SOL     OW16510   2.355   3.183   8.968 -0.0333 -0.0368  0.0142
 1626SOL    HW116511   2.420   3.214   9.032 -1.1378  3.9233 -0.7642
 1626SOL    HW216512   2.272   3.229   8.982  0.8236  1.7613 -0.7808
 1627SOL     OW16513   2.036   3.068   7.070  0.6348  0.2673 -0.0780
 1627SOL    HW116514   2.049   2.973   7.077  1.2061  0.4404  1.2533
 1627SOL    HW216515   1.953   3.066   7.118  0.3817 -1.8243 -0.5826
 1628SOL     OW16516   2.444   4.045  14.595 -0.1770 -0.0446 -0.0387
 1628SOL    HW116517   2.351   4.045  14.573  0.6361 -0.2176 -3.4796
 1628SOL    HW216518   2.483   3.978  14.540  2.7123 -0.1266  2.0939
 1629SOL     OW16519   4.077   3.816  16.178  0.2634  0.0511  0.4522
 1629SOL    HW116520   3.995   3.865  16.186  0.1194 -0.1743  0.3541
 1629SOL    HW216521   4.110   3.846  16.094 -1.2745  2.5379  0.7437
 1630SOL     OW16522   1.416   1.785   6.777 -1.3633  0.0335  0.3836
 1630SOL    HW116523   1.396   1.824   6.693  2.5618 -0.6829 -0.9052
 1630SOL    HW216524   1.477   1.847   6.817  0.0583 -0.2880 -1.3131
 1631SOL     OW16525   1.203   0.140   3.144  0.2794  0.2031 -0.3480
 1631SOL    HW116526   1.200   0.146   3.048 -0.3557  0.1538 -0.3306
 1631SOL    HW216527   1.296   0.162   3.155 -0.0910  0.8173  1.4685
 1632SOL     OW16528   4.491   4.583   1.900  0.1415 -0.7432  0.5208
 1632SOL    HW116529   4.486   4.578   1.804 -2.8940  1.0489  0.5772
 1632SOL    HW216530   4.401   4.602   1.925 -0.4670 -1.0244 -1.4811
 1633SOL     OW16531   1.790   2.876   6.069 -0.5307  0.8108  0.6618
 1633SOL    HW116532   1.858   2.936   6.038 -0.2250  0.0634 -0.1288
 1633SOL    HW216533   1.713   2.920   6.034  0.5988  2.1609 -0.0908
 1634SOL     OW16534   1.505   2.171   8.758  0.1090 -0.2450  0.6143
 1634SOL    HW116535   1.525   2.120   8.836  0.8012 -2.0973 -0.7716
 1634SOL    HW216536   1.434   2.225   8.792 -1.3658 -0.7305 -1.6814
 1635SOL     OW16537   2.071   1.421   8.874  0.1603  0.2867  0.3676
 1635SOL    HW116538   2.076   1.344   8.930 -0.6421  0.1191  0.2117
 1635SOL    HW216539   1.979   1.445   8.878 -0.7300 -2.7102 -1.9550
 1636SOL     OW16540   0.811   0.811   4.930  0.0945 -0.0288 -0.1219
 1636SOL    HW116541   0.896   0.853   4.917  1.0128 -1.4110  1.5161
 1636SOL    HW216542   0.753   0.828   4.855  1.2342  0.7902 -0.8172
 1637SOL     OW16543   2.464   2.104  15.801 -0.2124  0.5600 -0.1455
 1637SOL    HW116544   2.468   2.199  15.810 -0.3190  0.6086 -0.6546
 1637SOL    HW216545   2.532   2.083  15.738 -2.0869 -0.9196 -1.6713
 1638SOL     OW16546   0.115   3.408   7.357 -0.4710  0.5951  1.0409
 1638SOL    HW116547   0.180   3.348   7.319 -1.7753  0.5167 -1.0511
 1638SOL    HW216548   0.076   3.353   7.425  0.9647  0.8525  2.0737
 1639SOL     OW16549   2.653   0.528   4.043  0.2193 -0.4041  0.1420
 1639SOL    HW116550   2.568   0.490   4.065 -1.3067  1.7250 -2.0728
 1639SOL    HW216551   2.707   0.489   4.112 -1.1298  0.3242  1.5985
 1640SOL     OW16552   3.698   3.807   3.439  0.0607  0.1213  0.0301
 1640SOL    HW116553   3.669   3.878   3.496  0.9114 -1.6213  2.6204
 1640SOL    HW216554   3.768   3.763   3.487  1.5891 -0.0668 -2.3994
 1641SOL     OW16555   4.619   0.416   5.421  0.0269  0.1114 -0.3569
 1641SOL    HW116556   4.551   0.480   5.443  0.5925  0.6450 -0.1669
 1641SOL    HW216557   4.586   0.366   5.346  2.0373  0.2712 -1.3680
 1642SOL     OW16558   3.401   2.166   8.216  0.3282 -0.1786 -0.0203
 1642SOL    HW116559   3.495   2.147   8.208  0.2240 -1.6318  2.0785
 1642SOL    HW216560   3.399   2.186   8.310  0.3772 -1.6124  0.2830
 1643SOL     OW16561   4.691   1.919   7.182  0.8351  0.8922  0.0056
 1643SOL    HW116562   4.611   1.958   7.145 -0.1643 -0.2941  0.9235
 1643SOL    HW216563   0.011   1.990   7.164  1.2823  0.6890  0.7545
 1644SOL     OW16564   3.433   0.476   8.399 -0.0386 -1.0817 -0.2648
 1644SOL    HW116565   3.506   0.497   8.458 -1.6713  0.8420  1.0803
 1644SOL    HW216566   3.483   0.419   8.341  1.3191 -0.5745  0.3943
 1645SOL     OW16567   4.739   2.552   2.806 -0.7476 -0.0994 -0.5205
 1645SOL    HW116568   0.014   2.623   2.744  4.1051 -0.3553  0.5224
 1645SOL    HW216569   0.020   2.602   2.885  1.5794 -1.5689 -0.2699
 1646SOL     OW16570   3.113   3.402   3.298  0.4781 -0.2263  0.3056
 1646SOL    HW116571   3.106   3.493   3.271  0.2831  0.1945  1.7754
 1646SOL    HW216572   3.056   3.409   3.375  1.8492 -2.0069  1.5124
 1647SOL     OW16573   4.217   1.032   6.371 -0.4378 -0.4090 -0.0819
 1647SOL    HW116574   4.148   0.991   6.319 -0.7052 -0.2896  0.1803
 1647SOL    HW216575   4.285   1.030   6.304  0.6087 -1.8558  1.0125
 1648SOL     OW16576   2.515   0.036   8.456 -0.3011 -0.6022 -0.3406
 1648SOL    HW116577   2.487   0.125   8.480  0.2377 -1.0409  1.8404
 1648SOL    HW216578   2.609   0.049   8.453 -0.3448 -0.0095  0.7478
 1649SOL     OW16579   1.381   3.432   6.533 -0.2138 -0.1585 -0.3796
 1649SOL    HW116580   1.332   3.404   6.456 -0.3882 -2.2425  0.5094
 1649SOL    HW216581   1.332   3.396   6.607 -2.0343  0.8859 -1.0746
 1650SOL     OW16582   1.130   1.846   2.770  0.3559 -0.5475 -0.2490
 1650SOL    HW116583   1.119   1.931   2.728  0.6961 -0.2889  0.1895
 1650SOL    HW216584   1.225   1.851   2.773  0.2415  1.0467  0.9137
 1651SOL     OW16585   2.309   2.405   1.458  0.1262  0.3478 -0.4868
 1651SOL    HW116586   2.372   2.345   1.497  1.6550  2.3333  0.1119
 1651SOL    HW216587   2.342   2.409   1.368 -0.1230  4.4141 -0.3938
 1652SOL     OW16588   0.838   1.126   7.407 -0.9927  0.0308  0.1123
 1652SOL    HW116589   0.887   1.078   7.474 -1.1214  0.8533  0.7768
 1652SOL    HW216590   0.760   1.152   7.454 -0.1439 -0.6328  1.8942
 1653SOL     OW16591   1.295   3.143  16.141 -0.1936  0.3698  0.3002
 1653SOL    HW116592   1.230   3.206  16.174 -0.4735  0.7490 -0.9789
 1653SOL    HW216593   1.343   3.138  16.224  1.3714  1.2050 -0.5508
 1654SOL     OW16594   2.032   1.926   9.582  0.0661 -0.0052 -0.5597
 1654SOL    HW116595   1.965   1.931   9.514 -0.6393 -0.8199  0.0894
 1654SOL    HW216596   2.089   1.994   9.543  1.2436 -0.3046  0.6339
 1655SOL     OW16597   1.567   3.944  11.948  0.0957 -0.5604  0.1123
 1655SOL    HW116598   1.658   3.918  11.961  0.9381  2.0568 -0.6924
 1655SOL    HW216599   1.533   3.960  12.036 -0.3366 -0.1644 -0.1299
 1656SOL     OW16600   0.836   0.833   5.639 -1.0431  0.4670  0.0410
 1656SOL    HW116601   0.823   0.802   5.549  0.2922  0.3697 -0.1226
 1656SOL    HW216602   0.781   0.911   5.629 -0.7041  0.8231  0.9271
 1657SOL     OW16603   3.240   2.383   9.308  0.1588  0.1118  0.6977
 1657SOL    HW116604   3.260   2.290   9.310  0.5260  0.1806  0.1052
 1657SOL    HW216605   3.329   2.418   9.321  0.4526  0.0369 -1.2001
 1658SOL     OW16606   3.788   3.663   7.879  0.4712 -0.0861  0.8971
 1658SOL    HW116607   3.789   3.653   7.784  0.5505  1.0174  0.7744
 1658SOL    HW216608   3.698   3.643   7.905 -0.0421 -0.5002 -1.2579
 1659SOL     OW16609   1.851   3.112   2.018 -0.4160  0.2017 -0.2397
 1659SOL    HW116610   1.858   3.205   2.037  1.4304 -0.2052  1.1009
 1659SOL    HW216611   1.757   3.112   2.002 -0.5401 -0.6458  0.4711
 1660SOL     OW16612   2.207   0.180   9.375  0.2661  0.5076 -0.0761
 1660SOL    HW116613   2.147   0.241   9.417 -1.4055 -0.2546 -1.3718
 1660SOL    HW216614   2.291   0.203   9.416  0.3346 -0.0232  0.0781
 1661SOL     OW16615   3.550   4.519  14.291  0.5938 -0.1456  0.1704
 1661SOL    HW116616   3.487   4.583  14.323 -0.6996  0.2773 -3.2165
 1661SOL    HW216617   3.580   4.478  14.372  0.7794 -0.8801 -0.2778
 1662SOL     OW16618   2.161   1.300   6.394 -0.1311  0.0167  0.5417
 1662SOL    HW116619   2.125   1.254   6.470  3.2905  1.3049  2.9850
 1662SOL    HW216620   2.089   1.358   6.368 -1.3835 -0.8292  2.0941
 1663SOL     OW16621   0.866   4.534   4.272 -0.7503  0.0809 -0.5051
 1663SOL    HW116622   0.897   4.444   4.284  0.6022  0.6114  0.0497
 1663SOL    HW216623   0.948   4.560   4.229 -1.0937 -2.0421 -2.4479
 1664SOL     OW16624   3.967   0.244   8.603  0.6222 -0.3913 -0.2112
 1664SOL    HW116625   4.022   0.185   8.552 -1.1447 -1.8704 -0.4446
 1664SOL    HW216626   3.897   0.181   8.623  0.7483 -0.1765  0.9003
 1665SOL     OW16627   1.182   0.382   7.879 -0.0835 -0.6037 -0.5262
 1665SOL    HW116628   1.205   0.297   7.916  1.8446 -0.8974 -2.4174
 1665SOL    HW216629   1.094   0.368   7.845 -0.5241 -0.6647  0.6250
 1666SOL     OW16630   3.269   3.547   4.149  0.2826  0.0947 -0.7476
 1666SOL    HW116631   3.320   3.627   4.165 -0.3850  0.0778  1.5130
 1666SOL    HW216632   3.206   3.560   4.078  1.0573 -0.0343 -1.4492
 1667SOL     OW16633   0.512   3.438   3.594  0.7501 -0.2491  0.3876
 1667SOL    HW116634   0.484   3.441   3.502 -0.5372 -0.9063  0.7541
 1667SOL    HW216635   0.423   3.433   3.628  0.5697  0.5206  0.0293
 1668SOL     OW16636   1.241   4.553   0.717  0.0058 -0.3644 -0.1647
 1668SOL    HW116637   1.223   4.504   0.797  0.6631  0.9675  0.7909
 1668SOL    HW216638   1.311   4.497   0.683 -0.5701 -0.1185 -1.7453
 1669SOL     OW16639   1.437   1.758  12.053  0.4908 -0.0266 -0.4598
 1669SOL    HW116640   1.414   1.755  11.960  0.6515 -1.9963 -0.4368
 1669SOL    HW216641   1.423   1.669  12.085  1.3376  0.2516  0.7071
 1670SOL     OW16642   1.805   3.705   4.750  0.3652  0.2387  0.6209
 1670SOL    HW116643   1.773   3.639   4.688  2.4987  0.9386 -1.2224
 1670SOL    HW216644   1.874   3.745   4.696  0.2155  0.5652  0.6680
 1671SOL     OW16645   3.145   4.545   8.691 -0.3520 -0.4339  0.4158
 1671SOL    HW116646   3.090   4.548   8.770 -1.2346 -3.9400 -0.0669
 1671SOL    HW216647   3.149   4.641   8.688 -0.9118 -0.4047  0.5899
 1672SOL     OW16648   2.134   2.923   8.187  0.4839 -0.0961 -0.5104
 1672SOL    HW116649   2.172   2.881   8.110 -2.6542 -2.8289 -0.5452
 1672SOL    HW216650   2.047   2.948   8.156  0.5044  0.8179  0.1459
 1673SOL     OW16651   0.994   1.052   8.185 -0.9362 -0.0109  0.0953
 1673SOL    HW116652   1.005   0.975   8.241  2.5007 -0.6218 -1.3924
 1673SOL    HW216653   1.034   1.026   8.102 -1.3168 -1.7773  0.4667
 1674SOL     OW16654   0.487   4.650   9.485  0.0805 -0.1390 -0.1734
 1674SOL    HW116655   0.532   4.660   9.401  1.5041 -3.3444  0.2370
 1674SOL    HW216656   0.478   4.741   9.515  0.7203  0.1803 -0.9537
 1675SOL     OW16657   2.411   1.912   1.856 -0.2039  0.0234 -0.3997
 1675SOL    HW116658   2.367   1.828   1.871  1.3587 -0.7635 -0.1096
 1675SOL    HW216659   2.343   1.967   1.895 -0.6805  0.9874 -2.6106
 1676SOL     OW16660   2.896   0.063   2.249  0.2423 -0.1865  0.2161
 1676SOL    HW116661   2.808   0.075   2.284  1.4270 -0.1599  3.2104
 1676SOL    HW216662   2.946   0.087   2.327  2.3770 -0.2032 -1.1537
 1677SOL     OW16663   1.863   1.490   9.120 -0.6184 -0.1713  0.2080
 1677SOL    HW116664   1.821   1.404   9.115 -1.5734  0.2990  0.1132
 1677SOL    HW216665   1.873   1.513   9.027  1.4370  0.1549  0.4963
 1678SOL     OW16666   1.736   3.660   5.815 -0.2133  0.2840 -0.1642
 1678SOL    HW116667   1.746   3.616   5.900  1.9682 -3.5518 -2.4356
 1678SOL    HW216668   1.647   3.690   5.834 -0.1095 -0.2159  1.1153
 1679SOL     OW16669   1.909   2.623   6.065 -0.0999 -0.2349  0.1396
 1679SOL    HW116670   1.885   2.716   6.068 -0.4179 -0.3900  2.3268
 1679SOL    HW216671   1.916   2.598   6.158 -2.2760  0.2357  0.4353
 1680SOL     OW16672   3.478   1.200   2.821 -0.2811 -0.6858  0.2094
 1680SOL    HW116673   3.482   1.172   2.730  0.3591  0.1202 -0.0097
 1680SOL    HW216674   3.410   1.268   2.820  0.6605  0.2700  1.5445
 1681SOL     OW16675   0.769   2.384   3.987 -0.3701  0.3262  0.1953
 1681SOL    HW116676   0.691   2.336   3.959 -0.9064  0.0066  2.2300
 1681SOL    HW216677   0.830   2.312   4.001 -1.2428 -0.6891 -1.2244
 1682SOL     OW16678   1.407   2.404   6.694  0.1049  0.5009  0.5694
 1682SOL    HW116679   1.407   2.356   6.611 -0.0434 -0.8670  1.3657
 1682SOL    HW216680   1.501   2.422   6.698 -0.1216  0.8239  4.0121
 1683SOL     OW16681   4.415   4.702   2.987 -0.4080 -0.1675 -0.7115
 1683SOL    HW116682   4.387   0.051   2.975  1.1966  1.0818  4.8991
 1683SOL    HW216683   4.505   4.700   2.956  1.0001 -0.5242  3.4059
 1684SOL     OW16684   2.939   4.320   0.579  0.0832  0.1643 -0.0615
 1684SOL    HW116685   2.955   4.315   0.485 -0.6513 -0.7618 -0.1401
 1684SOL    HW216686   2.871   4.386   0.589 -0.2071  0.3289 -3.0185
 1685SOL     OW16687   0.387   3.584   6.858 -0.9914  0.2381  0.6314
 1685SOL    HW116688   0.434   3.515   6.906 -1.8700 -0.8481 -0.0973
 1685SOL    HW216689   0.385   3.643   6.934 -1.4597  1.6567 -0.4777
 1686SOL     OW16690   3.661   2.172   8.995 -0.0983  0.2058  0.4131
 1686SOL    HW116691   3.722   2.147   9.064  0.9364  2.1948  0.2294
 1686SOL    HW216692   3.667   2.268   8.995  0.0594  0.1891  0.9752
 1687SOL     OW16693   2.740   1.443   4.407 -0.0290  0.0008  0.3637
 1687SOL    HW116694   2.828   1.420   4.438  0.7957  2.3932 -0.1645
 1687SOL    HW216695   2.767   1.521   4.359  1.6753  1.1874  3.2481
 1688SOL     OW16696   0.043   1.509   7.460 -0.2899  0.3869 -0.1258
 1688SOL    HW116697   4.726   1.452   7.411 -1.3829  2.4291 -1.1812
 1688SOL    HW216698   4.741   1.588   7.430  0.0702  1.4136  2.0714
 1689SOL     OW16699   0.844   4.351   1.053  0.0958 -0.7117  0.4985
 1689SOL    HW116700   0.759   4.329   1.091 -0.3777 -0.4168 -0.3748
 1689SOL    HW216701   0.903   4.359   1.127  1.0934  1.0871 -0.4967
 1690SOL     OW16702   0.545   3.062   6.321 -0.8967 -0.1997  0.1641
 1690SOL    HW116703   0.620   3.009   6.294 -1.4337 -0.8799 -0.0071
 1690SOL    HW216704   0.579   3.147   6.349 -2.3176  0.0943  1.0085
 1691SOL     OW16705   2.409   3.557  15.401  0.1738  0.0780 -0.5199
 1691SOL    HW116706   2.320   3.522  15.390  0.2365 -0.2862  0.1420
 1691SOL    HW216707   2.449   3.472  15.416  2.6757  1.0847 -1.4953
 1692SOL     OW16708   1.244   0.039  12.004 -0.1701  1.1092 -0.0822
 1692SOL    HW116709   1.330   0.040  12.047 -1.1092  2.8101  1.7790
 1692SOL    HW216710   1.186   0.030  12.079  0.5401  1.1076  0.4739
 1693SOL     OW16711   4.432   1.394  13.735  0.4441 -0.4919  0.0687
 1693SOL    HW116712   4.425   1.479  13.692 -2.2476 -0.5896  0.3256
 1693SOL    HW216713   4.456   1.344  13.656 -1.6321  0.5566 -1.2138
 1694SOL     OW16714   1.633   0.520  12.126  0.0638 -0.1679  0.6018
 1694SOL    HW116715   1.608   0.550  12.038  0.7948 -0.7793  0.1866
 1694SOL    HW216716   1.718   0.564  12.131  0.4322 -0.8220  0.0829
 1695SOL     OW16717   2.723   0.512   4.867  1.1013 -0.3428 -0.3636
 1695SOL    HW116718   2.629   0.522   4.880  0.7714 -1.6848 -1.6120
 1695SOL    HW216719   2.733   0.564   4.788  1.5743 -1.0466 -0.7760
 1696SOL     OW16720   4.462   4.647   4.348  0.0624  0.2077 -0.4359
 1696SOL    HW116721   4.473   4.702   4.270  1.9346  0.7578  0.2191
 1696SOL    HW216722   4.466   4.716   4.414  2.2866 -0.2893 -0.0769
 1697SOL     OW16723   4.385   3.862   2.820  0.3720 -0.2469  0.1184
 1697SOL    HW116724   4.343   3.928   2.875  0.8491 -0.6321  0.9366
 1697SOL    HW216725   4.476   3.864   2.847  1.5813 -0.2351 -3.9510
 1698SOL     OW16726   2.858   0.140   3.909 -0.1701 -0.0144  0.1686
 1698SOL    HW116727   2.839   0.060   3.957  0.7371  0.4198  1.2406
 1698SOL    HW216728   2.784   0.153   3.849 -0.2064  1.1522  0.4579
 1699SOL     OW16729   0.428   3.790  16.405 -0.1901 -0.0533 -0.2864
 1699SOL    HW116730   0.500   3.761  16.349 -1.4913 -0.5645 -1.7099
 1699SOL    HW216731   0.368   3.788  16.331 -0.6726  1.1330  0.0652
 1700SOL     OW16732   2.584   4.278  11.741  0.0700  0.1468 -0.5355
 1700SOL    HW116733   2.605   4.276  11.647  1.4699 -0.9026 -0.2048
 1700SOL    HW216734   2.529   4.356  11.743 -0.5689 -0.3405  0.2803
 1701SOL     OW16735   1.039   2.820   0.299 -0.6688  0.0401  0.3670
 1701SOL    HW116736   1.010   2.799   0.211 -0.1376 -0.0907  0.2225
 1701SOL    HW216737   1.090   2.900   0.282  1.1097 -0.4821  3.1177
 1702SOL     OW16738   1.326   3.614   3.425  0.0719  0.3723  0.6375
 1702SOL    HW116739   1.251   3.555   3.428  1.3267 -1.1199  2.3364
 1702SOL    HW216740   1.352   3.612   3.333 -0.3348 -1.8715  0.5886
 1703SOL     OW16741   4.343   2.034   1.816  0.2913  0.0022  0.0752
 1703SOL    HW116742   4.326   1.940   1.812  1.1942 -0.1206 -0.7195
 1703SOL    HW216743   4.322   2.058   1.907 -1.8234  0.6975 -0.6040
 1704SOL     OW16744   2.039   1.462   5.103  0.7616 -1.0018  0.0686
 1704SOL    HW116745   2.065   1.541   5.149 -0.0513 -2.1341  2.4693
 1704SOL    HW216746   1.975   1.500   5.042  2.3514 -0.2606 -1.1423
 1705SOL     OW16747   3.145   1.740   2.868 -0.7114 -0.0371  0.4342
 1705SOL    HW116748   3.164   1.730   2.774 -3.1040 -0.4941  0.0036
 1705SOL    HW216749   3.052   1.759   2.868 -1.0128 -1.5681  3.3396
 1706SOL     OW16750   3.267   1.366   2.180  0.1341  0.3488  0.1562
 1706SOL    HW116751   3.339   1.424   2.153  0.2727  0.6470  1.1667
 1706SOL    HW216752   3.280   1.351   2.274 -1.7838  1.5074  0.6076
 1707SOL     OW16753   3.555   1.045   7.749  0.7449  0.5128 -0.0269
 1707SOL    HW116754   3.496   1.005   7.813  0.5640 -4.1250 -3.1362
 1707SOL    HW216755   3.485   1.080   7.694  0.1162  0.3865  0.6871
 1708SOL     OW16756   2.466   3.152   6.736  0.1407 -0.5547  0.0041
 1708SOL    HW116757   2.379   3.183   6.709  0.2855  0.0844  0.2821
 1708SOL    HW216758   2.439   3.079   6.793 -1.0767  0.1718  0.3532
 1709SOL     OW16759   3.540   3.453  13.229 -0.0260 -0.0075  0.2376
 1709SOL    HW116760   3.609   3.472  13.166 -0.7900  1.0481 -0.2858
 1709SOL    HW216761   3.582   3.378  13.270 -0.6554 -1.2182 -1.3673
 1710SOL     OW16762   4.450   4.207   4.902 -0.1235  0.4351 -0.0464
 1710SOL    HW116763   4.452   4.127   4.954 -2.2651  1.5624  1.7736
 1710SOL    HW216764   4.450   4.274   4.970  0.0705 -1.3106  1.6648
 1711SOL     OW16765   1.860   0.005   9.805 -0.3893 -0.2510 -0.2996
 1711SOL    HW116766   1.777   0.013   9.759  0.9856  1.2014 -2.5259
 1711SOL    HW216767   1.897   0.090   9.779  2.0386 -0.7832  1.3678
 1712SOL     OW16768   4.711   4.154  11.049  0.1873 -0.4157  0.6185
 1712SOL    HW116769   0.015   4.090  10.995 -2.8351 -0.3900 -2.0111
 1712SOL    HW216770   4.652   4.188  10.981 -0.4587 -0.7447  1.0181
 1713SOL     OW16771   1.252   2.111   1.646 -0.4880 -0.1167 -0.0847
 1713SOL    HW116772   1.313   2.114   1.719 -0.3232 -2.4920 -0.1113
 1713SOL    HW216773   1.264   2.193   1.598 -0.2279 -0.1127 -0.0113
 1714SOL     OW16774   4.649   0.239   6.113 -0.2689  0.5802  0.0606
 1714SOL    HW116775   4.587   0.186   6.064 -0.7633  1.6393 -0.4774
 1714SOL    HW216776   4.733   0.197   6.093 -1.5387 -0.9086 -2.1262
 1715SOL     OW16777   2.090   2.010  12.073 -0.2457 -0.2915 -0.5836
 1715SOL    HW116778   2.018   2.073  12.074  0.4649  0.5188 -0.2215
 1715SOL    HW216779   2.156   2.041  12.137 -1.3515  0.0055  0.4121
 1716SOL     OW16780   0.649   4.703   9.270  0.0717 -0.0904  0.1692
 1716SOL    HW116781   0.667   4.648   9.195  0.3668  1.7571 -1.1145
 1716SOL    HW216782   0.733   4.719   9.314  0.3569 -0.0430 -0.3986
 1717SOL     OW16783   1.584   1.393  17.178 -0.0892 -0.4429  0.7601
 1717SOL    HW116784   1.643   1.322  17.153 -0.0228 -0.8650  2.0828
 1717SOL    HW216785   1.626   1.469  17.136 -1.8044 -1.1559 -2.2241
 1718SOL     OW16786   1.795   4.591   2.258 -0.6125  0.3915 -0.0637
 1718SOL    HW116787   1.867   4.601   2.320  1.1751 -0.7326 -1.9452
 1718SOL    HW216788   1.748   4.674   2.260 -1.5936 -0.0554 -4.1605
 1719SOL     OW16789   3.391   0.230  13.852 -0.2266 -0.2965  0.3043
 1719SOL    HW116790   3.458   0.162  13.857 -0.1869 -0.4660 -2.1911
 1719SOL    HW216791   3.423   0.273  13.772  1.4365  1.3233  1.8551
 1720SOL     OW16792   2.240   3.637   6.185  0.0857 -0.3702  0.2106
 1720SOL    HW116793   2.252   3.605   6.096 -1.1770 -1.1701  0.3347
 1720SOL    HW216794   2.186   3.714   6.167  3.1416  1.2080 -2.2363
 1721SOL     OW16795   0.351   1.083  15.926 -0.1886 -0.0557  0.3514
 1721SOL    HW116796   0.433   1.042  15.955  0.1164  0.7059  0.5724
 1721SOL    HW216797   0.294   1.012  15.953  0.1381 -0.5218 -0.1805
 1722SOL     OW16798   4.167   3.133   6.152  0.2585  0.5117  0.0352
 1722SOL    HW116799   4.192   3.157   6.062  1.8067 -1.3278 -0.0232
 1722SOL    HW216800   4.100   3.066   6.136  0.6470  0.2226 -0.3882
 1723SOL     OW16801   4.138   4.156   6.415 -0.1881 -0.4601 -0.6419
 1723SOL    HW116802   4.147   4.095   6.489  0.4108  0.4767  0.0617
 1723SOL    HW216803   4.199   4.115   6.354 -1.6220  0.3871 -2.6297
 1724SOL     OW16804   2.762   1.347   8.683 -0.0792  0.2076 -0.0182
 1724SOL    HW116805   2.723   1.384   8.604  2.2814 -1.1893 -1.8398
 1724SOL    HW216806   2.785   1.256   8.665  3.7649  1.0853  0.5610
 1725SOL     OW16807   3.851   4.250   2.683  0.5043  0.6266  0.0720
 1725SOL    HW116808   3.853   4.214   2.594 -2.3285  0.1461  0.2116
 1725SOL    HW216809   3.759   4.233   2.702  1.0598 -1.7273  0.7620
 1726SOL     OW16810   4.094   2.988   6.598  0.2369  0.3220  0.6322
 1726SOL    HW116811   4.044   2.907   6.586 -1.2142  1.6496 -2.3020
 1726SOL    HW216812   4.031   3.053   6.567  0.7464 -0.2684 -1.6707
 1727SOL     OW16813   1.231   1.600   4.861 -0.0663  0.2756 -0.0635
 1727SOL    HW116814   1.320   1.573   4.838  0.7746  3.5771 -0.7287
 1727SOL    HW216815   1.244   1.691   4.887 -0.4562  0.2567  0.1994
 1728SOL     OW16816   3.842   2.795   2.659  0.0916 -0.3594  0.3031
 1728SOL    HW116817   3.876   2.866   2.604  0.2486  1.3612  2.6133
 1728SOL    HW216818   3.747   2.807   2.656  0.1817  0.0923 -0.5524
 1729SOL     OW16819   1.077   2.182   7.328 -0.5817 -0.0142 -0.0061
 1729SOL    HW116820   1.071   2.258   7.269 -0.6738 -0.1775 -0.2056
 1729SOL    HW216821   1.117   2.112   7.276 -0.6596  1.8820 -2.6464
 1730SOL     OW16822   2.331   1.480   3.298 -0.5952  0.7218 -0.8470
 1730SOL    HW116823   2.256   1.508   3.246 -1.7002 -1.7522 -0.5826
 1730SOL    HW216824   2.360   1.569   3.323  3.1939 -0.7026 -0.1005
 1731SOL     OW16825   0.427   4.645   1.176  0.6782 -0.5778  0.2493
 1731SOL    HW116826   0.360   4.649   1.244  0.7086 -0.4829  0.2740
 1731SOL    HW216827   0.499   4.699   1.209  0.6128  0.3184 -1.0961
 1732SOL     OW16828   1.579   0.437   0.675  0.0439  0.3272  0.7699
 1732SOL    HW116829   1.636   0.497   0.723  1.3402  1.1013 -1.7720
 1732SOL    HW216830   1.506   0.498   0.670 -1.0504 -1.2151 -2.0701
 1733SOL     OW16831   0.377   2.036   9.035  0.3119  0.0961 -0.1876
 1733SOL    HW116832   0.396   1.968   9.099 -0.8031  0.0822  0.1339
 1733SOL    HW216833   0.352   1.979   8.961 -0.2129 -0.9602  0.8037
 1734SOL     OW16834   0.540   2.231  12.959  0.1670  0.3306 -0.5951
 1734SOL    HW116835   0.634   2.230  12.980 -0.0112 -0.2591  0.1943
 1734SOL    HW216836   0.512   2.323  12.952  0.8015  0.2909 -3.5827
 1735SOL     OW16837   3.012   2.286   3.978 -0.6184  0.3936  0.0196
 1735SOL    HW116838   2.939   2.347   3.964 -1.9356 -1.2015 -0.1535
 1735SOL    HW216839   3.026   2.301   4.072  2.0184  0.6333 -0.4303
 1736SOL     OW16840   0.481   2.147   8.554 -0.6053 -0.0837 -0.4865
 1736SOL    HW116841   0.520   2.228   8.587  1.4408 -1.3081  0.0404
 1736SOL    HW216842   0.390   2.176   8.561 -0.2324  1.1119 -0.6194
 1737SOL     OW16843   4.664   1.548   8.676 -0.1930 -0.1146 -0.0045
 1737SOL    HW116844   4.715   1.475   8.642  0.4052 -0.0071  0.6608
 1737SOL    HW216845   4.639   1.513   8.761 -0.3444  0.6270  0.2552
 1738SOL     OW16846   4.169   1.473   7.981 -0.0456  0.6048  0.6175
 1738SOL    HW116847   4.142   1.479   8.072 -0.0871 -2.2023  0.7961
 1738SOL    HW216848   4.235   1.404   7.987  2.1764  2.5660 -1.5102
 1739SOL     OW16849   2.851   1.851   5.358 -0.5010  0.5641  0.6943
 1739SOL    HW116850   2.815   1.925   5.406  2.2982  1.5970  1.1776
 1739SOL    HW216851   2.784   1.842   5.290 -0.3269 -0.3382  0.6401
 1740SOL     OW16852   3.411   0.614   7.385  0.0188  0.3249 -0.4102
 1740SOL    HW116853   3.417   0.542   7.447  2.5272  1.3511  0.5588
 1740SOL    HW216854   3.490   0.666   7.404  0.9501 -0.5445 -1.9149
 1741SOL     OW16855   2.158   0.423   6.521 -0.5065  0.2129 -0.1257
 1741SOL    HW116856   2.154   0.453   6.612  0.9085  2.0598 -0.6511
 1741SOL    HW216857   2.072   0.382   6.512  0.8406 -2.4933 -0.7705
 1742SOL     OW16858   1.865   4.189   1.534 -0.3359 -0.3734 -0.3257
 1742SOL    HW116859   1.770   4.188   1.543 -0.2193 -2.7208  0.7175
 1742SOL    HW216860   1.864   4.110   1.480 -1.5194  0.5506 -1.6708
 1743SOL     OW16861   1.123   3.556   7.713  0.2203 -0.4260  0.2285
 1743SOL    HW116862   1.205   3.576   7.757  0.2979  0.3557 -0.2537
 1743SOL    HW216863   1.121   3.461   7.704  4.0300 -0.3324 -1.4933
 1744SOL     OW16864   2.277   1.548   4.113  0.0365 -0.5447  0.3958
 1744SOL    HW116865   2.306   1.498   4.036  3.2419  2.7096 -0.5573
 1744SOL    HW216866   2.355   1.601   4.132 -1.0231  1.3368 -0.4733
 1745SOL     OW16867   0.311   0.047   9.691 -0.4134  0.0983 -0.1742
 1745SOL    HW116868   0.220   0.016   9.691 -0.5358  0.4296 -2.6928
 1745SOL    HW216869   0.353   4.716   9.736 -1.9896  0.7639  2.4126
 1746SOL     OW16870   0.214   1.965   0.516 -0.0833 -0.0688  0.2486
 1746SOL    HW116871   0.242   1.877   0.543  1.0290 -0.0786 -0.9641
 1746SOL    HW216872   0.194   2.012   0.597  0.8071 -1.6740  1.4232
 1747SOL     OW16873   2.648   2.174   7.823 -0.0398  0.0669  0.4288
 1747SOL    HW116874   2.662   2.259   7.782  2.6257 -0.3229  0.5004
 1747SOL    HW216875   2.664   2.118   7.748  2.5939  1.2894  0.0631
 1748SOL     OW16876   3.897   2.464   4.085 -0.4707 -0.6784  0.2351
 1748SOL    HW116877   3.956   2.427   4.019  1.8017  0.8496  1.4199
 1748SOL    HW216878   3.907   2.559   4.075 -3.0638 -0.4777 -0.3780
 1749SOL     OW16879   2.348   3.105   3.684  0.2049 -0.1494  0.1680
 1749SOL    HW116880   2.298   3.160   3.623  2.0182  0.7926 -0.4682
 1749SOL    HW216881   2.286   3.054   3.736  0.8723  0.1572  1.2713
 1750SOL     OW16882   0.567   2.467   1.851  0.2460  0.2742 -0.5416
 1750SOL    HW116883   0.478   2.448   1.823 -0.6025  1.3437  1.3845
 1750SOL    HW216884   0.544   2.500   1.938  1.2344 -1.0673  0.2404
 1751SOL     OW16885   0.400   2.074   7.882  0.0357 -0.3967 -0.5291
 1751SOL    HW116886   0.353   1.998   7.918 -2.4689  0.3839 -2.1809
 1751SOL    HW216887   0.368   2.082   7.793  0.2436  1.2006 -0.4532
 1752SOL     OW16888   1.469   1.129  16.943  0.7084 -0.4438 -0.1961
 1752SOL    HW116889   1.432   1.176  17.018 -0.4325 -0.1647 -0.9381
 1752SOL    HW216890   1.478   1.048  16.994  2.6486 -0.9214 -1.2992
 1753SOL     OW16891   1.057   4.042   2.177  0.3600 -0.2698 -0.0628
 1753SOL    HW116892   0.983   4.021   2.233  1.9263  1.3995  2.6429
 1753SOL    HW216893   1.084   4.130   2.205  1.2184 -0.0713 -1.4869
 1754SOL     OW16894   4.567   0.335  17.039  0.1274 -0.5222 -0.1505
 1754SOL    HW116895   4.637   0.391  17.071  0.6248 -0.3401 -1.5380
 1754SOL    HW216896   4.537   0.389  16.966  2.5929  0.4050 -0.4626
 1755SOL     OW16897   4.216   3.329  17.683  0.3364  0.6914 -0.2112
 1755SOL    HW116898   4.271   3.286  17.617 -1.4504 -1.9132 -0.0062
 1755SOL    HW216899   4.128   3.305  17.652 -0.0990  1.1898  0.6561
 1756SOL     OW16900   2.092   2.211  11.002  0.1294  0.1722 -0.3045
 1756SOL    HW116901   2.084   2.136  10.943  0.9061  0.4002 -0.6874
 1756SOL    HW216902   2.047   2.274  10.946  0.3389  0.2067 -0.4317
 1757SOL     OW16903   2.333   0.994   5.047 -0.3408 -0.3475  0.7946
 1757SOL    HW116904   2.371   1.078   5.022 -0.2100 -0.6087  0.1120
 1757SOL    HW216905   2.405   0.959   5.099 -0.7573 -0.4632  1.2953
 1758SOL     OW16906   2.479   2.318   4.691  0.0856 -0.0526  0.1424
 1758SOL    HW116907   2.395   2.271   4.692 -0.4799  0.9407 -0.5156
 1758SOL    HW216908   2.452   2.408   4.711  0.3420  0.0569 -0.0035
 1759SOL     OW16909   1.574   1.102  17.508 -0.0672  0.0229 -0.2595
 1759SOL    HW116910   1.631   1.112  17.431 -1.6910 -0.7659 -1.5846
 1759SOL    HW216911   1.497   1.151  17.478 -0.7450 -1.4630 -0.9718
 1760SOL     OW16912   1.724   2.952   2.614  0.1920 -0.4169  0.4210
 1760SOL    HW116913   1.820   2.944   2.613  0.2052 -0.1021 -0.4579
 1760SOL    HW216914   1.705   2.930   2.705  1.5050  0.4229  0.9121
 1761SOL     OW16915   0.975   4.645  17.684  0.3914 -0.2219  0.7365
 1761SOL    HW116916   0.910   4.690  17.739  1.0104  1.4979  0.0658
 1761SOL    HW216917   1.040   4.610  17.745  0.9871 -0.5408 -0.0842
 1762SOL     OW16918   2.394   1.772  12.859 -0.0639 -0.0981 -0.2096
 1762SOL    HW116919   2.360   1.832  12.793  2.5682  0.7838 -0.7549
 1762SOL    HW216920   2.474   1.814  12.890 -0.4471  0.9239 -0.5885
 1763SOL     OW16921   2.069   1.246  14.343  0.2638 -0.2042 -0.0879
 1763SOL    HW116922   2.162   1.231  14.360  0.4695 -1.2073 -2.0840
 1763SOL    HW216923   2.053   1.329  14.388  1.4346  0.0882 -0.1987
 1764SOL     OW16924   4.007   4.327   4.744  0.5796  0.0291 -0.2076
 1764SOL    HW116925   3.950   4.294   4.675 -1.2447  1.1077  0.7830
 1764SOL    HW216926   4.086   4.354   4.697  0.5835 -1.1457 -0.8701
 1765SOL     OW16927   1.898   4.435   1.849  0.3503  0.3883  0.0671
 1765SOL    HW116928   1.969   4.427   1.786  0.7400 -1.3009  0.7157
 1765SOL    HW216929   1.831   4.377   1.813  0.3689 -0.2416  1.0509
 1766SOL     OW16930   4.021   1.038   3.335 -0.4420  0.5461  0.0025
 1766SOL    HW116931   3.989   0.948   3.335 -3.0103  1.4780 -2.0561
 1766SOL    HW216932   3.956   1.100   3.369 -1.7154 -1.3728  1.0519
 1767SOL     OW16933   4.205   0.229   6.976 -0.7825 -0.3292 -0.1800
 1767SOL    HW116934   4.179   0.167   6.907 -1.4441  0.2128 -0.4122
 1767SOL    HW216935   4.269   0.272   6.919 -0.5688  0.7648  0.8854
 1768SOL     OW16936   0.019   3.799   4.831 -0.1257  0.1250  0.5407
 1768SOL    HW116937   4.720   3.785   4.917  0.3868  3.4658  1.3396
 1768SOL    HW216938   0.050   3.888   4.846  2.7744 -0.7065 -0.6652
 1769SOL     OW16939   2.886   2.021   6.619  0.0022 -0.1452 -0.1107
 1769SOL    HW116940   2.946   1.947   6.610  0.3087 -0.1038  1.5574
 1769SOL    HW216941   2.799   1.983   6.634 -0.1566 -0.2953 -1.4306
 1770SOL     OW16942   3.646   4.192   4.382  0.4058 -0.2900 -0.4977
 1770SOL    HW116943   3.705   4.138   4.434  0.6734 -0.7555 -1.2813
 1770SOL    HW216944   3.704   4.235   4.318  0.6940 -0.7192 -0.5235
 1771SOL     OW16945   2.831   4.667  16.269  0.6702  0.4098 -0.4945
 1771SOL    HW116946   2.760   4.608  16.292 -0.2414  1.1672 -1.3774
 1771SOL    HW216947   2.907   4.614  16.294 -0.1154 -0.6472 -0.3467
 1772SOL     OW16948   0.738   3.453   7.284 -0.0780 -0.7228  0.1767
 1772SOL    HW116949   0.672   3.493   7.340  1.5782  0.9645  0.9222
 1772SOL    HW216950   0.710   3.456   7.193 -0.8168  0.5003  0.4385
 1773SOL     OW16951   4.411   4.308   5.489 -0.0545 -0.7156  0.6524
 1773SOL    HW116952   4.395   4.386   5.435  0.6396 -0.1212  1.2977
 1773SOL    HW216953   4.487   4.261   5.455 -0.0380 -1.2162  1.3876
 1774SOL     OW16954   4.416   2.036   1.027  0.3628  0.1631 -0.3976
 1774SOL    HW116955   4.476   2.037   0.952  0.5464 -0.6050 -0.2623
 1774SOL    HW216956   4.343   1.989   0.987  1.7489 -1.6746 -0.7437
 1775SOL     OW16957   2.863   3.843   3.458  0.6264 -0.1216  0.0826
 1775SOL    HW116958   2.835   3.904   3.526 -0.2382  1.2816 -1.5454
 1775SOL    HW216959   2.779   3.828   3.416  0.2030 -1.7116  1.5377
 1776SOL     OW16960   0.944   0.893  15.641 -0.0058 -0.1961 -0.6027
 1776SOL    HW116961   0.946   0.934  15.554  0.8767  1.4071  0.1772
 1776SOL    HW216962   0.853   0.863  15.639  0.0510 -0.5342  1.8322
 1777SOL     OW16963   0.950   3.526   2.214  0.2941 -0.2292  0.1509
 1777SOL    HW116964   1.033   3.558   2.250 -0.1562  2.2312 -1.0595
 1777SOL    HW216965   0.895   3.604   2.218 -0.2734 -0.5896 -0.7022
 1778SOL     OW16966   0.891   3.517   8.144 -0.0028 -0.3085  0.3725
 1778SOL    HW116967   0.972   3.512   8.196  2.0601 -0.9703 -2.8789
 1778SOL    HW216968   0.888   3.609   8.117 -1.2858 -0.7797 -1.1072
 1779SOL     OW16969   2.613   0.400  13.903  0.5915  0.0125  0.0839
 1779SOL    HW116970   2.636   0.401  13.810 -1.5421 -2.0968 -0.4783
 1779SOL    HW216971   2.618   0.306  13.920 -0.1998 -0.0528 -0.0281
 1780SOL     OW16972   0.066   4.610  11.185 -0.2125  0.2103 -0.2454
 1780SOL    HW116973   0.156   4.638  11.164 -0.8134  0.6822 -2.1784
 1780SOL    HW216974   0.057   4.523  11.148 -2.4172 -0.4545  1.8729
 1781SOL     OW16975   1.820   0.873   1.824  0.0008  0.8577  0.1232
 1781SOL    HW116976   1.803   0.873   1.730  0.6594  0.1343  0.0014
 1781SOL    HW216977   1.786   0.959   1.850  1.4191  1.5639 -0.3594
 1782SOL     OW16978   2.443   4.550  11.761 -0.3079 -1.0335 -0.2150
 1782SOL    HW116979   2.442   4.617  11.692  0.9912  0.1089  0.8648
 1782SOL    HW216980   2.353   4.518  11.761 -0.7555  0.2904 -2.5633
 1783SOL     OW16981   0.742   0.078   0.913 -0.3936 -0.1531 -0.3446
 1783SOL    HW116982   0.815   0.080   0.975 -1.0341  0.7380  0.3667
 1783SOL    HW216983   0.667   0.111   0.962  0.8887  0.9193  0.8942
 1784SOL     OW16984   1.024   2.913  10.364  0.1331  0.0365  0.2970
 1784SOL    HW116985   0.945   2.966  10.373  0.2265 -0.5080  4.3425
 1784SOL    HW216986   1.055   2.900  10.454 -0.9405 -0.1523  0.6428
 1785SOL     OW16987   1.243   1.084  12.205  0.4734 -0.1532 -0.0745
 1785SOL    HW116988   1.233   1.074  12.110  2.8130 -1.3805 -0.2044
 1785SOL    HW216989   1.260   0.994  12.231  0.5429  0.0379  0.5371
 1786SOL     OW16990   0.627   3.373   4.167 -0.5265 -0.3512  0.2182
 1786SOL    HW116991   0.547   3.357   4.218 -0.9265 -0.2690 -0.3761
 1786SOL    HW216992   0.599   3.403   4.081  0.1337 -0.2627  0.0347
 1787SOL     OW16993   1.989   2.586  10.965  0.2072  0.4219 -0.1700
 1787SOL    HW116994   1.982   2.512  10.904 -3.2752  0.7332 -0.1308
 1787SOL    HW216995   1.942   2.554  11.042  2.4905  0.8028  1.3797
 1788SOL     OW16996   0.961   1.521   7.061  0.6889 -0.4831 -0.4462
 1788SOL    HW116997   1.015   1.600   7.056 -1.3514  0.9135 -0.5589
 1788SOL    HW216998   0.944   1.531   7.155  3.6814  2.0193 -0.1442
 1789SOL     OW16999   1.087   0.491   3.080  0.4024  0.0325 -0.5239
 1789SOL    HW117000   1.071   0.398   3.063 -0.2399  0.1198 -0.3987
 1789SOL    HW217001   1.106   0.485   3.174 -0.4192 -0.2256 -0.3733
 1790SOL     OW17002   2.591   1.464   3.161 -0.0155 -0.7475  0.3513
 1790SOL    HW117003   2.531   1.444   3.233 -0.2226  3.0043  1.2114
 1790SOL    HW217004   2.589   1.558   3.148  0.1448 -0.9271 -0.9683
 1791SOL     OW17005   0.399   2.069   0.930  0.0885  0.3122 -0.6624
 1791SOL    HW117006   0.424   2.154   0.894  0.5101 -0.2918 -1.8140
 1791SOL    HW217007   0.483   2.044   0.967 -0.9354 -0.3929  1.1590
 1792SOL     OW17008   1.488   3.070   2.512  0.1892  0.8086  0.0863
 1792SOL    HW117009   1.564   3.018   2.538 -2.4282 -2.9024  0.3739
 1792SOL    HW217010   1.507   3.063   2.419 -1.3049 -1.6225 -0.0350
 1793SOL     OW17011   4.677   2.352   1.202 -0.8850  0.0452 -0.2152
 1793SOL    HW117012   4.633   2.411   1.263 -0.0893  1.2042 -0.7560
 1793SOL    HW217013   4.670   2.273   1.256  1.0052  0.2419  0.2923
 1794SOL     OW17014   3.332   3.858   3.861  0.0580  0.0866 -0.0206
 1794SOL    HW117015   3.282   3.843   3.942 -0.4793  0.1509 -0.3431
 1794SOL    HW217016   3.421   3.848   3.894  0.6310  0.2265 -1.5262
 1795SOL     OW17017   2.690   1.002  12.394  0.5558  0.0215  0.1895
 1795SOL    HW117018   2.638   1.077  12.422 -1.4141 -0.8721 -1.0411
 1795SOL    HW217019   2.666   1.000  12.301 -0.5583  0.9067  0.4542
 1796SOL     OW17020   3.152   2.874   2.274  0.6389  0.4895 -0.2276
 1796SOL    HW117021   3.226   2.864   2.334 -0.3854 -0.2030  0.9102
 1796SOL    HW217022   3.171   2.787   2.238  0.4584 -0.6476  2.4789
 1797SOL     OW17023   0.885   0.532   9.984  0.5330  0.5310 -0.5384
 1797SOL    HW117024   0.835   0.613   9.978  1.5300  0.9517 -3.1240
 1797SOL    HW217025   0.834   0.462   9.943  1.0620 -0.2576  0.1274
 1798SOL     OW17026   3.105   3.486   7.242  0.3732  0.0935  0.1345
 1798SOL    HW117027   3.102   3.529   7.327 -0.8226  0.1429  0.0550
 1798SOL    HW217028   3.020   3.443   7.244  0.8000 -0.7063  1.5137
 1799SOL     OW17029   0.781   2.391   1.510 -0.1918  0.1907 -0.2289
 1799SOL    HW117030   0.717   2.321   1.511  0.5117 -0.4501 -0.2475
 1799SOL    HW217031   0.793   2.418   1.418 -1.2353  0.2749 -0.3360
 1800SOL     OW17032   0.199   3.113   0.279 -0.0354 -0.0955  0.7654
 1800SOL    HW117033   0.242   3.175   0.219  1.1835 -1.4957  0.1902
 1800SOL    HW217034   0.166   3.059   0.207  0.2754 -2.9300  2.7718
 1801SOL     OW17035   2.951   3.453   5.423 -0.1696 -0.0851  0.2852
 1801SOL    HW117036   2.983   3.365   5.400 -0.9740 -0.3081  0.0244
 1801SOL    HW217037   2.858   3.432   5.428 -0.5592  1.5076 -0.3991
 1802SOL     OW17038   3.503   1.030   5.851 -0.1447 -0.1601  0.0025
 1802SOL    HW117039   3.585   0.980   5.852  0.3183  0.6587  1.8452
 1802SOL    HW217040   3.528   1.085   5.924  0.4119 -1.3868  0.7434
 1803SOL     OW17041   1.131   2.113  16.845 -0.2011  0.2289  0.1299
 1803SOL    HW117042   1.083   2.142  16.768  2.5804 -1.9030 -2.3884
 1803SOL    HW217043   1.063   2.071  16.898  0.1629 -0.2101  0.2482
 1804SOL     OW17044   0.836   1.641   8.083  0.5355 -0.6074 -0.0628
 1804SOL    HW117045   0.833   1.723   8.133 -0.8644 -0.7543  0.0805
 1804SOL    HW217046   0.887   1.578   8.134 -0.8179 -0.9517  0.8719
 1805SOL     OW17047   1.412   1.869   8.581  0.0882 -0.8079 -0.2589
 1805SOL    HW117048   1.396   1.832   8.494  0.4687 -0.6753 -0.3842
 1805SOL    HW217049   1.337   1.927   8.595 -0.6498 -1.6958 -0.4968
 1806SOL     OW17050   1.653   0.719   1.103  0.4415 -0.3741 -0.0502
 1806SOL    HW117051   1.691   0.636   1.073 -1.4019 -1.1268 -0.3471
 1806SOL    HW217052   1.731   0.758   1.142 -0.6366 -0.1584  1.9278
 1807SOL     OW17053   4.367   4.331   0.306 -0.0511  0.0271 -0.9392
 1807SOL    HW117054   4.341   4.322   0.214  0.0749 -1.7966 -0.8088
 1807SOL    HW217055   4.379   4.241   0.336 -0.4024  0.3706  0.2129
 1808SOL     OW17056   3.170   3.663  14.669  0.2541  0.3057 -0.9159
 1808SOL    HW117057   3.211   3.609  14.602  0.4424 -0.1260 -0.4544
 1808SOL    HW217058   3.154   3.747  14.626  3.8469  0.7618 -1.3639
 1809SOL     OW17059   1.554   4.051  15.115 -0.0049  0.1379 -0.4784
 1809SOL    HW117060   1.507   4.113  15.170 -2.7288 -1.5795 -0.8206
 1809SOL    HW217061   1.646   4.076  15.115  0.3863 -1.2455 -1.0184
 1810SOL     OW17062   2.031   1.946   8.772  0.1039 -0.1852  0.5161
 1810SOL    HW117063   2.050   2.017   8.711  0.5416  0.1335  1.0270
 1810SOL    HW217064   2.066   1.978   8.854  1.4659  1.6376 -0.7892
 1811SOL     OW17065   2.481   2.769  11.089  0.2640  0.0970 -0.0502
 1811SOL    HW117066   2.418   2.841  11.096 -0.3832 -0.4633 -0.0836
 1811SOL    HW217067   2.560   2.819  11.071 -0.3188  0.8861 -0.3811
 1812SOL     OW17068   2.958   3.826   8.235  0.2860  0.4140  0.2979
 1812SOL    HW117069   2.882   3.793   8.188 -0.1252  3.0071 -0.8072
 1812SOL    HW217070   2.992   3.902   8.190 -0.8675  2.1902  2.4309
 1813SOL     OW17071   2.696   3.969   3.650  0.2406  0.0306  0.2016
 1813SOL    HW117072   2.760   4.025   3.694 -0.9294  1.3475  0.2455
 1813SOL    HW217073   2.617   3.994   3.699 -0.5573  1.6198 -1.8661
 1814SOL     OW17074   2.919   1.431   3.753  0.5741  0.4822 -0.0727
 1814SOL    HW117075   2.855   1.422   3.682 -0.7097 -0.6447  1.2306
 1814SOL    HW217076   2.948   1.341   3.766  0.6612  0.0672 -3.2169
 1815SOL     OW17077   0.921   1.946  13.116  0.5699 -0.2501 -0.5440
 1815SOL    HW117078   0.862   1.911  13.183 -1.4766 -1.1330 -2.7986
 1815SOL    HW217079   0.992   1.977  13.172 -1.9426  0.8933  2.0201
 1816SOL     OW17080   2.515   1.660  17.612 -0.5751 -0.1931 -0.0640
 1816SOL    HW117081   2.580   1.589  17.611  0.7367  0.9916  0.3401
 1816SOL    HW217082   2.447   1.626  17.554 -1.9921  1.9060  0.4111
 1817SOL     OW17083   1.669   2.871   6.398  0.3855  0.0350  0.3205
 1817SOL    HW117084   1.727   2.808   6.442  0.8899  0.5124  0.3446
 1817SOL    HW217085   1.636   2.818   6.326 -1.5642  3.3570 -1.2087
 1818SOL     OW17086   0.918   3.865   4.477  0.1411 -0.0748 -0.2609
 1818SOL    HW117087   0.987   3.849   4.413 -0.4115  1.0049 -1.1465
 1818SOL    HW217088   0.877   3.946   4.445 -2.9061 -1.6845 -0.3811
 1819SOL     OW17089   2.991   3.626   0.131 -0.3196 -0.3736 -0.1260
 1819SOL    HW117090   3.034   3.678   0.064  0.7121 -0.7524  0.2400
 1819SOL    HW217091   3.020   3.659   0.216 -0.3194  0.4392 -0.4516
 1820SOL     OW17092   3.526   0.163   6.320  0.6360  0.3155 -0.1633
 1820SOL    HW117093   3.597   0.218   6.289  1.3282 -0.4822 -0.0008
 1820SOL    HW217094   3.553   0.156   6.412 -1.1072  0.7557  0.3885
 1821SOL     OW17095   3.134   1.656   5.984 -0.0397 -0.3367  0.1686
 1821SOL    HW117096   3.086   1.678   6.064  0.3843 -1.0770  0.6210
 1821SOL    HW217097   3.220   1.654   6.025  1.2908 -1.4788 -2.6519
 1822SOL     OW17098   0.509   0.102   2.067 -0.5525  0.1411  0.2395
 1822SOL    HW117099   0.445   0.043   2.107 -1.9976  0.9419 -0.8960
 1822SOL    HW217100   0.524   0.164   2.138  2.2232 -2.4730  1.9740
 1823SOL     OW17101   2.265   2.812   6.650 -1.0896 -0.7223 -0.8869
 1823SOL    HW117102   2.245   2.741   6.711  1.7498  0.3007  1.2294
 1823SOL    HW217103   2.317   2.878   6.696  0.1537 -2.5508  0.2917
 1824SOL     OW17104   2.957   3.495   3.532  1.0457 -0.3171 -0.6176
 1824SOL    HW117105   3.007   3.573   3.556 -0.1572 -0.1187  1.1997
 1824SOL    HW217106   2.947   3.454   3.618 -2.8182  0.3821 -0.7034
 1825SOL     OW17107   0.245   4.624   4.010  0.3936 -0.3683  0.0942
 1825SOL    HW117108   0.263   4.539   4.051  2.1936 -1.2613 -2.5269
 1825SOL    HW217109   0.315   4.681   4.041  0.8925 -0.7677 -0.2943
 1826SOL     OW17110   2.098   3.533  14.934  0.4291  0.4656  0.5026
 1826SOL    HW117111   2.105   3.585  14.854 -0.0425 -1.2169 -0.6459
 1826SOL    HW217112   2.187   3.511  14.959  0.5742 -1.8210 -2.0241
 1827SOL     OW17113   0.681   0.774   5.894  0.4683 -0.0750 -0.3227
 1827SOL    HW117114   0.686   0.750   5.802 -1.5726  0.3197 -0.5231
 1827SOL    HW217115   0.592   0.741   5.906  0.9685 -0.8821  1.1392
 1828SOL     OW17116   4.549   4.674   8.440 -0.5368  0.1323  0.0816
 1828SOL    HW117117   4.630   4.665   8.391 -0.8550 -1.0391 -0.2331
 1828SOL    HW217118   4.495   4.714   8.372 -0.6263  0.1374  0.1556
 1829SOL     OW17119   2.549   4.072   3.369 -0.1611 -0.4829 -0.0675
 1829SOL    HW117120   2.644   4.059   3.368 -0.0603  0.0629  3.1066
 1829SOL    HW217121   2.549   4.146   3.308  1.0239 -2.6646 -2.7422
 1830SOL     OW17122   2.911   0.132   0.947 -0.4438  0.4203  0.4054
 1830SOL    HW117123   2.980   0.172   1.000 -0.2766 -0.5741  0.9237
 1830SOL    HW217124   2.895   0.050   0.993  0.4046  0.5932  1.0079
 1831SOL     OW17125   0.235   2.838   1.876  1.1131  0.2543 -0.1378
 1831SOL    HW117126   0.147   2.868   1.855  0.2136 -1.8501  0.6300
 1831SOL    HW217127   0.260   2.898   1.946 -2.8643  0.5205  1.0380
 1832SOL     OW17128   1.919   3.158   4.190 -0.4072 -0.1244 -0.3298
 1832SOL    HW117129   1.999   3.195   4.153 -0.4675  1.6065  1.2955
 1832SOL    HW217130   1.871   3.134   4.110  0.1726 -1.6919 -0.2034
 1833SOL     OW17131   2.358   1.009  17.065 -0.0849 -0.2627  0.6607
 1833SOL    HW117132   2.305   1.077  17.106 -0.7413 -0.7038  0.5479
 1833SOL    HW217133   2.299   0.977  16.996 -0.3977 -0.8588  1.2087
 1834SOL     OW17134   0.497   2.495  14.345 -0.4985  0.2583 -0.4254
 1834SOL    HW117135   0.504   2.420  14.403 -2.2132  0.8025  0.4715
 1834SOL    HW217136   0.568   2.552  14.375  0.6815 -0.6641 -1.4904
 1835SOL     OW17137   3.863   2.431  17.543  0.1547  0.2485 -0.2451
 1835SOL    HW117138   3.878   2.352  17.595 -0.7397 -0.7176 -1.4501
 1835SOL    HW217139   3.830   2.484  17.616 -0.6265  0.2959 -0.6376
 1836SOL     OW17140   3.203   0.173   2.383 -0.7168  0.2318 -0.9660
 1836SOL    HW117141   3.111   0.195   2.371 -0.7881  0.1956 -0.4641
 1836SOL    HW217142   3.204   0.077   2.378 -3.3505  0.2171 -1.0652
 1837SOL     OW17143   3.912   1.270   1.951  0.3795 -0.0022  0.2181
 1837SOL    HW117144   3.991   1.262   1.897  1.2554 -2.5849  1.8542
 1837SOL    HW217145   3.929   1.207   2.021  0.9546 -0.5766 -0.4380
 1838SOL     OW17146   3.899   2.115  17.551  0.2955  0.0312  0.6175
 1838SOL    HW117147   3.976   2.111  17.494  2.5037 -0.0152  3.6096
 1838SOL    HW217148   3.896   2.028  17.591 -0.8006  0.7069  1.9694
 1839SOL     OW17149   0.662   2.551   7.604  0.1104  0.1945 -0.1685
 1839SOL    HW117150   0.693   2.625   7.552  0.1407  1.6962  1.9987
 1839SOL    HW217151   0.743   2.504   7.621  0.4308 -0.0390 -2.3593
 1840SOL     OW17152   3.212   2.386   9.030  0.0609 -0.1291 -0.5844
 1840SOL    HW117153   3.132   2.429   9.001  0.2462  1.2953  1.0323
 1840SOL    HW217154   3.202   2.385   9.125  0.1190 -0.9062 -0.5851
 1841SOL     OW17155   1.894   4.037   7.799 -0.1592  0.2683 -0.7464
 1841SOL    HW117156   1.800   4.029   7.783 -0.1408 -1.9395  0.3321
 1841SOL    HW217157   1.926   4.003   7.715 -1.7135 -0.9342 -0.8498
 1842SOL     OW17158   1.891   0.305  14.177 -0.2861 -0.1025 -0.3346
 1842SOL    HW117159   1.961   0.341  14.123 -0.1507  0.7558  0.4084
 1842SOL    HW217160   1.924   0.224  14.215  3.3292  2.2337  1.5383
 1843SOL     OW17161   2.382   4.182  13.909 -0.3333 -0.3685  0.2259
 1843SOL    HW117162   2.294   4.184  13.947 -0.3467 -1.0974  0.2282
 1843SOL    HW217163   2.353   4.196  13.819  2.6530  1.7683 -0.4112
 1844SOL     OW17164   0.826   0.519  10.266 -0.0157 -0.5412  0.3594
 1844SOL    HW117165   0.876   0.519  10.184  1.2482  1.5874  1.1470
 1844SOL    HW217166   0.780   0.435  10.269  1.9199 -1.6486 -0.2150
 1845SOL     OW17167   2.151   2.155   6.432 -0.1071 -0.5078  0.1629
 1845SOL    HW117168   2.197   2.095   6.490 -0.3822 -0.8680  0.0121
 1845SOL    HW217169   2.181   2.134   6.343 -1.7434 -0.6487 -0.3546
 1846SOL     OW17170   2.551   1.596   1.409  0.5349 -0.0602  0.3595
 1846SOL    HW117171   2.559   1.679   1.363 -0.3380  0.3181  0.9003
 1846SOL    HW217172   2.622   1.546   1.368  0.6431  0.2826  0.1308
 1847SOL     OW17173   4.011   3.458   8.236 -0.2083  0.0247  0.2748
 1847SOL    HW117174   3.940   3.519   8.257 -0.4752 -0.8345  1.9283
 1847SOL    HW217175   3.990   3.441   8.144  3.7873  1.0925 -0.8289
 1848SOL     OW17176   1.291   2.037   8.962  0.2985 -0.1739  0.0616
 1848SOL    HW117177   1.202   2.008   8.984 -0.6562  3.5784  1.0875
 1848SOL    HW217178   1.341   2.009   9.038  2.8363 -0.7213 -1.7854
 1849SOL     OW17179   4.494   0.690  15.144 -0.3989  0.1186  0.4109
 1849SOL    HW117180   4.470   0.647  15.226 -2.4969 -0.8909 -0.7215
 1849SOL    HW217181   4.477   0.613  15.090  0.6076  0.9712 -1.1512
 1850SOL     OW17182   3.532   2.301   5.734 -0.0242 -0.3600 -0.2052
 1850SOL    HW117183   3.564   2.268   5.818 -1.0343  0.5929  0.5590
 1850SOL    HW217184   3.526   2.220   5.683  3.4132  0.1187 -1.3523
 1851SOL     OW17185   2.878   3.574   1.363 -0.8287  0.3186 -0.1088
 1851SOL    HW117186   2.815   3.641   1.339  0.5971  1.6306 -0.2048
 1851SOL    HW217187   2.847   3.558   1.452 -0.6616 -0.2030 -0.1432
 1852SOL     OW17188   3.898   2.405   0.263 -0.1925  0.5678 -0.7486
 1852SOL    HW117189   3.898   2.483   0.208 -0.5336  1.5393  0.6402
 1852SOL    HW217190   3.866   2.337   0.203 -1.4223  2.1163 -1.8242
 1853SOL     OW17191   0.566   1.382   3.813 -0.6320  0.3701  0.0521
 1853SOL    HW117192   0.536   1.453   3.757  2.0577  1.1779 -0.3732
 1853SOL    HW217193   0.583   1.314   3.748  0.4299 -1.1251  1.8775
 1854SOL     OW17194   4.351   0.718   4.712 -0.6263 -0.2549  0.1496
 1854SOL    HW117195   4.356   0.651   4.644  1.9394  0.7118 -0.6084
 1854SOL    HW217196   4.258   0.727   4.734 -0.5621 -2.7875  1.4892
 1855SOL     OW17197   4.727   2.466   3.149  0.1914  0.3864 -0.2604
 1855SOL    HW117198   0.065   2.458   3.201 -0.2302 -2.7419 -0.0805
 1855SOL    HW217199   0.008   2.543   3.097  1.0403  0.6072  0.4539
 1856SOL     OW17200   4.097   3.986   3.706  0.2541  0.1572  0.0764
 1856SOL    HW117201   4.076   4.063   3.653 -1.1408  0.8475  1.6416
 1856SOL    HW217202   4.102   3.920   3.637 -1.2560 -1.6167  1.6738
 1857SOL     OW17203   1.561   3.176   1.947  0.9090 -0.4814 -0.1266
 1857SOL    HW117204   1.508   3.116   1.893  0.3721 -0.9398  0.9179
 1857SOL    HW217205   1.549   3.252   1.891 -1.1636  1.0931  2.4763
 1858SOL     OW17206   1.566   4.356   1.738 -0.7664 -0.2259  0.0665
 1858SOL    HW117207   1.563   4.269   1.700  3.2272  0.2946 -1.5045
 1858SOL    HW217208   1.604   4.409   1.668 -0.2365 -0.3916  0.2249
 1859SOL     OW17209   2.780   2.003   1.423 -0.3332  0.2453  0.2558
 1859SOL    HW117210   2.807   2.055   1.499  0.1246  1.3706 -0.6936
 1859SOL    HW217211   2.845   1.933   1.430 -1.1876 -0.2996  2.8043
 1860SOL     OW17212   2.036   4.396  11.061  0.4194  1.2379  0.5343
 1860SOL    HW117213   2.027   4.413  10.967 -1.1218 -2.1428  0.0710
 1860SOL    HW217214   1.958   4.340  11.069  2.0673 -0.6648  3.1285
 1861SOL     OW17215   1.648   4.358  17.619  0.2741 -0.1210 -0.0067
 1861SOL    HW117216   1.642   4.268  17.650 -0.3260  0.2072  0.8415
 1861SOL    HW217217   1.594   4.407  17.681 -1.9628 -0.7243 -1.4884
 1862SOL     OW17218   0.772   4.615  11.403 -0.6244 -0.8923 -0.6454
 1862SOL    HW117219   0.856   4.657  11.424 -0.3541 -2.3103  1.0890
 1862SOL    HW217220   0.809   4.536  11.364  2.0158  1.2240 -2.4377
 1863SOL     OW17221   2.242   1.317   9.228  0.2593 -0.4958 -0.0033
 1863SOL    HW117222   2.182   1.390   9.244  2.1382  1.0806 -0.1464
 1863SOL    HW217223   2.247   1.279   9.315 -1.2255  0.0625  0.3162
 1864SOL     OW17224   2.391   2.460   7.017 -0.3164  0.1563  0.1055
 1864SOL    HW117225   2.437   2.407   7.082 -0.5509  1.1086  1.0460
 1864SOL    HW217226   2.328   2.398   6.981  1.1104 -0.8861 -0.6152
 1865SOL     OW17227   0.452   4.059   1.652 -0.3668 -0.0997 -0.5148
 1865SOL    HW117228   0.375   4.040   1.600 -0.6030 -2.4376  0.7034
 1865SOL    HW217229   0.407   4.120   1.712 -1.9255 -1.4817 -0.2858
 1866SOL     OW17230   3.329   1.707   8.575 -0.5713  0.3416  0.5894
 1866SOL    HW117231   3.308   1.630   8.629 -1.7426 -1.2656 -2.1084
 1866SOL    HW217232   3.410   1.681   8.531  0.3869  0.8320  2.0637
 1867SOL     OW17233   1.368   4.346  17.427  0.2986 -0.5471 -0.0494
 1867SOL    HW117234   1.276   4.331  17.405 -0.2393 -0.3800  2.0760
 1867SOL    HW217235   1.364   4.428  17.476  1.7241 -0.3723 -0.2436
 1868SOL     OW17236   3.248   1.544   4.145  0.0519  1.1084 -0.4287
 1868SOL    HW117237   3.191   1.612   4.182  1.0613  2.0216 -0.5605
 1868SOL    HW217238   3.222   1.467   4.196  0.2379  2.0915  1.1563
 1869SOL     OW17239   4.090   0.543   8.945 -0.0144 -0.0603  0.1470
 1869SOL    HW117240   4.091   0.638   8.940  2.0695 -0.2733 -3.4051
 1869SOL    HW217241   4.034   0.527   8.868 -0.3012  1.4980  0.0358
 1870SOL     OW17242   0.299   2.738   5.769  0.3804 -0.5165  0.0071
 1870SOL    HW117243   0.229   2.702   5.823  1.6735 -1.0354  1.3307
 1870SOL    HW217244   0.314   2.812   5.828 -1.4674 -0.9719  1.0273
 1871SOL     OW17245   3.324   3.765   0.079  0.1938 -0.1332 -0.0883
 1871SOL    HW117246   3.307   3.674   0.055  1.0427 -0.0279 -1.0600
 1871SOL    HW217247   3.245   3.797   0.036  0.7392 -0.6879 -1.5162
 1872SOL     OW17248   0.952   2.499   4.659 -0.0773  0.4960  0.5472
 1872SOL    HW117249   0.923   2.436   4.593 -0.1595 -0.0915  1.1433
 1872SOL    HW217250   1.034   2.528   4.619 -1.1568  2.0803 -0.5265
 1873SOL     OW17251   4.000   1.031   8.869  0.0151 -0.0217 -0.3728
 1873SOL    HW117252   3.980   1.089   8.942  2.4991  0.4182 -0.0500
 1873SOL    HW217253   3.921   0.977   8.869 -1.2617  1.8205  0.0892
 1874SOL     OW17254   4.011   0.443   6.874 -0.1223 -0.0979  0.6287
 1874SOL    HW117255   4.024   0.367   6.931  2.1114 -0.6033 -0.5389
 1874SOL    HW217256   3.919   0.423   6.859  0.2318 -0.7414 -0.6757
 1875SOL     OW17257   0.493   2.218   2.487 -0.1305  0.3821  0.5117
 1875SOL    HW117258   0.517   2.284   2.552 -0.4772 -0.1043  1.1297
 1875SOL    HW217259   0.557   2.237   2.418 -1.5881 -2.3628 -1.6244
 1876SOL     OW17260   3.110   4.113   5.936  0.7670 -0.0165 -0.5748
 1876SOL    HW117261   3.031   4.156   5.967  0.7976 -0.4113  0.0532
 1876SOL    HW217262   3.145   4.074   6.016  1.6618  0.6044 -0.6756
 1877SOL     OW17263   1.285   3.914  16.726 -0.0093 -0.6470  0.2921
 1877SOL    HW117264   1.341   3.844  16.692  1.5198  1.4368 -1.5006
 1877SOL    HW217265   1.317   3.927  16.815  0.0483  0.9591  0.0365
 1878SOL     OW17266   2.677   4.278  12.015  0.1161  0.9208 -0.9834
 1878SOL    HW117267   2.669   4.286  11.919 -1.0810 -2.1289 -1.1199
 1878SOL    HW217268   2.614   4.211  12.040  1.8744 -0.3384 -0.0096
 1879SOL     OW17269   1.151   0.465  15.085  0.0895  0.3234  0.1925
 1879SOL    HW117270   1.097   0.415  15.145 -0.0782  0.6983  0.3542
 1879SOL    HW217271   1.089   0.468  15.012 -1.0972  0.1223  1.2122
 1880SOL     OW17272   3.357   3.068   4.593 -0.3783  0.5816  0.6168
 1880SOL    HW117273   3.437   3.107   4.560  0.4530 -1.1410  0.5947
 1880SOL    HW217274   3.352   2.989   4.539  2.0326  0.9744 -0.1692
 1881SOL     OW17275   1.945   1.668   3.606 -0.1968  0.5914  0.0437
 1881SOL    HW117276   1.967   1.761   3.616  1.5509  0.0784  0.9864
 1881SOL    HW217277   1.956   1.648   3.513  0.4748  0.3446  0.1702
 1882SOL     OW17278   4.065   1.580   7.744 -0.8869  0.5765 -0.7045
 1882SOL    HW117279   4.106   1.532   7.816 -1.9013 -1.6156 -1.5875
 1882SOL    HW217280   3.975   1.575   7.774 -0.6332  0.8806  0.1089
 1883SOL     OW17281   2.277   2.472   6.488 -0.2827 -0.6457 -0.0950
 1883SOL    HW117282   2.351   2.531   6.494 -0.5261 -0.2816 -0.7458
 1883SOL    HW217283   2.222   2.526   6.432  1.3774  0.9941 -0.1290
 1884SOL     OW17284   2.411   1.052   2.256  0.0265 -0.4056 -0.1765
 1884SOL    HW117285   2.385   1.069   2.346 -1.3753 -0.7005 -0.5265
 1884SOL    HW217286   2.393   1.142   2.229  4.6326  0.6522  0.1686
 1885SOL     OW17287   0.372   4.412   4.455  0.2411  0.1434 -0.3388
 1885SOL    HW117288   0.467   4.399   4.446  0.0034 -0.1086 -2.5677
 1885SOL    HW217289   0.335   4.330   4.422  0.0603 -0.1645  0.6204
 1886SOL     OW17290   0.241   0.245  11.033 -0.2207  0.1120 -0.0119
 1886SOL    HW117291   0.217   0.214  11.121 -2.8593 -0.9647 -1.1327
 1886SOL    HW217292   0.201   0.331  11.030 -0.7743 -0.0714  2.1604
 1887SOL     OW17293   4.014   0.418   2.632 -0.0926  0.0270 -0.1513
 1887SOL    HW117294   4.028   0.377   2.547  1.2387  0.6133 -0.2134
 1887SOL    HW217295   4.106   0.425   2.659  0.1327 -2.3238 -0.3438
 1888SOL     OW17296   2.628   2.362   9.830 -0.3200  0.1365  0.3873
 1888SOL    HW117297   2.589   2.448   9.815 -2.4900 -1.2664 -2.0461
 1888SOL    HW217298   2.565   2.344   9.900  1.2858 -3.1783  0.9663
 1889SOL     OW17299   2.876   3.091  11.192 -0.0552  0.4398  0.0740
 1889SOL    HW117300   2.869   3.186  11.199 -2.3674  0.2678 -0.0587
 1889SOL    HW217301   2.929   3.075  11.270 -1.5861 -2.2379  0.5573
 1890SOL     OW17302   4.197   2.714   8.800 -0.2163 -0.4445  0.0949
 1890SOL    HW117303   4.112   2.672   8.812  0.4718 -1.9284 -0.2506
 1890SOL    HW217304   4.194   2.727   8.705 -2.2878  0.8230  0.3512
 1891SOL     OW17305   2.102   3.235   2.128  0.5652  0.3033 -0.2313
 1891SOL    HW117306   2.055   3.155   2.152  3.0799 -0.3457  2.4201
 1891SOL    HW217307   2.192   3.204   2.137  0.4159  0.1470  0.7120
 1892SOL     OW17308   1.032   0.869   8.392 -0.0836 -0.0359 -0.1989
 1892SOL    HW117309   0.992   0.937   8.446 -1.2576 -0.9053  0.0414
 1892SOL    HW217310   1.034   0.793   8.450  0.9449 -0.3574 -0.6678
 1893SOL     OW17311   2.401   1.626   8.528  0.0530  0.0319  0.3322
 1893SOL    HW117312   2.401   1.676   8.609  1.6485  0.1914  0.2361
 1893SOL    HW217313   2.349   1.688   8.477 -0.2647  0.1766  0.8400
 1894SOL     OW17314   3.311   1.021   0.135  0.0874 -0.3506  0.1794
 1894SOL    HW117315   3.218   1.038   0.122  0.4345  1.8595  0.6306
 1894SOL    HW217316   3.346   1.062   0.055 -0.3864  0.1915  0.2526
 1895SOL     OW17317   1.708   4.218  15.400 -0.1593 -0.0167  0.6669
 1895SOL    HW117318   1.767   4.152  15.437 -1.3408 -1.2391  0.3826
 1895SOL    HW217319   1.628   4.208  15.452 -1.1870  2.4384 -0.4245
 1896SOL     OW17320   0.507   0.190   7.184  0.4438  0.2561 -0.6983
 1896SOL    HW117321   0.599   0.187   7.211  1.1301 -2.4863 -3.3386
 1896SOL    HW217322   0.489   0.106   7.142 -2.3882 -0.0870  1.1487
 1897SOL     OW17323   3.114   2.681   5.659  0.3597  0.1524  0.3129
 1897SOL    HW117324   3.088   2.750   5.719 -1.0279 -0.3224  0.2620
 1897SOL    HW217325   3.196   2.642   5.690  0.4897 -0.6228 -0.9869
 1898SOL     OW17326   0.342   0.416   2.451  0.2735  0.3828 -0.1484
 1898SOL    HW117327   0.273   0.482   2.446  0.2707  0.3381 -0.6792
 1898SOL    HW217328   0.296   0.350   2.501 -2.1886  0.6565 -2.0607
 1899SOL     OW17329   0.608   0.636   6.970  0.0534  0.2540 -0.2239
 1899SOL    HW117330   0.530   0.667   7.017 -0.4380 -3.0438  1.1650
 1899SOL    HW217331   0.673   0.681   7.024 -0.0205 -1.9958  1.7563
 1900SOL     OW17332   3.910   2.991   3.450 -0.1733  0.0099  0.1921
 1900SOL    HW117333   3.830   2.964   3.496 -1.3763  2.0466 -0.6717
 1900SOL    HW217334   3.934   2.912   3.402 -1.6672 -1.2966  1.5793
 1901SOL     OW17335   0.284   3.726   9.757  0.0897 -0.1908 -0.1368
 1901SOL    HW117336   0.279   3.647   9.811  1.6275 -0.3622 -0.2410
 1901SOL    HW217337   0.204   3.731   9.703 -0.8727 -1.9861  1.1094
 1902SOL     OW17338   1.150   1.032  11.072 -0.5535  0.3385  0.2562
 1902SOL    HW117339   1.180   0.979  10.999 -0.9566 -1.7255  1.5859
 1902SOL    HW217340   1.072   0.986  11.105  0.8714 -1.5907  0.9227
 1903SOL     OW17341   0.376   3.814  12.607  0.2009 -0.1216  0.6263
 1903SOL    HW117342   0.391   3.907  12.591 -0.4184 -0.0289  0.5484
 1903SOL    HW217343   0.328   3.782  12.530  0.8620  0.6166 -0.0931
 1904SOL     OW17344   0.353   3.168   1.964  0.1005 -0.3368 -0.1310
 1904SOL    HW117345   0.425   3.231   1.963  1.9186 -2.4058 -1.5349
 1904SOL    HW217346   0.295   3.231   2.006  1.9407 -0.1881  2.1541
 1905SOL     OW17347   3.677   3.115   9.250 -0.4960 -0.0817  0.2555
 1905SOL    HW117348   3.590   3.118   9.290 -0.9345 -2.6803 -0.5531
 1905SOL    HW217349   3.685   3.025   9.220  1.1229 -0.4231  1.7179
 1906SOL     OW17350   3.867   1.967   2.885 -0.6269 -0.3105  0.0570
 1906SOL    HW117351   3.921   2.038   2.851  0.0822 -1.0423 -0.3179
 1906SOL    HW217352   3.892   1.907   2.814  0.7216  1.8739 -1.2999
 1907SOL     OW17353   4.015   1.616   1.237  0.0164  0.5876  0.1401
 1907SOL    HW117354   3.926   1.582   1.224 -0.1159  1.3968 -1.1648
 1907SOL    HW217355   4.014   1.708   1.209 -0.5493  0.1317 -1.3470
 1908SOL     OW17356   1.441   2.558   7.578  0.3702 -0.0055 -0.5418
 1908SOL    HW117357   1.383   2.483   7.563  1.1755 -0.0880 -3.2314
 1908SOL    HW217358   1.519   2.532   7.529  0.6787 -1.4740  0.7419
 1909SOL     OW17359   0.003   1.815   3.937  0.3944  0.5256  0.4677
 1909SOL    HW117360   4.662   1.862   3.944 -0.0487 -0.2199  0.2191
 1909SOL    HW217361   0.074   1.878   3.945  1.2466 -0.6075  1.8046
 1910SOL     OW17362   2.457   0.614  10.986  1.0701 -0.0568  0.1192
 1910SOL    HW117363   2.434   0.700  10.953 -1.2487 -0.3438  0.9340
 1910SOL    HW217364   2.375   0.575  11.019  0.2362 -1.0072 -3.1051
 1911SOL     OW17365   2.224   2.089   5.004  0.5647 -0.0043 -0.1249
 1911SOL    HW117366   2.218   2.116   4.913  1.9353  0.4583 -0.0852
 1911SOL    HW217367   2.249   2.175   5.039  0.0388  0.5365 -1.0746
 1912SOL     OW17368   4.233   3.635   3.262  0.1728  0.3251  0.1221
 1912SOL    HW117369   4.217   3.544   3.286  1.2693  0.1881  0.3721
 1912SOL    HW217370   4.230   3.641   3.167  2.7512  0.9284  0.0696
 1913SOL     OW17371   2.773   4.334   5.122 -0.1422  0.1224  0.1160
 1913SOL    HW117372   2.762   4.428   5.107  2.7225  0.4604  0.0323
 1913SOL    HW217373   2.849   4.308   5.069  1.5237  0.0767  2.5309
 1914SOL     OW17374   0.388   3.537  11.962 -0.0551  0.1815 -0.0074
 1914SOL    HW117375   0.474   3.518  11.924 -0.6354 -0.6289 -0.8895
 1914SOL    HW217376   0.341   3.578  11.890 -1.8174 -0.6512  0.6610
 1915SOL     OW17377   1.594   2.707   2.321  0.3331  0.6031  0.4915
 1915SOL    HW117378   1.598   2.743   2.410  0.0546 -0.2288  0.8418
 1915SOL    HW217379   1.663   2.641   2.322  2.1008  2.4549  2.5433
 1916SOL     OW17380   2.527   4.569   6.635 -0.5943  0.2086  0.2369
 1916SOL    HW117381   2.622   4.579   6.640 -0.3354 -1.8329 -0.5225
 1916SOL    HW217382   2.510   4.514   6.711  2.3452 -0.0294  0.7062
 1917SOL     OW17383   2.536   3.878   4.564  0.2169 -0.5999  0.0194
 1917SOL    HW117384   2.629   3.889   4.580  0.0017  0.7377  0.2880
 1917SOL    HW217385   2.501   3.963   4.588 -0.0272 -0.9371  0.8651
 1918SOL     OW17386   0.615   0.172   2.568 -0.8680 -0.3917  0.1803
 1918SOL    HW117387   0.626   0.090   2.616 -1.3963 -1.0953 -0.9090
 1918SOL    HW217388   0.531   0.207   2.597  0.3693  1.9181  0.9197
 1919SOL     OW17389   2.759   2.883   5.926  0.7481  0.4989  0.2011
 1919SOL    HW117390   2.708   2.963   5.939 -0.1534  0.4559 -3.1964
 1919SOL    HW217391   2.720   2.814   5.979 -2.5286  1.3396 -1.1465
 1920SOL     OW17392   3.019   2.628   5.408 -0.2758  0.1329  0.3764
 1920SOL    HW117393   3.056   2.692   5.347 -0.0617 -0.7129 -0.3808
 1920SOL    HW217394   3.065   2.649   5.490  0.3227 -1.1910  0.3823
 1921SOL     OW17395   3.154   2.782   6.297 -0.3791 -0.2126  0.3512
 1921SOL    HW117396   3.242   2.811   6.322  0.0966 -0.0644 -1.5387
 1921SOL    HW217397   3.123   2.854   6.243  0.3417  0.5704  0.9869
 1922SOL     OW17398   3.572   4.219  17.562  0.8497  0.0885 -0.2384
 1922SOL    HW117399   3.551   4.241  17.652  0.1757 -0.8539 -0.1692
 1922SOL    HW217400   3.491   4.183  17.525 -0.0378  1.2324  0.6257
 1923SOL     OW17401   0.261   0.726   5.327 -0.1354  0.2298  0.0210
 1923SOL    HW117402   0.211   0.670   5.267 -0.6892  2.1146 -1.2844
 1923SOL    HW217403   0.217   0.808   5.308  2.1525  1.3020 -0.5310
 1924SOL     OW17404   3.126   0.085   8.653  0.1457 -0.4775 -0.0688
 1924SOL    HW117405   3.077   0.084   8.570  1.9533  0.8442 -1.1380
 1924SOL    HW217406   3.206   0.128   8.623  0.3070 -1.0620 -0.4761
 1925SOL     OW17407   3.973   4.200   9.921  0.5613  0.1545 -0.3997
 1925SOL    HW117408   3.882   4.218   9.897  0.4603  0.9773  0.5977
 1925SOL    HW217409   3.989   4.106   9.929  0.7768  0.1294 -1.1004
 1926SOL     OW17410   0.214   0.660   0.163 -0.3960 -0.0784  0.0198
 1926SOL    HW117411   0.254   0.576   0.145 -0.3104 -0.5035  2.1067
 1926SOL    HW217412   0.182   0.683   0.076  0.6324  1.3259  0.0120
 1927SOL     OW17413   0.147   2.512   7.731 -0.1332 -1.0677  0.3944
 1927SOL    HW117414   0.222   2.511   7.790  0.6043  0.3673 -0.5166
 1927SOL    HW217415   0.094   2.575   7.780  0.6929  0.3078 -0.4761
 1928SOL     OW17416   4.144   4.091   7.498 -0.2362 -0.3451 -0.6008
 1928SOL    HW117417   4.222   4.105   7.551  0.9809  1.2061 -2.7621
 1928SOL    HW217418   4.131   4.183   7.474 -1.3470 -0.2424  0.4306
 1929SOL     OW17419   0.262   4.317   5.543 -0.3616 -0.2909  0.5694
 1929SOL    HW117420   0.228   4.264   5.616 -0.5126  0.3648  0.9728
 1929SOL    HW217421   0.302   4.393   5.586 -0.6971  0.4910 -0.5244
 1930SOL     OW17422   3.856   3.787  12.115 -0.0519  0.5478  0.3238
 1930SOL    HW117423   3.806   3.767  12.194  2.2497  2.5421  2.2838
 1930SOL    HW217424   3.916   3.850  12.153 -0.4287  1.8164 -1.1840
 1931SOL     OW17425   0.186   1.384   4.548 -0.4384 -0.1005 -0.0459
 1931SOL    HW117426   0.207   1.300   4.506  1.4374 -0.5056  1.6870
 1931SOL    HW217427   0.127   1.356   4.619 -1.8375 -1.9665 -1.9611
 1932SOL     OW17428   2.499   3.567   9.112  0.3188  0.0539 -0.0101
 1932SOL    HW117429   2.441   3.631   9.153  0.4788 -0.6919  1.3746
 1932SOL    HW217430   2.586   3.602   9.095  0.3034 -0.6074 -1.4577
 1933SOL     OW17431   0.416   0.238   7.897  0.4022 -0.7941 -0.5019
 1933SOL    HW117432   0.507   0.240   7.927  0.2544  1.9599 -0.2706
 1933SOL    HW217433   0.418   0.157   7.845  1.6107 -1.4348  0.5595
 1934SOL     OW17434   1.809   1.539   4.973  0.0876  0.4041  0.4354
 1934SOL    HW117435   1.746   1.551   5.043  1.3589  1.8707  1.3225
 1934SOL    HW217436   1.818   1.631   4.945  0.7243 -0.0693 -0.9307
 1935SOL     OW17437   0.986   1.221   5.098  0.0569  0.1998  0.2261
 1935SOL    HW117438   0.957   1.206   5.008  0.2515  0.5460  0.1027
 1935SOL    HW217439   1.037   1.300   5.077 -0.7210  0.2805 -1.3554
 1936SOL     OW17440   0.056   4.082   7.555 -0.4212  0.6524  0.0242
 1936SOL    HW117441   0.043   4.025   7.631 -0.1222 -1.8959 -1.8399
 1936SOL    HW217442   0.126   4.140   7.585 -1.7771  3.5665 -2.4407
 1937SOL     OW17443   4.701   2.191   3.291 -0.0878  0.3427  0.5819
 1937SOL    HW117444   4.651   2.231   3.363 -0.3021 -1.9267  1.7212
 1937SOL    HW217445   4.710   2.267   3.234 -4.0794 -1.1833 -2.1087
 1938SOL     OW17446   0.632   3.082   8.001  0.5359 -0.6240  0.4328
 1938SOL    HW117447   0.718   3.040   7.998  0.8163  0.0923 -1.6881
 1938SOL    HW217448   0.662   3.171   8.017  1.2270 -0.5739 -1.1261
 1939SOL     OW17449   3.077   3.182   4.314 -0.1258  0.5726 -0.1476
 1939SOL    HW117450   3.065   3.217   4.226 -0.7268 -0.1671 -0.3535
 1939SOL    HW217451   3.131   3.248   4.358 -0.7220 -0.4768  2.1546
 1940SOL     OW17452   3.316   3.657   7.136 -0.1817  0.3507  0.4440
 1940SOL    HW117453   3.239   3.601   7.136 -0.1263  0.2553  2.4906
 1940SOL    HW217454   3.381   3.609   7.187  1.7100  0.0148 -2.2697
 1941SOL     OW17455   2.268   3.977  14.820  0.0192 -0.2686  0.1835
 1941SOL    HW117456   2.209   3.998  14.747  0.7726  1.4727  0.0702
 1941SOL    HW217457   2.315   4.061  14.819  0.2678 -0.4218 -0.4737
 1942SOL     OW17458   3.873   4.547   7.528  0.4623 -0.0029  1.0226
 1942SOL    HW117459   3.811   4.587   7.467  1.3508  0.6327  0.5190
 1942SOL    HW217460   3.874   4.606   7.604  1.7009 -0.4249  1.3332
 1943SOL     OW17461   1.703   1.462  12.090  0.6424  0.3838 -0.4577
 1943SOL    HW117462   1.733   1.420  12.009 -2.6539 -1.5898 -0.6360
 1943SOL    HW217463   1.786   1.456  12.138  0.9155  0.1459 -0.9662
 1944SOL     OW17464   2.952   1.031   9.642  0.1671  0.0183 -1.0189
 1944SOL    HW117465   2.956   1.110   9.696 -2.1513  1.2526 -2.6751
 1944SOL    HW217466   3.029   1.035   9.585 -0.2477 -1.3170 -1.6695
 1945SOL     OW17467   3.447   1.337   8.034 -0.3307  0.0605 -0.5722
 1945SOL    HW117468   3.423   1.348   8.126 -1.3384 -0.7226 -0.7414
 1945SOL    HW217469   3.502   1.259   8.028 -1.9007 -1.0194 -0.8658
 1946SOL     OW17470   4.565   1.902   0.212  0.0917  0.1256 -0.1779
 1946SOL    HW117471   4.657   1.927   0.206  0.5742 -1.5616  0.2401
 1946SOL    HW217472   4.527   1.978   0.166 -1.3740 -0.0393  0.7633
 1947SOL     OW17473   3.454   0.639   6.940  0.5293  0.4405 -0.3368
 1947SOL    HW117474   3.445   0.703   6.870 -0.4133 -0.7114 -1.2615
 1947SOL    HW217475   3.468   0.554   6.899  0.1740  0.2675 -0.1006
 1948SOL     OW17476   4.145   3.573  11.966 -0.1892  0.1103  0.2640
 1948SOL    HW117477   4.215   3.592  12.028  1.4190 -0.6689 -1.3010
 1948SOL    HW217478   4.074   3.619  12.010 -0.8792 -0.8252  0.1350
 1949SOL     OW17479   3.637   0.509   3.002  0.1784  0.1840  0.6572
 1949SOL    HW117480   3.714   0.477   2.955 -0.9723 -0.8407 -0.5460
 1949SOL    HW217481   3.582   0.432   3.010  1.2589 -0.5790  0.6676
 1950SOL     OW17482   1.055   4.530  14.863  0.7504 -0.0981 -0.6614
 1950SOL    HW117483   1.099   4.446  14.856 -0.6799 -0.9487  0.4362
 1950SOL    HW217484   1.122   4.596  14.850  1.5563 -1.0694 -1.4820
 1951SOL     OW17485   3.106   0.401   8.875 -0.2604 -0.5112  0.5459
 1951SOL    HW117486   3.188   0.434   8.838 -0.5577 -1.7043 -1.1980
 1951SOL    HW217487   3.110   0.450   8.957  0.8161 -0.6386  0.5742
 1952SOL     OW17488   4.290   3.778   0.461 -0.0772 -0.6480 -0.2044
 1952SOL    HW117489   4.233   3.826   0.523  1.4675  0.2182  0.5479
 1952SOL    HW217490   4.259   3.688   0.469  0.7129 -0.8333  0.8072
 1953SOL     OW17491   1.182   1.101  11.892 -0.2470  0.7222 -0.0856
 1953SOL    HW117492   1.105   1.049  11.915 -0.2594  1.1234  0.7483
 1953SOL    HW217493   1.222   1.030  11.841  1.0835  0.6708  1.0371
 1954SOL     OW17494   4.010   1.579   4.361  0.2036 -0.3500 -0.0352
 1954SOL    HW117495   4.032   1.663   4.320  0.5988 -0.3844  0.1075
 1954SOL    HW217496   4.085   1.560   4.417 -0.1058  1.6755  1.0822
 1955SOL     OW17497   4.376   4.254   7.334 -0.0931 -0.2377  0.2839
 1955SOL    HW117498   4.387   4.320   7.266  1.7009 -0.3531  0.4581
 1955SOL    HW217499   4.386   4.168   7.294 -2.8855 -1.3919  2.0284
 1956SOL     OW17500   0.235   3.583   2.626 -0.1739 -0.5517  0.2759
 1956SOL    HW117501   0.290   3.590   2.548 -0.2133  0.8911  0.3708
 1956SOL    HW217502   0.185   3.504   2.603 -0.7455 -0.7817  2.3124
 1957SOL     OW17503   2.356   3.779   6.675 -0.1805 -0.2526 -0.8409
 1957SOL    HW117504   2.341   3.828   6.594 -2.5484  0.7359  0.1772
 1957SOL    HW217505   2.264   3.762   6.696 -0.1131  0.9392  0.4042
 1958SOL     OW17506   1.401   1.721  17.092  0.0585  0.3757  0.3271
 1958SOL    HW117507   1.331   1.741  17.154 -0.0479  0.5902  0.1331
 1958SOL    HW217508   1.374   1.652  17.031 -0.4385 -0.6924  1.7489
 1959SOL     OW17509   1.334   4.575   6.197 -0.2016  0.1400  0.0388
 1959SOL    HW117510   1.423   4.558   6.166 -0.2053 -1.6114  1.0325
 1959SOL    HW217511   1.311   4.645   6.135 -1.8764 -0.0752  0.4384
 1960SOL     OW17512   3.222   3.518  12.481  0.4665 -0.7279 -0.2329
 1960SOL    HW117513   3.147   3.490  12.429 -0.4662 -1.2361  1.3748
 1960SOL    HW217514   3.285   3.456  12.445  0.7677 -0.4373 -0.1974
 1961SOL     OW17515   0.316   1.228   1.859 -0.2979  0.2200 -0.1574
 1961SOL    HW117516   0.409   1.240   1.840 -0.1564  1.3327  1.2744
 1961SOL    HW217517   0.318   1.150   1.915  0.1146 -0.2010 -0.7602
 1962SOL     OW17518   2.437   2.431  15.342  0.1190  0.3460  0.3519
 1962SOL    HW117519   2.516   2.457  15.296  0.0356 -0.7169 -0.4077
 1962SOL    HW217520   2.378   2.443  15.267  0.2382  1.5190  0.4501
 1963SOL     OW17521   3.229   0.151   3.276 -0.1141 -0.0804 -0.9954
 1963SOL    HW117522   3.187   0.211   3.337 -1.1219 -0.3956 -1.3777
 1963SOL    HW217523   3.320   0.178   3.287 -0.4550  0.0923  1.2497
 1964SOL     OW17524   3.728   1.425   0.392  0.2129  0.2876 -0.0298
 1964SOL    HW117525   3.795   1.374   0.438  0.0831  1.4187  1.4211
 1964SOL    HW217526   3.782   1.452   0.318 -1.7580  1.2377 -1.0979
 1965SOL     OW17527   4.225   4.685   8.178 -0.1882  0.5136 -0.0841
 1965SOL    HW117528   4.298   4.703   8.119 -2.5429  0.8012 -2.8794
 1965SOL    HW217529   4.156   4.716   8.119 -0.6539  1.3750  0.9157
 1966SOL     OW17530   1.547   4.185   1.271  0.0076 -0.3516 -0.7974
 1966SOL    HW117531   1.471   4.188   1.212  0.0111  0.9106 -0.7239
 1966SOL    HW217532   1.505   4.174   1.356  0.3449  0.3646 -0.5393
 1967SOL     OW17533   1.496   0.258  13.623  0.4739  0.2517  0.1553
 1967SOL    HW117534   1.587   0.240  13.647  0.8319  2.0642  0.1400
 1967SOL    HW217535   1.503   0.212  13.539  0.4388  1.3532 -0.4423
 1968SOL     OW17536   2.931   4.569   2.665  0.1954 -0.6495 -0.3689
 1968SOL    HW117537   2.970   4.632   2.604  0.8157 -2.0065 -1.3746
 1968SOL    HW217538   2.987   4.572   2.742 -2.7386 -0.1266  1.7438
 1969SOL     OW17539   3.660   4.096  12.139 -0.4528  0.6415  0.5241
 1969SOL    HW117540   3.730   4.072  12.200  0.3517  0.6937 -0.3872
 1969SOL    HW217541   3.631   4.178  12.179 -2.6543 -0.3439  0.9606
 1970SOL     OW17542   4.011   2.900   9.787  0.2685 -0.4780  0.5799
 1970SOL    HW117543   4.099   2.924   9.814  0.1886  1.6727 -1.0584
 1970SOL    HW217544   3.963   2.981   9.804  2.8179  0.8853  1.1862
 1971SOL     OW17545   3.741   0.299   7.721  0.0719 -0.0197  0.8118
 1971SOL    HW117546   3.713   0.384   7.754 -0.6639 -0.3376  0.9990
 1971SOL    HW217547   3.726   0.314   7.628  2.9253  2.1567  0.6744
 1972SOL     OW17548   3.380   0.349   2.509  0.6869 -0.0285  0.0925
 1972SOL    HW117549   3.444   0.305   2.453 -2.2680  0.2461 -3.4232
 1972SOL    HW217550   3.297   0.306   2.493  0.7782 -0.0627 -0.2877
 1973SOL     OW17551   2.518   4.047   3.848 -0.1615  0.1968  0.2596
 1973SOL    HW117552   2.588   4.046   3.913  0.1728  0.9097 -0.0916
 1973SOL    HW217553   2.489   4.138   3.854  1.6296  0.8174 -0.4750
 1974SOL     OW17554   4.385   3.079   3.998  0.1992  0.1502  0.8917
 1974SOL    HW117555   4.429   3.111   3.919 -3.4065  0.2249 -1.1352
 1974SOL    HW217556   4.375   3.158   4.050 -3.5636  0.5462 -0.3787
 1975SOL     OW17557   0.565   3.032   1.495 -0.2326  0.3338  0.6598
 1975SOL    HW117558   0.507   3.008   1.422  1.7745 -1.7594 -0.2383
 1975SOL    HW217559   0.501   3.071   1.556 -2.5490 -0.9574 -0.9570
 1976SOL     OW17560   1.588   1.769   3.628  0.0967 -0.1607  0.1788
 1976SOL    HW117561   1.528   1.842   3.642  0.7296  0.7597 -1.9594
 1976SOL    HW217562   1.627   1.768   3.715 -0.7407 -0.3900  0.5599
 1977SOL     OW17563   3.852   2.276  15.276 -0.0202  0.0895  0.0523
 1977SOL    HW117564   3.878   2.201  15.222 -1.3443 -0.3018 -0.0356
 1977SOL    HW217565   3.820   2.334  15.207 -1.8978 -2.0886 -0.8936
 1978SOL     OW17566   4.692   1.907   1.420 -0.1719  0.1656 -0.3563
 1978SOL    HW117567   4.656   1.819   1.427  1.9011 -0.5491  1.1161
 1978SOL    HW217568   0.042   1.894   1.442 -0.5767  2.8785  3.1653
 1979SOL     OW17569   1.187   3.945   0.463 -0.5007 -0.3244 -0.2287
 1979SOL    HW117570   1.125   3.906   0.524 -1.0956  0.1171 -0.5481
 1979SOL    HW217571   1.126   4.002   0.417  1.3636  3.9484  2.5462
 1980SOL     OW17572   0.811   1.217  11.889 -0.1825 -0.1675  0.1859
 1980SOL    HW117573   0.889   1.163  11.876 -0.7631 -0.6235 -1.3724
 1980SOL    HW217574   0.755   1.162  11.835  0.7571 -1.1324  0.1833
 1981SOL     OW17575   1.753   4.721   6.019 -0.3900  0.0856 -0.4250
 1981SOL    HW117576   1.699   0.058   6.022 -2.0219 -0.9382 -2.3112
 1981SOL    HW217577   1.781   4.713   5.927 -0.6952  1.6184 -0.6429
 1982SOL     OW17578   1.784   3.931  16.929 -0.4862  1.1862  0.3213
 1982SOL    HW117579   1.815   3.891  17.010  0.9667 -0.5657 -1.0928
 1982SOL    HW217580   1.735   4.007  16.961 -3.3902 -0.8516  0.6881
 1983SOL     OW17581   1.197   2.343   4.729 -0.1474  0.0959  0.2773
 1983SOL    HW117582   1.130   2.280   4.703  1.0511 -1.0505 -0.0194
 1983SOL    HW217583   1.225   2.392   4.652 -1.5508 -2.5399 -1.9165
 1984SOL     OW17584   0.560   3.619   7.453 -0.0719  0.4593 -0.1829
 1984SOL    HW117585   0.573   3.648   7.544  0.9281  0.0768 -0.2052
 1984SOL    HW217586   0.521   3.699   7.417  0.6892  1.2892  0.8461
 1985SOL     OW17587   0.775   3.402   6.789  0.0581  0.7619  0.2222
 1985SOL    HW117588   0.788   3.487   6.748 -1.8471  1.5856  1.3601
 1985SOL    HW217589   0.761   3.429   6.880 -0.6512 -2.1166  0.9904
 1986SOL     OW17590   2.506   0.979   1.769  0.3856 -0.2143  0.2978
 1986SOL    HW117591   2.597   1.001   1.788  0.4801 -1.1562  0.9293
 1986SOL    HW217592   2.473   0.970   1.858 -1.8072 -2.5692 -0.7496
 1987SOL     OW17593   4.403   4.144   7.940  0.4640  0.0028 -0.0163
 1987SOL    HW117594   4.424   4.082   8.011  2.7336 -1.6890 -2.1702
 1987SOL    HW217595   4.328   4.182   7.986  0.8896  0.0478  0.6420
 1988SOL     OW17596   1.104   0.448   3.346 -0.4698 -0.2668 -0.3432
 1988SOL    HW117597   1.181   0.409   3.389 -0.7542 -0.1864  0.2315
 1988SOL    HW217598   1.107   0.531   3.394  0.1947  0.0852 -0.9719
 1989SOL     OW17599   3.794   1.558  13.006  0.4168 -0.5813 -0.3566
 1989SOL    HW117600   3.868   1.615  13.030  0.3334 -1.3264  1.6897
 1989SOL    HW217601   3.795   1.549  12.911 -0.0873  1.2308 -0.5370
 1990SOL     OW17602   1.820   3.001  10.963 -0.3802  0.1452  0.1540
 1990SOL    HW117603   1.890   3.051  11.005 -0.4037  1.1460 -0.9895
 1990SOL    HW217604   1.794   2.950  11.039 -2.1478  3.1715  1.5738
 1991SOL     OW17605   1.588   2.120   6.990  0.2191  0.7686 -0.2769
 1991SOL    HW117606   1.511   2.149   6.941 -1.0731 -1.3701  0.5009
 1991SOL    HW217607   1.620   2.047   6.937  2.5059 -0.1150  2.3336
 1992SOL     OW17608   0.254   1.263   3.563 -0.6138  0.1486  0.4802
 1992SOL    HW117609   0.312   1.218   3.624  1.5513 -0.4218 -2.0343
 1992SOL    HW217610   0.193   1.300   3.627 -0.7666  0.8242 -0.0630
 1993SOL     OW17611   1.741   2.994   4.681  0.0286 -0.5559 -0.0489
 1993SOL    HW117612   1.686   2.925   4.643 -0.3089 -1.5487  2.2252
 1993SOL    HW217613   1.747   3.061   4.613  1.6513 -1.8381 -1.1543
 1994SOL     OW17614   3.513   1.780   2.034 -0.3069 -1.0520  0.6196
 1994SOL    HW117615   3.544   1.690   2.025 -0.0081 -1.0101  1.2489
 1994SOL    HW217616   3.451   1.776   2.106  0.2447  0.0276  1.1508
 1995SOL     OW17617   2.518   1.903   9.098 -0.5173 -0.0527 -0.2116
 1995SOL    HW117618   2.569   1.889   9.178 -1.0408  0.8751  0.2908
 1995SOL    HW217619   2.455   1.831   9.112 -0.7075 -0.1607 -1.6702
 1996SOL     OW17620   0.064   3.849  13.847 -0.1162  0.3526 -0.1937
 1996SOL    HW117621   0.102   3.781  13.791 -1.3140  0.2292 -0.8421
 1996SOL    HW217622   0.131   3.855  13.915 -1.5897  1.5528  1.1318
 1997SOL     OW17623   1.434   4.282  15.238 -0.4674  0.2643 -0.3236
 1997SOL    HW117624   1.405   4.351  15.299 -0.1222 -1.3854  1.7283
 1997SOL    HW217625   1.523   4.269  15.269 -0.8462  1.3332  1.2689
 1998SOL     OW17626   1.583   0.044   1.974 -0.0438 -0.9398 -0.3917
 1998SOL    HW117627   1.507   4.733   1.997 -0.1575 -1.0119 -0.9346
 1998SOL    HW217628   1.647   4.717   1.954 -0.1749 -1.0518 -0.4271
 1999SOL     OW17629   4.403   4.271   6.098 -0.5578  0.0187 -0.1750
 1999SOL    HW117630   4.436   4.323   6.024 -3.4374  1.4388 -0.4511
 1999SOL    HW217631   4.351   4.203   6.056 -0.3634 -0.5714  0.5302
 2000SOL     OW17632   1.439   2.231   4.701  0.1446  0.4809 -0.1498
 2000SOL    HW117633   1.350   2.258   4.722 -0.1385 -0.1099 -0.6172
 2000SOL    HW217634   1.485   2.227   4.785 -0.1380 -0.0771 -0.0264
 2001SOL     OW17635   1.618   1.307   9.673 -0.0012  0.7186 -0.0771
 2001SOL    HW117636   1.593   1.254   9.597  1.8545 -3.8291  2.4775
 2001SOL    HW217637   1.542   1.298   9.730  0.1397 -1.0192 -0.1599
 2002SOL     OW17638   3.836   0.487   5.840  0.0487 -0.2940 -0.3849
 2002SOL    HW117639   3.757   0.505   5.890 -0.1443 -0.8434 -0.4890
 2002SOL    HW217640   3.834   0.561   5.780  0.7346 -0.6303 -0.8308
 2003SOL     OW17641   2.108   4.430   8.528  0.2951 -0.9901 -0.0322
 2003SOL    HW117642   2.065   4.514   8.546 -1.6793 -1.5317 -2.2399
 2003SOL    HW217643   2.120   4.396   8.617  1.1999  2.4134  1.1614
 2004SOL     OW17644   0.764   0.194   7.281 -0.2300 -0.9611 -0.4593
 2004SOL    HW117645   0.813   0.174   7.361 -1.0665  1.5507  0.6867
 2004SOL    HW217646   0.807   0.271   7.244 -3.0067  0.8670  0.1187
 2005SOL     OW17647   2.884   3.645  14.961 -0.0115 -0.2552  0.4483
 2005SOL    HW117648   2.865   3.640  15.054  0.4038  2.3792  0.6673
 2005SOL    HW217649   2.945   3.719  14.960 -3.1266  2.3050 -1.0052
 2006SOL     OW17650   3.795   3.320   9.101  0.2985  0.4892 -0.0786
 2006SOL    HW117651   3.758   3.285   9.181  0.6874 -0.6213 -0.3769
 2006SOL    HW217652   3.736   3.276   9.040  1.4788 -2.0552  0.6384
 2007SOL     OW17653   0.006   4.369   2.443 -0.2713 -0.5584  0.4661
 2007SOL    HW117654   4.699   4.427   2.501 -1.0257 -1.9138  1.1880
 2007SOL    HW217655   4.720   4.285   2.480 -3.7513  0.4053  0.0081
 2008SOL     OW17656   0.779   3.968   6.321  0.6747 -0.4584  0.1886
 2008SOL    HW117657   0.794   3.875   6.341  0.6826 -0.5381 -0.1825
 2008SOL    HW217658   0.795   3.964   6.226  1.6748  0.3425  0.3235
 2009SOL     OW17659   0.957   3.931   3.578 -0.2564 -0.3287 -0.2395
 2009SOL    HW117660   0.919   4.014   3.550 -3.5605 -1.6484  0.3767
 2009SOL    HW217661   1.029   3.956   3.636 -0.5392  0.3877 -0.2001
 2010SOL     OW17662   0.130   3.246   8.240  0.4996 -0.4609  0.8329
 2010SOL    HW117663   0.181   3.299   8.301  1.1193 -1.2851  1.0229
 2010SOL    HW217664   0.054   3.305   8.241  0.8848  0.0589 -1.6595
 2011SOL     OW17665   0.603   1.000   4.033 -0.2109 -0.4274 -0.0452
 2011SOL    HW117666   0.608   0.981   4.127  3.3987  1.2773  0.1167
 2011SOL    HW217667   0.550   0.926   4.006 -4.3931  2.1915  0.9486
 2012SOL     OW17668   1.147   1.511   7.444  0.3472 -0.3268 -0.3780
 2012SOL    HW117669   1.113   1.468   7.523  0.0065  1.5688  0.5207
 2012SOL    HW217670   1.228   1.462   7.428  0.1353  0.1542 -2.8406
 2013SOL     OW17671   1.863   0.902   5.920 -0.8258  0.3579  0.2271
 2013SOL    HW117672   1.907   0.974   5.966 -3.0207  1.9585 -0.1615
 2013SOL    HW217673   1.826   0.957   5.851  0.7843  2.3758  0.9732
 2014SOL     OW17674   1.886   4.400  15.310 -0.3018 -0.1337  0.1979
 2014SOL    HW117675   1.924   4.328  15.261  1.2275 -0.5750  1.9997
 2014SOL    HW217676   1.812   4.349  15.342 -0.6305 -0.8233 -1.6961
 2015SOL     OW17677   1.278   2.355   2.865  0.0343 -0.1830 -0.7704
 2015SOL    HW117678   1.261   2.419   2.797 -2.0372 -0.9318 -0.9780
 2015SOL    HW217679   1.351   2.302   2.833  1.4755  0.9177  0.7181
 2016SOL     OW17680   4.180   1.029   5.524 -0.2019 -0.3769  0.0322
 2016SOL    HW117681   4.122   0.953   5.535  1.0625 -0.7652  4.0774
 2016SOL    HW217682   4.153   1.075   5.603  1.6804  2.1326 -0.7840
 2017SOL     OW17683   4.537   2.612   9.224 -0.3059  0.3660  0.1222
 2017SOL    HW117684   4.614   2.589   9.277 -1.7184  3.3177  3.4233
 2017SOL    HW217685   4.581   2.664   9.157 -1.6905  1.5940  0.1896
 2018SOL     OW17686   2.311   4.016   9.766  0.1307 -0.7515 -0.3814
 2018SOL    HW117687   2.257   4.081   9.722  0.2284 -0.6337 -0.3280
 2018SOL    HW217688   2.307   4.047   9.857  1.4793 -0.6416 -0.3480
 2019SOL     OW17689   3.979   0.189  14.678  0.1695  0.4003 -0.2671
 2019SOL    HW117690   4.033   0.113  14.657 -1.4320 -1.0186  0.7726
 2019SOL    HW217691   3.914   0.171  14.609 -0.0960  1.5872 -0.3257
 2020SOL     OW17692   0.354   4.665   8.522 -0.5331 -0.2458 -0.3347
 2020SOL    HW117693   0.269   4.700   8.547 -0.8233 -0.5584 -0.8801
 2020SOL    HW217694   0.361   4.698   8.432  0.6874 -2.2214 -0.9720
 2021SOL     OW17695   1.126   4.118  11.241  0.0434 -0.3861  0.0732
 2021SOL    HW117696   1.046   4.066  11.242  0.3969 -0.9547 -1.7158
 2021SOL    HW217697   1.157   4.132  11.151 -1.0365 -0.8805 -0.3803
 2022SOL     OW17698   0.993   4.527   8.930 -0.1027  0.1702  0.2165
 2022SOL    HW117699   0.903   4.504   8.906  0.4689  0.1671 -1.9337
 2022SOL    HW217700   1.005   4.484   9.015 -0.2346  1.6025  0.9527
 2023SOL     OW17701   1.182   1.209   2.246  0.4293 -0.2242  0.3353
 2023SOL    HW117702   1.277   1.224   2.240  0.4367  0.5982  2.3496
 2023SOL    HW217703   1.187   1.146   2.317 -0.0188  1.2618  1.6987
 2024SOL     OW17704   4.384   4.636   0.790  0.1882 -0.0899  0.0323
 2024SOL    HW117705   4.305   4.659   0.740 -0.6941 -2.2675  0.4221
 2024SOL    HW217706   4.438   4.612   0.714  0.7236  0.9874  0.0775
 2025SOL     OW17707   3.627   1.848   6.237  0.5140  0.1363  0.4618
 2025SOL    HW117708   3.715   1.858   6.202  0.2377 -1.9339 -0.8373
 2025SOL    HW217709   3.568   1.888   6.173 -1.4843 -0.6185  1.8218
 2026SOL     OW17710   2.406   0.480   3.821 -0.5283 -0.3324  0.0895
 2026SOL    HW117711   2.366   0.454   3.904  0.0373 -0.5077  0.3056
 2026SOL    HW217712   2.394   0.399   3.772  0.0204  0.3994 -1.2496
 2027SOL     OW17713   4.683   0.765   0.690  0.0597  0.6893 -0.1454
 2027SOL    HW117714   4.604   0.751   0.638 -0.0610 -0.2923  0.2958
 2027SOL    HW217715   4.691   0.859   0.678 -1.7057  0.7906 -0.5589
 2028SOL     OW17716   0.477   1.693   2.710  0.0675  0.1295  0.3504
 2028SOL    HW117717   0.435   1.752   2.646  1.6169  0.0737 -0.7335
 2028SOL    HW217718   0.491   1.753   2.783  1.5018 -2.3065  2.0350
 2029SOL     OW17719   0.827   4.296  15.266  0.3294 -0.3566  0.2168
 2029SOL    HW117720   0.862   4.316  15.179 -1.0338  2.8161  0.3791
 2029SOL    HW217721   0.781   4.213  15.254 -2.5703  1.0912  1.0710
 2030SOL     OW17722   3.235   3.215   3.552 -0.2118  0.4746 -0.7114
 2030SOL    HW117723   3.209   3.187   3.464 -0.4958  1.4754 -0.9447
 2030SOL    HW217724   3.156   3.184   3.596 -0.3412  2.1472  0.2037
 2031SOL     OW17725   2.569   1.893   7.031 -0.1891  0.2242  0.4120
 2031SOL    HW117726   2.652   1.933   7.056  1.3918 -0.2489 -4.0066
 2031SOL    HW217727   2.510   1.959   7.068  1.2713  0.5991  2.0390
 2032SOL     OW17728   1.378   3.315   8.017  0.0555 -0.4095 -0.6007
 2032SOL    HW117729   1.413   3.267   8.092 -0.1347  1.0990  0.4536
 2032SOL    HW217730   1.296   3.343   8.058  0.2749  0.8790 -1.0437
 2033SOL     OW17731   2.393   1.015   4.413  0.1297  0.1090  0.1679
 2033SOL    HW117732   2.399   1.103   4.374  2.4213  0.0467  0.3967
 2033SOL    HW217733   2.418   0.960   4.338  0.2045 -2.0694  1.7851
 2034SOL     OW17734   0.400   4.500   5.190 -0.4985  0.5254  0.4825
 2034SOL    HW117735   0.422   4.518   5.098 -1.6361 -1.9829 -0.2731
 2034SOL    HW217736   0.436   4.577   5.234 -1.4164  0.4389  1.3644
 2035SOL     OW17737   2.453   3.421  12.901 -0.4438 -0.1826 -0.4970
 2035SOL    HW117738   2.544   3.398  12.880 -0.5825 -1.3292  0.2102
 2035SOL    HW217739   2.465   3.495  12.960  1.7034 -0.4345 -0.6177
 2036SOL     OW17740   1.201   2.784   8.813 -0.0536  0.5884 -0.3676
 2036SOL    HW117741   1.195   2.757   8.905 -0.2485  2.1752  0.0978
 2036SOL    HW217742   1.191   2.698   8.773 -0.1373  0.9794 -1.1745
 2037SOL     OW17743   2.655   0.657  13.977  0.2935  0.2546 -0.1357
 2037SOL    HW117744   2.690   0.688  13.893 -1.5890  2.3496 -0.1423
 2037SOL    HW217745   2.635   0.565  13.960  0.1722 -0.0455  1.6913
 2038SOL     OW17746   1.929   4.167   5.700  0.2080  0.0904  0.1544
 2038SOL    HW117747   1.927   4.188   5.607 -1.8238 -1.0429 -0.0443
 2038SOL    HW217748   1.923   4.255   5.737  0.7100  0.0825  0.2532
 2039SOL     OW17749   4.585   2.678  12.116 -0.1956  0.4143  0.2427
 2039SOL    HW117750   4.522   2.606  12.120 -1.1963  1.1669 -2.0707
 2039SOL    HW217751   4.526   2.751  12.132  0.4875  0.7294  1.3806
 2040SOL     OW17752   0.241   3.096   5.601  0.1926 -0.2189  0.0868
 2040SOL    HW117753   0.320   3.066   5.645 -1.1903 -0.2040  2.6160
 2040SOL    HW217754   0.258   3.190   5.611  2.3396 -0.9351  3.3577
 2041SOL     OW17755   0.969   0.184   2.729  0.2723 -0.3572 -0.4428
 2041SOL    HW117756   0.916   0.237   2.788 -1.3226 -0.2423 -1.9938
 2041SOL    HW217757   0.971   0.236   2.649 -0.9147 -1.5682 -1.2567
 2042SOL     OW17758   3.700   3.992   8.135 -0.2382  0.3220  0.0864
 2042SOL    HW117759   3.736   4.022   8.052 -0.6061  0.0248 -0.1803
 2042SOL    HW217760   3.702   3.897   8.133  2.0944  0.3516  1.0486
 2043SOL     OW17761   2.769   0.503   3.492  0.0014  0.1039  0.2583
 2043SOL    HW117762   2.720   0.571   3.539 -0.1176 -0.7530  1.3696
 2043SOL    HW217763   2.858   0.537   3.504 -0.1381  0.0487  1.4736
 2044SOL     OW17764   2.710   4.030   7.287  0.1905  0.2021 -0.0505
 2044SOL    HW117765   2.712   3.961   7.354  0.3806  0.4268  0.1723
 2044SOL    HW217766   2.762   4.099   7.326  1.0866 -1.1610  1.1658
 2045SOL     OW17767   4.211   2.414   8.803  0.4485  0.0867 -0.7345
 2045SOL    HW117768   4.123   2.445   8.820  0.9293  1.4592 -0.7715
 2045SOL    HW217769   4.270   2.472   8.851 -0.5772 -0.7690  1.5412
 2046SOL     OW17770   3.674   0.895   4.695 -0.0664  0.5938  0.4297
 2046SOL    HW117771   3.628   0.884   4.612  0.8871 -0.5792  0.0743
 2046SOL    HW217772   3.608   0.881   4.763 -0.0284  0.0750  0.3544
 2047SOL     OW17773   2.867   3.597   4.739 -0.3474  0.1453 -0.0544
 2047SOL    HW117774   2.940   3.548   4.778  0.2963  0.8009 -0.4238
 2047SOL    HW217775   2.794   3.539   4.757  1.2300 -1.8015  0.1406
 2048SOL     OW17776   2.861   3.584   1.663  0.0549 -0.0413  1.1128
 2048SOL    HW117777   2.795   3.629   1.716  1.0056  1.6259  0.9008
 2048SOL    HW217778   2.951   3.615   1.675  0.4536 -0.5625 -0.5104
 2049SOL     OW17779   2.195   1.631   6.241  0.4941 -0.1318 -0.3554
 2049SOL    HW117780   2.281   1.593   6.257 -0.6779 -3.5178 -2.2217
 2049SOL    HW217781   2.180   1.666   6.330 -0.3510 -0.7776 -0.2475
 2050SOL     OW17782   2.064   3.617  16.540  0.1371  0.1036 -0.0675
 2050SOL    HW117783   2.063   3.627  16.445  0.0654  1.1351  0.0401
 2050SOL    HW217784   2.000   3.681  16.572 -0.9500  0.8568 -3.7598
 2051SOL     OW17785   3.504   0.640  14.266 -0.8687  0.0125  0.0884
 2051SOL    HW117786   3.586   0.690  14.260 -0.9967  0.1782 -0.3591
 2051SOL    HW217787   3.438   0.702  14.234 -3.0821 -2.1725  0.4929
 2052SOL     OW17788   1.691   3.761   1.706 -0.1842 -0.0334 -0.2612
 2052SOL    HW117789   1.750   3.691   1.676 -0.4824 -0.7171  0.7640
 2052SOL    HW217790   1.675   3.734   1.796 -0.7784  0.6632 -0.1597
 2053SOL     OW17791   2.153   3.259   4.623  0.0224  1.1296 -0.0483
 2053SOL    HW117792   2.069   3.279   4.581  0.1570 -1.5988 -1.5875
 2053SOL    HW217793   2.166   3.328   4.688  0.4904  3.2817 -2.4167
 2054SOL     OW17794   2.439   1.383   6.171 -0.2972  0.0848  0.8146
 2054SOL    HW117795   2.396   1.299   6.184  0.4565 -0.0947  2.1391
 2054SOL    HW217796   2.437   1.415   6.261  0.8130  0.3295  0.7548
 2055SOL     OW17797   2.570   4.484   1.122  0.0674  0.4440 -0.4208
 2055SOL    HW117798   2.563   4.400   1.078 -1.0679  2.0168 -3.2703
 2055SOL    HW217799   2.543   4.459   1.211  0.6358 -1.1342 -0.7036
 2056SOL     OW17800   4.084   0.938   4.505  0.6425 -0.2974 -0.8688
 2056SOL    HW117801   4.177   0.959   4.493  0.1746  2.3554 -0.0373
 2056SOL    HW217802   4.040   1.023   4.508  1.1691 -0.1064  1.6734
 2057SOL     OW17803   4.552   0.292  13.279  0.4051 -0.6415 -0.1160
 2057SOL    HW117804   4.638   0.298  13.320  1.1815  0.2859 -1.8969
 2057SOL    HW217805   4.510   0.376  13.296 -0.3632 -1.0542 -0.0055
 2058SOL     OW17806   3.120   0.281   1.957 -0.4684  0.4542  0.3594
 2058SOL    HW117807   3.055   0.326   1.904  0.0618  1.9923  1.0070
 2058SOL    HW217808   3.183   0.348   1.984  2.1117 -0.5848 -2.9661
 2059SOL     OW17809   0.054   4.563   5.690 -0.6267  0.5418  0.2180
 2059SOL    HW117810   4.705   4.541   5.708 -0.8435  0.0057 -1.4769
 2059SOL    HW217811   0.057   4.553   5.594 -2.3808 -3.3216  0.5819
 2060SOL     OW17812   3.708   0.038   7.098  0.3014 -0.3708  0.5961
 2060SOL    HW117813   3.629   0.041   7.043 -0.4715  0.3635  1.7502
 2060SOL    HW217814   3.687   4.703   7.151 -1.3528 -1.0535 -1.0451
 2061SOL     OW17815   4.116   3.802   3.436  0.4969 -0.3190  0.5918
 2061SOL    HW117816   4.165   3.732   3.394 -0.2288 -0.4391 -0.0724
 2061SOL    HW217817   4.137   3.870   3.372 -1.6748 -0.3201 -0.1503
 2062SOL     OW17818   0.368   3.061   7.367 -0.4297 -0.3242 -0.0615
 2062SOL    HW117819   0.373   3.098   7.455  2.1753  1.5356 -0.9959
 2062SOL    HW217820   0.439   2.997   7.369  1.4575  1.7715 -1.3002
 2063SOL     OW17821   2.426   3.763   9.296  0.1752  0.1851 -0.0612
 2063SOL    HW117822   2.437   3.810   9.379 -1.0603 -1.3758  0.9819
 2063SOL    HW217823   2.382   3.832   9.245  0.4260 -1.0030 -1.8461
 2064SOL     OW17824   3.796   1.628   9.225  0.2465 -0.1676 -0.1925
 2064SOL    HW117825   3.820   1.620   9.317  0.1938 -1.1544 -0.2656
 2064SOL    HW217826   3.735   1.700   9.240  0.4878  0.0016 -0.0173
 2065SOL     OW17827   4.495   0.352   4.289 -0.5004 -0.4625 -0.6678
 2065SOL    HW117828   4.589   0.355   4.308 -0.8882  0.3440  1.1089
 2065SOL    HW217829   4.488   0.338   4.195 -0.5202 -0.2109 -0.7027
 2066SOL     OW17830   1.662   3.422   5.317  0.0648  0.5272 -0.2715
 2066SOL    HW117831   1.660   3.516   5.299  1.6071  0.5727 -0.2426
 2066SOL    HW217832   1.658   3.420   5.412 -0.4183 -0.3417 -0.3068
 2067SOL     OW17833   2.628   2.199  15.094 -0.0942 -0.1329  0.0115
 2067SOL    HW117834   2.713   2.209  15.138  0.5810 -0.4727 -1.2307
 2067SOL    HW217835   2.637   2.252  15.015  1.2141  1.3092  1.1248
 2068SOL     OW17836   0.282   4.741   2.888 -0.3658  0.0997  0.5712
 2068SOL    HW117837   0.217   4.689   2.935 -1.5796  0.9613 -0.1449
 2068SOL    HW217838   0.341   4.667   2.877 -0.6929 -0.1186  0.2763
 2069SOL     OW17839   1.682   1.177   5.083 -0.2124 -0.3011  0.2809
 2069SOL    HW117840   1.741   1.102   5.078  0.0313 -0.2518  2.6110
 2069SOL    HW217841   1.722   1.237   5.020  1.1351 -3.2879 -1.6870
 2070SOL     OW17842   2.496   2.284   7.218  0.4759 -0.0599 -0.0680
 2070SOL    HW117843   2.447   2.205   7.241 -0.0672  0.6483  1.1430
 2070SOL    HW217844   2.583   2.263   7.252  0.7764 -0.4306 -1.0448
 2071SOL     OW17845   3.296   4.253   2.593 -0.3816  0.3303  0.6814
 2071SOL    HW117846   3.258   4.190   2.654  0.1848 -2.1684 -1.5232
 2071SOL    HW217847   3.259   4.221   2.510 -2.9214  2.3623  1.0272
 2072SOL     OW17848   2.005   3.662  10.979 -0.2002  0.5641  0.2618
 2072SOL    HW117849   1.985   3.612  10.899  0.9232  0.9686 -0.2803
 2072SOL    HW217850   1.941   3.732  10.991  0.0277  0.7388  0.4547
 2073SOL     OW17851   0.889   4.555   3.203  0.5803  0.3989  0.1840
 2073SOL    HW117852   0.954   4.607   3.156  0.4031 -0.8601 -1.4349
 2073SOL    HW217853   0.857   4.618   3.268  2.2838 -0.2635  1.6403
 2074SOL     OW17854   1.783   1.453   7.534  0.6269 -0.4807 -0.1187
 2074SOL    HW117855   1.823   1.369   7.515 -1.1556 -1.5480  0.8515
 2074SOL    HW217856   1.766   1.502   7.454 -2.5570  1.3859  1.6849
 2075SOL     OW17857   3.711   3.616   5.475  0.1046 -0.5926 -0.3762
 2075SOL    HW117858   3.742   3.651   5.559 -1.1482 -0.4045  0.0215
 2075SOL    HW217859   3.655   3.545   5.506 -0.1373 -0.4922 -0.5842
 2076SOL     OW17860   2.969   0.673  10.420  0.2029 -0.0790  0.0505
 2076SOL    HW117861   2.961   0.638  10.509 -1.1997 -0.1749 -0.1169
 2076SOL    HW217862   2.905   0.743  10.431  0.5780  0.2427  0.2001
 2077SOL     OW17863   4.318   3.415   0.179  0.4655 -0.1263  0.3314
 2077SOL    HW117864   4.304   3.392   0.087 -1.3018  0.1944  0.5278
 2077SOL    HW217865   4.396   3.362   0.198  1.3153  0.9743 -0.0370
 2078SOL     OW17866   0.920   1.759   1.870 -0.0584  0.4327 -0.0992
 2078SOL    HW117867   0.950   1.809   1.794  0.1503 -4.7945 -3.4561
 2078SOL    HW217868   0.942   1.816   1.943  1.1202  0.3274 -0.3699
 2079SOL     OW17869   2.421   1.016   4.686  0.4106 -0.1351  0.2445
 2079SOL    HW117870   2.412   1.007   4.591 -1.2418 -0.6276  0.4328
 2079SOL    HW217871   2.414   0.925   4.716 -1.2284 -0.6121 -1.5785
 2080SOL     OW17872   2.058   4.053   6.459  0.1131  0.1970 -0.0497
 2080SOL    HW117873   2.086   4.144   6.467  0.2829  0.2916 -1.7465
 2080SOL    HW217874   2.085   4.038   6.368  0.1689 -3.2814  0.5463
 2081SOL     OW17875   3.150   3.639   2.978 -0.2174  0.3556 -0.7152
 2081SOL    HW117876   3.148   3.543   2.980  1.2004  0.3107 -1.2534
 2081SOL    HW217877   3.165   3.654   3.071 -0.2699 -0.9069 -0.5053
 2082SOL     OW17878   3.338   0.757   1.843  0.0552 -0.3969  0.0111
 2082SOL    HW117879   3.325   0.791   1.755 -2.6883 -2.0132 -0.2148
 2082SOL    HW217880   3.265   0.696   1.844 -1.5720  1.5880  0.6283
 2083SOL     OW17881   4.386   0.936  11.525  0.6974  0.5383 -0.3885
 2083SOL    HW117882   4.293   0.925  11.542  0.9625 -0.7809  0.1669
 2083SOL    HW217883   4.387   1.032  11.521 -1.3122  0.5312 -0.8574
 2084SOL     OW17884   2.629   0.411   1.815  0.2161  0.4205  0.3121
 2084SOL    HW117885   2.690   0.449   1.752 -2.0124  0.4738 -1.8114
 2084SOL    HW217886   2.579   0.347   1.765  0.3249  0.5478  0.0402
 2085SOL     OW17887   2.983   3.027   2.133  0.0708  0.5124  0.4776
 2085SOL    HW117888   2.893   2.994   2.136  0.7212 -1.2874  0.1717
 2085SOL    HW217889   3.036   2.973   2.191  0.0489  0.1561  0.1648
 2086SOL     OW17890   0.546   3.458   8.294 -0.6032 -0.0810  0.3990
 2086SOL    HW117891   0.622   3.402   8.311 -1.3318 -1.5168 -0.9730
 2086SOL    HW217892   0.513   3.477   8.381 -1.8491  1.2394 -0.3591
 2087SOL     OW17893   2.904   1.253  15.043 -0.5280  0.2777 -0.3954
 2087SOL    HW117894   2.965   1.325  15.062  0.2524 -0.2763 -0.8202
 2087SOL    HW217895   2.893   1.254  14.948 -1.1480 -0.7369 -0.3295
 2088SOL     OW17896   3.163   0.511   7.609 -0.0001 -0.5522 -0.2212
 2088SOL    HW117897   3.206   0.432   7.641 -0.7401 -0.1430  1.7651
 2088SOL    HW217898   3.089   0.513   7.669  1.4871 -2.5198  1.6699
 2089SOL     OW17899   1.177   3.698   0.905  0.6059  0.4261 -0.3751
 2089SOL    HW117900   1.218   3.710   0.991 -1.9235 -0.7420  1.0051
 2089SOL    HW217901   1.086   3.725   0.922  0.5254 -0.6666  0.9525
 2090SOL     OW17902   2.477   2.875   9.895  0.3485  0.4460  0.6613
 2090SOL    HW117903   2.543   2.809   9.872  1.2971  1.6854 -0.1583
 2090SOL    HW217904   2.475   2.878   9.991 -3.0804  0.4960  0.6175
 2091SOL     OW17905   3.932   1.209   1.589 -0.8461  0.1524 -0.2312
 2091SOL    HW117906   3.977   1.161   1.519 -0.4647  2.3619 -1.4768
 2091SOL    HW217907   3.930   1.135   1.651 -2.1165  1.7044  1.5778
 2092SOL     OW17908   4.626   3.741   5.047  0.4510 -0.5280  0.2431
 2092SOL    HW117909   4.650   3.770   5.134  1.0857 -1.5396  0.4099
 2092SOL    HW217910   4.532   3.759   5.042  0.1466 -1.7393  1.8042
 2093SOL     OW17911   1.616   1.265   5.750  0.3864  0.2611  0.2002
 2093SOL    HW117912   1.623   1.171   5.729  1.6288  0.8694 -2.0868
 2093SOL    HW217913   1.711   1.275   5.760  0.4997 -0.0065 -0.6017
 2094SOL     OW17914   3.191   4.597   1.858 -0.3967  0.0403 -0.2811
 2094SOL    HW117915   3.116   4.630   1.908 -1.6161 -3.7593  0.3798
 2094SOL    HW217916   3.253   4.584   1.930  0.1109  0.7396 -0.5848
 2095SOL     OW17917   0.935   3.734  12.496  0.0894 -0.2782  0.3514
 2095SOL    HW117918   1.012   3.780  12.462  0.6776  0.7599  3.0987
 2095SOL    HW217919   0.919   3.663  12.434 -1.4994  0.2143  0.1957
 2096SOL     OW17920   3.760   0.469   8.280 -0.8189 -0.6137  0.4653
 2096SOL    HW117921   3.704   0.399   8.246  0.4892 -1.5384  0.1908
 2096SOL    HW217922   3.830   0.413   8.315 -0.5170  0.8154  2.1418
 2097SOL     OW17923   1.599   0.845   7.596 -0.4754 -0.0450  0.0167
 2097SOL    HW117924   1.691   0.822   7.611 -0.2392 -0.5667 -2.1769
 2097SOL    HW217925   1.606   0.941   7.594 -0.8823 -0.0294 -0.5627
 2098SOL     OW17926   3.126   2.767   0.798  0.3280 -0.2699 -0.4170
 2098SOL    HW117927   3.165   2.688   0.761 -1.8524 -2.1029  1.1776
 2098SOL    HW217928   3.080   2.803   0.722 -1.9121 -0.2501  0.9558
 2099SOL     OW17929   0.036   3.349  15.540  0.4003  0.2594  0.5787
 2099SOL    HW117930   0.059   3.311  15.625  0.1307  0.2762  0.6591
 2099SOL    HW217931   0.049   3.268  15.490  2.8238  0.0886  1.5167
 2100SOL     OW17932   4.574   4.715   5.514  0.0383  0.3719 -0.2644
 2100SOL    HW117933   4.661   0.010   5.501  0.5268 -0.2470  1.2532
 2100SOL    HW217934   4.560   4.720   5.608  0.8841  1.3174 -0.1963
 2101SOL     OW17935   1.327   1.529   6.199  0.4938 -0.6170 -0.1294
 2101SOL    HW117936   1.389   1.457   6.193  1.0263 -0.1021 -0.8578
 2101SOL    HW217937   1.267   1.493   6.264  2.9530 -0.8594  1.9895
 2102SOL     OW17938   2.578   2.985   3.156 -0.1267  0.6173  0.4872
 2102SOL    HW117939   2.552   3.066   3.112  1.6692 -0.3321 -2.3069
 2102SOL    HW217940   2.564   2.915   3.092  0.4820 -0.2399  1.2812
 2103SOL     OW17941   1.278   3.244   8.911 -0.5602 -0.1842  0.3175
 2103SOL    HW117942   1.278   3.291   8.995  3.5662  0.4590 -0.0728
 2103SOL    HW217943   1.275   3.156   8.947 -1.3821 -0.4666 -0.4389
 2104SOL     OW17944   1.569   4.727   7.071  0.1271 -0.1408  0.4986
 2104SOL    HW117945   1.489   4.677   7.057  0.5503 -0.8157  0.4863
 2104SOL    HW217946   1.565   0.016   7.161 -1.5575 -1.9110  1.0249
 2105SOL     OW17947   2.288   1.338   4.673  0.3377  0.1211  0.2460
 2105SOL    HW117948   2.220   1.349   4.606 -1.1732 -1.3557  1.5603
 2105SOL    HW217949   2.356   1.383   4.623 -1.7131  1.5477 -1.2723
 2106SOL     OW17950   3.104   1.729   2.563 -0.7173  0.2736 -0.2041
 2106SOL    HW117951   3.167   1.774   2.506 -2.0511 -0.2909 -2.1207
 2106SOL    HW217952   3.024   1.762   2.523 -2.1120  0.8209  3.0552
 2107SOL     OW17953   0.842   0.199   0.311  0.0191 -0.0993 -0.2058
 2107SOL    HW117954   0.927   0.207   0.355 -0.7873 -4.6756  2.1002
 2107SOL    HW217955   0.802   0.124   0.354  1.0488  0.1827  1.2364
 2108SOL     OW17956   3.883   4.397   2.348  0.3675 -0.3666  0.1145
 2108SOL    HW117957   3.847   4.450   2.276  1.6550 -0.7277 -0.7930
 2108SOL    HW217958   3.802   4.354   2.376  0.6647 -1.2915 -0.4481
 2109SOL     OW17959   1.511   0.830   6.215 -0.7818 -0.1966  0.0996
 2109SOL    HW117960   1.494   0.806   6.124  0.9746 -2.0460  0.2607
 2109SOL    HW217961   1.429   0.800   6.253 -0.9378 -0.0798 -0.1498
 2110SOL     OW17962   2.661   0.716  11.902  0.5951 -0.4376  0.2012
 2110SOL    HW117963   2.727   0.706  11.971  0.0155 -0.4294  0.7672
 2110SOL    HW217964   2.710   0.715  11.820 -2.0864  0.1743 -1.4084
 2111SOL     OW17965   0.474   1.493   5.953 -0.5755 -0.2712  0.1693
 2111SOL    HW117966   0.501   1.584   5.947 -0.0768 -0.5244 -1.4961
 2111SOL    HW217967   0.513   1.457   5.873 -1.3900  0.4905 -0.5703
 2112SOL     OW17968   1.000   2.756   9.090  0.1570 -0.2615  0.0492
 2112SOL    HW117969   0.949   2.714   9.020  1.5768  1.9659 -2.2965
 2112SOL    HW217970   0.948   2.737   9.169  0.6299  0.2564  0.4838
 2113SOL     OW17971   2.171   2.245   5.994  0.1442 -0.4192  0.2936
 2113SOL    HW117972   2.144   2.186   5.923  1.8044 -2.1050  1.0854
 2113SOL    HW217973   2.141   2.333   5.969 -0.5141 -0.6673  0.2163
 2114SOL     OW17974   3.287   2.844  12.592 -0.0313  0.5424 -0.2055
 2114SOL    HW117975   3.196   2.818  12.606 -0.1562  2.0519  1.7362
 2114SOL    HW217976   3.268   2.938  12.590  2.7352  1.1064 -0.2355
 2115SOL     OW17977   0.773   3.783   3.441 -0.7620 -0.1705  0.3984
 2115SOL    HW117978   0.842   3.813   3.499 -0.2365  0.9411 -0.7987
 2115SOL    HW217979   0.785   3.841   3.366  0.6356  2.2502  2.5091
 2116SOL     OW17980   2.315   1.015  16.737  0.1001  0.2815  0.0944
 2116SOL    HW117981   2.251   1.025  16.808  0.4143 -1.6309  0.6230
 2116SOL    HW217982   2.256   1.040  16.666 -0.0826  0.8169  0.4274
 2117SOL     OW17983   2.437   4.429  12.624 -0.3104 -0.6050  0.3218
 2117SOL    HW117984   2.494   4.455  12.697  0.7014  0.6592 -0.8981
 2117SOL    HW217985   2.413   4.516  12.591 -0.0821 -0.4376  0.5868
 2118SOL     OW17986   3.826   0.581   2.745  0.2694 -0.2065  0.8844
 2118SOL    HW117987   3.907   0.538   2.718 -0.3937  0.4230 -2.1991
 2118SOL    HW217988   3.767   0.575   2.670 -2.0336  0.5687  2.6324
 2119SOL     OW17989   0.385   0.000   7.718 -0.1589  0.5243 -0.1035
 2119SOL    HW117990   0.460   4.740   7.657 -1.2507 -0.2256 -1.4341
 2119SOL    HW217991   0.350   4.653   7.716  0.9269  0.1053 -1.0675
 2120SOL     OW17992   0.692   2.127   7.783 -0.5083  0.4378  0.0096
 2120SOL    HW117993   0.627   2.062   7.807  0.8194 -0.7608  0.3776
 2120SOL    HW217994   0.668   2.208   7.828  0.6638  0.5598  0.4363
 2121SOL     OW17995   2.761   1.970  10.542 -0.4014  0.6045 -0.3708
 2121SOL    HW117996   2.720   1.892  10.580  1.7712  0.1004  0.9307
 2121SOL    HW217997   2.705   1.982  10.465 -0.9887 -0.4136 -0.1077
 2122SOL     OW17998   1.035   4.652   4.714  0.2001  0.2953 -0.1622
 2122SOL    HW117999   1.128   4.656   4.737  0.0610 -2.0656  0.7979
 2122SOL    HW218000   1.040   4.572   4.661 -0.0430 -0.7649  1.4083
 2123SOL     OW18001   2.717   1.778   9.986 -0.4013 -0.2316 -0.0223
 2123SOL    HW118002   2.624   1.795   9.970 -0.5574  0.9701  2.2476
 2123SOL    HW218003   2.759   1.849   9.937 -1.2001  0.1503 -0.1582
 2124SOL     OW18004   4.582   1.914   2.863 -0.0661  0.5666 -0.1031
 2124SOL    HW118005   4.507   1.881   2.913 -0.6846  2.0825 -0.0516
 2124SOL    HW218006   4.645   1.921   2.935  0.1920 -1.2373 -0.1496
 2125SOL     OW18007   1.946   0.944   1.489  0.1353  0.4162 -0.0138
 2125SOL    HW118008   1.985   0.987   1.413 -0.5225  2.0852  0.5996
 2125SOL    HW218009   1.944   1.017   1.551  1.1447 -0.2107  0.7609
 2126SOL     OW18010   2.572   0.048   3.006  0.4523 -0.3043  0.4463
 2126SOL    HW118011   2.500   4.727   3.004 -1.4195  1.8440  0.1749
 2126SOL    HW218012   2.568   0.099   3.087 -1.0037  1.5879 -0.8228
 2127SOL     OW18013   4.363   2.255  13.803  0.0180 -0.4116  0.7571
 2127SOL    HW118014   4.311   2.302  13.868 -2.1858 -0.0655 -1.2544
 2127SOL    HW218015   4.431   2.206  13.849  0.4088 -1.0591 -0.5193
 2128SOL     OW18016   4.161   3.734   7.788  0.0836 -0.1039 -0.0990
 2128SOL    HW118017   4.229   3.728   7.855 -2.2146 -2.4109  2.0238
 2128SOL    HW218018   4.128   3.823   7.804 -0.5687 -0.0395 -1.8300
 2129SOL     OW18019   0.814   3.484   8.990 -0.0281 -0.5606  0.0362
 2129SOL    HW118020   0.719   3.488   8.995  0.1699  2.7245  1.0652
 2129SOL    HW218021   0.835   3.396   9.021 -1.1547 -0.7308  0.3072
 2130SOL     OW18022   1.322   0.168   7.075  0.1466  0.5049  0.7780
 2130SOL    HW118023   1.298   0.250   7.119 -0.7820  0.4988  0.2868
 2130SOL    HW218024   1.417   0.167   7.083  0.1421  1.1270  0.9483
 2131SOL     OW18025   1.933   0.838  15.323 -0.3542  0.4188 -0.1742
 2131SOL    HW118026   1.855   0.814  15.272  0.5662  1.3085 -2.0103
 2131SOL    HW218027   1.933   0.934  15.316  0.1194  0.5845  2.0041
 2132SOL     OW18028   2.684   1.688   5.041 -0.4478 -0.5614 -0.0854
 2132SOL    HW118029   2.691   1.632   4.964  0.5723  0.3255 -0.6469
 2132SOL    HW218030   2.668   1.622   5.108 -0.9460 -1.7990 -1.4312
 2133SOL     OW18031   4.665   1.114   6.737  0.6219 -0.0899 -0.1807
 2133SOL    HW118032   4.649   1.155   6.652 -0.5898  2.1443  1.1329
 2133SOL    HW218033   4.725   1.167   6.789  0.3532 -0.3686  0.4063
 2134SOL     OW18034   4.467   0.078   6.469  0.1664 -0.3892  0.1409
 2134SOL    HW118035   4.388   0.045   6.428  0.2218 -1.4830  0.9264
 2134SOL    HW218036   4.471   0.170   6.442 -1.8884 -0.7128 -1.2689
 2135SOL     OW18037   4.575   3.091   6.499  0.8822  0.6175  0.8714
 2135SOL    HW118038   4.585   2.999   6.525  0.0663 -0.0223 -1.1205
 2135SOL    HW218039   4.495   3.075   6.449 -0.4683 -1.0836  3.5471
 2136SOL     OW18040   2.624   2.417   3.446 -0.3034  0.0401  0.1670
 2136SOL    HW118041   2.529   2.406   3.458 -0.4377  0.4754 -0.5234
 2136SOL    HW218042   2.637   2.340   3.390  0.7271 -1.2297  2.1434
 2137SOL     OW18043   3.845   3.696   5.018  0.0562 -0.3599 -0.2407
 2137SOL    HW118044   3.807   3.652   5.094  0.1815 -2.2486 -1.2780
 2137SOL    HW218045   3.868   3.619   4.967 -1.0318  0.1656 -1.5122
 2138SOL     OW18046   4.188   2.654  12.280 -0.1823  0.2667  0.0245
 2138SOL    HW118047   4.198   2.725  12.342  0.1929  1.2555 -1.1668
 2138SOL    HW218048   4.169   2.703  12.199  0.6278 -0.1712 -0.4288
 2139SOL     OW18049   2.378   4.132   1.562  0.5629  0.2130 -0.5154
 2139SOL    HW118050   2.291   4.099   1.581  1.4950 -0.0894  3.2354
 2139SOL    HW218051   2.387   4.211   1.615  0.4324 -0.3595  0.3470
 2140SOL     OW18052   0.842   0.373   3.295 -0.0063 -0.3811 -0.1979
 2140SOL    HW118053   0.862   0.287   3.334  0.2599  0.7390  2.1256
 2140SOL    HW218054   0.930   0.404   3.272 -0.8196  1.0185 -1.3599
 2141SOL     OW18055   4.276   1.498   6.401 -0.1151  0.3698  0.5732
 2141SOL    HW118056   4.282   1.568   6.466  1.5575 -2.1343  3.1249
 2141SOL    HW218057   4.239   1.542   6.325  0.9441 -0.9499 -0.6898
 2142SOL     OW18058   1.789   2.398   1.767  0.5952 -0.3285  0.0010
 2142SOL    HW118059   1.807   2.304   1.761  1.2714 -0.3652  2.6456
 2142SOL    HW218060   1.718   2.403   1.703  0.3429  1.6133  0.4231
 2143SOL     OW18061   0.795   1.278   4.220 -0.3570 -0.2945 -0.3538
 2143SOL    HW118062   0.847   1.201   4.197 -2.0815 -0.9643 -1.9548
 2143SOL    HW218063   0.836   1.356   4.182  0.6282 -0.5548  0.1649
 2144SOL     OW18064   3.203   0.906   1.614 -0.4797  0.3324  0.6528
 2144SOL    HW118065   3.157   0.976   1.568 -0.5030 -0.9486 -1.2576
 2144SOL    HW218066   3.193   0.835   1.551  1.8113  1.6181 -1.1574
 2145SOL     OW18067   2.035   1.442  13.521  0.0944  0.1829 -0.2256
 2145SOL    HW118068   2.091   1.497  13.466  1.3807 -0.8262  0.0567
 2145SOL    HW218069   1.948   1.476  13.500 -0.4214 -0.9100  0.1708
 2146SOL     OW18070   3.815   1.069   3.623  1.0444 -0.4033  0.4332
 2146SOL    HW118071   3.831   0.975   3.623  0.9058 -0.4177  1.7499
 2146SOL    HW218072   3.843   1.095   3.711  2.5789  0.3497 -0.2669
 2147SOL     OW18073   4.036   3.667  16.426  0.3265  0.1866  0.0453
 2147SOL    HW118074   4.067   3.717  16.351 -0.9029  0.3431 -0.3628
 2147SOL    HW218075   3.994   3.590  16.386 -2.2438  3.3373 -3.3073
 2148SOL     OW18076   1.944   2.180  14.316  0.5699 -0.0161  0.3551
 2148SOL    HW118077   1.859   2.171  14.358 -1.0715  0.5673 -2.7992
 2148SOL    HW218078   1.929   2.130  14.235 -1.2182  0.3099  0.4998
 2149SOL     OW18079   1.104   1.696   1.522 -0.3805 -0.2757  0.5069
 2149SOL    HW118080   1.081   1.768   1.580  0.5721  0.5245 -0.0997
 2149SOL    HW218081   1.111   1.620   1.579 -1.0314 -0.8791 -0.2204
 2150SOL     OW18082   0.974   1.203   0.306  0.1885  0.4898  0.5806
 2150SOL    HW118083   1.012   1.253   0.234  1.7823  0.6986  1.5463
 2150SOL    HW218084   0.924   1.144   0.251  1.4895  0.7303 -0.8551
 2151SOL     OW18085   2.513   4.070   8.116 -0.0749  0.2405  0.3839
 2151SOL    HW118086   2.437   4.117   8.084  0.2301  0.1527 -0.4701
 2151SOL    HW218087   2.567   4.086   8.038  1.5890 -0.8662  1.2819
 2152SOL     OW18088   3.362   1.865   3.515 -0.1696  0.2256 -0.2720
 2152SOL    HW118089   3.397   1.776   3.512 -1.4492 -0.3486  1.9474
 2152SOL    HW218090   3.365   1.892   3.607 -2.3618 -0.8142  0.1069
 2153SOL     OW18091   4.679   1.482   2.273 -0.1937  0.3228  0.4933
 2153SOL    HW118092   4.592   1.458   2.304  0.8005 -1.2181  2.0615
 2153SOL    HW218093   4.736   1.422   2.322  2.0573  0.8760 -1.4423
 2154SOL     OW18094   1.529   2.031  11.818  0.3402  0.3118  0.7912
 2154SOL    HW118095   1.535   2.098  11.885 -1.9915  1.1078  0.2093
 2154SOL    HW218096   1.447   1.996  11.854  1.2004 -0.5931  1.8421
 2155SOL     OW18097   1.583   4.646   4.365  0.3479 -0.1051  0.7751
 2155SOL    HW118098   1.670   4.608   4.379  1.4096  1.4105 -1.7498
 2155SOL    HW218099   1.571   4.614   4.276 -0.4370 -0.5477  1.0392
 2156SOL     OW18100   3.028   4.064   8.124  0.1806  1.0071  0.8718
 2156SOL    HW118101   3.111   4.043   8.166  1.1990 -2.0170 -2.6392
 2156SOL    HW218102   3.067   4.104   8.047 -1.1462  1.6086  0.5089
 2157SOL     OW18103   2.791   2.947  13.414  0.3383  0.2165 -0.3206
 2157SOL    HW118104   2.735   3.011  13.371 -0.2252  0.1160  0.2618
 2157SOL    HW218105   2.783   2.875  13.351  0.1575  0.1781 -0.2521
 2158SOL     OW18106   2.782   0.932  10.822 -0.0103 -0.1524  0.3713
 2158SOL    HW118107   2.746   0.870  10.886  0.1433 -0.1065  0.5026
 2158SOL    HW218108   2.845   0.975  10.880 -0.6301  2.8720 -1.1549
 2159SOL     OW18109   4.568   0.672   8.313 -0.3164  0.4858  0.0915
 2159SOL    HW118110   4.586   0.659   8.220 -2.1618 -1.0556 -0.0505
 2159SOL    HW218111   4.572   0.583   8.349 -0.2178  1.3428  2.1980
 2160SOL     OW18112   3.306   4.134   2.287 -0.3134 -0.1578  0.6817
 2160SOL    HW118113   3.393   4.163   2.260 -0.0086 -1.4549  0.2683
 2160SOL    HW218114   3.294   4.072   2.216  0.0057  0.8411 -0.2395
 2161SOL     OW18115   0.697   4.215   3.723  0.1166  0.0373 -0.5041
 2161SOL    HW118116   0.641   4.151   3.768 -0.4410  1.6286  1.0485
 2161SOL    HW218117   0.696   4.289   3.784  1.6801  0.3321 -0.8132
 2162SOL     OW18118   0.661   2.916   1.709  0.1535 -0.3169 -0.6229
 2162SOL    HW118119   0.616   2.943   1.629 -0.9732  0.1537  0.1680
 2162SOL    HW218120   0.598   2.855   1.749  1.4936  0.4111  2.6157
 2163SOL     OW18121   0.976   4.536   3.824  0.5161  0.0754  0.1166
 2163SOL    HW118122   0.978   4.581   3.739  0.8546  2.9655  1.6757
 2163SOL    HW218123   1.041   4.596   3.859 -0.1382  1.0790 -0.3567
 2164SOL     OW18124   2.906   1.629   7.090 -0.3473  0.1332 -0.0399
 2164SOL    HW118125   2.849   1.568   7.043 -1.5732 -0.0507  1.6695
 2164SOL    HW218126   2.930   1.582   7.170 -0.4514 -1.9285 -1.2205
 2165SOL     OW18127   1.426   4.488  17.070  0.2835  0.4326 -0.5458
 2165SOL    HW118128   1.500   4.493  17.010  2.0768  1.5621  1.7648
 2165SOL    HW218129   1.407   4.395  17.058  0.7049  0.3769 -0.7564
 2166SOL     OW18130   0.741   0.495   5.213  0.4493 -0.4694  0.0968
 2166SOL    HW118131   0.755   0.495   5.118 -1.3144  1.0650 -0.1726
 2166SOL    HW218132   0.649   0.470   5.221 -0.7904  3.7011 -1.1796
 2167SOL     OW18133   2.342   1.173  14.398  0.2154 -0.2929  0.7797
 2167SOL    HW118134   2.353   1.136  14.485 -0.9519  1.1835  1.5447
 2167SOL    HW218135   2.368   1.098  14.344  1.8039  1.0007 -0.2465
 2168SOL     OW18136   1.040   1.891  12.503 -0.1867 -0.5258 -0.2131
 2168SOL    HW118137   1.024   1.832  12.430 -2.0656 -0.0862 -0.1468
 2168SOL    HW218138   1.111   1.849  12.552 -0.5501  0.6285  1.3173
 2169SOL     OW18139   2.816   4.012   4.082  0.0389  0.3178  0.2119
 2169SOL    HW118140   2.878   3.965   4.137 -2.1214 -1.7645  0.8778
 2169SOL    HW218141   2.741   4.012   4.142  1.2737 -1.8275  1.7313
 2170SOL     OW18142   3.550   0.087   1.571  0.0876  0.2720  0.4171
 2170SOL    HW118143   3.503   0.155   1.619 -0.2825  0.9449 -0.9005
 2170SOL    HW218144   3.502   0.008   1.597 -0.6133  0.9312  1.1475
 2171SOL     OW18145   2.929   2.178  10.066  0.3424  0.2609  0.5033
 2171SOL    HW118146   3.018   2.200  10.093  1.1333 -0.5179 -1.5111
 2171SOL    HW218147   2.925   2.234   9.988  1.5750  0.0963  0.3287
 2172SOL     OW18148   1.298   1.094   8.472  0.4805 -0.0451  0.4306
 2172SOL    HW118149   1.335   1.150   8.540 -1.6500  0.7939  0.8994
 2172SOL    HW218150   1.207   1.123   8.483  0.7919  1.2736 -0.5044
 2173SOL     OW18151   4.026   1.183  11.390 -0.1173 -0.5323 -0.1366
 2173SOL    HW118152   4.040   1.100  11.344  2.6426  1.1666 -2.3457
 2173SOL    HW218153   4.106   1.235  11.386  0.0890 -0.9827 -1.7296
 2174SOL     OW18154   0.914   2.462   3.669 -0.1747  0.2487 -0.0356
 2174SOL    HW118155   0.848   2.518   3.711  0.1984  1.6631 -1.3701
 2174SOL    HW218156   0.928   2.515   3.591 -3.0844 -0.6869 -1.1880
 2175SOL     OW18157   0.396   1.515  12.737  0.3699  0.7993  0.4218
 2175SOL    HW118158   0.449   1.582  12.696 -2.2174  3.2541  1.0871
 2175SOL    HW218159   0.403   1.436  12.684 -1.1580  1.2068 -0.4044
 2176SOL     OW18160   3.228   2.258   6.447 -0.3887  0.0714 -0.2714
 2176SOL    HW118161   3.197   2.217   6.366 -1.6356  1.1864 -0.3557
 2176SOL    HW218162   3.237   2.181   6.503  0.2856  1.4903  1.5486
 2177SOL     OW18163   3.682   2.753   0.616 -0.3734  0.2586 -0.2992
 2177SOL    HW118164   3.750   2.715   0.559 -0.5624  1.1178 -1.1008
 2177SOL    HW218165   3.685   2.846   0.595 -0.1196  0.0083 -1.3972
 2178SOL     OW18166   2.787   1.201   1.009 -0.0758  0.2902 -0.4963
 2178SOL    HW118167   2.852   1.238   0.950 -1.0409  1.1403 -1.0147
 2178SOL    HW218168   2.725   1.155   0.951  0.2416  0.5667 -1.0599
 2179SOL     OW18169   0.738   3.572   3.698  0.0632 -0.2347 -0.5964
 2179SOL    HW118170   0.661   3.518   3.680  0.1896 -0.4714 -0.4324
 2179SOL    HW218171   0.771   3.582   3.608  1.6390  0.5930  0.0782
 2180SOL     OW18172   2.987   3.554   5.188 -0.3185  0.6038  0.1748
 2180SOL    HW118173   2.984   3.533   5.281 -2.3859 -2.2236 -0.5109
 2180SOL    HW218174   2.903   3.599   5.184  0.2386  1.6925  0.9309
 2181SOL     OW18175   4.511   3.205   5.671  0.2307  0.3179  0.8032
 2181SOL    HW118176   4.598   3.208   5.710  0.8709  3.2442 -0.8352
 2181SOL    HW218177   4.463   3.136   5.718  0.4753  0.0445  0.6518
 2182SOL     OW18178   3.877   3.245   7.110  0.3689 -0.2781 -0.1561
 2182SOL    HW118179   3.909   3.335   7.106  1.5213 -0.5636  3.0557
 2182SOL    HW218180   3.935   3.201   7.047  1.0715  1.6077 -0.8177
 2183SOL     OW18181   1.597   2.675   5.304  0.3727  0.4478 -0.3172
 2183SOL    HW118182   1.677   2.637   5.342  1.0470 -0.7537 -2.9068
 2183SOL    HW218183   1.648   2.742   5.259  1.2780  0.4862  0.7526
 2184SOL     OW18184   2.863   4.281   5.503  0.2694 -0.3618 -0.2203
 2184SOL    HW118185   2.909   4.342   5.445 -2.2488  1.5495 -0.2226
 2184SOL    HW218186   2.931   4.215   5.513  0.6984  0.1894  0.4791
 2185SOL     OW18187   3.034   0.495   9.117 -0.2692  0.2182 -0.1781
 2185SOL    HW118188   2.946   0.457   9.114 -0.4608  0.6733 -0.2819
 2185SOL    HW218189   3.026   0.588   9.098 -0.7037  0.6364  1.9890
 2186SOL     OW18190   1.114   2.975   6.071 -0.5328  0.2434  0.5259
 2186SOL    HW118191   1.040   2.980   6.010 -1.2359  0.0446  1.3643
 2186SOL    HW218192   1.108   2.882   6.094 -0.2221  0.0219 -0.2859
 2187SOL     OW18193   4.657   3.285   4.637  0.4997  0.3365  0.4234
 2187SOL    HW118194   4.688   3.375   4.646 -1.9112  1.2684 -0.6777
 2187SOL    HW218195   4.666   3.268   4.543 -1.0823 -1.4382  0.5901
 2188SOL     OW18196   4.666   2.820   6.527  0.5639  0.5113 -0.3652
 2188SOL    HW118197   4.595   2.756   6.519  0.1001  0.7305  2.0336
 2188SOL    HW218198   4.691   2.818   6.619 -1.0615  3.1105  0.1385
 2189SOL     OW18199   0.752   0.382  13.865 -0.0631  0.2249 -0.1414
 2189SOL    HW118200   0.692   0.390  13.939  0.5633 -1.4445  0.5421
 2189SOL    HW218201   0.699   0.325  13.809 -1.6511 -0.1614  1.7460
 2190SOL     OW18202   3.749   0.684   6.645 -0.1687  0.1741 -0.3458
 2190SOL    HW118203   3.701   0.767   6.651 -1.0729 -0.2990 -1.0364
 2190SOL    HW218204   3.753   0.661   6.738  0.8214  1.9518  0.0566
 2191SOL     OW18205   0.429   3.849   3.725 -0.3668 -0.3698 -0.1209
 2191SOL    HW118206   0.380   3.926   3.693  0.0100  0.3149  0.9353
 2191SOL    HW218207   0.370   3.774   3.718 -0.3997 -0.4078  0.5907
 2192SOL     OW18208   3.960   3.241  14.955 -0.0402  0.1356 -0.1872
 2192SOL    HW118209   3.972   3.294  14.875 -0.4251  0.9633  0.3036
 2192SOL    HW218210   3.882   3.194  14.927  0.7175 -0.6624 -0.9826
 2193SOL     OW18211   0.398   2.432   6.755 -0.0303  0.1715  0.3489
 2193SOL    HW118212   0.490   2.452   6.735  0.5314 -0.8343  1.8808
 2193SOL    HW218213   0.412   2.352   6.806  0.2942 -0.1821 -0.2844
 2194SOL     OW18214   0.449   1.112   2.304 -0.1509 -0.1515 -0.5597
 2194SOL    HW118215   0.441   1.032   2.356 -1.0464 -1.3169 -2.5206
 2194SOL    HW218216   0.543   1.124   2.286 -0.3080  1.7792 -0.1568
 2195SOL     OW18217   3.436   4.730  17.086  0.2504 -0.4416  0.1419
 2195SOL    HW118218   3.418   0.070  17.131  1.3576 -0.4041  0.5264
 2195SOL    HW218219   3.350   4.694  17.068 -0.7222  0.9663  1.9947
 2196SOL     OW18220   4.155   3.326   4.813 -1.0530  0.1839  0.1342
 2196SOL    HW118221   4.215   3.349   4.742 -0.7522  0.6211  0.5294
 2196SOL    HW218222   4.194   3.240   4.829 -2.2334 -0.2215  0.8623
 2197SOL     OW18223   0.272   1.417   5.437  0.1286 -0.2569  0.1065
 2197SOL    HW118224   0.232   1.501   5.460  1.9569  0.7824 -0.5632
 2197SOL    HW218225   0.268   1.428   5.342  0.8959 -0.0726  0.0974
 2198SOL     OW18226   2.343   3.677   2.968  0.3606  0.3235 -0.0781
 2198SOL    HW118227   2.324   3.706   2.878  0.1730 -0.8791 -0.4258
 2198SOL    HW218228   2.439   3.676   2.970  0.3312 -0.0189  1.1745
 2199SOL     OW18229   2.372   1.330   2.235  0.3612 -0.2877 -0.4861
 2199SOL    HW118230   2.395   1.357   2.324 -0.2680  1.1929 -0.7598
 2199SOL    HW218231   2.329   1.410   2.203 -1.4323 -0.1856  2.2737
 2200SOL     OW18232   1.601   3.574   8.244  0.0673 -0.5131  0.3909
 2200SOL    HW118233   1.595   3.601   8.336 -1.3866 -0.6977  0.3448
 2200SOL    HW218234   1.529   3.511   8.241  1.1179 -1.6125 -1.9426
 2201SOL     OW18235   3.129   1.131   6.768 -0.0980  0.7086 -0.3017
 2201SOL    HW118236   3.098   1.121   6.678 -1.2241 -1.0529  0.2762
 2201SOL    HW218237   3.179   1.211   6.754 -0.2072  0.4620 -2.0749
 2202SOL     OW18238   0.094   2.842  16.524 -0.6447  0.6840  0.0323
 2202SOL    HW118239   0.059   2.904  16.460  0.4293 -0.5994 -1.8098
 2202SOL    HW218240   0.015   2.804  16.563  0.3866 -0.0618  1.3953
 2203SOL     OW18241   1.828   2.780  15.764 -0.0037 -0.5038  0.1867
 2203SOL    HW118242   1.858   2.829  15.841 -1.5504 -0.0736  0.5085
 2203SOL    HW218243   1.767   2.719  15.805 -1.9782  0.9600 -0.6103
 2204SOL     OW18244   1.380   3.920   3.973  0.4265 -0.0497  0.0023
 2204SOL    HW118245   1.384   3.871   3.891  0.2079  0.2804 -0.2014
 2204SOL    HW218246   1.286   3.921   3.991  1.0061 -0.8108  3.0988
 2205SOL     OW18247   4.172   3.963   3.217 -0.5083  0.4923  0.3719
 2205SOL    HW118248   4.230   3.944   3.144  1.8803 -2.0338  2.8938
 2205SOL    HW218249   4.187   4.054   3.241  2.5512  0.1244 -0.1193
 2206SOL     OW18250   1.270   4.079   8.128 -0.0189 -0.2265 -0.1202
 2206SOL    HW118251   1.358   4.056   8.159  0.4924  1.2304 -0.5081
 2206SOL    HW218252   1.222   4.070   8.211  0.1534 -1.5000 -0.1604
 2207SOL     OW18253   3.060   1.804   6.566  0.2737 -0.0422 -0.1581
 2207SOL    HW118254   3.048   1.712   6.542 -0.7568 -0.3935  1.7207
 2207SOL    HW218255   3.111   1.797   6.646 -1.1898  0.6141  0.8451
 2208SOL     OW18256   0.482   2.241   3.705 -0.0879  0.2164  0.1774
 2208SOL    HW118257   0.566   2.244   3.659 -0.1375 -0.0397  0.0707
 2208SOL    HW218258   0.449   2.329   3.690  0.2992  0.0203 -1.7709
 2209SOL     OW18259   3.217   0.493  10.919 -0.1012 -0.1188 -0.0932
 2209SOL    HW118260   3.259   0.419  10.874 -2.0900 -1.4639  0.2500
 2209SOL    HW218261   3.242   0.563  10.859  2.7682 -0.3506  0.8295
 2210SOL     OW18262   1.154   2.319   4.439 -0.6570  0.3720  0.2339
 2210SOL    HW118263   1.104   2.285   4.364  0.5472 -0.4186 -0.2190
 2210SOL    HW218264   1.196   2.394   4.397  0.5958 -1.7627 -2.3487
 2211SOL     OW18265   2.573   3.824   2.360  0.4888  0.4141 -0.7447
 2211SOL    HW118266   2.569   3.882   2.436  0.6039 -1.0460  0.3815
 2211SOL    HW218267   2.493   3.773   2.372  0.1656  1.0531 -0.1723
 2212SOL     OW18268   2.361   2.148   5.370  0.6156  0.1426  0.2173
 2212SOL    HW118269   2.361   2.221   5.431  1.7408  1.1588 -1.0141
 2212SOL    HW218270   2.431   2.091   5.400 -1.0585 -1.0088  1.9443
 2213SOL     OW18271   0.278   3.666   2.145  0.2769  0.0776 -0.1265
 2213SOL    HW118272   0.236   3.752   2.147  1.3395  0.6788 -2.9666
 2213SOL    HW218273   0.204   3.618   2.181  0.0333 -0.7605 -1.7572
 2214SOL     OW18274   0.510   2.184   3.989 -0.1172  0.0256  0.3694
 2214SOL    HW118275   0.489   2.191   3.896 -1.8474 -0.1164  0.7455
 2214SOL    HW218276   0.423   2.198   4.028 -0.6198 -0.0081 -0.7400
 2215SOL     OW18277   3.418   0.350   2.860  0.6307  0.1571  0.3195
 2215SOL    HW118278   3.397   0.306   2.778  1.7866 -1.6068  0.9717
 2215SOL    HW218279   3.483   0.289   2.895 -0.1746 -0.5755  0.5153
 2216SOL     OW18280   0.471   0.741  15.219 -0.1408  0.2268  0.2754
 2216SOL    HW118281   0.489   0.657  15.179 -1.1650  0.1103  0.0630
 2216SOL    HW218282   0.385   0.724  15.258 -0.5510  1.2093 -0.1842
 2217SOL     OW18283   2.237   1.343   8.681  0.6588  0.2105 -0.4540
 2217SOL    HW118284   2.195   1.406   8.741 -0.9908 -1.9225  0.6393
 2217SOL    HW218285   2.327   1.342   8.714  0.6865 -0.0109 -0.5428
 2218SOL     OW18286   1.676   4.515  14.393 -0.4708  0.0946  0.1622
 2218SOL    HW118287   1.716   4.579  14.334  0.5797 -1.3821 -0.7504
 2218SOL    HW218288   1.647   4.566  14.468 -1.3207 -2.8823  1.8417
 2219SOL     OW18289   0.848   1.199   6.108  0.1319  0.2942  0.1456
 2219SOL    HW118290   0.777   1.152   6.064 -0.9370  1.2211  0.8515
 2219SOL    HW218291   0.808   1.281   6.138  1.6244  0.3196  2.0718
 2220SOL     OW18292   1.672   4.248   0.112  0.0709 -0.2975 -0.0827
 2220SOL    HW118293   1.738   4.265   0.179 -0.0922  1.2458 -0.3159
 2220SOL    HW218294   1.620   4.328   0.111 -2.2119 -1.7720 -1.2140
 2221SOL     OW18295   2.221   0.188   6.806 -0.1446  0.1396 -0.1989
 2221SOL    HW118296   2.258   0.275   6.798  0.4043 -0.3188 -2.5392
 2221SOL    HW218297   2.146   0.212   6.860 -0.6028 -2.0536  0.1618
 2222SOL     OW18298   0.555   3.582   6.339  0.0904  0.7454  0.2593
 2222SOL    HW118299   0.484   3.643   6.321 -0.9352 -0.5508 -0.0713
 2222SOL    HW218300   0.548   3.599   6.433  2.8248 -1.3656  0.8565
 2223SOL     OW18301   0.301   4.206  10.787 -0.7696 -0.3959  0.7109
 2223SOL    HW118302   0.387   4.165  10.791 -0.3576  0.2612 -1.8702
 2223SOL    HW218303   0.318   4.276  10.724  1.1952 -2.2206 -0.7705
 2224SOL     OW18304   2.542   0.704   5.750  0.4530 -0.1492 -0.4733
 2224SOL    HW118305   2.518   0.776   5.693  1.1373  1.1375  0.8380
 2224SOL    HW218306   2.558   0.756   5.830  1.8543 -2.1380  0.5567
 2225SOL     OW18307   1.853   3.825   2.449  0.6948  0.1037 -0.1332
 2225SOL    HW118308   1.936   3.868   2.468  0.5373  0.2725  0.1728
 2225SOL    HW218309   1.807   3.886   2.391  3.4819  2.3883  0.0670
 2226SOL     OW18310   4.042   2.619   2.526  0.0638 -0.8563 -0.1339
 2226SOL    HW118311   3.969   2.681   2.522  0.8308  0.1379  1.0686
 2226SOL    HW218312   4.115   2.660   2.480  2.7494 -1.5893  3.4337
 2227SOL     OW18313   1.237   3.878  15.355  0.1538  0.2144 -0.1275
 2227SOL    HW118314   1.151   3.836  15.357 -1.0560  2.7074 -0.2866
 2227SOL    HW218315   1.231   3.940  15.282 -1.6079  0.3080  0.0912
 2228SOL     OW18316   2.398   0.206   3.466  0.1772 -0.2476 -0.0131
 2228SOL    HW118317   2.339   0.143   3.508  0.1195 -0.2856 -0.1510
 2228SOL    HW218318   2.380   0.285   3.518  0.9508  0.5860 -0.9895
 2229SOL     OW18319   4.367   2.470  15.590  0.1189  0.3132  0.0093
 2229SOL    HW118320   4.374   2.375  15.597  1.0481  0.4530  1.0082
 2229SOL    HW218321   4.419   2.484  15.510 -0.8532 -0.1802 -0.7059
 2230SOL     OW18322   2.632   4.041   7.027  0.0559 -0.4634 -0.2188
 2230SOL    HW118323   2.619   4.126   6.986  2.8087  0.7202  1.3408
 2230SOL    HW218324   2.678   4.058   7.110  1.6579 -1.6628 -0.8347
 2231SOL     OW18325   2.379   0.271   2.706  0.3831 -0.2088  0.1925
 2231SOL    HW118326   2.310   0.272   2.772 -0.0028  0.5560 -0.2337
 2231SOL    HW218327   2.454   0.314   2.747 -0.8276  3.1724 -1.2398
 2232SOL     OW18328   3.845   2.318   5.175 -1.1709 -0.6273 -0.0950
 2232SOL    HW118329   3.865   2.336   5.083  0.3877 -0.8456  0.1866
 2232SOL    HW218330   3.931   2.287   5.206  0.3595  0.9621 -2.7482
 2233SOL     OW18331   0.612   4.653  16.256  0.1457 -0.0604  0.0741
 2233SOL    HW118332   0.525   4.655  16.216 -0.0890 -3.2637  0.4656
 2233SOL    HW218333   0.664   4.628  16.180 -3.0009 -1.0433 -1.7269
 2234SOL     OW18334   2.690   4.573  16.998  0.3063  0.2056  0.3626
 2234SOL    HW118335   2.626   4.509  16.970  0.7218  0.2594 -0.6964
 2234SOL    HW218336   2.635   4.651  17.003  1.0356  0.6857  1.1891
 2235SOL     OW18337   3.229   4.650   5.721  0.4435 -0.2979  0.3250
 2235SOL    HW118338   3.196   4.728   5.676  0.4089 -0.6254 -0.2253
 2235SOL    HW218339   3.248   4.588   5.650  1.1215 -2.1281  2.1119
 2236SOL     OW18340   2.744   0.064  15.138 -0.2445  0.2335  0.3199
 2236SOL    HW118341   2.663   0.079  15.090  0.4186 -0.6349 -1.0885
 2236SOL    HW218342   2.713   0.026  15.220  0.0537  1.1883  0.8768
 2237SOL     OW18343   0.268   4.673   1.843  0.1370 -0.1928  0.1373
 2237SOL    HW118344   0.278   4.605   1.909 -3.0898 -1.2163 -0.4166
 2237SOL    HW218345   0.251   0.009   1.897 -0.6381  0.8763 -1.6259
 2238SOL     OW18346   0.049   1.299   3.368 -1.0130 -0.3221 -0.4339
 2238SOL    HW118347   0.059   1.393   3.353 -0.9973 -0.4201 -1.0578
 2238SOL    HW218348   0.133   1.276   3.408 -0.6485 -0.4715 -1.2822
 2239SOL     OW18349   3.590   4.333   8.419  0.1709  0.4584  0.3113
 2239SOL    HW118350   3.657   4.369   8.361  0.3518  1.5198  1.1729
 2239SOL    HW218351   3.551   4.271   8.358  1.7600 -1.0650  0.8588
 2240SOL     OW18352   2.623   3.290  11.596  0.4177 -0.3187  0.0734
 2240SOL    HW118353   2.613   3.363  11.536  0.9672 -0.2760  0.0376
 2240SOL    HW218354   2.707   3.319  11.631 -0.6223 -2.7040  4.5780
 2241SOL     OW18355   3.137   2.165   8.397  0.1169 -0.5045 -0.1916
 2241SOL    HW118356   3.107   2.094   8.341  4.3043 -1.6138 -1.0268
 2241SOL    HW218357   3.162   2.112   8.473  0.5147 -1.6266 -1.1189
 2242SOL     OW18358   2.087   1.397   4.208  0.1700 -0.0199 -0.1616
 2242SOL    HW118359   2.117   1.319   4.161  0.4893 -0.2137  0.3582
 2242SOL    HW218360   2.156   1.461   4.189  0.3416 -0.2407 -0.2801
 2243SOL     OW18361   2.016   2.925   4.716 -0.1993  0.7602  0.1948
 2243SOL    HW118362   2.042   3.013   4.743  0.3844  0.1868  1.5045
 2243SOL    HW218363   1.923   2.947   4.704 -0.9414 -2.0796  0.6378
 2244SOL     OW18364   4.494   3.961   4.261  0.9554  0.0888 -0.1716
 2244SOL    HW118365   4.505   3.989   4.351  1.4827 -1.3947  0.2147
 2244SOL    HW218366   4.544   3.879   4.260 -1.4670 -1.4047 -0.1797
 2245SOL     OW18367   3.720   1.375   5.309  0.0542 -0.0197  0.2227
 2245SOL    HW118368   3.626   1.374   5.288  0.2787  0.6992 -0.8444
 2245SOL    HW218369   3.744   1.284   5.292 -0.1308 -0.1088  0.4377
 2246SOL     OW18370   3.462   3.145   6.551  0.2228 -0.8495 -0.1897
 2246SOL    HW118371   3.549   3.121   6.582  0.7349  1.8392  0.4053
 2246SOL    HW218372   3.409   3.108   6.622  0.7543  2.5767  1.9535
 2247SOL     OW18373   1.547   2.658   1.600  0.4617  0.3201  0.1361
 2247SOL    HW118374   1.469   2.647   1.655  1.0505  0.0527  0.9114
 2247SOL    HW218375   1.575   2.567   1.601 -0.2122  0.1551  3.3706
 2248SOL     OW18376   0.940   1.124  10.374 -0.3171  0.2326 -0.4344
 2248SOL    HW118377   0.906   1.042  10.410 -1.3085  1.0095  0.3909
 2248SOL    HW218378   0.952   1.103  10.281 -1.1190 -0.1506 -0.4500
 2249SOL     OW18379   3.340   0.200   8.504 -0.1085 -0.0360  0.0624
 2249SOL    HW118380   3.346   0.117   8.456 -0.9286 -0.9481  1.5162
 2249SOL    HW218381   3.316   0.273   8.448  0.9329  1.3388  1.3917
 2250SOL     OW18382   4.528   4.189   2.941 -0.0677 -0.3542  0.3553
 2250SOL    HW118383   4.606   4.193   2.996 -0.9315 -1.7491  1.6751
 2250SOL    HW218384   4.520   4.277   2.906  1.5755  0.4745  2.0905
 2251SOL     OW18385   2.861   0.813  10.066 -0.1558 -0.0838  0.4840
 2251SOL    HW118386   2.938   0.765  10.097  0.1600 -0.3909 -0.7875
 2251SOL    HW218387   2.829   0.752   9.999  2.8501  0.0812 -1.0865
 2252SOL     OW18388   3.772   0.643   6.920 -0.1058 -0.8262 -0.0381
 2252SOL    HW118389   3.834   0.585   6.964  0.6789 -0.7009 -0.9735
 2252SOL    HW218390   3.689   0.636   6.966  0.3248 -1.4204  0.6561
 2253SOL     OW18391   4.269   3.564   4.136  0.0861  1.0960  0.0144
 2253SOL    HW118392   4.179   3.542   4.112  0.3380 -1.3399  1.3326
 2253SOL    HW218393   4.266   3.659   4.147  0.2953  1.1896 -0.7047
 2254SOL     OW18394   2.896   4.313   2.931 -0.0873  0.2703  0.0838
 2254SOL    HW118395   2.949   4.386   2.964  0.2382  0.7031 -1.4117
 2254SOL    HW218396   2.806   4.343   2.946  0.3266  0.3079  2.4646
 2255SOL     OW18397   2.762   2.078   3.591  0.2503 -0.4760  0.2684
 2255SOL    HW118398   2.680   2.029   3.584  0.9251 -1.4495 -0.8937
 2255SOL    HW218399   2.744   2.163   3.631 -1.7672 -0.4393 -0.6999
 2256SOL     OW18400   3.285   1.358   8.501  0.3524 -0.4908 -0.4109
 2256SOL    HW118401   3.326   1.398   8.424 -1.0515  0.7545 -0.5082
 2256SOL    HW218402   3.320   1.269   8.499 -2.6133 -1.6116 -1.4462
 2257SOL     OW18403   0.382   3.826   5.479  0.3092 -0.2342 -0.2309
 2257SOL    HW118404   0.474   3.798   5.474  0.0745 -1.3594  1.5510
 2257SOL    HW218405   0.387   3.914   5.442  0.9903 -0.1910 -0.0349
 2258SOL     OW18406   2.907   1.935   5.940 -0.0677 -0.1478  0.0443
 2258SOL    HW118407   2.879   1.951   6.030  1.5458 -0.4452  0.5988
 2258SOL    HW218408   2.859   1.856   5.915 -0.9999 -0.3188  2.4491
 2259SOL     OW18409   0.219   1.631  13.557 -0.3836 -0.2412  0.4223
 2259SOL    HW118410   0.123   1.630  13.554 -0.3836 -0.6705  0.5880
 2259SOL    HW218411   0.243   1.570  13.488  1.0667 -0.3581  1.0413
 2260SOL     OW18412   3.801   0.746   9.413  0.2723  0.2870  0.3405
 2260SOL    HW118413   3.718   0.763   9.369 -0.9989 -1.5981  2.0622
 2260SOL    HW218414   3.812   0.651   9.419  0.3300  0.3718  1.5205
 2261SOL     OW18415   3.179   1.656   1.768 -0.2778 -0.7127  0.2145
 2261SOL    HW118416   3.145   1.573   1.802 -1.0957 -0.9135 -1.0697
 2261SOL    HW218417   3.260   1.631   1.723 -0.0526 -0.7635  0.6426
 2262SOL     OW18418   2.785   3.444  10.801 -0.2954  0.1207  0.4492
 2262SOL    HW118419   2.768   3.356  10.766  0.5247  0.6207 -1.2164
 2262SOL    HW218420   2.733   3.446  10.881 -0.6147 -0.6315  0.2585
 2263SOL     OW18421   3.026   3.983   1.189  0.2178 -0.2401  0.3011
 2263SOL    HW118422   3.028   3.888   1.200  0.9642 -0.4613 -1.7975
 2263SOL    HW218423   3.060   3.994   1.278 -1.0141  0.7783  0.6420
 2264SOL     OW18424   3.639   2.022   7.194 -0.5429  0.0211 -0.2245
 2264SOL    HW118425   3.578   2.056   7.259  1.1413  0.8294  0.9238
 2264SOL    HW218426   3.665   1.939   7.234  1.6365  0.9070  0.1563
 2265SOL     OW18427   2.554   1.041  11.181  0.4540  0.2806  0.4587
 2265SOL    HW118428   2.606   1.116  11.208  2.0002 -1.9414  3.6307
 2265SOL    HW218429   2.550   0.986  11.260  1.5655 -0.5258 -0.0338
 2266SOL     OW18430   3.756   3.397   7.607  0.0274  0.0958  0.5618
 2266SOL    HW118431   3.745   3.366   7.697 -0.3368  1.6579  1.0671
 2266SOL    HW218432   3.822   3.334   7.580  1.7101  1.6608  1.0426
 2267SOL     OW18433   3.497   2.028   6.963  0.0647  0.1592 -0.0028
 2267SOL    HW118434   3.484   1.934   6.977 -0.0014  0.0823 -0.6082
 2267SOL    HW218435   3.585   2.034   7.001  0.3003 -3.4359  0.0716
 2268SOL     OW18436   3.299   2.416   7.523 -0.0052 -0.5877 -0.0274
 2268SOL    HW118437   3.312   2.472   7.445 -0.1965 -1.1501 -0.4624
 2268SOL    HW218438   3.205   2.427   7.536 -0.5385 -0.4898 -3.8125
 2269SOL     OW18439   4.140   0.943  14.199 -0.1107 -0.1358  0.1738
 2269SOL    HW118440   4.142   0.926  14.293 -0.9208  0.5970  0.3275
 2269SOL    HW218441   4.045   0.927  14.199  0.0207 -0.9251 -0.6826
 2270SOL     OW18442   2.006   3.944  15.285  0.2234  0.2341  0.2760
 2270SOL    HW118443   1.981   3.861  15.246  0.7980 -0.1178  0.6478
 2270SOL    HW218444   1.957   3.940  15.367  0.6414  0.4672  0.5427
 2271SOL     OW18445   0.500   2.474   9.146  0.4556 -0.2317 -0.4459
 2271SOL    HW118446   0.524   2.393   9.101  1.9869  1.2534 -2.3579
 2271SOL    HW218447   0.555   2.543   9.107  2.1875 -1.8582 -0.9249
 2272SOL     OW18448   1.965   1.861  16.880  0.2256  0.7624  0.4842
 2272SOL    HW118449   2.056   1.883  16.863  0.6333  0.0254  1.6879
 2272SOL    HW218450   1.931   1.864  16.790 -1.6582  0.5364  1.1924
 2273SOL     OW18451   3.729   4.547   5.725  0.6004  0.4423 -0.2985
 2273SOL    HW118452   3.728   4.570   5.632 -0.5924  3.1111  0.4018
 2273SOL    HW218453   3.660   4.481   5.725  0.6982  0.3385  0.0889
 2274SOL     OW18454   1.437   3.565   1.582 -0.3414 -0.2915 -0.2146
 2274SOL    HW118455   1.488   3.532   1.508 -1.6913  0.1396 -1.3131
 2274SOL    HW218456   1.446   3.500   1.652  0.1436 -0.9122 -0.8568
 2275SOL     OW18457   0.093   4.595   1.610  0.4021 -0.2097  0.1131
 2275SOL    HW118458   0.152   4.607   1.685  2.1269  2.2868 -1.6445
 2275SOL    HW218459   0.041   4.517   1.630 -1.5517  1.8060  2.7499
 2276SOL     OW18460   1.641   3.158   3.292  0.4061  0.2318  0.3338
 2276SOL    HW118461   1.626   3.243   3.333  3.5278  0.3253  1.2836
 2276SOL    HW218462   1.551   3.128   3.277  0.0201 -0.4632  3.8582
 2277SOL     OW18463   1.226   4.319   0.878 -0.0346 -0.5168  0.4074
 2277SOL    HW118464   1.147   4.268   0.895  0.7567 -1.8885  0.0506
 2277SOL    HW218465   1.302   4.267   0.906 -1.2686 -1.2280  2.4070
 2278SOL     OW18466   4.169   2.847  12.100 -0.1763  0.5720  0.5430
 2278SOL    HW118467   4.262   2.866  12.106  0.1173 -0.5326 -0.3416
 2278SOL    HW218468   4.125   2.932  12.092  0.8762  1.3697  3.5228
 2279SOL     OW18469   0.999   1.377   5.815 -0.0103  0.3418  0.5351
 2279SOL    HW118470   1.065   1.331   5.867 -0.2311 -1.1150 -0.4776
 2279SOL    HW218471   0.973   1.445   5.877  1.1374  0.6710  0.6607
 2280SOL     OW18472   4.684   1.728   7.360 -0.1144  0.0228 -0.7280
 2280SOL    HW118473   4.590   1.720   7.379 -0.0067 -1.9709 -1.0123
 2280SOL    HW218474   4.691   1.792   7.290 -2.5506  3.0023  1.7682
 2281SOL     OW18475   4.708   2.948  12.327 -0.3636 -0.3607 -0.2734
 2281SOL    HW118476   4.734   2.856  12.328 -0.0050 -0.2192  2.8387
 2281SOL    HW218477   0.043   2.982  12.372 -1.4457 -1.0936  2.1117
 2282SOL     OW18478   3.595   2.071  12.025  0.0816 -0.0410  0.3614
 2282SOL    HW118479   3.588   2.152  12.075  2.7147  0.8429 -0.6914
 2282SOL    HW218480   3.509   2.040  12.053 -0.3921  1.0033  0.0586
 2283SOL     OW18481   4.015   1.114   3.860  0.1486 -0.2753  0.4797
 2283SOL    HW118482   3.998   1.189   3.802 -0.9265 -1.5890 -0.9075
 2283SOL    HW218483   4.050   1.057   3.791 -0.2769  0.0418  0.0013
 2284SOL     OW18484   2.152   3.515   5.255  0.3879 -0.5552  0.5691
 2284SOL    HW118485   2.128   3.497   5.346 -0.8194  0.2502  0.4019
 2284SOL    HW218486   2.072   3.524   5.204  0.7047 -0.0631  0.1498
 2285SOL     OW18487   4.460   2.321   5.362 -0.1033  0.3037  0.2069
 2285SOL    HW118488   4.513   2.298   5.286 -2.4546  2.4383 -2.0648
 2285SOL    HW218489   4.437   2.409   5.332 -1.6603 -0.4651 -0.8320
 2286SOL     OW18490   2.049   3.420   9.009  0.1725  0.0604  0.0480
 2286SOL    HW118491   2.086   3.401   8.923  0.4667 -1.4626  0.5107
 2286SOL    HW218492   1.964   3.455   8.981  0.1187  0.4019  0.6387
 2287SOL     OW18493   4.464   2.947  12.164 -0.1631  0.6639 -0.0877
 2287SOL    HW118494   4.428   3.031  12.191 -0.3124  0.2634  0.9487
 2287SOL    HW218495   4.553   2.944  12.199  0.0467 -0.8002 -0.7436
 2288SOL     OW18496   4.532   2.093  16.523 -1.0675  0.1704 -0.1609
 2288SOL    HW118497   4.482   2.013  16.509 -0.2001 -0.8738  2.7487
 2288SOL    HW218498   4.470   2.166  16.521  0.3025  1.3358 -0.7151
 2289SOL     OW18499   0.917   3.261   3.657  0.0176  0.0924 -0.1047
 2289SOL    HW118500   0.850   3.308   3.608  1.5393  0.8384 -1.4795
 2289SOL    HW218501   0.921   3.184   3.601  1.1608  1.4041 -1.8228
 2290SOL     OW18502   3.983   2.956   4.446 -0.2162 -0.2993 -0.1828
 2290SOL    HW118503   3.961   2.896   4.517 -1.0247 -0.2920 -0.4281
 2290SOL    HW218504   3.966   3.035   4.498  0.0224 -0.4157  0.0750
 2291SOL     OW18505   2.519   1.888   5.291  0.2016  0.3285  0.0498
 2291SOL    HW118506   2.511   1.835   5.370  0.4793 -1.5773 -1.1905
 2291SOL    HW218507   2.442   1.867   5.238  1.5960 -4.2512 -0.1575
 2292SOL     OW18508   3.747   0.843   8.328  0.3976 -0.4128  0.7655
 2292SOL    HW118509   3.729   0.934   8.352 -1.5153 -0.9031  1.1838
 2292SOL    HW218510   3.662   0.803   8.310  0.0855 -0.0539  1.4520
 2293SOL     OW18511   1.931   4.158  12.932 -0.2534  0.3674  0.8720
 2293SOL    HW118512   2.007   4.203  12.969 -0.1294 -0.2163  1.3294
 2293SOL    HW218513   1.866   4.222  12.904  0.8910  1.4556  0.6858
 2294SOL     OW18514   4.098   2.516   3.819 -0.1157  0.4648  0.1411
 2294SOL    HW118515   4.099   2.612   3.827  1.5955  0.5490 -1.0482
 2294SOL    HW218516   4.026   2.513   3.756 -0.6952 -0.1551  0.8468
 2295SOL     OW18517   3.041   4.357   2.369 -0.9820  0.3866  0.1369
 2295SOL    HW118518   3.006   4.372   2.457 -0.3110 -2.2121  0.8487
 2295SOL    HW218519   3.043   4.262   2.360  0.0079  0.3985  0.2656
 2296SOL     OW18520   2.233   0.733   4.992  0.3397 -0.3301 -0.6770
 2296SOL    HW118521   2.219   0.772   4.906 -1.8808 -1.6177 -0.9202
 2296SOL    HW218522   2.270   0.817   5.017 -0.3316 -0.1461 -0.3025
 2297SOL     OW18523   2.207   4.330   8.954  0.0955 -0.3556  0.6487
 2297SOL    HW118524   2.148   4.270   8.908 -2.0313  2.2869 -0.0517
 2297SOL    HW218525   2.293   4.305   8.921 -0.4627 -2.6006  0.8714
 2298SOL     OW18526   2.359   2.870   4.506  0.1184  0.2228 -0.0241
 2298SOL    HW118527   2.302   2.853   4.581  0.5647  1.5240  0.6168
 2298SOL    HW218528   2.434   2.901   4.558  0.7381  0.2776 -0.9619
 2299SOL     OW18529   2.910   2.347   9.882  0.4449  0.1171 -0.4479
 2299SOL    HW118530   2.818   2.365   9.863  0.4458 -0.1025 -0.6683
 2299SOL    HW218531   2.949   2.431   9.858 -0.1240  1.0727  1.9761
 2300SOL     OW18532   3.863   2.600   2.191 -0.9925 -0.0283  0.8193
 2300SOL    HW118533   3.932   2.637   2.135  0.4692 -0.0694  2.6000
 2300SOL    HW218534   3.850   2.520   2.139 -0.1340  0.2734  0.1311
 2301SOL     OW18535   4.420   3.260   6.005 -0.2052  0.0235  0.1719
 2301SOL    HW118536   4.359   3.327   6.033 -0.0728  0.2764 -0.1467
 2301SOL    HW218537   4.489   3.273   6.070 -1.2424  0.4596  1.1778
 2302SOL     OW18538   0.565   0.270   1.586  0.1136 -0.3133  0.7945
 2302SOL    HW118539   0.488   0.227   1.624 -2.5245  1.3921 -2.5933
 2302SOL    HW218540   0.517   0.337   1.537  1.5224  0.3976  0.3876
 2303SOL     OW18541   2.582   0.507   6.840 -1.3874  0.1142 -0.2619
 2303SOL    HW118542   2.598   0.469   6.927 -0.1119  1.4099  0.0824
 2303SOL    HW218543   2.582   0.426   6.790 -1.1629 -0.0839  0.0572
 2304SOL     OW18544   0.767   2.218   2.060 -0.3851 -0.0198  0.0335
 2304SOL    HW118545   0.698   2.155   2.080  1.3260 -1.0894  2.5668
 2304SOL    HW218546   0.774   2.208   1.965  1.1322  3.5060 -0.2206
 2305SOL     OW18547   0.362   4.071   7.963  0.3381 -0.2059  1.0656
 2305SOL    HW118548   0.353   4.006   8.033 -1.3266 -0.6807  0.4140
 2305SOL    HW218549   0.348   4.010   7.891  2.8855  2.3003 -1.6033
 2306SOL     OW18550   0.343   4.043   5.148 -0.3016  0.0238 -0.4822
 2306SOL    HW118551   0.354   4.117   5.088  2.4892 -0.2821 -0.3309
 2306SOL    HW218552   0.436   4.029   5.164  0.1970 -0.4586 -3.9176
 2307SOL     OW18553   1.297   4.335  11.932 -0.1301 -0.1138  0.1655
 2307SOL    HW118554   1.264   4.298  11.850 -2.0932 -0.8034  1.2608
 2307SOL    HW218555   1.245   4.305  12.006 -1.7912  0.5586 -0.7309
 2308SOL     OW18556   2.592   2.297  14.816 -0.5798  0.3186  0.2166
 2308SOL    HW118557   2.597   2.308  14.721 -2.1972 -0.4581  0.0347
 2308SOL    HW218558   2.524   2.231  14.825 -0.0405 -0.0184  1.7289
 2309SOL     OW18559   2.390   1.711  15.097  0.7334 -0.6694  0.3527
 2309SOL    HW118560   2.309   1.749  15.064  1.8359 -0.3332 -1.9549
 2309SOL    HW218561   2.406   1.792  15.145  1.8464 -0.2060 -0.7903
 2310SOL     OW18562   0.034   0.427   1.419  0.9656 -0.0669  0.0323
 2310SOL    HW118563   4.697   0.469   1.453  0.9255 -0.3674  0.3065
 2310SOL    HW218564   0.060   0.368   1.489  2.6682  1.7813  0.9485
 2311SOL     OW18565   0.949   0.987   7.076  0.1858 -0.1203  0.0952
 2311SOL    HW118566   0.868   1.037   7.075 -0.6967 -1.5205  1.6923
 2311SOL    HW218567   1.005   1.056   7.113  1.0110 -0.9509  0.4131
 2312SOL     OW18568   3.301   0.008   5.405  0.0296  0.3225 -0.3208
 2312SOL    HW118569   3.351   0.016   5.486 -0.3006  1.1435 -0.1873
 2312SOL    HW218570   3.372   4.713   5.353 -0.9197  1.0722 -2.1632
 2313SOL     OW18571   3.174   4.635   7.709  0.4268  0.6710  0.0159
 2313SOL    HW118572   3.141   4.577   7.778  1.6126 -1.9875 -1.6465
 2313SOL    HW218573   3.166   4.715   7.761 -1.6199  0.4047  0.1416
 2314SOL     OW18574   1.961   0.696  15.557  0.4044  0.0653 -0.4906
 2314SOL    HW118575   1.959   0.772  15.499  0.7365  0.8457  0.5196
 2314SOL    HW218576   1.868   0.676  15.573  0.7671 -1.1702  0.0089
 2315SOL     OW18577   4.049   1.972  14.693  0.2701 -0.0567  0.3883
 2315SOL    HW118578   4.104   2.050  14.694  1.9172 -1.1963 -1.2144
 2315SOL    HW218579   4.006   1.979  14.608  1.1257  0.5704  0.0113
 2316SOL     OW18580   0.055   1.473  14.478 -0.3997 -0.5231  0.7459
 2316SOL    HW118581   0.123   1.412  14.503 -0.6631 -0.0718  2.5438
 2316SOL    HW218582   0.096   1.512  14.400 -1.5230  0.6201  0.7220
 2317SOL     OW18583   1.692   3.207   6.613  0.2404 -0.2654  0.2001
 2317SOL    HW118584   1.621   3.192   6.676  0.1310  1.5119  0.4955
 2317SOL    HW218585   1.676   3.294   6.575  0.2087 -0.5978 -0.5422
 2318SOL     OW18586   2.136   1.992  13.344 -0.3160 -0.6998 -0.6046
 2318SOL    HW118587   2.215   1.967  13.393 -0.8789 -1.1642  0.0602
 2318SOL    HW218588   2.152   2.071  13.293 -1.6460 -0.1534 -0.1691
 2319SOL     OW18589   1.822   4.603  14.864  0.6569  0.3208  0.0840
 2319SOL    HW118590   1.790   4.595  14.954 -1.8163  0.0546 -0.8288
 2319SOL    HW218591   1.917   4.612  14.877  0.6696 -0.0769  0.2715
 2320SOL     OW18592   3.254   4.100   3.507 -0.8399 -0.0276 -0.5122
 2320SOL    HW118593   3.307   4.102   3.587 -3.4899  1.2578  1.2046
 2320SOL    HW218594   3.243   4.195   3.495 -1.4428  0.3426  2.9182
 2321SOL     OW18595   4.404   0.266   3.972  0.0701  0.1144 -0.2702
 2321SOL    HW118596   4.315   0.301   3.969 -0.1240 -0.5872 -2.4680
 2321SOL    HW218597   4.455   0.343   3.947  0.9358  0.0926  1.4336
 2322SOL     OW18598   0.929   3.087   3.442  0.6983  0.2558  0.1024
 2322SOL    HW118599   0.923   2.991   3.449  0.7491  0.3231  1.1279
 2322SOL    HW218600   1.021   3.110   3.435  0.3981  1.5876  0.5849
 2323SOL     OW18601   4.237   3.846   7.331  0.0419  0.2698  0.1778
 2323SOL    HW118602   4.165   3.812   7.385 -0.3620 -2.7020 -2.2367
 2323SOL    HW218603   4.220   3.940   7.337  1.5609  0.6929 -2.2292
 2324SOL     OW18604   4.486   0.035   4.833 -0.4270 -0.0674  0.1214
 2324SOL    HW118605   4.529   0.069   4.911  0.0954 -1.8232  0.5794
 2324SOL    HW218606   4.559   0.049   4.773 -0.0448  2.0260  1.0727
 2325SOL     OW18607   0.358   0.826   4.682  0.1402  0.2926  0.7744
 2325SOL    HW118608   0.424   0.785   4.738  1.1343  1.5131  0.4921
 2325SOL    HW218609   0.398   0.910   4.658 -0.3120  0.7720  1.7098
 2326SOL     OW18610   3.309   2.380   3.459  0.1474 -0.5684  0.8916
 2326SOL    HW118611   3.374   2.396   3.527  2.0587 -0.8295 -0.8367
 2326SOL    HW218612   3.367   2.339   3.394 -1.5016 -0.5005 -0.6290
 2327SOL     OW18613   0.203   0.664   9.208  0.3309 -0.4482 -0.4659
 2327SOL    HW118614   0.148   0.708   9.143 -1.4759 -0.2498  1.1919
 2327SOL    HW218615   0.256   0.612   9.148  2.1644  0.6539  0.2120
 2328SOL     OW18616   1.109   3.114  13.134 -0.0975 -0.3239  0.6794
 2328SOL    HW118617   1.165   3.186  13.162 -1.0051  0.0600  1.5120
 2328SOL    HW218618   1.057   3.095  13.212  0.6236 -0.6472  1.0742
 2329SOL     OW18619   3.715   0.018   8.324 -0.0828 -0.0364 -0.5717
 2329SOL    HW118620   3.676   0.050   8.406  0.3736  0.5681 -0.5843
 2329SOL    HW218621   3.799   4.733   8.362  0.0450  0.6337 -0.3691
 2330SOL     OW18622   4.226   4.151   4.393 -0.0582 -0.2422 -0.0061
 2330SOL    HW118623   4.225   4.232   4.341  3.4958 -1.9502 -2.7111
 2330SOL    HW218624   4.308   4.177   4.435  0.5174 -0.5817 -0.9352
 2331SOL     OW18625   4.307   0.980   7.344  0.0237 -0.5473  0.5203
 2331SOL    HW118626   4.213   0.988   7.333  0.0777  1.5323  1.4848
 2331SOL    HW218627   4.341   0.968   7.255 -1.9952 -2.6038  0.0534
 2332SOL     OW18628   2.126   3.353   3.669 -0.1649 -0.2880  0.2419
 2332SOL    HW118629   2.070   3.426   3.646 -1.4587 -1.1549  0.6267
 2332SOL    HW218630   2.175   3.391   3.742 -1.0043  2.3230 -0.5620
 2333SOL     OW18631   2.993   2.479  17.671  0.8315  0.1531 -0.2567
 2333SOL    HW118632   2.951   2.544  17.614 -2.9496 -0.6550  1.5919
 2333SOL    HW218633   3.056   2.539  17.711  0.1153  0.7203  0.0143
 2334SOL     OW18634   0.579   0.715  10.059  0.0681  0.4429  0.1131
 2334SOL    HW118635   0.630   0.771  10.117  2.7315 -0.3270 -1.4749
 2334SOL    HW218636   0.546   0.657  10.127  1.4568 -0.1175  0.2895
 2335SOL     OW18637   3.610   3.390  16.086  0.4851 -0.1034 -0.3915
 2335SOL    HW118638   3.522   3.387  16.123  0.1980 -2.4909 -1.2768
 2335SOL    HW218639   3.583   3.413  15.997 -3.1060  2.7520  1.4331
 2336SOL     OW18640   3.433   2.329   4.313  0.2231 -0.2298  0.6342
 2336SOL    HW118641   3.395   2.254   4.267 -0.8046  0.4605  0.3554
 2336SOL    HW218642   3.496   2.290   4.372 -0.0980 -1.6966 -0.0033
 2337SOL     OW18643   3.083   4.180  13.242  0.1709 -0.9237 -0.2573
 2337SOL    HW118644   3.041   4.203  13.325 -0.6073  1.3768 -1.2554
 2337SOL    HW218645   3.175   4.187  13.268  0.3489 -0.4909 -0.9962
 2338SOL     OW18646   2.439   1.151  12.270 -0.5087  0.0711  0.4185
 2338SOL    HW118647   2.365   1.211  12.260  0.3453  0.8266 -1.4078
 2338SOL    HW218648   2.405   1.062  12.263  0.6779 -0.5050  2.1356
 2339SOL     OW18649   2.519   2.336   4.125  0.6619  0.6271 -0.1851
 2339SOL    HW118650   2.462   2.272   4.082 -0.1252 -0.7101  2.9025
 2339SOL    HW218651   2.474   2.355   4.207 -0.8352  0.1856 -0.8982
 2340SOL     OW18652   0.664   1.116   8.684 -0.2831 -0.1771 -0.0589
 2340SOL    HW118653   0.690   1.032   8.646 -1.1472 -0.6895  0.4832
 2340SOL    HW218654   0.601   1.156   8.624  1.1390  0.6167 -1.0231
 2341SOL     OW18655   2.699   3.358   6.418  0.0975  0.2834  0.6423
 2341SOL    HW118656   2.615   3.321   6.392  0.3673 -0.8925  1.4901
 2341SOL    HW218657   2.740   3.365   6.331 -0.6568 -0.8118  0.2092
 2342SOL     OW18658   3.095   1.343   9.188  0.2258 -0.0294 -0.2464
 2342SOL    HW118659   3.146   1.335   9.270  0.9287  1.1391 -0.5633
 2342SOL    HW218660   3.084   1.438   9.196 -0.7079 -0.1957  0.3802
 2343SOL     OW18661   2.673   3.574   7.534 -0.7200  0.7425  1.1624
 2343SOL    HW118662   2.639   3.618   7.612  1.2490  0.2229  2.3298
 2343SOL    HW218663   2.720   3.507   7.585  1.6149  0.8759 -0.8364
 2344SOL     OW18664   0.837   3.131   6.509 -0.4957  0.1549 -0.7756
 2344SOL    HW118665   0.900   3.188   6.553  0.0877 -0.3815 -0.9273
 2344SOL    HW218666   0.783   3.190   6.456  0.2172  1.4427 -0.0835
 2345SOL     OW18667   4.259   4.197  10.969  0.6850 -0.3400  0.3757
 2345SOL    HW118668   4.223   4.271  11.018 -0.7295 -1.6306  1.3163
 2345SOL    HW218669   4.308   4.160  11.043  2.2246  1.3653  0.2102
 2346SOL     OW18670   0.482   4.532  15.217  0.8632 -0.1748  0.9858
 2346SOL    HW118671   0.544   4.574  15.158 -1.2285  0.4878 -0.7565
 2346SOL    HW218672   0.484   4.443  15.182 -0.0897 -0.1026  0.7447
 2347SOL     OW18673   1.932   1.817   3.365 -0.5796 -0.0238 -0.0307
 2347SOL    HW118674   1.965   1.898   3.327  0.5203 -0.6183 -0.3475
 2347SOL    HW218675   1.838   1.834   3.360 -0.2937  2.4642  2.9967
 2348SOL     OW18676   1.374   4.455   5.759 -0.4279 -0.0686  0.0325
 2348SOL    HW118677   1.311   4.502   5.705 -2.5320 -1.2270  1.4962
 2348SOL    HW218678   1.380   4.372   5.713 -0.8046 -0.8001  1.2878
 2349SOL     OW18679   4.616   4.116  10.619  0.1876  0.3506  0.2552
 2349SOL    HW118680   4.685   4.182  10.612 -0.8060  1.3673  0.0637
 2349SOL    HW218681   4.561   4.137  10.695 -0.6939  2.3941 -0.9693
 2350SOL     OW18682   4.194   2.512   2.958  0.0734 -0.3260 -0.2826
 2350SOL    HW118683   4.215   2.434   2.906  0.7179 -1.3328  1.4924
 2350SOL    HW218684   4.139   2.564   2.901 -0.8937 -0.1230  0.8365
 2351SOL     OW18685   1.655   1.326   8.018 -0.2460  0.1403  0.3191
 2351SOL    HW118686   1.746   1.328   7.990 -1.2516  0.8988 -2.8509
 2351SOL    HW218687   1.609   1.389   7.962  0.2468  1.0989  1.0024
 2352SOL     OW18688   3.272   0.959   2.408  0.6425 -0.6040  0.4166
 2352SOL    HW118689   3.185   0.919   2.404  0.2559 -0.3091  5.0764
 2352SOL    HW218690   3.290   1.012   2.331  3.5287  1.0914  2.2188
 2353SOL     OW18691   0.746   1.610   3.614  0.1536 -0.5302  0.2455
 2353SOL    HW118692   0.755   1.702   3.639 -0.5196 -1.2647  3.1670
 2353SOL    HW218693   0.652   1.596   3.602 -0.7231  3.1951  2.7378
 2354SOL     OW18694   2.639   4.694   7.433  0.4186 -0.1246 -0.6407
 2354SOL    HW118695   2.568   0.015   7.427 -0.2265 -0.6142  1.6493
 2354SOL    HW218696   2.711   4.730   7.381  0.2334  0.3461 -0.5663
 2355SOL     OW18697   4.194   2.278   3.710 -0.1995  0.4245 -0.1071
 2355SOL    HW118698   4.151   2.364   3.707  1.1991  1.1710  1.0599
 2355SOL    HW218699   4.122   2.219   3.691 -1.0665  0.5500  2.7037
 2356SOL     OW18700   3.762   0.753   6.091  0.1391  0.1414 -0.1636
 2356SOL    HW118701   3.827   0.684   6.102  0.7126  0.3775 -2.0763
 2356SOL    HW218702   3.693   0.740   6.156 -1.2770  1.5009 -1.3923
 2357SOL     OW18703   3.828   3.279   6.610  0.1455  0.8581 -0.4220
 2357SOL    HW118704   3.852   3.261   6.520 -1.4866 -0.8512 -0.5138
 2357SOL    HW218705   3.793   3.194   6.636  2.4649  0.0258  0.0091
 2358SOL     OW18706   4.450   3.300  12.465  0.4358 -0.4618 -0.0350
 2358SOL    HW118707   4.537   3.267  12.487  1.1956  0.8901 -1.0446
 2358SOL    HW218708   4.422   3.234  12.400 -2.9798 -1.0929  2.0791
 2359SOL     OW18709   3.978   0.608   8.428  0.2538 -0.0058  0.0105
 2359SOL    HW118710   3.904   0.581   8.374  0.1220 -0.5082  0.4444
 2359SOL    HW218711   4.047   0.631   8.365  1.0122  0.4235  0.9907
 2360SOL     OW18712   1.269   3.790  14.979 -0.6168  0.6002 -0.2933
 2360SOL    HW118713   1.240   3.738  15.054  0.6409  1.1398  0.5599
 2360SOL    HW218714   1.183   3.797  14.936 -1.4870 -1.4155  1.1214
 2361SOL     OW18715   3.312   2.362   4.841 -0.4643 -0.3978 -0.7392
 2361SOL    HW118716   3.380   2.368   4.773  1.2005  1.1384  1.0379
 2361SOL    HW218717   3.313   2.271   4.870  1.2694  0.3864  1.6859
 2362SOL     OW18718   1.276   3.274  14.204  0.3800 -0.1755 -0.0438
 2362SOL    HW118719   1.202   3.231  14.248  0.6475  0.4345  1.0009
 2362SOL    HW218720   1.259   3.364  14.232 -0.7726  0.4614 -2.7469
 2363SOL     OW18721   0.072   2.150  11.369  0.1120  0.4459 -0.3878
 2363SOL    HW118722   0.094   2.179  11.281  0.7379  2.7291  0.5214
 2363SOL    HW218723   4.719   2.162  11.370 -0.0080 -0.4773 -0.3438
 2364SOL     OW18724   0.372   4.654   6.564  0.0355 -0.4173 -0.0768
 2364SOL    HW118725   0.296   4.605   6.597  0.2678 -1.6709 -1.4308
 2364SOL    HW218726   0.357   4.642   6.470 -1.5119 -1.0385  0.2485
 2365SOL     OW18727   4.717   0.642   7.692  0.0388  0.7876  0.1896
 2365SOL    HW118728   0.064   0.617   7.715  0.1045  0.5325 -0.3387
 2365SOL    HW218729   4.698   0.711   7.755  1.8182  1.2982  0.1544
 2366SOL     OW18730   1.454   2.689   4.737 -0.6325  0.0123  0.9272
 2366SOL    HW118731   1.426   2.629   4.668 -0.8250  1.7862 -0.5222
 2366SOL    HW218732   1.373   2.734   4.759 -0.6103  1.5812 -2.2531
 2367SOL     OW18733   0.872   1.556   8.432  0.7454 -0.1897 -0.0258
 2367SOL    HW118734   0.839   1.467   8.419  1.7865 -0.3305 -1.8212
 2367SOL    HW218735   0.966   1.539   8.426  0.8612 -0.2356  2.0028
 2368SOL     OW18736   2.340   0.978   5.422  0.4871  0.3528  0.3189
 2368SOL    HW118737   2.333   1.073   5.411 -0.3704 -0.0126 -2.1039
 2368SOL    HW218738   2.249   0.953   5.442 -0.3975  2.7276 -0.7263
 2369SOL     OW18739   4.579   0.788  11.631  0.1097 -0.0230 -0.5194
 2369SOL    HW118740   4.658   0.842  11.631 -1.6428  2.5645  1.0805
 2369SOL    HW218741   4.511   0.845  11.594 -1.3734  0.5067  3.0704
 2370SOL     OW18742   1.910   0.687   5.630 -0.0657 -0.3567 -0.2389
 2370SOL    HW118743   1.829   0.654   5.668 -0.1343 -1.0669 -1.0151
 2370SOL    HW218744   1.884   0.772   5.595  0.3944 -0.5036 -0.9432
 2371SOL     OW18745   1.605   4.620  15.596  0.1366  0.2248  0.8932
 2371SOL    HW118746   1.559   4.620  15.512 -1.1017  0.6280  1.5553
 2371SOL    HW218747   1.568   4.700  15.633 -1.1256  0.1021 -0.1008
 2372SOL     OW18748   1.488   3.538   6.120  0.2787 -0.1869  0.0537
 2372SOL    HW118749   1.529   3.459   6.155  0.0911 -0.5210 -0.4854
 2372SOL    HW218750   1.560   3.582   6.074  0.8194  0.0246  1.1122
 2373SOL     OW18751   0.418   3.238  14.458  0.2280  0.2850  0.3348
 2373SOL    HW118752   0.426   3.180  14.382 -1.9159 -1.8819  1.7904
 2373SOL    HW218753   0.343   3.207  14.509 -0.8841  1.1001 -0.8080
 2374SOL     OW18754   0.540   0.114  16.681 -0.3965  0.1132 -0.0380
 2374SOL    HW118755   0.491   0.063  16.616 -2.2039  0.4190  1.0835
 2374SOL    HW218756   0.493   0.197  16.690  0.8967  0.8340  0.0401
 2375SOL     OW18757   0.301   2.484   1.762  0.0503  0.2663  0.7403
 2375SOL    HW118758   0.262   2.445   1.684  1.9436 -0.6296  0.2374
 2375SOL    HW218759   0.223   2.483   1.817 -0.3877 -0.6803  0.1097
 2376SOL     OW18760   0.353   1.316   5.681  0.6665 -0.1908 -0.5260
 2376SOL    HW118761   0.449   1.320   5.685  0.6068  0.3014  0.5166
 2376SOL    HW218762   0.334   1.349   5.594  1.0642  1.8075  0.1488
 2377SOL     OW18763   3.690   3.482   8.704 -0.3847  0.1610 -0.3633
 2377SOL    HW118764   3.650   3.521   8.782 -0.9535 -0.7543 -0.2000
 2377SOL    HW218765   3.774   3.451   8.740 -1.2489 -0.8583  0.7550
 2378SOL     OW18766   3.224   4.383  12.168 -0.6757 -0.0008  0.0189
 2378SOL    HW118767   3.163   4.449  12.135 -0.7016 -0.1964 -0.3235
 2378SOL    HW218768   3.304   4.433  12.153 -1.3525  1.1365  0.1293
 2379SOL     OW18769   0.278   4.660   4.500  0.3337 -0.0527 -0.0749
 2379SOL    HW118770   0.299   4.567   4.496 -0.9232 -0.3702  0.6891
 2379SOL    HW218771   0.338   4.696   4.435  1.2601 -1.2486  0.1098
 2380SOL     OW18772   0.402   0.362   6.086  0.1487 -0.2579 -0.0568
 2380SOL    HW118773   0.389   0.310   6.165 -1.0429  0.4677  0.2269
 2380SOL    HW218774   0.451   0.439   6.114 -0.7273  1.2024 -2.4972
 2381SOL     OW18775   2.555   3.660   3.226 -0.1656  0.0126 -0.2686
 2381SOL    HW118776   2.481   3.664   3.287 -0.9138 -0.1718 -1.1503
 2381SOL    HW218777   2.530   3.577   3.185 -1.2240 -0.5872  1.5809
 2382SOL     OW18778   0.730   3.578  15.897 -0.5108 -0.6204 -0.6577
 2382SOL    HW118779   0.665   3.623  15.951 -0.4310  0.0879 -1.1588
 2382SOL    HW218780   0.694   3.597  15.811 -0.9534 -2.0162 -0.7784
 2383SOL     OW18781   4.150   4.319   1.360 -0.6248 -0.0466  0.3552
 2383SOL    HW118782   4.175   4.290   1.448  1.8689 -0.8338 -0.6293
 2383SOL    HW218783   4.228   4.354   1.317 -0.9135  1.5687  1.1128
 2384SOL     OW18784   3.642   3.226   2.229  0.2606 -0.2567 -0.5152
 2384SOL    HW118785   3.701   3.169   2.180  0.7779 -2.1289  2.3081
 2384SOL    HW218786   3.594   3.163   2.283  0.2077 -0.6521 -1.0241
 2385SOL     OW18787   4.301   0.587  14.378  0.0757 -0.1062 -0.1362
 2385SOL    HW118788   4.242   0.512  14.374 -2.9166  2.2063  0.6513
 2385SOL    HW218789   4.303   0.613  14.286  0.2898  0.2689 -0.0271
 2386SOL     OW18790   2.451   3.511   1.757 -0.5033 -0.1022  0.2660
 2386SOL    HW118791   2.405   3.562   1.824  1.1606 -1.1262  2.2118
 2386SOL    HW218792   2.465   3.578   1.690 -0.1500  0.2189  0.6592
 2387SOL     OW18793   3.047   1.074   1.950  0.0648 -0.3352  0.1066
 2387SOL    HW118794   2.958   1.097   1.978  0.9197  1.7741  1.0619
 2387SOL    HW218795   3.088   1.038   2.028  1.7561 -1.0509 -1.1335
 2388SOL     OW18796   0.047   0.148   3.692  0.0647  0.1093  0.1925
 2388SOL    HW118797   0.026   0.196   3.772 -0.5661  0.0262  0.0758
 2388SOL    HW218798   0.076   0.063   3.724 -0.3538 -0.7201 -1.6050
 2389SOL     OW18799   0.566   4.439   9.824 -0.1728 -0.3304 -0.1442
 2389SOL    HW118800   0.644   4.487   9.855 -0.1713 -0.4963  0.1099
 2389SOL    HW218801   0.577   4.350   9.855  1.2868  0.3374  1.3005
 2390SOL     OW18802   3.295   0.845   8.513  0.4607 -0.0358  0.5070
 2390SOL    HW118803   3.219   0.847   8.454  1.9660  1.9113 -1.3481
 2390SOL    HW218804   3.307   0.937   8.534 -2.3823  0.2329  0.9898
 2391SOL     OW18805   1.208   1.553   3.687 -0.2934 -0.3377 -0.4769
 2391SOL    HW118806   1.287   1.517   3.646 -1.3690  2.5268 -5.0674
 2391SOL    HW218807   1.174   1.611   3.619 -0.3956 -0.1658 -0.2775
 2392SOL     OW18808   4.692   2.689   2.154  0.3048 -0.3706  0.5223
 2392SOL    HW118809   4.605   2.696   2.116  1.7148 -0.2989 -2.6316
 2392SOL    HW218810   4.713   2.782   2.155 -0.1799 -0.2673  1.8270
 2393SOL     OW18811   4.147   0.136   8.810 -0.1320  0.2829 -0.0849
 2393SOL    HW118812   4.230   0.128   8.764 -1.0815  1.8388 -2.0676
 2393SOL    HW218813   4.096   0.176   8.740 -0.2041  2.7291  1.3742
 2394SOL     OW18814   4.027   1.533   8.610  0.4782  0.1945 -0.0661
 2394SOL    HW118815   4.007   1.445   8.641  0.4928  0.0813 -0.3771
 2394SOL    HW218816   3.942   1.576   8.623  0.1263 -0.1428 -1.2883
 2395SOL     OW18817   0.471   2.947   8.239 -0.2725 -0.0587  0.1895
 2395SOL    HW118818   0.541   3.001   8.203 -0.6200  0.2232 -0.0656
 2395SOL    HW218819   0.465   2.881   8.170  0.0652  1.0752 -0.8976
 2396SOL     OW18820   2.531   2.176   8.400  0.4959  0.0827  0.0688
 2396SOL    HW118821   2.479   2.142   8.328 -1.5715  1.3915  0.9367
 2396SOL    HW218822   2.611   2.130   8.375 -0.9010 -1.7211 -1.0907
 2397SOL     OW18823   3.930   0.864   2.673  0.0903 -0.5102 -0.1583
 2397SOL    HW118824   4.024   0.848   2.664 -0.1850 -0.6035 -2.8143
 2397SOL    HW218825   3.897   0.779   2.703  1.1913 -1.0454 -0.4574
 2398SOL     OW18826   1.039   3.454  11.465  0.2767  0.0151 -0.7579
 2398SOL    HW118827   0.993   3.474  11.383  1.4239  2.6913 -0.7629
 2398SOL    HW218828   0.989   3.385  11.508 -0.5096  0.5797 -0.7637
 2399SOL     OW18829   1.835   4.021  16.015 -0.0920 -0.0781  0.4493
 2399SOL    HW118830   1.827   3.926  16.027 -0.4556 -0.4435 -2.6669
 2399SOL    HW218831   1.747   4.049  16.040 -0.1577  0.2141 -0.1156
 2400SOL     OW18832   3.378   0.499   7.968 -0.4695  0.3892 -0.3581
 2400SOL    HW118833   3.374   0.408   7.999  1.6859  0.1960 -0.6221
 2400SOL    HW218834   3.318   0.550   8.021  0.3241  0.6324  0.3045
 2401SOL     OW18835   2.921   3.910   0.324  0.0430 -0.0547 -1.0196
 2401SOL    HW118836   2.870   3.829   0.333 -1.0708  0.8609  0.8287
 2401SOL    HW218837   2.966   3.921   0.407  1.3795  2.7914 -2.1047
 2402SOL     OW18838   4.650   0.230  11.036 -0.1244 -0.4007  0.2718
 2402SOL    HW118839   4.709   0.194  11.103  1.1855  1.3293  0.0428
 2402SOL    HW218840   4.636   0.318  11.071  0.9174 -0.4094  0.7177
 2403SOL     OW18841   1.801   1.485   5.357 -0.0543  0.2541 -0.0536
 2403SOL    HW118842   1.724   1.427   5.361 -1.4123  2.0631  0.3542
 2403SOL    HW218843   1.792   1.536   5.276 -0.0675  2.4299  1.3166
 2404SOL     OW18844   1.830   0.278   3.254  0.0374 -0.5388 -0.9186
 2404SOL    HW118845   1.764   0.332   3.212 -2.7253 -1.9292  1.6839
 2404SOL    HW218846   1.871   0.343   3.311 -2.7119 -0.6599  1.1769
 2405SOL     OW18847   0.792   0.286  16.197  0.5251  0.1062 -0.0996
 2405SOL    HW118848   0.874   0.326  16.224  0.3669 -0.6908  1.5615
 2405SOL    HW218849   0.744   0.283  16.280  0.2700  1.1205 -0.2126
 2406SOL     OW18850   4.239   2.194  11.356 -0.1083  0.1685 -0.1812
 2406SOL    HW118851   4.201   2.143  11.427  0.7067 -1.6210 -1.0438
 2406SOL    HW218852   4.242   2.282  11.394 -1.5503 -0.8106  2.2099
 2407SOL     OW18853   3.802   2.370   1.993  0.0027 -0.1061 -0.1106
 2407SOL    HW118854   3.732   2.418   1.948  1.2591  0.4870 -1.3975
 2407SOL    HW218855   3.771   2.355   2.083  1.1079 -0.6792  0.1715
 2408SOL     OW18856   3.387   2.955  10.455 -0.0171  0.6616 -0.2937
 2408SOL    HW118857   3.445   3.030  10.468  1.5795 -0.5317 -0.5329
 2408SOL    HW218858   3.454   2.889  10.440 -1.3048 -0.5645 -0.6171
 2409SOL     OW18859   3.305   4.494  14.876  0.8721 -0.1493 -0.7792
 2409SOL    HW118860   3.223   4.544  14.881  0.4311 -0.9950  0.3761
 2409SOL    HW218861   3.360   4.533  14.944 -0.5874  0.6326 -0.0454
 2410SOL     OW18862   4.260   0.667   7.518 -0.0649 -0.1037 -0.3451
 2410SOL    HW118863   4.331   0.721   7.481 -0.9264 -0.2264 -2.1439
 2410SOL    HW218864   4.238   0.628   7.434  2.5423 -0.1986 -0.9883
 2411SOL     OW18865   3.788   1.238  15.451  0.2012 -0.2104 -0.1587
 2411SOL    HW118866   3.817   1.318  15.407  1.1566 -0.8650 -0.7085
 2411SOL    HW218867   3.719   1.271  15.508  1.3513  0.9295  0.5558
 2412SOL     OW18868   1.502   1.539  10.793  0.1533  0.6336  0.4290
 2412SOL    HW118869   1.424   1.564  10.842  2.1289  2.9205  2.3931
 2412SOL    HW218870   1.464   1.479  10.729  0.9952 -0.8759  1.3391
 2413SOL     OW18871   1.572   0.342   7.156  0.2301 -0.2072  0.0317
 2413SOL    HW118872   1.606   0.431   7.156  0.0597 -0.1376 -0.4288
 2413SOL    HW218873   1.575   0.317   7.248  1.0564  0.9440  0.3111
 2414SOL     OW18874   1.855   0.209   3.828  0.2878 -0.0208 -0.1788
 2414SOL    HW118875   1.938   0.177   3.865 -0.4664  1.6950  3.0309
 2414SOL    HW218876   1.804   0.233   3.906  0.1706 -1.7313  0.2703
 2415SOL     OW18877   4.117   2.301   6.493  0.3966  0.2579 -0.5200
 2415SOL    HW118878   4.151   2.244   6.561  0.0657 -0.6582 -1.1242
 2415SOL    HW218879   4.138   2.250   6.415 -0.2254 -1.8728  0.7361
 2416SOL     OW18880   4.307   1.308   6.143  0.1629  0.0836 -0.0408
 2416SOL    HW118881   4.376   1.359   6.186 -0.4687 -1.5606  2.9752
 2416SOL    HW218882   4.281   1.371   6.076 -1.2805  0.8916  1.2796
 2417SOL     OW18883   4.519   1.880   5.910  0.6929  0.4044 -0.1500
 2417SOL    HW118884   4.613   1.891   5.926  0.3072  1.2694  1.6162
 2417SOL    HW218885   4.497   1.971   5.889  0.6537  0.7520  1.3801
 2418SOL     OW18886   2.100   3.395   2.521 -0.4186 -0.9156 -0.2762
 2418SOL    HW118887   2.054   3.427   2.598 -2.0044 -1.9738 -0.7725
 2418SOL    HW218888   2.053   3.434   2.447  1.4924  0.7072 -0.6487
 2419SOL     OW18889   4.366   3.640   3.677 -0.3675  0.2222 -0.3908
 2419SOL    HW118890   4.342   3.558   3.720  1.9505  0.6033  1.6645
 2419SOL    HW218891   4.341   3.708   3.739  0.8919  0.5435 -0.2406
 2420SOL     OW18892   2.698   0.499   8.640  0.6359 -0.2683 -0.9481
 2420SOL    HW118893   2.791   0.477   8.642  0.6010 -0.4569 -1.5591
 2420SOL    HW218894   2.662   0.411   8.642 -2.9625  1.2582  2.1299
 2421SOL     OW18895   2.970   0.642  12.392 -0.6370  0.3678  0.4832
 2421SOL    HW118896   2.894   0.674  12.443 -1.6718  1.0155 -1.4770
 2421SOL    HW218897   3.014   0.723  12.365 -1.3649  1.1687  1.6609
 2422SOL     OW18898   1.532   3.097  17.041 -0.2787 -0.7194 -0.3308
 2422SOL    HW118899   1.588   3.021  17.054  1.8099  1.2409  2.0097
 2422SOL    HW218900   1.515   3.115  17.134  0.6668  0.2004 -0.3419
 2423SOL     OW18901   1.920   4.571  14.128 -0.6516 -0.2999 -0.1754
 2423SOL    HW118902   1.921   4.499  14.065 -0.6824 -1.8210  1.5478
 2423SOL    HW218903   1.839   4.606  14.092 -0.5425  1.1135  0.9956
 2424SOL     OW18904   3.108   1.059   9.273  0.0478  0.6451 -0.2473
 2424SOL    HW118905   3.074   1.148   9.268 -0.0642  0.6311  0.2436
 2424SOL    HW218906   3.027   1.008   9.266 -0.6608  1.3512  2.7215
 2425SOL     OW18907   3.608   3.952  16.950  0.2052 -0.2002 -0.3669
 2425SOL    HW118908   3.561   3.893  16.892 -2.6874  1.5411  0.2083
 2425SOL    HW218909   3.626   4.024  16.889 -0.9259  0.6112  0.2552
 2426SOL     OW18910   4.610   2.900   7.909  0.3232 -0.6394  0.1730
 2426SOL    HW118911   4.518   2.885   7.930  0.0169 -2.0524 -2.1600
 2426SOL    HW218912   4.606   2.989   7.875 -1.1377  0.0525  2.2179
 2427SOL     OW18913   1.881   4.704   1.825  0.6555 -0.1710  0.0716
 2427SOL    HW118914   1.857   4.715   1.733 -0.0947 -0.2682  0.2626
 2427SOL    HW218915   1.885   4.608   1.822  2.0644 -0.2486  4.7467
 2428SOL     OW18916   1.596   2.349  15.944  0.0227  0.2277 -0.1972
 2428SOL    HW118917   1.550   2.319  16.022  0.2079 -0.1240 -0.2231
 2428SOL    HW218918   1.615   2.267  15.900  0.2264  0.0425  0.2289
 2429SOL     OW18919   0.984   4.549   5.362  0.2937 -0.1290  0.6119
 2429SOL    HW118920   0.898   4.523   5.332  0.0881 -0.9455  1.8996
 2429SOL    HW218921   0.986   4.645   5.357 -0.0347 -0.1374  0.3363
 2430SOL     OW18922   3.857   2.330   8.351  0.2269 -0.1769 -0.0833
 2430SOL    HW118923   3.827   2.359   8.437  1.8576 -1.8245  1.0485
 2430SOL    HW218924   3.834   2.237   8.362 -1.3056  0.4377  1.9063
 2431SOL     OW18925   4.312   4.112   6.712 -0.2181  0.6474  0.1134
 2431SOL    HW118926   4.386   4.112   6.772 -0.0279  0.4404 -0.1176
 2431SOL    HW218927   4.317   4.025   6.671 -0.4007  1.7188 -2.1624
 2432SOL     OW18928   2.008   0.877   7.131  0.2331 -0.5314 -0.3805
 2432SOL    HW118929   2.084   0.820   7.145  0.7360  0.3091  0.3042
 2432SOL    HW218930   1.951   0.847   7.202  0.6348 -1.2916 -0.3785
 2433SOL     OW18931   1.756   3.062  13.317  0.5031 -0.4309 -0.3835
 2433SOL    HW118932   1.726   3.112  13.393  0.3356 -3.8605  1.7937
 2433SOL    HW218933   1.849   3.069  13.340  0.5610  1.4551 -1.1541
 2434SOL     OW18934   4.283   0.801   3.290  0.5140 -0.7814 -0.5911
 2434SOL    HW118935   4.245   0.880   3.251  0.3296 -0.7556 -0.3627
 2434SOL    HW218936   4.366   0.833   3.325 -0.3821  0.6901  0.2077
 2435SOL     OW18937   1.036   3.539   6.474  0.4001 -0.5814 -0.4977
 2435SOL    HW118938   1.049   3.544   6.379 -1.6223  1.4833 -0.6578
 2435SOL    HW218939   1.106   3.599   6.502 -0.5918  0.7862 -0.9377
 2436SOL     OW18940   1.133   1.896  10.527  0.3971  0.1459  0.2224
 2436SOL    HW118941   1.106   1.956  10.596 -0.0037 -1.9100  1.8360
 2436SOL    HW218942   1.059   1.913  10.469  2.0760  0.9167 -1.6841
 2437SOL     OW18943   4.153   4.103   5.603  0.1675  0.8612  0.3329
 2437SOL    HW118944   4.166   4.012   5.576 -0.1854  0.4235  1.6424
 2437SOL    HW218945   4.182   4.103   5.694 -0.8647 -1.0275  0.6582
 2438SOL     OW18946   2.556   3.577   5.316  0.2788 -0.4227  0.0495
 2438SOL    HW118947   2.524   3.613   5.398  1.3095  3.1475 -1.0933
 2438SOL    HW218948   2.599   3.654   5.278  1.3789 -1.3911 -0.6839
 2439SOL     OW18949   4.289   3.555   1.910  0.5124 -0.6346  0.7207
 2439SOL    HW118950   4.199   3.583   1.894  0.6111 -0.0198  1.2632
 2439SOL    HW218951   4.343   3.595   1.841  0.0438 -0.7677  0.2757
 2440SOL     OW18952   1.973   0.723   5.095 -0.1452  0.3299 -0.3466
 2440SOL    HW118953   1.966   0.663   5.169 -2.7377  2.3943  1.0991
 2440SOL    HW218954   2.062   0.700   5.071 -0.4389  0.3209 -1.4115
 2441SOL     OW18955   0.372   1.234   6.057  0.4052 -0.3462 -0.1062
 2441SOL    HW118956   0.393   1.327   6.049  1.6931 -0.7259 -1.0923
 2441SOL    HW218957   0.306   1.240   6.126 -1.1227 -3.3267 -1.2867
 2442SOL     OW18958   2.078   4.344   9.618 -0.1400  0.4541  0.7207
 2442SOL    HW118959   2.051   4.422   9.667 -1.7208 -1.5784  3.0794
 2442SOL    HW218960   2.166   4.327   9.651  0.3546 -1.2167 -1.4479
 2443SOL     OW18961   0.809   1.869   9.475 -0.6857 -0.1249  0.1654
 2443SOL    HW118962   0.757   1.924   9.416  0.2541  0.7210  0.1177
 2443SOL    HW218963   0.894   1.894   9.440 -0.0062 -1.5181  0.8332
 2444SOL     OW18964   3.163   1.362   5.222  0.4300 -0.0321  0.3277
 2444SOL    HW118965   3.127   1.282   5.184  1.8185 -1.2725  1.6036
 2444SOL    HW218966   3.083   1.414   5.218 -0.1731 -0.9154  1.0239
 2445SOL     OW18967   0.167   0.246   7.124 -0.1226  0.6215 -0.3447
 2445SOL    HW118968   0.165   0.167   7.179  1.9344  1.1988  0.5663
 2445SOL    HW218969   0.161   0.207   7.037  0.1570  0.5319 -0.3241
 2446SOL     OW18970   0.081   1.952  11.797 -0.5708 -0.2613 -0.2231
 2446SOL    HW118971   0.038   2.037  11.790  0.2773  0.0630 -1.7566
 2446SOL    HW218972   0.092   1.923  11.706 -1.7110  0.0862 -0.4707
 2447SOL     OW18973   1.494   1.198  15.464 -0.1424  1.1949 -0.6672
 2447SOL    HW118974   1.453   1.112  15.465  0.2751  1.0065  0.2180
 2447SOL    HW218975   1.492   1.223  15.372 -0.4148  1.7180 -0.5171
 2448SOL     OW18976   3.754   2.257   4.238  0.4081 -0.1183 -0.0806
 2448SOL    HW118977   3.812   2.277   4.311  0.1121 -1.8295  0.6136
 2448SOL    HW218978   3.785   2.320   4.172 -1.3960  0.3627 -0.4944
 2449SOL     OW18979   4.485   0.040   7.276 -0.4933  0.8065 -0.4952
 2449SOL    HW118980   4.456   0.034   7.185  0.5443 -0.6068 -0.7470
 2449SOL    HW218981   4.467   4.697   7.315 -1.4313  0.7701 -1.0173
 2450SOL     OW18982   0.305   4.158   4.402  0.4546  0.1990  0.1732
 2450SOL    HW118983   0.228   4.170   4.457 -0.5529 -1.9154 -0.7605
 2450SOL    HW218984   0.262   4.116   4.328 -0.0258  1.0760 -0.0466
 2451SOL     OW18985   2.140   2.927   9.182 -0.1600  0.0009  0.4412
 2451SOL    HW118986   2.092   3.009   9.189 -0.7049 -0.0983 -2.2044
 2451SOL    HW218987   2.060   2.876   9.169  0.4904 -1.5264  2.4238
 2452SOL     OW18988   4.664   0.592   5.820 -0.9636 -0.0161  0.0761
 2452SOL    HW118989   4.646   0.635   5.904 -1.1174  0.6295 -0.2889
 2452SOL    HW218990   4.718   0.656   5.775 -0.2236 -0.0582  0.8946
 2453SOL     OW18991   1.946   3.005   7.961  0.1414  0.0599  0.1714
 2453SOL    HW118992   1.979   2.923   7.923  1.9916  0.8631  0.0679
 2453SOL    HW218993   1.912   3.049   7.883  0.1598 -0.0788  0.0855
 2454SOL     OW18994   4.154   3.889   5.256  0.1636  0.2727  0.7274
 2454SOL    HW118995   4.195   3.975   5.261  3.1201 -1.3014  3.2133
 2454SOL    HW218996   4.105   3.880   5.337 -0.7622 -1.9735 -0.0930
 2455SOL     OW18997   0.207   1.573   8.941  0.8048 -0.1792 -0.5908
 2455SOL    HW118998   0.123   1.575   8.897  0.4198  0.3173  0.1634
 2455SOL    HW218999   0.197   1.652   8.993  2.1950 -1.0016  0.9572
 2456SOL     OW19000   1.538   0.569   6.877 -0.2173  0.3901  0.0668
 2456SOL    HW119001   1.589   0.649   6.894 -0.7836  1.0380 -1.2697
 2456SOL    HW219002   1.449   0.606   6.877 -0.0669  0.7573  1.5812
 2457SOL     OW19003   2.887   0.856   9.240 -0.2696  0.6304 -0.0283
 2457SOL    HW119004   2.837   0.866   9.321 -1.8979  0.7063 -1.0574
 2457SOL    HW219005   2.865   0.765   9.221  1.9179 -0.2059  1.5125
 2458SOL     OW19006   3.515   2.298   1.937 -0.3977  0.0008  0.0915
 2458SOL    HW119007   3.465   2.317   2.016 -1.2495 -1.7575 -0.0192
 2458SOL    HW219008   3.559   2.219   1.970 -0.9396  0.1961  1.2869
 2459SOL     OW19009   3.641   3.417   4.178  0.5550 -0.2694 -0.3687
 2459SOL    HW119010   3.571   3.355   4.198  0.3877  0.6715  1.8517
 2459SOL    HW219011   3.654   3.391   4.087 -1.1486  1.7404 -1.1873
 2460SOL     OW19012   0.342   1.857   7.186  0.4600 -0.5613  0.6206
 2460SOL    HW119013   0.381   1.917   7.123 -0.8925  0.5788  0.8772
 2460SOL    HW219014   0.304   1.783   7.138 -0.8607  0.0020  0.8182
 2461SOL     OW19015   2.579   2.356   6.644 -0.2792  0.1311 -0.9549
 2461SOL    HW119016   2.587   2.440   6.598  1.3384 -0.8529 -2.4691
 2461SOL    HW219017   2.540   2.301   6.575 -0.7230 -0.3864 -0.2834
 2462SOL     OW19018   3.050   3.519  10.908  0.8590 -0.1090  0.3668
 2462SOL    HW119019   3.084   3.544  10.822  0.8408 -1.9267 -0.1748
 2462SOL    HW219020   2.966   3.483  10.878  1.3644 -0.4780 -0.6148
 2463SOL     OW19021   4.294   2.376   3.355  0.3927  0.6779 -0.5697
 2463SOL    HW119022   4.220   2.323   3.384 -0.8636  2.8420  0.1845
 2463SOL    HW219023   4.330   2.322   3.284  0.4169  2.4164 -1.8851
 2464SOL     OW19024   4.302   1.869   2.624 -0.4380  0.4221 -0.8856
 2464SOL    HW119025   4.293   1.780   2.589 -1.6971  0.2353 -0.0856
 2464SOL    HW219026   4.389   1.901   2.600  0.5876 -1.0606  0.7861
 2465SOL     OW19027   3.467   0.790  17.664 -0.0713  0.2265 -0.3366
 2465SOL    HW119028   3.379   0.826  17.657 -0.7599 -1.4749 -0.2044
 2465SOL    HW219029   3.515   0.819  17.586  2.0220 -2.0463  0.0902
 2466SOL     OW19030   2.379   1.975   3.883 -0.0631 -0.3561  0.3956
 2466SOL    HW119031   2.318   1.960   3.810 -0.2441 -2.9407  1.0862
 2466SOL    HW219032   2.358   1.905   3.945 -2.5247  0.3058  0.3339
 2467SOL     OW19033   0.402   3.888  10.077  0.1805 -0.4801  0.2524
 2467SOL    HW119034   0.463   3.844  10.018 -0.7515 -0.6077 -0.5994
 2467SOL    HW219035   0.326   3.837  10.050  0.8810 -1.2927 -0.1940
 2468SOL     OW19036   0.376   0.209   7.442  0.0796 -0.0701  0.2875
 2468SOL    HW119037   0.406   0.233   7.355  0.3079  1.0822  0.6778
 2468SOL    HW219038   0.339   0.294   7.467  2.1077  0.3297  1.9323
 2469SOL     OW19039   4.660   0.818   9.302  0.1786 -0.6182 -0.1149
 2469SOL    HW119040   4.724   0.846   9.237 -1.1746  1.5116 -0.5416
 2469SOL    HW219041   4.591   0.801   9.237 -0.4719  0.7339  0.2269
 2470SOL     OW19042   4.622   4.305   8.879 -0.2894  0.2691  0.0467
 2470SOL    HW119043   4.561   4.240   8.913 -0.2611 -0.1951 -0.8109
 2470SOL    HW219044   4.610   4.378   8.940  2.2540 -0.8330  1.8718
 2471SOL     OW19045   2.499   3.687   5.585 -0.5769  0.1382 -0.6757
 2471SOL    HW119046   2.543   3.770   5.566 -1.2291  0.4322 -0.9005
 2471SOL    HW219047   2.408   3.712   5.568 -0.0862  0.0710 -3.5432
 2472SOL     OW19048   0.729   4.301  17.615  0.4309  0.1082 -0.1885
 2472SOL    HW119049   0.795   4.314  17.683  1.0450  0.9579 -0.9442
 2472SOL    HW219050   0.665   4.370  17.631  2.7069  2.3656 -0.7780
 2473SOL     OW19051   2.561   3.204   8.361  0.2773 -0.5772 -0.4981
 2473SOL    HW119052   2.490   3.166   8.310 -0.9150  0.8127  0.1136
 2473SOL    HW219053   2.572   3.146   8.436  2.5356 -1.4046 -1.4981
 2474SOL     OW19054   1.278   1.346   8.272 -0.5968 -0.5498  0.2377
 2474SOL    HW119055   1.357   1.398   8.256  0.2927 -2.1848 -0.5773
 2474SOL    HW219056   1.244   1.338   8.183  1.8588  2.0416 -0.9579
 2475SOL     OW19057   3.855   4.687   3.963  0.5092 -0.8726  0.2782
 2475SOL    HW119058   3.929   4.681   4.024  0.8974  0.6782 -0.0445
 2475SOL    HW219059   3.787   4.725   4.019 -1.1375 -0.6302 -1.8987
 2476SOL     OW19060   2.883   2.313  16.345  0.1481 -0.6379  0.6942
 2476SOL    HW119061   2.959   2.284  16.295  0.9316 -0.2146  1.6402
 2476SOL    HW219062   2.817   2.258  16.304 -0.4857  0.9074 -0.3685
 2477SOL     OW19063   1.732   1.539   6.642  1.0398  0.0159  0.2276
 2477SOL    HW119064   1.648   1.495   6.654  0.8596 -0.0336 -1.2059
 2477SOL    HW219065   1.721   1.613   6.701  0.7388 -0.1227  0.3430
 2478SOL     OW19066   2.672   3.787  17.251  0.5351  0.0166 -0.2678
 2478SOL    HW119067   2.761   3.773  17.220  1.1661 -0.4814  1.7717
 2478SOL    HW219068   2.636   3.706  17.215  0.2949 -1.0117  2.2819
 2479SOL     OW19069   1.495   1.773   6.307  0.1342 -0.5340  0.7585
 2479SOL    HW119070   1.456   1.692   6.273  0.3800 -0.2309 -0.2715
 2479SOL    HW219071   1.589   1.757   6.312 -0.0383 -0.4568  3.7725
 2480SOL     OW19072   3.281   2.735   7.676  0.1883 -0.1589  0.3762
 2480SOL    HW119073   3.346   2.730   7.606  1.0604 -2.6485  1.3358
 2480SOL    HW219074   3.204   2.726   7.620 -0.4395 -0.4593  1.2769
 2481SOL     OW19075   4.225   4.103   5.993 -0.5304 -0.5069  0.0510
 2481SOL    HW119076   4.261   4.018   5.968  0.4207 -0.3427  0.8411
 2481SOL    HW219077   4.159   4.072   6.054 -0.7985  1.0858  0.5827
 2482SOL     OW19078   4.377   4.552   6.670  0.2290  0.2426 -1.1149
 2482SOL    HW119079   4.309   4.488   6.650 -1.6491  2.3112 -1.4598
 2482SOL    HW219080   4.333   4.636   6.685  1.5382  0.4674  1.4925
 2483SOL     OW19081   1.739   0.989   9.671 -0.5000 -0.1472 -0.0140
 2483SOL    HW119082   1.789   0.945   9.603 -1.9427 -0.8422 -0.6407
 2483SOL    HW219083   1.752   1.081   9.646 -1.0135  0.2426  1.0863
 2484SOL     OW19084   4.087   3.220   1.932 -0.3106 -0.6779  0.5405
 2484SOL    HW119085   4.076   3.147   1.993 -1.5250 -1.4182 -0.5500
 2484SOL    HW219086   4.071   3.293   1.991  1.1222  1.4977 -1.7133
 2485SOL     OW19087   1.850   2.496  11.181 -0.3338  1.0279 -0.6901
 2485SOL    HW119088   1.869   2.522  11.271  0.8817  0.1793 -0.7164
 2485SOL    HW219089   1.769   2.451  11.206  0.2886  0.1590 -0.2353
 2486SOL     OW19090   2.833   3.774   7.171  0.0408 -0.1242  0.4119
 2486SOL    HW119091   2.755   3.819   7.138  0.5738 -0.9237 -1.9159
 2486SOL    HW219092   2.853   3.713   7.101  0.2971  2.0455 -1.4165
 2487SOL     OW19093   1.658   3.741   7.080 -0.3329 -0.7699 -0.1731
 2487SOL    HW119094   1.647   3.836   7.089  2.1776 -0.2545 -2.3382
 2487SOL    HW219095   1.645   3.716   7.172 -1.6684  1.2175  0.1665
 2488SOL     OW19096   3.747   3.199   8.319  0.4316  0.5232 -0.3353
 2488SOL    HW119097   3.671   3.251   8.347  0.9863  1.3492 -0.3835
 2488SOL    HW219098   3.733   3.188   8.225 -1.0975 -0.4409 -0.0015
 2489SOL     OW19099   0.048   1.051   1.905  0.2018 -0.3355 -0.4136
 2489SOL    HW119100   0.090   1.119   1.957  0.8291 -0.6954 -0.4608
 2489SOL    HW219101   0.022   1.098   1.826  0.8361  0.6757 -0.0180
 2490SOL     OW19102   2.855   0.580  11.495 -0.1961  0.0062 -0.2447
 2490SOL    HW119103   2.769   0.539  11.506  0.5597 -0.7789  2.7510
 2490SOL    HW219104   2.842   0.665  11.536 -0.0656 -0.0947  0.0122
 2491SOL     OW19105   4.435   0.135   7.528 -0.5653  0.0253 -0.5541
 2491SOL    HW119106   4.465   0.152   7.438 -0.5062  2.0496 -0.1487
 2491SOL    HW219107   4.351   0.095   7.505  0.2613 -2.8081  1.2610
 2492SOL     OW19108   0.449   2.256   5.133  0.5876 -0.0276  0.0997
 2492SOL    HW119109   0.468   2.309   5.056 -1.8163  0.1123 -0.4010
 2492SOL    HW219110   0.365   2.214   5.113  1.6546 -1.7751 -0.7486
 2493SOL     OW19111   1.902   4.084   9.084 -0.1211 -0.3438 -0.0167
 2493SOL    HW119112   1.919   4.108   9.175 -0.5662 -1.8502  0.4671
 2493SOL    HW219113   1.929   3.992   9.082  2.8796  0.5640 -0.8644
 2494SOL     OW19114   4.446   2.083   8.053  0.0956 -0.0023 -0.0769
 2494SOL    HW119115   4.491   2.151   8.003 -0.6168 -0.3005 -1.1134
 2494SOL    HW219116   4.360   2.121   8.035  0.9482  0.3941 -3.3417
 2495SOL     OW19117   2.152   4.415  16.714  0.0542  0.4863  0.1851
 2495SOL    HW119118   2.073   4.381  16.671 -1.4347  1.6830  1.9503
 2495SOL    HW219119   2.166   4.336  16.767  0.5484 -0.1783 -0.9484
 2496SOL     OW19120   1.042   1.870  17.168 -0.4321 -0.1041 -0.2955
 2496SOL    HW119121   1.056   1.791  17.220  2.1036  0.8111  0.4534
 2496SOL    HW219122   1.117   1.927  17.184  0.3416 -0.7249 -1.7362
 2497SOL     OW19123   1.820   1.946   5.347  0.2399 -0.2399 -0.3848
 2497SOL    HW119124   1.788   2.032   5.376  0.8941 -0.3338  0.6039
 2497SOL    HW219125   1.740   1.896   5.365 -0.5046  1.5208  1.2560
 2498SOL     OW19126   4.222   2.691   2.319 -0.2325 -0.1513  0.1775
 2498SOL    HW119127   4.236   2.784   2.298 -0.2576 -0.4316 -1.0534
 2498SOL    HW219128   4.310   2.662   2.343 -0.7146 -1.0903  0.7936
 2499SOL     OW19129   2.935   3.926   3.034  0.8476  0.2036  0.8339
 2499SOL    HW119130   2.855   3.916   3.086  0.9666 -0.9141  0.8121
 2499SOL    HW219131   2.996   3.936   3.107  0.2365 -0.8517  1.4950
 2500SOL     OW19132   1.657   3.022  11.440 -0.1194 -0.5725 -0.6451
 2500SOL    HW119133   1.691   3.064  11.361 -1.2073 -1.2078 -1.4416
 2500SOL    HW219134   1.714   2.945  11.443  1.1699  0.3983  0.2367
 2501SOL     OW19135   3.611   1.951   8.850 -0.3118  0.3995  0.0971
 2501SOL    HW119136   3.638   2.041   8.864  0.4303  0.2705 -0.4762
 2501SOL    HW219137   3.516   1.959   8.842 -0.3514 -1.0729 -0.9716
 2502SOL     OW19138   0.741   3.232  11.198 -0.1349 -0.2267  0.5456
 2502SOL    HW119139   0.832   3.214  11.175 -0.3151 -0.0135 -0.3257
 2502SOL    HW219140   0.723   3.307  11.141  2.6051  1.6793  2.1760
 2503SOL     OW19141   0.643   2.793  16.498 -0.2732 -0.1711  0.2132
 2503SOL    HW119142   0.689   2.877  16.505  0.0710 -0.3691  0.3563
 2503SOL    HW219143   0.552   2.814  16.480  0.0388  1.4286  0.4931
 2504SOL     OW19144   4.423   0.624   6.231 -0.3111 -0.7327 -0.2986
 2504SOL    HW119145   4.452   0.624   6.322 -0.2635 -0.4043 -0.3152
 2504SOL    HW219146   4.497   0.659   6.181 -0.2670 -1.4663 -0.7514
 2505SOL     OW19147   2.784   1.371   3.360  0.3751 -0.2326  0.0105
 2505SOL    HW119148   2.708   1.345   3.308  0.0573  1.1494 -0.1956
 2505SOL    HW219149   2.773   1.466   3.366 -1.2182 -0.3032 -1.8511
 2506SOL     OW19150   2.955   0.987  15.908  0.3933 -0.2508  0.3031
 2506SOL    HW119151   2.945   1.057  15.845 -2.0238 -0.3385  0.5668
 2506SOL    HW219152   2.906   0.924  15.855 -0.3593 -0.5949  1.3928
 2507SOL     OW19153   1.038   1.579   5.092  0.3144  0.0276  0.1280
 2507SOL    HW119154   1.104   1.568   5.024 -0.3932 -0.7694 -0.4366
 2507SOL    HW219155   0.987   1.651   5.055 -0.5483 -0.7281 -0.1585
 2508SOL     OW19156   0.808   4.423  10.977 -0.8091  0.9147  0.1810
 2508SOL    HW119157   0.773   4.415  11.065  0.5744  0.4861  0.6852
 2508SOL    HW219158   0.733   4.419  10.917 -0.7054 -0.4522  0.1517
 2509SOL     OW19159   0.809   2.549  12.049  0.1941  0.3718 -0.1288
 2509SOL    HW119160   0.854   2.582  12.126 -1.8034  0.1639  1.1298
 2509SOL    HW219161   0.775   2.470  12.092 -0.0338 -0.2815 -1.4919
 2510SOL     OW19162   1.794   0.335   2.402  0.4967  0.7510  0.2900
 2510SOL    HW119163   1.887   0.346   2.382  0.3778 -1.6608 -1.6682
 2510SOL    HW219164   1.770   0.290   2.321  0.0088  0.1524  0.7626
 2511SOL     OW19165   1.244   2.831   5.639 -0.3471 -0.6949  0.4760
 2511SOL    HW119166   1.279   2.920   5.642  5.0579 -2.8346  1.3851
 2511SOL    HW219167   1.324   2.787   5.611  0.5047  0.9487  0.3305
 2512SOL     OW19168   1.394   0.176   1.781 -0.1717 -0.0450  0.1674
 2512SOL    HW119169   1.458   0.137   1.840 -1.1638 -3.1668 -0.8066
 2512SOL    HW219170   1.391   0.265   1.816 -0.4860  0.2706 -0.6602
 2513SOL     OW19171   2.222   1.909   5.874  0.1611  0.6737  0.2758
 2513SOL    HW119172   2.170   1.960   5.812 -1.4583  0.7951  1.7258
 2513SOL    HW219173   2.294   1.968   5.894  0.2519  0.5443  0.3383
 2514SOL     OW19174   4.628   4.439  10.650  0.4578 -0.4838 -0.2777
 2514SOL    HW119175   4.696   4.483  10.599  1.2814 -0.2547  1.0253
 2514SOL    HW219176   4.549   4.481  10.617  0.5371  0.8317  1.1964
 2515SOL     OW19177   2.750   0.084   1.282 -0.4906  0.3558  0.1665
 2515SOL    HW119178   2.826   0.050   1.330  0.1513 -0.2571 -1.2808
 2515SOL    HW219179   2.748   0.015   1.216  2.0112 -0.4688  0.9448
 2516SOL     OW19180   0.971   0.131  17.531  0.0495  0.4045 -0.3512
 2516SOL    HW119181   0.946   0.196  17.596 -0.1018  0.5593 -0.5653
 2516SOL    HW219182   0.965   0.048  17.579 -5.1425  0.0038 -1.6228
 2517SOL     OW19183   3.727   1.175   1.747 -0.4582  0.0842  0.4093
 2517SOL    HW119184   3.789   1.205   1.813  0.0455  0.1196 -0.0803
 2517SOL    HW219185   3.771   1.199   1.666  1.0135  0.0387  1.1957
 2518SOL     OW19186   0.024   0.548   6.521 -0.4672 -0.4953 -0.0665
 2518SOL    HW119187   0.075   0.530   6.599  0.2371  1.9876  0.0597
 2518SOL    HW219188   0.048   0.481   6.456 -0.4789  0.5268 -1.1321
 2519SOL     OW19189   4.354   0.351   1.660  0.5378 -0.0421 -0.6824
 2519SOL    HW119190   4.377   0.443   1.673  0.7475 -0.1339 -0.4014
 2519SOL    HW219191   4.308   0.348   1.576  1.9296  0.8783 -1.4956
 2520SOL     OW19192   2.146   0.006  13.091 -0.4127  0.3089  0.1121
 2520SOL    HW119193   2.093   4.671  13.113 -1.0537  0.3636 -1.2652
 2520SOL    HW219194   2.212   4.717  13.029  0.3958  0.0153  1.1238
 2521SOL     OW19195   3.803   0.378   4.587 -0.1765  0.4195 -0.1294
 2521SOL    HW119196   3.892   0.350   4.565  0.0045 -1.0828  2.5555
 2521SOL    HW219197   3.822   0.451   4.646  3.9241  1.2240 -2.4494
 2522SOL     OW19198   2.483   1.361   9.125 -0.9548  0.1328  0.2812
 2522SOL    HW119199   2.471   1.381   9.032 -1.2815  0.7766  0.4582
 2522SOL    HW219200   2.402   1.321   9.157  0.7152 -1.9628  1.9297
 2523SOL     OW19201   4.699   3.487   0.086 -0.3404  0.1958 -0.5823
 2523SOL    HW119202   4.664   3.504   0.173 -1.2996  0.6008 -1.0493
 2523SOL    HW219203   0.037   3.537   0.100  0.0637 -1.0706  1.6600
 2524SOL     OW19204   0.676   2.568   6.107 -0.4641  0.0219 -0.1514
 2524SOL    HW119205   0.717   2.605   6.185 -1.4268  0.1107  0.3101
 2524SOL    HW219206   0.750   2.582   6.048 -1.2983  2.3572 -0.6248
 2525SOL     OW19207   4.229   1.987  10.731 -0.0643 -0.5128  0.3741
 2525SOL    HW119208   4.307   1.931  10.734  0.9210  0.8615  0.3959
 2525SOL    HW219209   4.278   2.064  10.760 -1.8790  0.9601 -0.4843
 2526SOL     OW19210   2.131   1.848  13.052  0.4034 -0.2265  0.0685
 2526SOL    HW119211   2.156   1.758  13.030 -1.1386 -0.8031  0.6761
 2526SOL    HW219212   2.115   1.853  13.146 -0.5040 -0.2764 -0.0822
 2527SOL     OW19213   2.124   1.672   3.224  0.5185  0.1834  0.1958
 2527SOL    HW119214   2.041   1.692   3.267 -0.6135 -0.8569 -1.5051
 2527SOL    HW219215   2.108   1.728   3.147 -3.8844 -0.4460  0.6585
 2528SOL     OW19216   0.320   2.099   4.608 -0.0375  0.7138 -0.3266
 2528SOL    HW119217   0.414   2.114   4.607  0.1325 -0.2870  0.2397
 2528SOL    HW219218   0.292   2.155   4.536 -0.9941  0.2687 -0.3090
 2529SOL     OW19219   0.817   2.369   5.121 -0.5155 -0.1794  0.1351
 2529SOL    HW119220   0.855   2.449   5.157  2.9626 -2.0038  0.4772
 2529SOL    HW219221   0.888   2.342   5.063 -0.3724  1.6967 -0.5791
 2530SOL     OW19222   2.574   1.885   2.911  0.3392  0.3338  0.6442
 2530SOL    HW119223   2.483   1.893   2.940 -1.0770  0.2876 -3.8463
 2530SOL    HW219224   2.583   1.959   2.851 -1.3125 -0.2169 -0.2529
 2531SOL     OW19225   0.341   1.909   0.167  0.5682 -0.4299  0.3828
 2531SOL    HW119226   0.380   1.904   0.080  1.8447  1.9038  0.8066
 2531SOL    HW219227   0.383   1.838   0.216  1.4045  0.6436  1.2350
 2532SOL     OW19228   3.068   3.104   5.706  0.6219 -0.3813  0.1902
 2532SOL    HW119229   2.994   3.105   5.646 -0.0504 -0.5264  1.0132
 2532SOL    HW219230   3.140   3.100   5.643  3.1079 -1.4805  3.0784
 2533SOL     OW19231   0.932   0.296   7.822 -0.1910  0.4376  0.0597
 2533SOL    HW119232   0.944   0.206   7.853 -2.0385 -0.4987 -1.9632
 2533SOL    HW219233   0.900   0.284   7.733 -2.5385 -0.8958  1.0884
 2534SOL     OW19234   2.292   3.622   5.049  0.6037  0.0186  0.1410
 2534SOL    HW119235   2.242   3.587   5.122  0.4107  0.0742  0.0359
 2534SOL    HW219236   2.293   3.713   5.077 -0.7873 -0.4879  1.8355
 2535SOL     OW19237   4.261   1.170   8.623 -0.0542  0.3133  0.3544
 2535SOL    HW119238   4.194   1.150   8.558  0.4061 -1.0721  0.3058
 2535SOL    HW219239   4.312   1.226   8.565  2.1975 -1.3614  0.7377
 2536SOL     OW19240   4.443   2.030   7.487 -0.1588 -0.1794 -0.4669
 2536SOL    HW119241   4.530   2.004   7.517  0.2165  0.3987 -1.0562
 2536SOL    HW219242   4.387   2.006   7.561  0.6399  1.6195  0.7060
 2537SOL     OW19243   3.245   1.382   6.776 -0.0199 -0.1913  0.4961
 2537SOL    HW119244   3.263   1.441   6.702  2.1820  1.0015  2.0005
 2537SOL    HW219245   3.229   1.444   6.847  1.3063  0.9132 -0.1607
 2538SOL     OW19246   3.325   1.513  15.101 -0.3117 -0.0783  0.0216
 2538SOL    HW119247   3.376   1.590  15.074  0.6217 -0.2536  1.2568
 2538SOL    HW219248   3.359   1.448  15.039 -2.1695  0.7225 -1.8045
 2539SOL     OW19249   1.455   0.547   5.886 -0.2173 -0.5216 -0.4795
 2539SOL    HW119250   1.444   0.536   5.981  1.1967  2.3086  0.0027
 2539SOL    HW219251   1.367   0.543   5.849  0.1179  0.1985 -1.3400
 2540SOL     OW19252   0.358   4.187   6.203 -0.1398 -0.2495  0.4404
 2540SOL    HW119253   0.367   4.282   6.193  2.6780 -0.5096  0.5720
 2540SOL    HW219254   0.395   4.158   6.120  0.2234  2.2260 -0.2677
 2541SOL     OW19255   3.787   4.153  10.761  0.3177 -0.3219 -0.0753
 2541SOL    HW119256   3.705   4.197  10.737  0.2177 -1.2009 -1.3240
 2541SOL    HW219257   3.826   4.234  10.794  0.6788 -0.4054 -0.2964
 2542SOL     OW19258   1.853   2.622   2.505  0.0559 -0.0688  0.5334
 2542SOL    HW119259   1.922   2.663   2.453 -2.3823  0.4242 -2.3020
 2542SOL    HW219260   1.825   2.553   2.446  0.6625 -1.5001  1.9323
 2543SOL     OW19261   1.288   3.916  11.028  0.0638  0.3007 -0.3666
 2543SOL    HW119262   1.236   3.996  11.021  2.9162  2.1679 -0.2782
 2543SOL    HW219263   1.268   3.886  10.939  0.7130  2.9253 -1.3869
 2544SOL     OW19264   4.423   2.282  11.732  0.1758  0.0559  0.3400
 2544SOL    HW119265   4.343   2.250  11.692  0.4052 -1.0764  0.7968
 2544SOL    HW219266   4.415   2.377  11.726 -0.3696  0.1760  2.9733
 2545SOL     OW19267   2.799   1.520   2.787  0.2911 -0.3373 -0.0599
 2545SOL    HW119268   2.781   1.558   2.873 -0.0619  2.6213 -1.4700
 2545SOL    HW219269   2.867   1.456   2.808  0.7492  0.4951  0.9561
 2546SOL     OW19270   4.654   3.604   6.713  0.6027 -0.2514 -0.4584
 2546SOL    HW119271   0.005   3.586   6.708  0.0108 -3.1995 -0.8400
 2546SOL    HW219272   4.612   3.518   6.711 -1.7002  0.8100  0.8776
 2547SOL     OW19273   4.077   4.699  15.822 -0.7729 -0.0006  0.1732
 2547SOL    HW119274   4.145   0.021  15.843 -1.3916  0.1248  1.8239
 2547SOL    HW219275   4.104   4.674  15.735  0.3711  0.8581  0.2835
 2548SOL     OW19276   1.733   0.641   4.641 -0.5812 -0.3166 -0.4837
 2548SOL    HW119277   1.820   0.640   4.682 -0.6566  1.4516 -0.2862
 2548SOL    HW219278   1.732   0.730   4.608 -0.9096 -0.2833 -0.3882
 2549SOL     OW19279   3.810   4.292   9.330 -0.0854  0.2306 -0.1469
 2549SOL    HW119280   3.807   4.388   9.334 -0.6944  0.1446  1.4212
 2549SOL    HW219281   3.891   4.269   9.375 -1.9400 -4.3366  0.8445
 2550SOL     OW19282   2.334   3.722   2.366  0.4069 -0.0048  0.0214
 2550SOL    HW119283   2.310   3.633   2.341 -1.2188  0.1813  0.9159
 2550SOL    HW219284   2.252   3.761   2.398 -1.3487 -3.2718 -0.4753
 2551SOL     OW19285   0.233   4.361   0.842  0.0294 -0.2195 -0.1337
 2551SOL    HW119286   0.141   4.338   0.853  0.8191 -2.8719  0.8614
 2551SOL    HW219287   0.271   4.341   0.927  1.8213  3.9504  0.0558
 2552SOL     OW19288   2.076   3.001  17.444  0.4065  0.2045 -0.2637
 2552SOL    HW119289   2.029   2.982  17.525 -0.1950 -1.7514 -1.0591
 2552SOL    HW219290   2.120   2.916  17.443  0.8032  0.4106 -0.2679
 2553SOL     OW19291   3.467   0.716   8.682 -0.6163 -0.7150 -0.0582
 2553SOL    HW119292   3.418   0.764   8.615  1.7196  1.0672 -0.4858
 2553SOL    HW219293   3.547   0.696   8.634  1.0868 -0.4145  2.7107
 2554SOL     OW19294   2.331   4.521   2.650 -0.2744 -0.4743 -0.3026
 2554SOL    HW119295   2.375   4.605   2.664 -1.3875  0.3193 -1.5927
 2554SOL    HW219296   2.404   4.459   2.644  0.3674  0.1328  1.1021
 2555SOL     OW19297   0.849   1.987   4.089  0.0904  0.2065 -0.0402
 2555SOL    HW119298   0.943   1.973   4.085  0.2782  2.0452 -1.7052
 2555SOL    HW219299   0.821   1.909   4.138  1.2970  0.0694  0.4284
 2556SOL     OW19300   0.485   1.866   3.886  0.1712 -0.3058  0.1907
 2556SOL    HW119301   0.416   1.893   3.826 -0.4561  1.1586  1.5749
 2556SOL    HW219302   0.444   1.852   3.971  0.6644  0.4303  0.5479
 2557SOL     OW19303   2.533   3.168   2.555  0.1894 -0.1330 -0.0000
 2557SOL    HW119304   2.594   3.221   2.502 -2.4909  1.8933 -1.0592
 2557SOL    HW219305   2.517   3.084   2.513 -0.9390 -0.4424  1.0482
 2558SOL     OW19306   0.767   1.680   5.383 -0.2862 -0.2656 -0.3501
 2558SOL    HW119307   0.851   1.707   5.419 -0.3066 -1.2235  0.4478
 2558SOL    HW219308   0.708   1.727   5.443  1.1283  1.9688 -0.7348
 2559SOL     OW19309   3.820   0.909   2.308  0.1963 -0.0510  0.2883
 2559SOL    HW119310   3.735   0.865   2.297  1.4576 -2.3286 -0.2631
 2559SOL    HW219311   3.795   0.995   2.343  2.7005  0.6573  0.3050
 2560SOL     OW19312   1.190   3.533  17.446  1.0618 -0.1392  0.2575
 2560SOL    HW119313   1.255   3.579  17.500  1.3529 -0.6617  0.3485
 2560SOL    HW219314   1.105   3.560  17.480  1.0719 -2.3992  2.0690
 2561SOL     OW19315   3.907   0.826   9.162  0.2569  0.8943 -0.3617
 2561SOL    HW119316   3.883   0.915   9.189 -0.9675  0.1646  0.9553
 2561SOL    HW219317   3.894   0.776   9.242 -1.3651  2.0509  0.1056
 2562SOL     OW19318   4.244   2.848   3.046 -0.2048  0.3121  0.0268
 2562SOL    HW119319   4.210   2.776   2.993  1.2020 -1.0970  0.9817
 2562SOL    HW219320   4.159   2.885   3.068 -1.1055 -0.6205 -1.8928
 2563SOL     OW19321   4.098   0.299   6.162  0.3092 -0.1798 -0.0118
 2563SOL    HW119322   4.102   0.388   6.198 -0.4521 -0.6399  1.2191
 2563SOL    HW219323   4.020   0.304   6.107 -0.0156 -2.9602  0.2083
 2564SOL     OW19324   2.028   3.602   2.344  0.2479 -0.2031 -0.2712
 2564SOL    HW119325   2.045   3.664   2.416  2.4823 -0.1703 -0.8155
 2564SOL    HW219326   1.936   3.620   2.328  0.3088 -1.3864 -1.9286
 2565SOL     OW19327   4.352   2.938   8.228  0.2067  0.2205  0.0206
 2565SOL    HW119328   4.357   2.899   8.141 -0.8987 -0.4589  0.2594
 2565SOL    HW219329   4.438   2.981   8.227  0.7667 -0.8643  0.4715
 2566SOL     OW19330   1.885   4.676  15.939  0.1640 -0.4187  0.3459
 2566SOL    HW119331   1.953   4.657  16.004 -0.1053 -2.0953  0.1528
 2566SOL    HW219332   1.813   4.705  15.994 -0.6299 -1.0450 -0.3700
 2567SOL     OW19333   0.065   4.553   4.220  0.2964  0.7980  0.0814
 2567SOL    HW119334   0.074   4.595   4.135 -0.9943  1.1970  0.1381
 2567SOL    HW219335   0.090   4.629   4.273  1.5807 -2.7221  4.5982
 2568SOL     OW19336   3.763   1.466   2.078  0.1301  0.1578 -0.0517
 2568SOL    HW119337   3.800   1.549   2.048  1.3046  0.4703  2.2677
 2568SOL    HW219338   3.815   1.401   2.031  1.1289 -0.9454  2.5694
 2569SOL     OW19339   3.837   3.423   3.570 -0.4617 -0.4016  0.7860
 2569SOL    HW119340   3.866   3.363   3.502 -1.0437  0.4763 -0.2293
 2569SOL    HW219341   3.743   3.432   3.552 -0.4836  1.3561  1.7372
 2570SOL     OW19342   3.841   0.401  16.403 -0.1979 -0.4743  0.3769
 2570SOL    HW119343   3.776   0.449  16.352 -0.6095 -2.6325 -1.1264
 2570SOL    HW219344   3.872   0.333  16.344  0.8032  2.7640 -2.8607
 2571SOL     OW19345   2.218   4.553  10.597  0.7091 -0.3483 -0.2037
 2571SOL    HW119346   2.269   4.622  10.554  0.1527 -0.8217 -1.6045
 2571SOL    HW219347   2.138   4.602  10.614  1.0004  0.5688 -1.4464
 2572SOL     OW19348   0.959   0.264  12.466 -0.0780 -0.4239 -0.1066
 2572SOL    HW119349   1.011   0.313  12.403  0.9976  0.4242  1.4271
 2572SOL    HW219350   1.013   0.188  12.491  1.1133  1.0220  1.7473
 2573SOL     OW19351   4.196   1.119  11.808 -0.0213  0.4924  0.7517
 2573SOL    HW119352   4.255   1.047  11.830  1.1206  0.7848 -1.3118
 2573SOL    HW219353   4.227   1.135  11.718 -0.2545 -1.3319  0.3520
 2574SOL     OW19354   3.842   4.556   3.600 -0.0277 -0.2436  0.6800
 2574SOL    HW119355   3.794   4.486   3.555  1.5654 -1.0883  0.3032
 2574SOL    HW219356   3.777   4.570   3.669  0.9161  0.9517  1.3046
 2575SOL     OW19357   0.914   0.930   6.791 -0.3654  0.2230  0.4109
 2575SOL    HW119358   0.893   0.945   6.883 -1.6451  0.6461  0.0527
 2575SOL    HW219359   0.851   0.860   6.774  1.3765 -0.8336 -1.6893
 2576SOL     OW19360   4.045   4.661   7.258 -0.2553 -0.3284 -0.0228
 2576SOL    HW119361   4.032   4.619   7.173  0.1524 -1.5447  0.5093
 2576SOL    HW219362   4.024   4.585   7.313 -0.9418 -0.4334 -0.4353
 2577SOL     OW19363   4.363   4.286  10.135 -0.0477  0.3158  0.0337
 2577SOL    HW119364   4.390   4.194  10.141 -2.2471 -0.4448 -1.8209
 2577SOL    HW219365   4.280   4.287  10.184  0.2541  0.0229  0.5576
 2578SOL     OW19366   1.092   1.070   9.277  0.7589 -0.1416  0.9180
 2578SOL    HW119367   1.162   1.100   9.220 -1.1311 -0.2407 -1.4548
 2578SOL    HW219368   1.046   1.006   9.222  0.1925  1.3444 -0.3379
 2579SOL     OW19369   2.787   2.612   8.053  0.3297 -0.0520 -0.0339
 2579SOL    HW119370   2.729   2.662   7.996  0.4531  0.2560  0.1133
 2579SOL    HW219371   2.753   2.524   8.032  0.0878 -0.2750  1.3314
 2580SOL     OW19372   0.150   3.144   2.882 -0.1720  0.2274 -0.2269
 2580SOL    HW119373   0.138   3.198   2.804 -1.4201 -1.4568 -1.1933
 2580SOL    HW219374   0.097   3.071   2.849 -2.2450  1.6194  0.0088
 2581SOL     OW19375   4.452   0.756   3.763 -0.3568 -0.0621 -0.0394
 2581SOL    HW119376   4.512   0.748   3.689 -2.3747 -1.2903 -1.5352
 2581SOL    HW219377   4.367   0.760   3.720  0.3234 -0.0553 -1.3615
 2582SOL     OW19378   0.130   4.584   0.530 -0.3664  0.0328  0.4226
 2582SOL    HW119379   0.100   4.496   0.553  1.1621 -1.4541 -3.1935
 2582SOL    HW219380   0.221   4.581   0.559 -0.1906  1.6786  0.0115
 2583SOL     OW19381   0.776   0.238  17.281  0.2781 -0.0942 -0.5449
 2583SOL    HW119382   0.725   0.311  17.243  0.0558 -1.1715 -2.3012
 2583SOL    HW219383   0.694   0.201  17.315 -0.6732  0.9674 -1.6525
 2584SOL     OW19384   3.085   0.099   5.581 -0.2380  0.5728 -0.2732
 2584SOL    HW119385   3.011   0.039   5.568  0.2590  0.1863 -1.3027
 2584SOL    HW219386   3.136   0.088   5.501  2.2974  0.8138  1.2976
 2585SOL     OW19387   1.206   3.732  13.131  0.1383 -0.2828 -0.3091
 2585SOL    HW119388   1.144   3.770  13.068 -1.7391 -0.2206  1.5705
 2585SOL    HW219389   1.177   3.779  13.209 -1.5132  0.6496 -1.4842
 2586SOL     OW19390   1.628   2.307   3.764  0.1269 -0.2760 -0.8409
 2586SOL    HW119391   1.674   2.308   3.848 -1.2185  3.6205 -0.1239
 2586SOL    HW219392   1.653   2.220   3.734  1.2700  0.3667 -1.7328
 2587SOL     OW19393   2.244   3.154   5.567 -0.6698  0.5464 -0.3742
 2587SOL    HW119394   2.232   3.187   5.479 -2.2331 -0.0493 -0.3761
 2587SOL    HW219395   2.314   3.210   5.600 -0.8753  2.4509 -3.2098
 2588SOL     OW19396   0.669   1.227  10.407  0.2673  0.1133 -0.2560
 2588SOL    HW119397   0.762   1.214  10.392  0.4601  0.8234  0.3165
 2588SOL    HW219398   0.667   1.266  10.495 -0.2687 -3.2221  1.2077
 2589SOL     OW19399   2.324   3.207   8.207  0.2309  0.8395  0.9122
 2589SOL    HW119400   2.300   3.256   8.129 -0.2421  1.9509  1.7619
 2589SOL    HW219401   2.242   3.157   8.217  1.8610 -2.2936 -1.3917
 2590SOL     OW19402   3.517   2.667  17.081 -0.0871  0.5930  0.2037
 2590SOL    HW119403   3.599   2.625  17.055 -2.0646 -2.5619 -0.9819
 2590SOL    HW219404   3.502   2.720  17.003  1.4803  0.5800 -0.1022
 2591SOL     OW19405   1.820   4.078   7.390  0.5478  0.1598  0.1696
 2591SOL    HW119406   1.868   4.123   7.320  2.0617  0.2702  1.2811
 2591SOL    HW219407   1.764   4.009   7.354  0.6042 -0.8938  2.1075
 2592SOL     OW19408   0.358   4.698  16.143 -0.0479  0.1718  0.2188
 2592SOL    HW119409   0.317   4.727  16.062  1.8153  1.7076 -0.1928
 2592SOL    HW219410   0.312   4.619  16.169 -0.4509  0.3706  0.0967
 2593SOL     OW19411   0.625   2.906   9.085  0.0970 -0.0074  0.3231
 2593SOL    HW119412   0.548   2.866   9.044  1.6599 -1.2668 -1.3645
 2593SOL    HW219413   0.683   2.830   9.097  0.2379 -0.0346 -0.5642
 2594SOL     OW19414   1.516   3.313   6.868 -0.0761 -0.1071  0.2203
 2594SOL    HW119415   1.522   3.218   6.878  0.9474  0.3431  3.7532
 2594SOL    HW219416   1.433   3.319   6.821 -0.0935 -2.0999 -0.0229
 2595SOL     OW19417   3.782   4.537   4.353  0.3664  0.2434  0.2336
 2595SOL    HW119418   3.826   4.571   4.431  0.9509 -0.0751  0.0508
 2595SOL    HW219419   3.697   4.520   4.393  0.5026  0.0135  0.4318
 2596SOL     OW19420   4.650   1.378  11.954  0.7938  0.6015 -0.4873
 2596SOL    HW119421   4.670   1.286  11.937 -0.3493  0.1481  0.5971
 2596SOL    HW219422   4.667   1.415  11.867 -0.6854  2.3167 -0.0629
 2597SOL     OW19423   4.175   4.309   2.394  0.2166  0.4102  0.1026
 2597SOL    HW119424   4.163   4.215   2.389  0.7425  0.3948 -1.0534
 2597SOL    HW219425   4.095   4.353   2.364 -0.2770 -0.8770 -0.4855
 2598SOL     OW19426   0.837   2.620  16.430  0.2113  0.1734 -0.1579
 2598SOL    HW119427   0.836   2.562  16.506  0.1143  1.3315  0.7235
 2598SOL    HW219428   0.757   2.670  16.444  0.6452  0.6152  0.7722
 2599SOL     OW19429   4.405   3.134  15.958 -0.0826 -0.3840 -0.0534
 2599SOL    HW119430   4.340   3.121  16.027 -0.6650  1.6146 -0.2002
 2599SOL    HW219431   4.387   3.220  15.919  1.4375 -0.8698 -1.8404
 2600SOL     OW19432   2.679   3.824   8.123  0.0619 -0.0132 -0.1717
 2600SOL    HW119433   2.710   3.821   8.033  1.8826  0.2993  0.4353
 2600SOL    HW219434   2.648   3.914   8.111 -0.5659 -0.3562 -1.0865
 2601SOL     OW19435   4.511   1.158   5.760 -0.1712 -0.5091  0.0789
 2601SOL    HW119436   4.502   1.254   5.763 -1.6038 -0.7194  2.0626
 2601SOL    HW219437   4.422   1.134   5.784  0.1051 -0.9616  0.6393
 2602SOL     OW19438   0.026   3.202   4.350  0.0845  0.1370 -0.5680
 2602SOL    HW119439   4.692   3.153   4.318  0.6504 -0.9759 -0.2046
 2602SOL    HW219440   0.001   3.290   4.321  0.0239  0.2708 -0.1151
 2603SOL     OW19441   1.619   0.647   1.985 -0.1609 -0.3024  0.5314
 2603SOL    HW119442   1.714   0.639   1.975 -0.5749 -2.5996 -1.4243
 2603SOL    HW219443   1.615   0.644   2.081  0.6004  2.1471  0.6412
 2604SOL     OW19444   2.323   1.562  15.307 -0.5447 -0.1366 -0.1899
 2604SOL    HW119445   2.313   1.643  15.358 -0.5351  0.7183 -1.5408
 2604SOL    HW219446   2.389   1.597  15.247 -0.9305  0.1423 -0.4537
 2605SOL     OW19447   1.190   0.506  16.948  0.5300  0.0417 -0.1901
 2605SOL    HW119448   1.158   0.596  16.947 -1.7021 -0.7413  0.1352
 2605SOL    HW219449   1.173   0.465  16.863  0.8776 -3.3335  1.3520
 2606SOL     OW19450   0.857   3.207   7.653 -0.1277  0.8297 -0.3206
 2606SOL    HW119451   0.892   3.250   7.732 -0.0337  0.5123 -0.1897
 2606SOL    HW219452   0.899   3.268   7.591  1.0757  1.2039  0.8661
 2607SOL     OW19453   3.705   0.792   7.863  0.0661  0.4967 -0.7871
 2607SOL    HW119454   3.612   0.782   7.881  0.5297  0.0177  1.3521
 2607SOL    HW219455   3.736   0.723   7.922  0.3232  1.3858  0.1253
 2608SOL     OW19456   1.991   0.906   2.485 -0.4359  0.5410 -0.1605
 2608SOL    HW119457   1.908   0.877   2.521 -0.3308 -0.5656 -0.8227
 2608SOL    HW219458   2.040   0.825   2.474  0.0365  0.8119 -0.0526
 2609SOL     OW19459   0.615   2.061   8.088  0.1014 -0.4902 -0.2977
 2609SOL    HW119460   0.532   2.071   8.043  0.1144 -0.4170 -0.3058
 2609SOL    HW219461   0.636   1.972   8.060  1.5203  0.2260 -1.5441
 2610SOL     OW19462   1.106   2.005  13.297  0.1892 -0.4724 -0.6087
 2610SOL    HW119463   1.171   2.016  13.228 -0.4294  0.2984 -1.0651
 2610SOL    HW219464   1.139   1.944  13.363  0.6186  1.0449  0.5489
 2611SOL     OW19465   3.766   4.552   2.150 -0.5368 -0.5297 -0.0525
 2611SOL    HW119466   3.702   4.591   2.208 -0.9996 -0.0770 -0.8650
 2611SOL    HW219467   3.707   4.527   2.079  1.8280 -2.6607 -1.2903
 2612SOL     OW19468   2.366   2.763   3.225  0.8165 -0.4366  0.5852
 2612SOL    HW119469   2.443   2.723   3.266 -0.2462 -1.4492  1.5985
 2612SOL    HW219470   2.406   2.775   3.139  2.1477  1.7299  1.5189
 2613SOL     OW19471   4.690   4.679   2.856  0.1236 -0.1358  0.2856
 2613SOL    HW119472   4.741   4.657   2.778  0.1264 -0.2671  0.3255
 2613SOL    HW219473   0.005   4.642   2.924  2.4964  1.9956 -0.5474
 2614SOL     OW19474   3.669   3.306   7.871 -0.2447  0.1323 -0.7793
 2614SOL    HW119475   3.616   3.386   7.871 -2.0696 -1.0942 -0.9849
 2614SOL    HW219476   3.658   3.264   7.956 -1.1510  0.2123 -0.8558
 2615SOL     OW19477   0.688   3.882   6.745  0.6564  0.5230  0.4123
 2615SOL    HW119478   0.745   3.941   6.696 -0.5894  0.9558 -0.5278
 2615SOL    HW219479   0.671   3.914   6.833 -2.3904  1.1614 -0.3874
 2616SOL     OW19480   4.383   4.670   7.942 -0.2921 -0.0144 -0.3678
 2616SOL    HW119481   4.363   4.594   7.889 -1.3189  0.4997 -0.7195
 2616SOL    HW219482   4.479   4.667   7.938 -0.3143 -0.0460 -0.8739
 2617SOL     OW19483   4.155   4.409  11.154 -0.4621  0.1681  0.3790
 2617SOL    HW119484   4.118   4.472  11.092  0.5089  0.7453  0.3747
 2617SOL    HW219485   4.116   4.434  11.237  0.2690 -1.8010  1.3085
 2618SOL     OW19486   2.329   3.827  14.423  0.3987  0.1585 -0.2065
 2618SOL    HW119487   2.366   3.743  14.450  1.2969  0.8983  0.8656
 2618SOL    HW219488   2.315   3.808  14.330  0.3236 -1.5057  0.1430
 2619SOL     OW19489   0.431   3.022   4.877  0.4528 -0.2618  0.0383
 2619SOL    HW119490   0.451   3.109   4.912 -1.1155 -0.8511  2.3432
 2619SOL    HW219491   0.370   2.998   4.946  0.1136 -0.6116 -0.3822
 2620SOL     OW19492   3.456   4.629   4.071  0.6398  0.4102  0.4282
 2620SOL    HW119493   3.495   4.546   4.096 -0.0827  0.0982  0.5255
 2620SOL    HW219494   3.526   4.688   4.101  1.0777  0.2324 -0.2405
 2621SOL     OW19495   3.550   3.983  16.550 -0.1584  0.1338 -0.1882
 2621SOL    HW119496   3.518   4.071  16.532  0.0270  0.6970  2.2555
 2621SOL    HW219497   3.487   3.931  16.499  0.6917 -0.6493 -0.4483
 2622SOL     OW19498   1.146   1.849   3.156 -0.0553 -0.0618 -0.3978
 2622SOL    HW119499   1.222   1.812   3.201  1.7020  2.5753 -1.1996
 2622SOL    HW219500   1.111   1.769   3.118  0.2129  0.1959 -1.1767
 2623SOL     OW19501   0.349   1.092   2.588 -0.0924  0.0291  0.4193
 2623SOL    HW119502   0.287   1.162   2.568 -0.5471 -0.6255 -0.4505
 2623SOL    HW219503   0.328   1.027   2.520 -0.2960  1.2115 -0.6477
 2624SOL     OW19504   1.922   1.675  15.936 -0.6027  0.0788  0.4369
 2624SOL    HW119505   1.902   1.755  15.984 -1.0291  0.3655 -0.2269
 2624SOL    HW219506   1.878   1.698  15.855  0.3297 -1.4759 -0.5107
 2625SOL     OW19507   3.620   2.045   6.434 -0.3713  0.0355  0.2007
 2625SOL    HW119508   3.606   2.122   6.379 -3.7650  0.4429  1.6688
 2625SOL    HW219509   3.626   1.973   6.372 -3.5722 -0.1370  0.0746
 2626SOL     OW19510   1.308   0.889   5.092  0.1733 -0.2097  0.1759
 2626SOL    HW119511   1.282   0.970   5.135 -0.9495 -0.0427 -0.8476
 2626SOL    HW219512   1.269   0.824   5.152 -0.5231 -0.6795 -0.7951
 2627SOL     OW19513   1.964   0.371   4.297  0.1819  0.3604 -0.2534
 2627SOL    HW119514   2.022   0.407   4.364  0.6862 -1.8337  0.4930
 2627SOL    HW219515   1.880   0.371   4.342  1.0333 -1.0678  1.3550
 2628SOL     OW19516   0.381   2.467   1.065 -0.2258 -0.6899 -0.0939
 2628SOL    HW119517   0.363   2.560   1.056  2.4143 -0.0449  1.2618
 2628SOL    HW219518   0.292   2.434   1.049 -0.1457 -0.3816 -1.2018
 2629SOL     OW19519   1.467   2.407   4.504 -0.0225 -0.4861  0.8049
 2629SOL    HW119520   1.555   2.426   4.536  0.5260 -1.1434 -0.3089
 2629SOL    HW219521   1.449   2.354   4.582 -2.6682 -1.5252 -0.4827
 2630SOL     OW19522   0.085   0.814   8.685 -0.3554 -0.0237 -0.2602
 2630SOL    HW119523   0.056   0.840   8.597 -0.2480  0.6840 -0.0847
 2630SOL    HW219524   0.089   0.719   8.672  1.2222 -0.1509  1.2038
 2631SOL     OW19525   3.781   4.290   9.049 -0.2755  0.1147  0.0691
 2631SOL    HW119526   3.841   4.362   9.031 -0.4187  0.6528  1.7656
 2631SOL    HW219527   3.739   4.323   9.128 -0.7125  0.9083 -0.4992
 2632SOL     OW19528   0.230   3.715   5.136  0.0756  0.0216 -0.0740
 2632SOL    HW119529   0.177   3.650   5.183  1.4431 -0.6883  0.4922
 2632SOL    HW219530   0.171   3.789   5.153  1.0018  0.1346  2.6522
 2633SOL     OW19531   4.681   3.002  16.365 -0.3846 -0.2521 -0.5724
 2633SOL    HW119532   4.662   3.095  16.349 -0.3946 -0.2790 -0.7165
 2633SOL    HW219533   4.589   2.977  16.352 -0.0712 -0.8792 -1.6084
 2634SOL     OW19534   0.648   1.295   8.964  0.2659  0.2031  0.1301
 2634SOL    HW119535   0.571   1.352   8.960 -0.2321 -0.3801  1.3328
 2634SOL    HW219536   0.608   1.208   8.964  1.0357 -0.1499 -0.2955
 2635SOL     OW19537   3.650   2.123   2.715  0.0359  0.0354 -0.2171
 2635SOL    HW119538   3.579   2.116   2.779  0.2212 -0.0172 -0.0165
 2635SOL    HW219539   3.724   2.114   2.775 -1.0582 -1.7608  0.8619
 2636SOL     OW19540   2.507   3.126   2.010  0.4141 -0.1438  0.4064
 2636SOL    HW119541   2.425   3.089   1.976  0.6067  0.6691 -0.8874
 2636SOL    HW219542   2.555   3.168   1.940  1.5695  0.8597  1.7995
 2637SOL     OW19543   3.370   4.472   1.420  0.1405 -0.0420 -0.6376
 2637SOL    HW119544   3.369   4.554   1.370 -0.6857  1.3716  1.7012
 2637SOL    HW219545   3.369   4.497   1.512 -0.6040  1.3999 -1.0308
 2638SOL     OW19546   3.043   2.407   0.632 -0.0910  0.1856  0.0145
 2638SOL    HW119547   3.124   2.457   0.644 -0.3919  0.0909  2.5140
 2638SOL    HW219548   3.000   2.444   0.710  2.2901  0.8476  1.0172
 2639SOL     OW19549   3.599   4.681   2.353  0.0572 -0.0157 -0.1605
 2639SOL    HW119550   3.554   0.023   2.347 -1.0295 -0.5198  0.9666
 2639SOL    HW219551   3.673   4.701   2.411 -0.9112  4.0760 -0.3649
 2640SOL     OW19552   2.343   0.537   1.507  1.1483  0.0247 -0.3161
 2640SOL    HW119553   2.306   0.625   1.503  1.1677 -0.0155 -1.3651
 2640SOL    HW219554   2.309   0.505   1.424  1.2070 -0.5804 -0.1038
 2641SOL     OW19555   0.688   4.403   7.772  0.0302 -0.6600  0.7052
 2641SOL    HW119556   0.609   4.355   7.748  0.4315 -0.7647 -0.4522
 2641SOL    HW219557   0.681   4.479   7.715  1.0585 -0.6935  0.5246
 2642SOL     OW19558   1.269   0.869   1.105  0.2500 -0.3004 -0.3055
 2642SOL    HW119559   1.182   0.841   1.079 -1.7934  3.1189  2.8171
 2642SOL    HW219560   1.299   0.851   1.016 -0.3851 -2.1043 -0.1474
 2643SOL     OW19561   2.027   4.489   7.956 -0.1087  0.3354 -0.1820
 2643SOL    HW119562   2.068   4.415   7.911  0.6362  1.0626 -0.6934
 2643SOL    HW219563   2.102   4.527   8.002 -0.6675  0.7082  0.4246
 2644SOL     OW19564   3.411   1.257   5.529 -0.4323  0.1943 -0.5184
 2644SOL    HW119565   3.400   1.276   5.436  0.8178  2.0057 -0.3044
 2644SOL    HW219566   3.488   1.312   5.545 -1.4097  2.0007 -2.1321
 2645SOL     OW19567   2.613   1.077  16.994  0.0692  0.0101 -0.1296
 2645SOL    HW119568   2.518   1.089  17.001  0.2444  0.6056  1.2983
 2645SOL    HW219569   2.620   0.982  16.999  1.2837  0.0652 -0.8730
 2646SOL     OW19570   0.205   2.799  14.723  0.1479 -0.5487 -0.6153
 2646SOL    HW119571   0.285   2.816  14.772 -0.3597  0.6913 -0.1848
 2646SOL    HW219572   0.234   2.806  14.632  0.9697 -1.8398 -0.4469
 2647SOL     OW19573   4.077   3.459   9.175  0.0774 -0.0497 -0.8494
 2647SOL    HW119574   3.999   3.403   9.171  0.0033 -0.0939  1.4787
 2647SOL    HW219575   4.064   3.508   9.256 -0.0214 -0.9149 -0.3464
 2648SOL     OW19576   3.148   0.994  15.490  0.1365 -0.7900  0.0667
 2648SOL    HW119577   3.239   1.021  15.477  0.3305 -2.2606 -1.6664
 2648SOL    HW219578   3.107   1.066  15.441  0.7482  0.2338  1.0647
 2649SOL     OW19579   2.794   2.802   0.417 -0.1175  0.6657  0.2180
 2649SOL    HW119580   2.716   2.859   0.414 -0.6813 -0.1724 -1.1935
 2649SOL    HW219581   2.793   2.766   0.328  0.6769  0.4778  0.2893
 2650SOL     OW19582   0.379   4.536   2.497 -0.1372  0.1808 -0.0486
 2650SOL    HW119583   0.470   4.553   2.521 -0.1234 -1.0736  0.7805
 2650SOL    HW219584   0.345   4.486   2.571 -0.4097  0.3786 -0.0391
 2651SOL     OW19585   0.550   1.191  17.354  0.1825  0.5772  0.0960
 2651SOL    HW119586   0.576   1.202  17.263 -1.0199  0.1751 -0.2937
 2651SOL    HW219587   0.566   1.097  17.363  1.0338  0.5364 -1.7172
 2652SOL     OW19588   4.160   0.849   7.700 -0.2856 -0.2434 -0.1480
 2652SOL    HW119589   4.164   0.785   7.629 -1.3580 -1.1121  0.5750
 2652SOL    HW219590   4.130   0.794   7.773 -2.5389  1.6308  0.3365
 2653SOL     OW19591   0.208   4.494   0.236  0.5517 -0.1775 -0.5110
 2653SOL    HW119592   0.231   4.419   0.292 -1.4699 -1.5005 -1.4477
 2653SOL    HW219593   0.131   4.523   0.285  0.6729 -2.7032  1.2184
 2654SOL     OW19594   1.228   0.239  17.433 -0.1331  0.4973  0.1927
 2654SOL    HW119595   1.308   0.194  17.407  0.4431 -0.4626  3.6198
 2654SOL    HW219596   1.253   0.261  17.523 -1.5985 -0.3109  0.7942
 2655SOL     OW19597   3.169   0.165   7.354  0.1079  0.4245  0.3150
 2655SOL    HW119598   3.189   0.224   7.427  0.4660 -0.8698  1.2645
 2655SOL    HW219599   3.184   0.081   7.397  1.3847  0.1777 -0.5933
 2656SOL     OW19600   1.355   1.617   1.369 -0.7555  0.2387 -0.0001
 2656SOL    HW119601   1.301   1.650   1.441 -0.2155  0.3887  0.3394
 2656SOL    HW219602   1.444   1.638   1.398  0.5235 -2.7352 -1.8104
 2657SOL     OW19603   0.840   3.211   4.185  0.6454 -0.2867 -0.0206
 2657SOL    HW119604   0.761   3.265   4.188  0.4011 -0.5399 -2.1257
 2657SOL    HW219605   0.832   3.160   4.266  0.1926  0.1262  0.1975
 2658SOL     OW19606   3.328   0.522  11.721  0.2327 -0.3881 -0.0556
 2658SOL    HW119607   3.392   0.491  11.657 -0.1405  3.4931 -2.3127
 2658SOL    HW219608   3.249   0.524  11.667 -0.6631 -0.7729  1.2462
 2659SOL     OW19609   3.445   2.525  11.875 -0.0951  0.2893  0.0706
 2659SOL    HW119610   3.440   2.431  11.857  0.3560 -0.3505  3.1869
 2659SOL    HW219611   3.535   2.525  11.908 -0.7974 -3.1383  2.0422
 2660SOL     OW19612   3.282   4.571   4.448  0.0811 -0.6026 -0.5798
 2660SOL    HW119613   3.247   4.585   4.360  2.6786 -1.8786 -1.7932
 2660SOL    HW219614   3.206   4.598   4.500  2.2155 -0.9225  2.6672
 2661SOL     OW19615   2.404   4.376   6.464 -0.4286 -0.0897  0.7858
 2661SOL    HW119616   2.429   4.445   6.524  0.7092  0.2667 -0.1014
 2661SOL    HW219617   2.426   4.413   6.378  0.4919  1.8583  1.8839
 2662SOL     OW19618   3.031   3.294   2.152 -0.1190  0.2077  0.0135
 2662SOL    HW119619   3.000   3.204   2.139 -0.0463  0.1775  0.0484
 2662SOL    HW219620   2.957   3.338   2.110  0.1342 -1.1762 -1.8927
 2663SOL     OW19621   2.012   4.712   6.155 -0.3833  0.0928  0.6603
 2663SOL    HW119622   2.042   0.058   6.130 -3.4454  0.3516 -2.0510
 2663SOL    HW219623   1.925   4.723   6.116  0.8087  2.4759 -1.3413
 2664SOL     OW19624   0.572   4.700  13.829 -0.6307 -0.2538  0.1961
 2664SOL    HW119625   0.595   4.674  13.918 -0.4788  1.7868  0.7558
 2664SOL    HW219626   0.525   4.621  13.802  0.7289 -1.1667  0.4745
 2665SOL     OW19627   3.235   0.256   7.692  0.3037 -0.0598 -0.0809
 2665SOL    HW119628   3.230   0.210   7.776 -0.3942  0.0450 -0.0622
 2665SOL    HW219629   3.325   0.233   7.672  0.3398  0.1310 -0.1374
 2666SOL     OW19630   0.518   0.891   5.390 -0.6408  0.4063  0.1962
 2666SOL    HW119631   0.436   0.927   5.357  0.2583  1.2652 -1.0932
 2666SOL    HW219632   0.567   0.865   5.311 -3.4982  0.5756 -1.6047
 2667SOL     OW19633   0.577   2.969   5.713 -0.3501 -0.2470  0.1518
 2667SOL    HW119634   0.590   3.043   5.653 -1.5010 -0.5585 -0.4902
 2667SOL    HW219635   0.558   3.021   5.790  1.6420  1.2850 -0.3862
 2668SOL     OW19636   2.533   1.783  13.219 -0.6118  0.2123  0.7447
 2668SOL    HW119637   2.530   1.696  13.179 -0.1690  0.5759 -0.0890
 2668SOL    HW219638   2.506   1.843  13.149 -0.8030  2.1713  2.5026
 2669SOL     OW19639   4.051   3.574   1.779  0.0605  0.3325 -0.0350
 2669SOL    HW119640   3.995   3.649   1.797 -1.1999 -0.5868 -0.0706
 2669SOL    HW219641   3.996   3.505   1.816  1.2364  0.0056  1.1000
 2670SOL     OW19642   0.349   4.646   2.228 -0.0798 -0.2391  0.1316
 2670SOL    HW119643   0.365   4.603   2.311  0.1238 -0.9714 -0.2854
 2670SOL    HW219644   0.265   4.683   2.254  0.7376  1.4977  0.3415
 2671SOL     OW19645   0.493   2.169   1.623  0.0205 -0.0821 -0.3907
 2671SOL    HW119646   0.437   2.102   1.662  0.6377  1.3809  3.0287
 2671SOL    HW219647   0.454   2.198   1.540  0.5812 -3.5587 -1.8629
 2672SOL     OW19648   1.571   0.435  15.468  0.1153  0.1044 -0.4244
 2672SOL    HW119649   1.612   0.405  15.387  0.7950 -1.0670  0.3505
 2672SOL    HW219650   1.529   0.513  15.430 -0.5683  0.2326  0.5963
 2673SOL     OW19651   3.209   2.087   9.358  0.1044  0.5933 -0.9115
 2673SOL    HW119652   3.249   2.015   9.308  1.4957 -1.5608  3.2568
 2673SOL    HW219653   3.118   2.090   9.329 -0.5251 -0.9581  0.9158
 2674SOL     OW19654   2.643   1.444   3.629 -0.2484  0.3113  0.0064
 2674SOL    HW119655   2.602   1.393   3.559 -0.5727  0.3342  0.1808
 2674SOL    HW219656   2.672   1.373   3.686  1.6436  2.0868  1.2753
 2675SOL     OW19657   4.078   4.611   2.763 -0.0717  0.0536  0.7531
 2675SOL    HW119658   4.004   4.617   2.702 -0.7715 -0.1122  1.5965
 2675SOL    HW219659   4.111   4.699   2.745 -0.1602  0.3330  2.0096
 2676SOL     OW19660   1.832   4.137   4.872 -0.7043  0.3243  0.4610
 2676SOL    HW119661   1.799   4.072   4.810  1.9493  1.3953 -2.1413
 2676SOL    HW219662   1.890   4.184   4.811 -0.1309 -0.9371  0.0399
 2677SOL     OW19663   4.173   0.338   5.849 -0.2044  0.2582  0.2881
 2677SOL    HW119664   4.213   0.286   5.918  4.4265  1.1789 -1.6559
 2677SOL    HW219665   4.236   0.411   5.852 -0.4730  0.5634 -1.2425
 2678SOL     OW19666   1.310   0.153  11.773 -0.0966  0.1189 -0.3115
 2678SOL    HW119667   1.281   0.103  11.850 -0.4438  2.7056  1.2273
 2678SOL    HW219668   1.273   0.236  11.802  0.7350 -0.5458  2.6621
 2679SOL     OW19669   1.883   2.665  15.106 -0.4213  0.7956  0.1536
 2679SOL    HW119670   1.976   2.681  15.090 -0.3418  2.6250  2.4523
 2679SOL    HW219671   1.856   2.720  15.180  1.1869  0.5439  0.9244
 2680SOL     OW19672   0.812   0.016   6.921 -0.1408  1.2432 -0.4837
 2680SOL    HW119673   0.850   0.036   6.836 -0.2963  0.6569 -0.6897
 2680SOL    HW219674   0.778   0.100   6.953  0.0534  0.6847  1.2214
 2681SOL     OW19675   3.802   0.841   8.913 -0.3371  0.3430 -0.5729
 2681SOL    HW119676   3.770   0.759   8.878  1.9562 -0.6448 -0.3503
 2681SOL    HW219677   3.846   0.807   8.991 -0.3687 -1.5440 -1.3930
 2682SOL     OW19678   2.688   1.711   3.647  0.0809 -0.0604 -0.1430
 2682SOL    HW119679   2.668   1.617   3.643  2.8930 -0.6511  0.2146
 2682SOL    HW219680   2.734   1.722   3.564 -0.0559  0.3618 -0.1630
 2683SOL     OW19681   2.056   2.278   7.861  0.3976  0.4446 -0.2602
 2683SOL    HW119682   2.109   2.353   7.885 -0.8052  1.5006 -0.8943
 2683SOL    HW219683   2.034   2.289   7.769  1.4926  0.8714 -0.4682
 2684SOL     OW19684   3.154   4.604   1.024  0.3820  0.1849 -0.1132
 2684SOL    HW119685   3.063   4.609   1.051  0.4118  0.7050 -0.1022
 2684SOL    HW219686   3.146   4.529   0.965 -3.7416  0.3657  0.2165
 2685SOL     OW19687   1.409   1.294   2.927 -0.4166  0.5368 -0.4593
 2685SOL    HW119688   1.419   1.232   2.999 -2.2421  0.3830 -0.3351
 2685SOL    HW219689   1.323   1.261   2.900  1.1117 -3.7381 -0.0185
 2686SOL     OW19690   1.348   2.310   8.423 -0.3534  0.5744 -0.3105
 2686SOL    HW119691   1.253   2.309   8.420 -0.3072 -1.1296 -1.1441
 2686SOL    HW219692   1.362   2.399   8.456 -2.0436 -0.1841  2.4430
 2687SOL     OW19693   0.976   3.062  16.129 -0.1710  0.2627 -0.3814
 2687SOL    HW119694   0.986   2.972  16.098 -1.2097  0.1650 -0.4383
 2687SOL    HW219695   0.896   3.051  16.182 -1.2108  3.1146 -1.3696
 2688SOL     OW19696   3.591   0.506   0.777  0.8361  0.6590  0.2384
 2688SOL    HW119697   3.532   0.474   0.710  1.2973  1.8881 -0.7428
 2688SOL    HW219698   3.573   0.454   0.856 -0.6545  0.4475 -0.2400
 2689SOL     OW19699   0.735   2.483   2.846  0.7957  0.3724  0.5365
 2689SOL    HW119700   0.656   2.446   2.807 -0.6593  1.2609  2.6876
 2689SOL    HW219701   0.695   2.532   2.918 -1.1042  0.6441 -0.6881
 2690SOL     OW19702   4.097   1.807   0.310  0.0820  0.3062 -0.7336
 2690SOL    HW119703   4.145   1.724   0.311  0.1236  0.3610  0.8642
 2690SOL    HW219704   4.167   1.868   0.289  0.3077  0.3660  0.1916
 2691SOL     OW19705   2.966   4.564   1.676  0.2481 -0.1619  0.4203
 2691SOL    HW119706   2.934   4.513   1.750 -1.1353 -1.6871 -1.2587
 2691SOL    HW219707   3.033   4.504   1.642  0.5320  2.3615 -3.4511
 2692SOL     OW19708   2.517   2.894   0.384 -0.1026  0.1709  0.0049
 2692SOL    HW119709   2.467   2.947   0.446  2.4365  2.4933  0.0598
 2692SOL    HW219710   2.522   2.942   0.301 -0.7410 -1.4647 -0.9765
 2693SOL     OW19711   2.011   2.894   2.638 -0.0864  0.8839  0.0208
 2693SOL    HW119712   2.092   2.880   2.687  0.1473  1.7726 -0.1093
 2693SOL    HW219713   2.042   2.849   2.560 -2.1467  0.4857 -0.5562
 2694SOL     OW19714   1.491   0.208   6.013 -0.2296  0.1070  0.1463
 2694SOL    HW119715   1.560   0.222   5.948  0.1237  0.9326  0.7016
 2694SOL    HW219716   1.479   0.298   6.043 -1.3829 -0.8661  2.6148
 2695SOL     OW19717   2.294   2.496  14.267  0.2096  0.0146  0.0095
 2695SOL    HW119718   2.247   2.421  14.303  0.1676 -0.2144 -0.5209
 2695SOL    HW219719   2.347   2.528  14.340 -2.0681  2.2006  0.6902
 2696SOL     OW19720   2.666   0.890   4.853  0.1458  0.1116 -0.1651
 2696SOL    HW119721   2.597   0.881   4.919  0.8526  0.3978  0.6044
 2696SOL    HW219722   2.717   0.963   4.889  1.4478 -0.5433 -0.6898
 2697SOL     OW19723   2.756   2.519   7.487  0.0081  0.1488 -0.7756
 2697SOL    HW119724   2.741   2.600   7.437  1.3855  2.3789  2.4411
 2697SOL    HW219725   2.777   2.465   7.411  3.3009 -0.1339  0.3164
 2698SOL     OW19726   0.648   3.331  13.677 -0.5073  0.1359 -0.5849
 2698SOL    HW119727   0.583   3.353  13.744  0.8665 -0.8921  1.0921
 2698SOL    HW219728   0.718   3.285  13.724 -0.5667  0.0424 -0.5877
 2699SOL     OW19729   2.601   3.094   6.067 -0.1335  0.1533  0.1629
 2699SOL    HW119730   2.561   3.169   6.024  1.3500  0.6654 -0.3073
 2699SOL    HW219731   2.690   3.128   6.077  0.0473  0.1947 -1.7412
 2700SOL     OW19732   0.256   3.410   2.055  0.3189  0.1963  0.1924
 2700SOL    HW119733   0.297   3.491   2.085 -1.2315  0.3336  1.9506
 2700SOL    HW219734   0.190   3.445   1.996  0.6335  1.4612  0.5708
 2701SOL     OW19735   3.070   3.161   7.571  0.5520  0.1508 -0.1078
 2701SOL    HW119736   3.141   3.108   7.606  1.0273  1.2382  0.5516
 2701SOL    HW219737   3.103   3.248   7.594  1.4750 -0.2383  0.0285
 2702SOL     OW19738   3.672   4.237   6.454 -0.2784  0.5985  0.2571
 2702SOL    HW119739   3.719   4.194   6.525 -2.3263 -1.8033  0.1957
 2702SOL    HW219740   3.734   4.212   6.385 -0.2560  0.1661  0.4294
 2703SOL     OW19741   1.776   1.597  10.814 -0.1707  0.3498 -0.2337
 2703SOL    HW119742   1.785   1.520  10.870  1.9394  0.1072 -0.9050
 2703SOL    HW219743   1.683   1.579  10.803 -0.6659  0.4462  3.5093
 2704SOL     OW19744   2.952   1.164  15.667 -0.1369  0.2569  0.0259
 2704SOL    HW119745   2.944   1.257  15.645  1.2590  0.7056  1.4899
 2704SOL    HW219746   2.878   1.131  15.616 -1.3984  3.3781 -0.2040
 2705SOL     OW19747   3.956   0.044   6.206  0.1937 -0.0451  0.0340
 2705SOL    HW119748   3.942   0.110   6.138  1.4991 -2.4866 -2.5819
 2705SOL    HW219749   3.871   0.001   6.206  0.9375 -1.5131  1.2061
 2706SOL     OW19750   3.063   1.442  15.143  0.0697 -0.0277  0.2592
 2706SOL    HW119751   3.150   1.480  15.129  1.5598 -2.5587  2.4463
 2706SOL    HW219752   3.049   1.464  15.235  0.1290 -2.4922  0.8711
 2707SOL     OW19753   3.190   0.028  14.301 -0.1679  0.1208  0.1086
 2707SOL    HW119754   3.146   4.716  14.236  0.4851  0.3258 -0.5070
 2707SOL    HW219755   3.131   0.102  14.316  0.3544  0.4125  0.7455
 2708SOL     OW19756   0.392   1.177   5.312  0.4887 -0.1148  0.2441
 2708SOL    HW119757   0.340   1.252   5.343  1.5204  0.8465 -0.3599
 2708SOL    HW219758   0.477   1.201   5.347  0.5945 -0.3083  0.1195
 2709SOL     OW19759   1.115   0.846   4.381 -0.0499  0.1279  0.4164
 2709SOL    HW119760   1.036   0.800   4.411 -0.1768  0.8429  1.1549
 2709SOL    HW219761   1.081   0.870   4.294 -0.6328  0.3923  0.7162
 2710SOL     OW19762   4.578   3.762  15.790 -0.2414  0.4032  0.1026
 2710SOL    HW119763   4.484   3.746  15.795 -0.0405 -0.9536 -0.5278
 2710SOL    HW219764   4.586   3.766  15.695  0.3149  0.7526  0.1600
 2711SOL     OW19765   2.861   0.676   2.978  0.1865  0.1157 -0.0463
 2711SOL    HW119766   2.903   0.661   3.063  0.1231 -0.1946 -0.0694
 2711SOL    HW219767   2.885   0.768   2.972  1.0409  0.0297  1.9065
 2712SOL     OW19768   2.084   0.919   6.265 -0.4738  0.5956  0.1114
 2712SOL    HW119769   1.988   0.927   6.267 -0.4137  1.8186 -2.0021
 2712SOL    HW219770   2.104   0.877   6.348 -0.0390  0.5457 -0.0173
 2713SOL     OW19771   1.242   4.012   7.457  0.2194  0.0582  0.5177
 2713SOL    HW119772   1.242   4.106   7.472  2.0744 -0.0767  1.3510
 2713SOL    HW219773   1.147   3.999   7.453  0.2258 -0.1551  1.0608
 2714SOL     OW19774   1.029   3.497   1.810  0.1494  0.0326  0.8978
 2714SOL    HW119775   1.094   3.443   1.855  0.4016 -1.3168 -1.1310
 2714SOL    HW219776   1.041   3.475   1.718  0.2792  2.0091  0.4348
 2715SOL     OW19777   4.725   3.183   7.533  0.2927  0.4948  0.5664
 2715SOL    HW119778   4.679   3.100   7.546  0.4993  0.2284 -0.4469
 2715SOL    HW219779   0.031   3.185   7.616  1.8954  1.1659 -0.3956
 2716SOL     OW19780   2.723   1.174  15.489 -0.5014  0.1024 -0.2230
 2716SOL    HW119781   2.719   1.129  15.405 -0.5545 -3.2066  1.5419
 2716SOL    HW219782   2.692   1.258  15.456  0.4794  1.2922  1.8922
 2717SOL     OW19783   0.397   0.885   5.983  0.0582  0.7234 -0.2509
 2717SOL    HW119784   0.388   0.791   5.969 -1.9395  1.0369 -1.0649
 2717SOL    HW219785   0.319   0.908   6.034 -0.3428  1.4075 -1.1636
 2718SOL     OW19786   2.311   1.617   9.460  0.5265 -0.1673  0.1635
 2718SOL    HW119787   2.224   1.590   9.489  0.3639  0.5322  0.3089
 2718SOL    HW219788   2.299   1.590   9.368 -0.4735 -0.9058  0.5065
 2719SOL     OW19789   2.384   3.175  14.579 -0.5310  0.4127  0.2274
 2719SOL    HW119790   2.291   3.185  14.559  0.2130 -0.7733 -3.6010
 2719SOL    HW219791   2.397   3.082  14.599 -1.0079  0.8386  2.5240
 2720SOL     OW19792   2.984   0.577   1.338 -0.4957  0.0336  0.2207
 2720SOL    HW119793   3.000   0.616   1.424 -0.4622 -0.9639  0.6738
 2720SOL    HW219794   2.922   0.505   1.354 -1.0944  0.0329 -2.2127
 2721SOL     OW19795   2.215   3.352   7.336  0.0721  0.3806 -0.0399
 2721SOL    HW119796   2.172   3.423   7.289 -1.6929 -0.8594 -0.3252
 2721SOL    HW219797   2.154   3.284   7.307 -0.7181  0.6834  0.8770
 2722SOL     OW19798   1.669   4.196   2.033  0.2494 -0.0704  0.0945
 2722SOL    HW119799   1.673   4.258   2.106  1.4307  1.7559 -1.5277
 2722SOL    HW219800   1.627   4.243   1.961  1.2394  0.0557 -0.4131
 2723SOL     OW19801   4.516   2.183   1.664 -0.6204  0.3265  0.3526
 2723SOL    HW119802   4.465   2.128   1.723  0.6949 -0.7190  0.5259
 2723SOL    HW219803   4.509   2.272   1.698  0.0683  1.1677 -1.6771
 2724SOL     OW19804   3.143   3.565  14.929 -0.4556 -0.3941 -0.2369
 2724SOL    HW119805   3.048   3.567  14.930 -0.3873  2.6725  0.8901
 2724SOL    HW219806   3.165   3.593  14.840  2.7442  2.1182  1.3157
 2725SOL     OW19807   1.627   3.318   6.232 -0.1116  0.2517  0.3346
 2725SOL    HW119808   1.663   3.352   6.314 -1.4358  0.5411  0.7990
 2725SOL    HW219809   1.676   3.236   6.231 -2.8227 -1.3845  1.5627
 2726SOL     OW19810   3.216   4.088  14.626 -0.1830 -0.0793  0.2400
 2726SOL    HW119811   3.195   4.124  14.712 -2.1352 -1.4590  0.3399
 2726SOL    HW219812   3.248   4.167  14.582 -1.0359 -0.0183 -0.2654
 2727SOL     OW19813   3.770   2.348   9.496  0.3567 -0.2647  0.2642
 2727SOL    HW119814   3.843   2.308   9.543 -0.2030 -0.6029  0.8414
 2727SOL    HW219815   3.752   2.428   9.545  0.2864 -0.7088  0.9548
 2728SOL     OW19816   2.185   2.633   9.245 -0.4018  0.7347 -0.5931
 2728SOL    HW119817   2.154   2.714   9.205  0.7546  1.3472 -0.2586
 2728SOL    HW219818   2.266   2.660   9.289 -0.6524 -0.3674  0.5492
 2729SOL     OW19819   0.195   1.524  14.793 -0.2669  0.0091  0.4781
 2729SOL    HW119820   0.289   1.504  14.788 -0.2233  0.6866 -1.7828
 2729SOL    HW219821   0.185   1.532  14.698  1.9642  0.9586  0.3197
 2730SOL     OW19822   1.510   0.387  15.738  0.2964 -0.4675  0.6976
 2730SOL    HW119823   1.518   0.474  15.778 -1.3286 -0.5539  1.2130
 2730SOL    HW219824   1.498   0.412  15.646 -2.1002  0.0136  1.1306
 2731SOL     OW19825   4.181   1.332   9.451 -0.1624 -0.1702 -0.5443
 2731SOL    HW119826   4.127   1.255   9.468 -0.4716  0.5162  1.6371
 2731SOL    HW219827   4.154   1.385   9.526  1.6616  2.4067 -1.7333
 2732SOL     OW19828   1.426   3.463  11.804  0.5347  0.0766 -0.1806
 2732SOL    HW119829   1.411   3.539  11.748  0.5903 -1.2387 -1.9391
 2732SOL    HW219830   1.386   3.395  11.750 -0.1159 -0.6072  1.1637
 2733SOL     OW19831   3.976   1.827   7.175  0.4976 -0.0650  0.8784
 2733SOL    HW119832   3.958   1.921   7.163 -0.6254 -0.3116  0.5873
 2733SOL    HW219833   3.974   1.791   7.086 -3.7982 -0.4763  1.1076
 2734SOL     OW19834   2.033   2.965  15.382  0.0420  0.1452  0.0846
 2734SOL    HW119835   1.940   2.945  15.378 -0.5490  3.0868 -0.5002
 2734SOL    HW219836   2.062   2.987  15.294  0.1504  2.1679  0.6209
 2735SOL     OW19837   0.013   2.190  15.594 -0.0773  0.3295  0.8236
 2735SOL    HW119838   0.053   2.273  15.564 -0.3215  0.5332  1.0691
 2735SOL    HW219839   4.661   2.204  15.604  0.2418  0.8716  2.9418
 2736SOL     OW19840   3.569   1.379  12.557  0.0300  0.4034  0.0949
 2736SOL    HW119841   3.598   1.294  12.592  0.2188  0.3382 -0.2198
 2736SOL    HW219842   3.653   1.411  12.525  0.3554 -0.1454  0.4108
 2737SOL     OW19843   1.566   0.565  10.340 -0.4015  0.6598  0.4479
 2737SOL    HW119844   1.548   0.574  10.246  0.8622 -2.5181 -0.0975
 2737SOL    HW219845   1.651   0.608  10.344  0.6093 -1.4553  1.8013
 2738SOL     OW19846   4.554   2.995   0.097 -0.3452 -0.6566  0.0596
 2738SOL    HW119847   4.459   2.984   0.090 -0.5416  1.7066 -0.7845
 2738SOL    HW219848   4.570   2.924   0.159  3.5203  1.2072  1.2016
 2739SOL     OW19849   1.372   1.093  14.587  0.6225 -0.1129 -0.1916
 2739SOL    HW119850   1.417   1.009  14.595  0.4080 -0.1323  0.9107
 2739SOL    HW219851   1.435   1.138  14.531 -0.4308 -1.5565 -2.5316
 2740SOL     OW19852   2.352   0.640   9.040 -0.2599 -0.0097 -0.0981
 2740SOL    HW119853   2.379   0.556   9.003  1.5680  1.3454 -1.8034
 2740SOL    HW219854   2.285   0.680   8.985 -0.0011  0.5344 -0.0222
 2741SOL     OW19855   1.613   1.703   8.059 -0.5915 -0.2762  0.6075
 2741SOL    HW119856   1.679   1.638   8.083 -0.7829 -0.3719  0.8863
 2741SOL    HW219857   1.597   1.763   8.132 -0.8347 -1.2057  1.3234
 2742SOL     OW19858   0.628   4.429   4.373  0.1581  0.1061 -0.2570
 2742SOL    HW119859   0.687   4.383   4.433  1.0512  1.9293  0.2670
 2742SOL    HW219860   0.678   4.502   4.338 -0.3204  0.5293 -0.0565
 2743SOL     OW19861   0.540   3.931   3.189 -0.0369  0.1230 -0.2020
 2743SOL    HW119862   0.468   3.887   3.145 -0.5392  0.0537  0.6830
 2743SOL    HW219863   0.541   3.887   3.274 -1.8962  0.0959 -0.1980
 2744SOL     OW19864   0.054   4.660   9.783  0.2767 -0.3847  0.2654
 2744SOL    HW119865   0.015   4.704   9.859 -1.7058 -0.5038 -0.7070
 2744SOL    HW219866   0.099   4.587   9.827  2.2697  0.3462 -0.5744
 2745SOL     OW19867   4.203   0.716   6.040 -0.7329  0.0330  0.2645
 2745SOL    HW119868   4.259   0.686   6.111 -0.7067  0.9843  0.6538
 2745SOL    HW219869   4.269   0.748   5.978  0.3909 -1.0716  0.9031
 2746SOL     OW19870   2.675   4.195  15.636 -0.4795  0.2407  0.4292
 2746SOL    HW119871   2.618   4.147  15.696 -1.7459  0.9919 -0.1888
 2746SOL    HW219872   2.713   4.250  15.705 -0.8016 -1.5338  2.0408
 2747SOL     OW19873   1.748   0.724   7.072  0.8346  0.3130 -0.2273
 2747SOL    HW119874   1.676   0.697   7.129  2.4201 -0.1164  1.5675
 2747SOL    HW219875   1.804   0.649   7.092  1.0980  0.3201 -0.9266
 2748SOL     OW19876   3.577   0.284   8.242  0.0815 -0.2249  0.4333
 2748SOL    HW119877   3.596   0.192   8.261  3.2228  0.7180  1.7700
 2748SOL    HW219878   3.512   0.274   8.172  2.1630 -1.1341 -1.3678
 2749SOL     OW19879   3.763   2.503   4.872  0.5063  0.4035  0.1535
 2749SOL    HW119880   3.752   2.430   4.810  1.0832  0.6773 -0.2761
 2749SOL    HW219881   3.848   2.534   4.841 -0.1224 -0.0729 -2.0553
 2750SOL     OW19882   1.680   4.484  16.267 -0.0772 -0.0027  0.1778
 2750SOL    HW119883   1.585   4.497  16.268 -0.2267 -0.9240 -2.5700
 2750SOL    HW219884   1.716   4.572  16.274  0.7550 -0.2503 -1.1241
 2751SOL     OW19885   3.364   4.499  16.732  0.0148 -0.1528  0.5766
 2751SOL    HW119886   3.317   4.435  16.785 -0.5515  0.7502  1.1690
 2751SOL    HW219887   3.404   4.561  16.793  0.0421 -1.7104  2.1375
 2752SOL     OW19888   3.871   4.717   0.580 -0.0575 -0.6912  0.1930
 2752SOL    HW119889   3.830   4.630   0.584 -2.0383  0.1919 -1.0320
 2752SOL    HW219890   3.794   0.030   0.589  0.0838 -0.5971  0.8392
 2753SOL     OW19891   4.438   1.319   4.162 -0.0954  0.6044 -0.0207
 2753SOL    HW119892   4.351   1.336   4.127  0.4300 -1.2723 -2.2346
 2753SOL    HW219893   4.464   1.405   4.195  1.2902 -0.4770  1.7477
 2754SOL     OW19894   0.850   4.096   7.047  0.5996  0.2322  0.2681
 2754SOL    HW119895   0.895   4.137   6.974  0.9731 -0.9513 -0.1710
 2754SOL    HW219896   0.923   4.106   7.107  1.1672  1.2789 -0.6080
 2755SOL     OW19897   2.119   1.534   7.529 -0.0371 -0.3216  0.1316
 2755SOL    HW119898   2.153   1.589   7.600  0.7478  1.2470 -1.4610
 2755SOL    HW219899   2.033   1.502   7.557  0.0216  1.2409  2.0949
 2756SOL     OW19900   4.681   4.264   6.209 -0.2093 -0.1222 -0.5312
 2756SOL    HW119901   4.650   4.263   6.118 -2.4624  0.6813  0.2238
 2756SOL    HW219902   4.649   4.352   6.228  0.2258  0.1823 -1.1947
 2757SOL     OW19903   2.792   1.569   5.431 -0.4389  0.2617 -0.4267
 2757SOL    HW119904   2.839   1.652   5.425 -0.4936  0.3116 -0.1462
 2757SOL    HW219905   2.779   1.554   5.524  2.8175  1.8150  0.3012
 2758SOL     OW19906   3.100   2.436   3.728  0.3576 -0.2529 -0.0072
 2758SOL    HW119907   3.071   2.496   3.796  3.4216  0.7958  0.3496
 2758SOL    HW219908   3.035   2.443   3.658  0.8895  0.7407 -0.3880
 2759SOL     OW19909   3.118   3.175   5.970 -0.2727  0.2838  0.6600
 2759SOL    HW119910   3.166   3.258   5.976  1.3218 -0.5253 -1.0631
 2759SOL    HW219911   3.134   3.142   5.882 -3.2137 -0.8297  0.5509
 2760SOL     OW19912   2.914   4.302   1.912  0.2187  1.1840  0.0721
 2760SOL    HW119913   2.900   4.372   1.976  3.7772  2.5935 -0.6825
 2760SOL    HW219914   2.937   4.236   1.978 -0.5692  1.0178  0.1808
 2761SOL     OW19915   3.099   2.796   8.021  0.0451  0.2748  0.2594
 2761SOL    HW119916   3.111   2.705   8.050 -4.9042 -0.4363  0.1338
 2761SOL    HW219917   3.069   2.839   8.101 -0.5443  0.7698 -0.2333
 2762SOL     OW19918   3.581   3.252   6.031  0.1172  0.6550 -0.2434
 2762SOL    HW119919   3.640   3.322   6.002  0.4428 -0.7320 -2.9589
 2762SOL    HW219920   3.507   3.305   6.062 -0.7610 -0.7690  0.0750
 2763SOL     OW19921   1.752   2.394   8.502  1.0506 -0.1212 -0.7119
 2763SOL    HW119922   1.710   2.308   8.504  1.0178 -0.0713  0.7226
 2763SOL    HW219923   1.694   2.446   8.447 -0.3132 -0.6525  0.2314
 2764SOL     OW19924   3.062   3.817  16.153 -0.2283  0.4646  1.0641
 2764SOL    HW119925   3.007   3.874  16.098 -0.4559 -0.4667  0.3363
 2764SOL    HW219926   3.147   3.859  16.141  0.8707 -1.5720  1.8784
 2765SOL     OW19927   2.427   4.459   7.279 -0.3904 -0.0809 -0.3309
 2765SOL    HW119928   2.515   4.449   7.244  0.2424  0.3453  1.1897
 2765SOL    HW219929   2.405   4.552   7.276 -0.7535 -0.1732 -0.6353
 2766SOL     OW19930   4.391   3.674   0.166 -0.1683  0.0839  1.3600
 2766SOL    HW119931   4.307   3.707   0.198 -0.7201 -0.9694  0.9929
 2766SOL    HW219932   4.374   3.580   0.171  1.2091 -0.2326  0.2688
 2767SOL     OW19933   3.223   3.487   2.106  0.2836  0.0869  0.1235
 2767SOL    HW119934   3.154   3.423   2.126  1.1618 -0.4351  1.4683
 2767SOL    HW219935   3.290   3.446   2.161 -0.1203  1.1377  1.3899
 2768SOL     OW19936   2.644   3.026   7.263 -0.3948  0.1534 -0.2202
 2768SOL    HW119937   2.719   3.069   7.304 -1.1232  0.7263  0.5158
 2768SOL    HW219938   2.595   3.108   7.253  0.4383  0.9455  2.2059
 2769SOL     OW19939   4.028   1.198  14.131 -0.0625  0.1254 -0.0898
 2769SOL    HW119940   4.103   1.224  14.078 -1.3237 -0.7021 -2.2692
 2769SOL    HW219941   4.061   1.112  14.155 -0.4258  0.2651  0.9130
 2770SOL     OW19942   0.574   3.855  17.351  0.2396 -0.3502 -0.0724
 2770SOL    HW119943   0.617   3.912  17.415  0.3118  0.7170 -1.0876
 2770SOL    HW219944   0.505   3.914  17.324  1.1785  0.4362 -0.7306
 2771SOL     OW19945   1.369   1.379   7.417 -0.1215 -0.2197  0.3296
 2771SOL    HW119946   1.374   1.311   7.484 -0.6929  0.7180  1.3233
 2771SOL    HW219947   1.424   1.339   7.349 -1.2955  0.0097 -0.7390
 2772SOL     OW19948   0.945   3.481   5.186 -0.0367 -0.0687 -0.4644
 2772SOL    HW119949   1.034   3.484   5.222 -0.0058  0.2231 -0.5690
 2772SOL    HW219950   0.967   3.436   5.104  0.8984  0.6232 -0.5949
 2773SOL     OW19951   1.950   1.391   2.579  0.7586  0.0677  0.0409
 2773SOL    HW119952   2.019   1.334   2.544 -0.0124 -2.7625  3.1210
 2773SOL    HW219953   1.939   1.362   2.670 -3.4603 -0.8963 -0.7925
 2774SOL     OW19954   1.708   1.593   6.077  0.4337  0.1416 -0.0013
 2774SOL    HW119955   1.711   1.593   6.173 -0.0965  1.2755  0.0078
 2774SOL    HW219956   1.649   1.518   6.065  0.1097  0.7035 -1.8219
 2775SOL     OW19957   1.491   0.252  14.140  0.0685  0.1157 -0.0583
 2775SOL    HW119958   1.557   0.241  14.072  0.6920 -1.0705  0.7296
 2775SOL    HW219959   1.465   0.343  14.128 -1.7339 -0.2913  0.7820
 2776SOL     OW19960   0.958   3.348   7.423 -0.0613  0.2683 -0.2520
 2776SOL    HW119961   0.916   3.367   7.339 -0.2105 -1.4005 -0.5527
 2776SOL    HW219962   1.035   3.303   7.389  0.0504 -1.3355  2.1015
 2777SOL     OW19963   1.929   4.051   2.219 -0.5529  0.2982 -0.0386
 2777SOL    HW119964   2.020   4.022   2.212 -0.6008  0.3161 -0.7962
 2777SOL    HW219965   1.893   4.024   2.134 -1.3978 -1.3554  0.8556
 2778SOL     OW19966   1.119   2.740  14.544 -0.2508 -0.5270  0.1246
 2778SOL    HW119967   1.214   2.755  14.542 -0.4583  0.5131 -2.0278
 2778SOL    HW219968   1.125   2.665  14.484  0.7350  0.2627 -0.7838
 2779SOL     OW19969   3.675   4.613   3.261  0.2110 -0.3122  0.2281
 2779SOL    HW119970   3.583   4.612   3.236  0.0856 -0.0845  0.6771
 2779SOL    HW219971   3.721   4.652   3.186  2.8584 -1.4906  1.2218
 2780SOL     OW19972   3.408   4.413   2.353 -0.4682 -0.1684  0.0369
 2780SOL    HW119973   3.462   4.339   2.380 -0.5789 -0.0596  0.5473
 2780SOL    HW219974   3.460   4.488   2.382  0.2035 -0.2278 -1.0222
 2781SOL     OW19975   1.612   0.844   8.677  0.1336 -0.1167 -0.0711
 2781SOL    HW119976   1.655   0.765   8.645 -1.3558 -0.4634 -1.2118
 2781SOL    HW219977   1.553   0.844   8.601 -1.9104  2.3037  1.5128
 2782SOL     OW19978   2.535   3.907   2.640  0.5230  0.0635 -0.4377
 2782SOL    HW119979   2.566   3.895   2.730  1.4302  0.0864 -0.7416
 2782SOL    HW219980   2.452   3.952   2.655  1.3097  0.1484  3.5460
 2783SOL     OW19981   0.701   4.150   9.831  0.2471  0.0998 -0.0264
 2783SOL    HW119982   0.762   4.134   9.759 -1.3619 -1.1044 -1.1129
 2783SOL    HW219983   0.647   4.071   9.823  0.6620 -0.2894  0.9854
 2784SOL     OW19984   0.473   1.854   3.149  0.0620  0.4895  0.5362
 2784SOL    HW119985   0.516   1.773   3.175 -0.4774  0.2127  0.5528
 2784SOL    HW219986   0.486   1.849   3.054 -0.7047 -2.9486  0.6343
 2785SOL     OW19987   2.777   0.763  12.523 -0.0369 -0.4339 -0.2532
 2785SOL    HW119988   2.771   0.839  12.463 -1.1534 -1.0403 -0.9250
 2785SOL    HW219989   2.695   0.771  12.572  0.2147 -2.3343  0.4484
 2786SOL     OW19990   3.734   2.513  17.073  0.5241 -0.0914  0.1581
 2786SOL    HW119991   3.720   2.420  17.092  1.5767 -0.8392 -2.6488
 2786SOL    HW219992   3.794   2.549  17.137  0.8844  1.0696 -0.8211
 2787SOL     OW19993   2.095   4.676   7.497 -0.1175  0.5411  0.2546
 2787SOL    HW119994   2.164   4.688   7.562 -2.1570 -0.4216  2.6015
 2787SOL    HW219995   2.033   4.642   7.562  1.0196 -0.6391  0.7031
 2788SOL     OW19996   0.771   0.015   4.777  0.2479 -0.1871 -0.1675
 2788SOL    HW119997   0.747   4.666   4.792 -1.4698  0.1013 -1.1770
 2788SOL    HW219998   0.861   4.736   4.750 -0.9168 -1.8872 -2.7011
 2789SOL     OW19999   3.991   2.324   1.230  0.4591  0.2745  0.1062
 2789SOL    HW120000   4.041   2.245   1.251  0.3990 -0.2825 -1.8602
 2789SOL    HW220001   4.058   2.390   1.212 -1.7014  2.0170 -1.5463
 2790SOL     OW20002   1.990   3.166   3.513  0.1920 -0.6672  0.0667
 2790SOL    HW120003   2.015   3.185   3.423  1.9084  1.7409  1.0753
 2790SOL    HW220004   2.032   3.238   3.559  0.8985  1.6375 -4.1670
 2791SOL     OW20005   1.095   3.009   9.126  0.4380 -0.1297 -0.1895
 2791SOL    HW120006   1.079   2.919   9.097 -0.9081 -0.4113  1.3645
 2791SOL    HW220007   1.007   3.032   9.155  1.9716  0.7607  3.7844
 2792SOL     OW20008   1.182   4.400   6.529 -0.0304  0.2177  0.8230
 2792SOL    HW120009   1.256   4.459   6.515  1.6673 -1.8680  1.0562
 2792SOL    HW220010   1.216   4.317   6.494  0.1571  1.2650 -1.4871
 2793SOL     OW20011   0.285   3.150   6.279 -0.0986  0.1358  0.3326
 2793SOL    HW120012   0.366   3.101   6.294 -0.3328 -0.1165  0.7843
 2793SOL    HW220013   0.328   3.235   6.275 -0.1609  0.1604  0.1753
 2794SOL     OW20014   2.489   0.511   2.122  0.2572  0.8296 -0.2742
 2794SOL    HW120015   2.467   0.482   2.211  0.0804  0.6325 -0.3829
 2794SOL    HW220016   2.543   0.437   2.093  0.0739  0.3296  0.6638
 2795SOL     OW20017   2.103   2.782   1.939  0.0961 -0.0853  0.2143
 2795SOL    HW120018   2.020   2.738   1.958 -0.1355  0.6464  0.8849
 2795SOL    HW220019   2.150   2.700   1.926 -1.8340 -0.9179 -1.5906
 2796SOL     OW20020   1.414   1.911   5.950  0.7309  0.1202 -0.0293
 2796SOL    HW120021   1.364   1.839   5.988 -0.3506  1.2113  0.6254
 2796SOL    HW220022   1.483   1.870   5.898  0.2321  0.4808 -0.9816
 2797SOL     OW20023   3.752   4.689   6.762 -0.2472  0.1314  0.2504
 2797SOL    HW120024   3.698   0.002   6.819 -0.1945 -0.5679  0.9740
 2797SOL    HW220025   3.780   4.622   6.824 -0.2969  1.2300  1.4599
 2798SOL     OW20026   1.434   3.729   1.948 -0.2782 -0.0995 -0.5688
 2798SOL    HW120027   1.372   3.754   2.017 -1.1475 -1.2048 -0.9492
 2798SOL    HW220028   1.371   3.702   1.881 -0.9041 -0.5367  0.1898
 2799SOL     OW20029   0.811   4.287   7.409  0.2636  0.2192  0.1858
 2799SOL    HW120030   0.884   4.349   7.412 -0.3339  0.9135  0.4011
 2799SOL    HW220031   0.746   4.355   7.390 -2.0874 -2.4882 -1.5071
 2800SOL     OW20032   4.350   3.851  12.400 -0.8972  0.0578 -0.1736
 2800SOL    HW120033   4.324   3.801  12.478  0.4001  0.7359  0.6999
 2800SOL    HW220034   4.433   3.890  12.427 -1.8524  3.0651 -1.6216
 2801SOL     OW20035   3.035   4.413   5.763  0.5611 -0.5995 -0.0861
 2801SOL    HW120036   3.129   4.425   5.750  0.2399  0.3686 -1.4875
 2801SOL    HW220037   3.030   4.387   5.855  0.5695 -0.4883 -0.0539
 2802SOL     OW20038   2.854   2.492  10.620  0.4736 -0.4653 -0.2055
 2802SOL    HW120039   2.879   2.425  10.684  1.4335 -2.3678 -2.5570
 2802SOL    HW220040   2.917   2.558  10.649  1.0923 -0.6816 -1.0411
 2803SOL     OW20041   4.128   2.413  12.072  0.1633 -0.4478  0.0638
 2803SOL    HW120042   4.114   2.438  11.981  0.0919 -3.0123 -0.6531
 2803SOL    HW220043   4.205   2.462  12.101  0.3162  0.0089 -1.1268
 2804SOL     OW20044   4.437   0.499   7.680 -0.0009 -0.5787 -0.0593
 2804SOL    HW120045   4.414   0.584   7.718  2.2315  1.0447 -2.3318
 2804SOL    HW220046   4.516   0.516   7.628 -0.6176 -3.0070 -1.7467
 2805SOL     OW20047   2.251   0.574  16.347  0.0050 -0.2776  0.4317
 2805SOL    HW120048   2.191   0.609  16.282  0.6678 -0.7517 -0.4317
 2805SOL    HW220049   2.319   0.641  16.349  2.3770 -2.6640 -0.4326
 2806SOL     OW20050   1.588   4.457   5.079  0.5785 -0.0842 -0.3568
 2806SOL    HW120051   1.635   4.538   5.063  0.4048  0.1852  0.4894
 2806SOL    HW220052   1.562   4.462   5.171  1.2379 -1.8051 -0.0684
 2807SOL     OW20053   0.068   3.519   1.868 -0.1639  0.4295 -0.0854
 2807SOL    HW120054   0.025   3.514   1.783 -1.4738 -0.6102  0.6388
 2807SOL    HW220055   0.131   3.591   1.857 -0.4788  0.2240 -3.2782
 2808SOL     OW20056   2.226   2.871   7.873 -0.1480 -0.0604 -0.3722
 2808SOL    HW120057   2.303   2.862   7.929 -1.2772 -2.1155  0.8172
 2808SOL    HW220058   2.270   2.868   7.788  0.8635 -1.8093  0.2433
 2809SOL     OW20059   2.175   2.515   4.189  0.4262  0.1862 -0.2654
 2809SOL    HW120060   2.175   2.582   4.120  0.2667  0.4968  0.0399
 2809SOL    HW220061   2.186   2.567   4.269 -1.8857  0.8111 -0.3529
 2810SOL     OW20062   0.445   0.249   8.237 -0.1839 -0.8718 -0.0804
 2810SOL    HW120063   0.519   0.199   8.201  0.7438 -2.0978  3.5906
 2810SOL    HW220064   0.471   0.324   8.289  0.9415 -2.3874  1.5304
 2811SOL     OW20065   1.464   0.970   7.841  0.0863  0.1215  0.0195
 2811SOL    HW120066   1.436   1.056   7.872  0.4513  0.1209  0.3366
 2811SOL    HW220067   1.540   0.961   7.898 -0.5119 -0.3759  0.7334
 2812SOL     OW20068   1.114   1.403   6.857  0.3207  0.0245 -0.5667
 2812SOL    HW120069   1.086   1.461   6.786  0.0493  0.0298 -0.4567
 2812SOL    HW220070   1.067   1.450   6.926  1.4638 -2.6659  2.0233
 2813SOL     OW20071   2.696   0.822  11.052 -0.8043 -0.0325 -0.6168
 2813SOL    HW120072   2.653   0.892  11.100  2.5640 -0.1024  2.4436
 2813SOL    HW220073   2.681   0.745  11.107 -0.9148  0.4562  0.0269
 2814SOL     OW20074   0.400   1.003   6.513  0.5823 -0.0748 -0.8219
 2814SOL    HW120075   0.317   0.984   6.555 -0.5032  4.8934 -0.6969
 2814SOL    HW220076   0.406   0.944   6.438 -0.2031 -0.8197 -0.3012
 2815SOL     OW20077   3.516   2.321   4.628 -0.3031 -0.6867 -0.0675
 2815SOL    HW120078   3.505   2.416   4.623 -1.5482 -0.6914  2.4586
 2815SOL    HW220079   3.610   2.311   4.645 -0.3996 -0.4277  0.6133
 2816SOL     OW20080   2.343   2.915   8.985  0.3787  0.1633  0.7861
 2816SOL    HW120081   2.265   2.917   9.040 -0.9451 -3.1633 -0.9027
 2816SOL    HW220082   2.347   3.007   8.959 -1.7373  0.5796  1.8959
 2817SOL     OW20083   3.500   1.522   2.090 -0.0080 -0.1211  0.3004
 2817SOL    HW120084   3.459   1.489   2.010  1.2158 -0.5696 -0.1400
 2817SOL    HW220085   3.587   1.485   2.078 -0.5683 -0.8827 -1.4171
 2818SOL     OW20086   1.097   3.155   8.001 -0.2847  0.1967  0.1629
 2818SOL    HW120087   1.159   3.089   7.969  0.1553  0.1934  1.0399
 2818SOL    HW220088   1.025   3.105   8.041 -1.3844  1.4126 -0.2801
 2819SOL     OW20089   3.168   4.641   9.689 -0.0300 -0.0476 -0.1552
 2819SOL    HW120090   3.255   4.658   9.725 -0.7940 -0.3086  1.7794
 2819SOL    HW220091   3.162   4.701   9.615  2.0710 -1.1905 -1.2302
 2820SOL     OW20092   2.438   2.135   4.469  0.1599 -0.3424  0.6827
 2820SOL    HW120093   2.358   2.186   4.454 -0.4588 -1.8978 -1.3601
 2820SOL    HW220094   2.473   2.196   4.534 -0.0568  0.7091 -0.1796
 2821SOL     OW20095   4.254   4.612   5.247 -0.0283 -0.1113  0.7194
 2821SOL    HW120096   4.333   4.569   5.281  0.3052 -0.5047 -0.5417
 2821SOL    HW220097   4.253   4.691   5.300 -1.4043  0.4757 -0.1969
 2822SOL     OW20098   1.338   1.541  11.177 -0.9335 -0.3290 -0.3698
 2822SOL    HW120099   1.335   1.456  11.134  0.5272  0.0832 -1.2745
 2822SOL    HW220100   1.334   1.595  11.099  0.4245  1.7469  0.9887
 2823SOL     OW20101   4.626   4.074   2.217  0.5351  0.7248  0.1628
 2823SOL    HW120102   4.620   4.106   2.307  1.4292 -3.9416  1.8896
 2823SOL    HW220103   4.676   3.995   2.237 -0.8820  0.4757  2.6549
 2824SOL     OW20104   0.828   3.976  16.174 -0.0042 -0.0138 -0.0863
 2824SOL    HW120105   0.749   3.923  16.181 -0.8751  1.1644 -1.1276
 2824SOL    HW220106   0.843   4.004  16.264  1.3816 -1.6531  0.1985
 2825SOL     OW20107   0.706   3.907   0.056 -0.0068 -0.3159  0.2239
 2825SOL    HW120108   0.733   3.972   0.121 -1.9810  1.2679 -0.5358
 2825SOL    HW220109   0.660   3.844   0.112 -0.8728 -1.7418 -2.0727
 2826SOL     OW20110   0.791   4.022   3.226  0.4971 -0.4186 -0.2968
 2826SOL    HW120111   0.776   4.073   3.305  1.3065  0.2754 -0.5869
 2826SOL    HW220112   0.699   4.023   3.200  0.5551  2.1017 -0.4093
 2827SOL     OW20113   0.642   4.572  16.726  1.0485  0.4676  0.0550
 2827SOL    HW120114   0.563   4.543  16.771 -1.2557 -0.0295 -4.3255
 2827SOL    HW220115   0.603   4.618  16.652  2.5664  1.7997  0.0819
 2828SOL     OW20116   0.590   3.932   8.129  0.0165 -0.1152 -0.2281
 2828SOL    HW120117   0.528   3.860   8.140 -1.4631  1.2204  0.1713
 2828SOL    HW220118   0.650   3.888   8.069  1.6691  1.3001  0.3805
 2829SOL     OW20119   0.590   4.198   8.242  0.1610 -0.2463 -0.5432
 2829SOL    HW120120   0.634   4.225   8.162  0.2195 -1.5124 -0.9329
 2829SOL    HW220121   0.586   4.104   8.230 -0.2320 -0.3626  0.4324
 2830SOL     OW20122   1.838   3.262   5.963  0.6139 -0.4231  0.2799
 2830SOL    HW120123   1.907   3.197   5.974 -0.1672 -1.6439 -2.0537
 2830SOL    HW220124   1.756   3.214   5.976  0.2698 -0.2270 -1.2381
 2831SOL     OW20125   1.128   0.098   5.555  0.2107 -0.1012 -0.2927
 2831SOL    HW120126   1.055   0.081   5.495  0.2085  1.7988 -0.8324
 2831SOL    HW220127   1.111   0.180   5.602  0.3444  0.8520 -1.8859
 2832SOL     OW20128   4.318   4.485   1.226  0.3898 -0.0702  0.2648
 2832SOL    HW120129   4.327   4.532   1.309  4.2698 -1.8421  0.8515
 2832SOL    HW220130   4.338   4.548   1.157  2.9028 -1.1347 -0.0124
 2833SOL     OW20131   0.840   1.618   3.367  0.3675 -0.0318  0.0813
 2833SOL    HW120132   0.887   1.701   3.362  2.6438 -1.2754  1.2033
 2833SOL    HW220133   0.831   1.608   3.461  1.4669  0.6646  0.2533
 2834SOL     OW20134   1.780   0.049   9.248 -0.3659 -0.2386  0.1346
 2834SOL    HW120135   1.848   0.015   9.190  1.1385  0.2151  1.6104
 2834SOL    HW220136   1.828   0.062   9.330  0.8561  2.2797 -0.9666
 2835SOL     OW20137   0.193   1.502   5.952  0.0097  0.0796  0.2127
 2835SOL    HW120138   0.192   1.522   5.859 -1.4259 -0.2365  0.1477
 2835SOL    HW220139   0.288   1.495   5.953 -0.0914 -1.2603  1.9381
 2836SOL     OW20140   1.465   1.335   4.580 -0.5896  0.4404 -0.3770
 2836SOL    HW120141   1.517   1.263   4.618 -1.3863 -0.4391 -0.9467
 2836SOL    HW220142   1.510   1.362   4.500  0.9427 -0.0703  0.3041
 2837SOL     OW20143   2.641   1.007   2.822 -0.3260 -0.1720  0.1396
 2837SOL    HW120144   2.730   1.044   2.823 -1.0035  1.4750 -1.6350
 2837SOL    HW220145   2.589   1.077   2.782  0.3713 -1.7314 -3.4661
 2838SOL     OW20146   1.664   1.334   6.846 -1.1425 -0.2785  0.7931
 2838SOL    HW120147   1.596   1.401   6.842  0.0993  0.9287  0.1263
 2838SOL    HW220148   1.696   1.341   6.936 -0.8626  1.8272  0.5244
 2839SOL     OW20149   3.152   0.291  11.447 -0.7153 -0.4003  0.1613
 2839SOL    HW120150   3.179   0.200  11.458  0.9862  0.2061  1.1243
 2839SOL    HW220151   3.230   0.336  11.414 -1.8351 -0.6011 -2.6938
 2840SOL     OW20152   4.447   1.781   4.427  0.0663  0.0533  0.3580
 2840SOL    HW120153   4.395   1.784   4.347  0.9604 -1.6974 -0.3125
 2840SOL    HW220154   4.535   1.797   4.391 -0.2711 -0.0629 -0.5083
 2841SOL     OW20155   4.431   3.977   8.151 -0.3242  0.3031  0.2329
 2841SOL    HW120156   4.358   3.925   8.116  0.1692  0.5760 -1.1846
 2841SOL    HW220157   4.407   3.956   8.241  0.1787 -0.4655  0.1917
 2842SOL     OW20158   4.152   2.548  13.893  0.2521  0.2746  0.3733
 2842SOL    HW120159   4.087   2.600  13.844 -0.2833 -0.3471  0.4162
 2842SOL    HW220160   4.235   2.569  13.851 -0.6380 -0.0691 -1.5675
 2843SOL     OW20161   1.430   2.129   3.080  0.3975  0.1946 -0.0400
 2843SOL    HW120162   1.351   2.183   3.079  2.2489  2.8967 -0.0344
 2843SOL    HW220163   1.478   2.172   3.150 -1.7064  1.8417  0.3806
 2844SOL     OW20164   1.101   0.434   2.212 -0.2498 -0.1278  0.2818
 2844SOL    HW120165   1.145   0.444   2.127 -0.6247 -1.1366 -0.0374
 2844SOL    HW220166   1.057   0.517   2.226 -0.7144 -0.1134 -1.2185
 2845SOL     OW20167   2.854   3.169   7.375  0.6263 -0.0447 -0.2221
 2845SOL    HW120168   2.852   3.260   7.344 -1.5086 -0.3493 -0.9650
 2845SOL    HW220169   2.912   3.172   7.451  0.7828  1.1202 -0.3839
 2846SOL     OW20170   1.364   4.611  10.829  0.1635 -0.2865  0.1816
 2846SOL    HW120171   1.386   4.632  10.738  1.4391  0.5603  0.6990
 2846SOL    HW220172   1.452   4.601  10.865  0.5232 -0.2521 -0.6790
 2847SOL     OW20173   2.955   4.134   2.132  0.6288  0.8606  1.0879
 2847SOL    HW120174   2.908   4.052   2.119  2.9117 -0.4472  1.0054
 2847SOL    HW220175   2.992   4.108   2.216 -1.0337 -1.0508  1.2319
 2848SOL     OW20176   3.977   2.930   6.238 -0.2471 -0.4675 -0.2535
 2848SOL    HW120177   3.980   2.859   6.302 -0.6429  1.3463  1.7768
 2848SOL    HW220178   3.899   2.921   6.183 -0.9294 -0.7782  0.7511
 2849SOL     OW20179   2.514   1.781   5.946 -0.1017 -0.1555  0.1526
 2849SOL    HW120180   2.474   1.697   5.969 -3.4773  1.4107 -0.0396
 2849SOL    HW220181   2.445   1.845   5.966  0.7851  0.4995  1.1846
 2850SOL     OW20182   2.102   4.273   0.430  0.1466  0.3661 -0.0802
 2850SOL    HW120183   2.111   4.269   0.526  4.3281  0.4093 -0.4615
 2850SOL    HW220184   2.191   4.256   0.397 -0.5470  3.2743 -3.3952
 2851SOL     OW20185   1.248   1.185   7.055  0.3919  0.0537 -0.0054
 2851SOL    HW120186   1.173   1.226   7.099  0.5695  2.0440 -1.5622
 2851SOL    HW220187   1.312   1.256   7.055 -1.5604  1.8089  0.0378
 2852SOL     OW20188   0.106   2.766   2.638 -0.0314 -0.1781  0.0228
 2852SOL    HW120189   0.146   2.706   2.575 -1.6650 -0.6894 -0.5251
 2852SOL    HW220190   0.143   2.849   2.606  0.8108 -0.5123  0.1309
 2853SOL     OW20191   3.986   0.715   7.870  0.1578  0.0642 -0.2156
 2853SOL    HW120192   3.946   0.698   7.955  0.4074 -0.2178 -0.1520
 2853SOL    HW220193   3.958   0.636   7.823 -0.2640 -0.2239  0.5275
 2854SOL     OW20194   1.863   1.350   9.554 -0.2460 -0.0718  0.5242
 2854SOL    HW120195   1.775   1.334   9.588 -1.4788 -1.0610 -3.1058
 2854SOL    HW220196   1.859   1.436   9.514  1.3398 -0.8410 -1.2904
 2855SOL     OW20197   4.164   1.572   7.211 -0.0128 -0.5635  0.1798
 2855SOL    HW120198   4.125   1.504   7.157 -0.8304 -1.0630  1.4194
 2855SOL    HW220199   4.121   1.654   7.187  1.4547  0.0150 -0.5116
 2856SOL     OW20200   1.604   0.516   4.198 -0.0709  0.0047 -0.0676
 2856SOL    HW120201   1.569   0.545   4.282 -2.5228 -1.2663 -0.6436
 2856SOL    HW220202   1.589   0.599   4.152 -0.8542  0.1940  0.5358
 2857SOL     OW20203   0.817   4.546  14.724 -0.5660 -0.2057 -0.0945
 2857SOL    HW120204   0.826   4.489  14.647 -0.1804 -2.6484  1.7468
 2857SOL    HW220205   0.904   4.537  14.763 -0.1814  3.8344 -0.0642
 2858SOL     OW20206   4.638   1.244   1.296 -0.1922 -0.3771 -0.1806
 2858SOL    HW120207   4.581   1.306   1.251  1.4005 -0.0069 -1.7072
 2858SOL    HW220208   4.633   1.286   1.382 -0.5624  0.6968 -0.7253
 2859SOL     OW20209   3.803   0.163   2.059  0.6634  0.5500  0.2174
 2859SOL    HW120210   3.755   0.092   2.016 -1.7350  2.1208  0.2990
 2859SOL    HW220211   3.730   0.222   2.079  0.7739 -0.2880  3.0298
 2860SOL     OW20212   1.908   3.326   3.857 -0.1402  0.2857  0.0270
 2860SOL    HW120213   1.965   3.295   3.928 -1.3322 -0.7786  0.5049
 2860SOL    HW220214   1.921   3.268   3.782  0.2115 -0.0969  0.3817
 2861SOL     OW20215   3.079   0.365   3.398 -0.4295 -0.5352  0.5693
 2861SOL    HW120216   3.046   0.455   3.398  1.9658  0.3228 -0.6125
 2861SOL    HW220217   3.002   0.311   3.419  0.9029 -1.7944  2.2239
 2862SOL     OW20218   0.694   3.927   6.049  0.1301  0.0848 -0.3310
 2862SOL    HW120219   0.780   3.886   6.060 -0.3776 -0.9498 -0.1862
 2862SOL    HW220220   0.700   3.947   5.955  1.4242 -2.8755 -0.8887
 2863SOL     OW20221   4.300   4.067   4.734 -0.4807 -0.3188  0.1216
 2863SOL    HW120222   4.245   4.070   4.812 -0.1134  0.3579  0.3609
 2863SOL    HW220223   4.377   4.105   4.777 -0.5317 -0.8237  0.6601
 2864SOL     OW20224   2.221   2.352  13.463  0.5692 -0.7253  0.5120
 2864SOL    HW120225   2.134   2.315  13.478  0.3877  0.5035  2.5035
 2864SOL    HW220226   2.216   2.429  13.520  0.5658  0.4750 -1.1442
 2865SOL     OW20227   3.026   3.697   7.868  0.3532 -0.4391 -0.0120
 2865SOL    HW120228   3.099   3.758   7.877  1.4882 -1.9179  0.7405
 2865SOL    HW220229   3.030   3.647   7.950  0.7596 -0.1145  0.1671
 2866SOL     OW20230   0.122   1.081   4.434 -0.5283  0.0566  0.5628
 2866SOL    HW120231   0.047   1.092   4.376  1.3742 -2.1312 -2.3130
 2866SOL    HW220232   0.190   1.117   4.378 -1.6535  0.8470 -0.2763
 2867SOL     OW20233   3.509   1.381  11.190 -0.6620  0.1622 -0.2194
 2867SOL    HW120234   3.585   1.390  11.247 -0.8136  0.6338 -0.0941
 2867SOL    HW220235   3.441   1.349  11.249  1.1748 -1.0578  1.2530
 2868SOL     OW20236   3.156   4.629   2.396 -0.1004  0.1536 -0.2610
 2868SOL    HW120237   3.245   4.593   2.393 -0.3672 -0.3665 -1.9695
 2868SOL    HW220238   3.108   4.570   2.338 -0.5616 -0.9095  1.1858
 2869SOL     OW20239   4.536   1.020   2.974  0.3267  0.4256  0.1358
 2869SOL    HW120240   4.478   1.079   3.023 -2.4652 -1.7988 -0.4630
 2869SOL    HW220241   4.613   1.019   3.031  0.6210 -0.4515 -0.2754
 2870SOL     OW20242   1.963   4.186   5.423  0.6417  0.2469  0.0854
 2870SOL    HW120243   1.998   4.137   5.348 -2.1609 -1.6701  0.0545
 2870SOL    HW220244   1.927   4.259   5.373  1.0139  0.8443  0.6973
 2871SOL     OW20245   2.356   3.400   2.612  0.0437 -0.2420  0.1402
 2871SOL    HW120246   2.288   3.376   2.549 -0.3365  1.3971 -0.0645
 2871SOL    HW220247   2.429   3.362   2.564 -0.5682 -1.0347 -0.1669
 2872SOL     OW20248   0.914   2.038  17.008  0.1629  0.0374  0.2273
 2872SOL    HW120249   0.900   2.105  17.075  1.2969 -0.0042  0.4985
 2872SOL    HW220250   0.945   1.969  17.067 -1.5862 -0.0363  1.0825
 2873SOL     OW20251   4.459   1.448   3.855 -0.5069 -0.3021 -0.6781
 2873SOL    HW120252   4.440   1.370   3.804  0.6580 -0.3971 -0.9603
 2873SOL    HW220253   4.449   1.521   3.794 -0.9504 -0.2077 -0.4909
 2874SOL     OW20254   2.900   0.104   4.611 -0.2144  0.9971  0.2153
 2874SOL    HW120255   2.837   0.141   4.673 -0.7279  1.6763 -0.7081
 2874SOL    HW220256   2.980   0.144   4.646 -0.2419  0.8490  0.4462
 2875SOL     OW20257   1.967   3.286  11.332  0.0360  0.6548  0.0407
 2875SOL    HW120258   2.015   3.322  11.407 -1.6010 -0.6057  1.6958
 2875SOL    HW220259   2.024   3.314  11.261  0.5854  0.8498  0.5587
 2876SOL     OW20260   2.091   0.854  11.643  0.0186 -0.3557 -0.0887
 2876SOL    HW120261   2.048   0.794  11.704  0.8022 -1.1602 -0.3112
 2876SOL    HW220262   2.025   0.869  11.575 -1.2194 -1.3959  0.8930
 2877SOL     OW20263   1.372   2.061   8.289 -0.4450 -0.1919  0.8585
 2877SOL    HW120264   1.364   2.147   8.331  1.8288  1.4333 -1.9826
 2877SOL    HW220265   1.449   2.075   8.233  1.0124  1.4607  3.3029
 2878SOL     OW20266   0.196   0.973   5.241  0.1228 -0.0592  0.4591
 2878SOL    HW120267   0.263   1.041   5.241  0.5590 -0.4895 -1.6393
 2878SOL    HW220268   0.141   1.030   5.189  0.7405 -0.2800 -0.4313
 2879SOL     OW20269   1.169   1.446  12.963 -0.0495  0.2497  0.0879
 2879SOL    HW120270   1.095   1.390  12.985 -0.0330 -0.0134 -0.5298
 2879SOL    HW220271   1.146   1.521  13.019  0.1097  0.4555 -0.1214
 2880SOL     OW20272   0.725   2.658   2.344 -0.5942  0.4286 -0.1005
 2880SOL    HW120273   0.648   2.677   2.291 -1.7487 -0.0736  1.4235
 2880SOL    HW220274   0.720   2.563   2.352  1.6523  0.3328  0.3719
 2881SOL     OW20275   1.627   4.113   1.628  0.3664 -0.1991  0.3325
 2881SOL    HW120276   1.565   4.084   1.694 -0.6890 -1.0053 -1.0090
 2881SOL    HW220277   1.600   4.047   1.564  0.9865 -0.7708  0.6604
 2882SOL     OW20278   4.696   2.952   2.781 -0.3877  0.3440  0.4958
 2882SOL    HW120279   4.642   2.888   2.826  0.2721 -0.8334 -0.4038
 2882SOL    HW220280   0.011   2.898   2.727  1.1767  1.8854  0.5910
 2883SOL     OW20281   4.485   4.089   9.043  0.0015  0.2661  0.3590
 2883SOL    HW120282   4.512   4.058   9.130 -1.1233 -2.0350 -0.1328
 2883SOL    HW220283   4.541   4.051   8.976 -0.3817  0.0028  0.1930
 2884SOL     OW20284   3.139   2.800   2.806  0.4203 -0.3066  0.1394
 2884SOL    HW120285   3.047   2.813   2.787  0.7237  0.1048 -1.0122
 2884SOL    HW220286   3.157   2.872   2.867 -1.6041  0.5501 -0.2810
 2885SOL     OW20287   0.080   0.092  11.903 -0.5456  0.6359  0.1691
 2885SOL    HW120288   0.080   0.033  11.828  0.0149 -0.3978  0.9954
 2885SOL    HW220289   0.146   0.052  11.958  0.8500  0.6566 -1.4757
 2886SOL     OW20290   1.883   0.339   7.734  0.1192 -0.2046 -0.0731
 2886SOL    HW120291   1.948   0.306   7.672  0.2336  0.7271 -0.4390
 2886SOL    HW220292   1.879   0.262   7.790 -0.8813 -0.1489 -0.0627
 2887SOL     OW20293   4.192   3.885   6.324  0.4302  0.0256  0.0933
 2887SOL    HW120294   4.118   3.927   6.282  1.9608  0.2576 -2.3898
 2887SOL    HW220295   4.159   3.797   6.343  0.8990 -0.2978 -0.5638
 2888SOL     OW20296   0.556   1.439   4.684 -0.3180 -0.6526  0.3247
 2888SOL    HW120297   0.571   1.370   4.749  0.0748  0.2743  1.2267
 2888SOL    HW220298   0.592   1.409   4.601  0.1443  0.1861  0.2299
 2889SOL     OW20299   0.120   3.870   6.815 -0.5425 -0.6962 -0.1315
 2889SOL    HW120300   0.025   3.883   6.814 -0.8353 -2.8233 -1.6287
 2889SOL    HW220301   0.153   3.874   6.725  2.0943  1.3532  0.9479
 2890SOL     OW20302   3.373   0.225  13.475 -0.1944  0.2119  0.0432
 2890SOL    HW120303   3.277   0.231  13.474 -0.1549  0.8048 -0.0093
 2890SOL    HW220304   3.399   0.306  13.518  2.5379 -1.4510  1.4471
 2891SOL     OW20305   4.540   2.826   8.766  0.7687 -0.3732 -0.2776
 2891SOL    HW120306   4.474   2.836   8.696  1.3636  0.0802 -0.7776
 2891SOL    HW220307   4.539   2.914   8.804  0.3117 -0.1142 -0.8671
 2892SOL     OW20308   1.890   2.433   0.270 -0.3702 -0.2755 -0.1649
 2892SOL    HW120309   1.924   2.351   0.305 -1.1362 -0.2314  0.6869
 2892SOL    HW220310   1.911   2.488   0.345 -0.1943  0.7660 -0.9734
 2893SOL     OW20311   2.045   3.210  10.986  0.3567 -0.0416  0.3579
 2893SOL    HW120312   2.114   3.143  10.987 -0.3735 -0.7769  0.9752
 2893SOL    HW220313   2.088   3.270  11.047  0.1058  2.2235 -1.7033
 2894SOL     OW20314   3.441   0.533   6.542  0.2448  0.3903 -0.0493
 2894SOL    HW120315   3.483   0.459   6.585  1.3258  2.2059  1.9876
 2894SOL    HW220316   3.367   0.553   6.598  1.7563 -1.0238  2.4493
 2895SOL     OW20317   3.339   2.592   7.277 -0.0860  0.5205  0.5539
 2895SOL    HW120318   3.336   2.642   7.195  0.9321  0.9568  0.7744
 2895SOL    HW220319   3.372   2.660   7.335 -0.8782  2.1097 -0.8542
 2896SOL     OW20320   3.533   3.979   7.781 -0.2946 -0.0747  0.2969
 2896SOL    HW120321   3.514   4.068   7.811  0.6826 -0.7914  3.0672
 2896SOL    HW220322   3.624   3.967   7.808 -0.2052 -0.2689 -0.0882
 2897SOL     OW20323   2.063   2.994  14.559 -0.2207  0.0725  0.0932
 2897SOL    HW120324   2.053   2.899  14.549 -1.7261  0.3838 -1.2506
 2897SOL    HW220325   2.111   2.998  14.642  0.3475 -0.7227 -0.1926
 2898SOL     OW20326   3.140   0.127   3.917  0.2615 -0.1187 -0.2586
 2898SOL    HW120327   3.047   0.147   3.910  0.4825 -0.0830 -3.1534
 2898SOL    HW220328   3.178   0.170   3.993 -2.4413 -0.6906  1.3969
 2899SOL     OW20329   1.985   4.470   5.359  0.6212 -0.5619  0.0477
 2899SOL    HW120330   1.894   4.487   5.336  1.3770  2.4419 -0.7934
 2899SOL    HW220331   2.027   4.513   5.284  1.7853 -1.5527  0.1350
 2900SOL     OW20332   1.550   0.709   1.349 -0.1412 -0.5731  0.2722
 2900SOL    HW120333   1.590   0.716   1.262 -2.8134  0.5500 -0.8757
 2900SOL    HW220334   1.496   0.631   1.336 -1.1243  0.4124 -1.6157
 2901SOL     OW20335   2.385   1.714   4.832  0.2373  0.0572  0.2336
 2901SOL    HW120336   2.388   1.628   4.872 -5.0926 -0.2343 -0.0178
 2901SOL    HW220337   2.375   1.760   4.915  0.4032 -0.9923  0.8323
 2902SOL     OW20338   0.527   3.430   3.077  0.4584  0.3453 -0.1905
 2902SOL    HW120339   0.557   3.410   2.988 -2.1904 -1.4828 -0.6715
 2902SOL    HW220340   0.547   3.345   3.117  0.1274  0.3066 -0.1089
 2903SOL     OW20341   3.396   3.794  10.219  0.4968  0.0929  0.3173
 2903SOL    HW120342   3.307   3.759  10.219  0.0267  1.2821  1.3720
 2903SOL    HW220343   3.430   3.734  10.153  0.9631  1.4885 -0.7125
 2904SOL     OW20344   2.951   1.076   2.706  0.2361 -0.8231  0.1854
 2904SOL    HW120345   2.936   1.027   2.624  1.5111 -1.4949  0.3613
 2904SOL    HW220346   2.995   1.153   2.671 -0.8706  0.3982  1.4640
 2905SOL     OW20347   0.854   0.120   8.949  0.0345 -0.3918 -0.3741
 2905SOL    HW120348   0.805   0.132   9.031  1.0064 -2.2013  0.4799
 2905SOL    HW220349   0.773   0.102   8.901  0.5994  2.6518 -2.4193
 2906SOL     OW20350   3.346   1.652   4.515  0.2001  0.3374 -0.0697
 2906SOL    HW120351   3.352   1.583   4.450 -0.8975  0.6484 -0.5110
 2906SOL    HW220352   3.265   1.702   4.506 -0.3941 -0.0955  3.0645
 2907SOL     OW20353   3.991   0.262   1.838  0.1427  0.6481  0.0064
 2907SOL    HW120354   4.014   0.341   1.886 -2.3611  0.9200  0.7357
 2907SOL    HW220355   3.920   0.237   1.897  0.0580 -0.0863 -0.4023
 2908SOL     OW20356   0.623   0.073   8.827  0.3381 -0.1839  0.0160
 2908SOL    HW120357   0.589   4.739   8.874 -0.2592  1.3451  2.0273
 2908SOL    HW220358   0.619   0.044   8.736 -0.2805  1.2522 -0.4064
 2909SOL     OW20359   4.562   2.596   5.194  0.3933  0.1476  0.1560
 2909SOL    HW120360   4.542   2.532   5.126  0.0635 -1.9279  2.2097
 2909SOL    HW220361   4.640   2.557   5.234 -0.4351  1.8650  3.4923
 2910SOL     OW20362   1.745   3.412   4.190 -0.5807  0.2736 -0.3252
 2910SOL    HW120363   1.664   3.436   4.235 -1.9072 -2.2692 -1.3603
 2910SOL    HW220364   1.732   3.317   4.196  1.4314  0.2188  2.9372
 2911SOL     OW20365   1.164   0.039   2.430  0.3854 -0.0058  0.2332
 2911SOL    HW120366   1.071   0.060   2.429  0.2355 -0.6297  0.9698
 2911SOL    HW220367   1.202   0.126   2.417  3.1121 -1.0982  0.9518
 2912SOL     OW20368   2.577   4.361  13.580  0.7651 -0.4593 -0.2472
 2912SOL    HW120369   2.568   4.435  13.520  2.4812 -0.5735 -0.6399
 2912SOL    HW220370   2.486   4.338  13.602  0.9544 -1.2029 -0.2434
 2913SOL     OW20371   3.997   0.170   7.771  0.2314 -0.3690  0.2405
 2913SOL    HW120372   3.910   0.209   7.765  0.3404 -0.2815 -0.8659
 2913SOL    HW220373   4.052   0.243   7.742  0.2963 -0.7642 -0.6504
 2914SOL     OW20374   0.309   1.043   3.904  0.4510  0.8136 -0.7005
 2914SOL    HW120375   0.235   0.986   3.881  0.9436 -0.0542 -0.0883
 2914SOL    HW220376   0.386   0.987   3.908 -0.5451 -0.3981  1.1081
 2915SOL     OW20377   0.397   0.898  16.991  0.0299 -0.7094  0.0265
 2915SOL    HW120378   0.393   0.955  17.068  0.2767  0.0995 -0.5587
 2915SOL    HW220379   0.342   0.944  16.927  0.5090  0.6135  0.5572
 2916SOL     OW20380   3.008   3.688   2.716 -0.6528  0.1773 -0.0446
 2916SOL    HW120381   3.068   3.625   2.676 -0.9027  0.2556 -0.5490
 2916SOL    HW220382   3.015   3.664   2.808 -0.5928 -3.0096 -0.8691
 2917SOL     OW20383   2.528   1.938   3.620  1.0927 -0.2081  0.1412
 2917SOL    HW120384   2.582   1.864   3.648 -0.0694 -1.6007 -1.3132
 2917SOL    HW220385   2.476   1.940   3.700  1.4897  1.3299  0.3550
 2918SOL     OW20386   3.646   2.094   7.497 -0.0133  0.0401  0.3623
 2918SOL    HW120387   3.731   2.087   7.453 -0.8150 -0.9759 -1.0075
 2918SOL    HW220388   3.643   2.188   7.513 -1.6380 -0.3850  2.4809
 2919SOL     OW20389   2.619   3.198   2.942 -0.3669 -1.3507  0.0821
 2919SOL    HW120390   2.653   3.265   2.883  0.1006 -0.7774  0.9904
 2919SOL    HW220391   2.686   3.208   3.010  0.0650  0.3167 -0.5973
 2920SOL     OW20392   0.994   1.961   2.046  0.1242  0.0619 -0.1593
 2920SOL    HW120393   1.068   2.021   2.058  1.1961 -1.6063  1.8669
 2920SOL    HW220394   0.923   1.993   2.102  1.5766 -0.0667  1.7646
 2921SOL     OW20395   1.198   0.317   5.092 -0.2518  0.5499  0.6377
 2921SOL    HW120396   1.234   0.235   5.057 -1.1364  1.0164 -1.3545
 2921SOL    HW220397   1.276   0.354   5.133  1.4179 -0.1062 -1.9106
 2922SOL     OW20398   2.932   2.915   6.866 -0.2395 -0.5445 -0.2077
 2922SOL    HW120399   2.865   2.849   6.885 -1.4893  0.7122 -0.3148
 2922SOL    HW220400   2.962   2.898   6.777 -0.2332 -2.1177  0.0995
 2923SOL     OW20401   1.276   0.046   6.048  0.0355 -0.5277 -0.1063
 2923SOL    HW120402   1.208   0.092   5.999 -0.8472 -1.3818  0.3116
 2923SOL    HW220403   1.346   0.112   6.048 -1.6886  1.2843  0.5364
 2924SOL     OW20404   0.277   1.863   1.082 -0.3162 -0.0685  0.2317
 2924SOL    HW120405   0.354   1.810   1.104  0.1355  0.5146  0.0267
 2924SOL    HW220406   0.313   1.904   1.004 -0.5022 -0.9854 -0.3454
 2925SOL     OW20407   0.507   1.288   2.982  0.4699  0.0911 -0.0352
 2925SOL    HW120408   0.470   1.342   2.913 -0.0169  0.6237  0.6531
 2925SOL    HW220409   0.596   1.288   2.947  0.2448 -2.2468 -0.6641
 2926SOL     OW20410   2.801   0.608   9.834  0.1549 -0.0302  0.0034
 2926SOL    HW120411   2.721   0.628   9.785  0.4945 -0.9813 -0.9227
 2926SOL    HW220412   2.862   0.625   9.763 -2.1779  0.1615 -1.9339
 2927SOL     OW20413   1.741   4.137   2.561 -0.2328 -0.2019 -0.4791
 2927SOL    HW120414   1.721   4.116   2.470 -0.3357  0.0110 -0.5061
 2927SOL    HW220415   1.723   4.231   2.562  0.8025  0.0075 -1.8862
 2928SOL     OW20416   1.322   2.338  16.770 -0.6365 -0.1968  0.0857
 2928SOL    HW120417   1.243   2.292  16.797 -0.5190 -0.4808 -0.0521
 2928SOL    HW220418   1.389   2.301  16.828 -0.9706 -1.0955 -0.1006
 2929SOL     OW20419   1.218   3.432   9.134  0.5040  0.0843  0.1682
 2929SOL    HW120420   1.147   3.488   9.104  0.7229  0.0140 -0.4937
 2929SOL    HW220421   1.183   3.412   9.221 -0.8518 -1.1669 -0.6848
 2930SOL     OW20422   1.670   4.009   2.322  0.2492  0.0605  0.7093
 2930SOL    HW120423   1.697   4.059   2.246 -0.2333  5.2792  3.9138
 2930SOL    HW220424   1.586   3.971   2.294  0.1851  0.5354  0.2653
 2931SOL     OW20425   0.091   4.069   6.306 -0.0920 -0.0328 -0.0786
 2931SOL    HW120426   0.043   4.145   6.271 -1.0313 -0.7869 -0.4343
 2931SOL    HW220427   0.179   4.085   6.273  0.4883  0.9959  1.9948
 2932SOL     OW20428   0.745   2.108   6.779 -0.1269  0.0516  0.3397
 2932SOL    HW120429   0.740   2.184   6.838 -0.9640  0.3731 -0.1546
 2932SOL    HW220430   0.812   2.054   6.822 -0.5365 -1.1962 -0.6208
 2933SOL     OW20431   1.586   1.822   4.678  0.0442  0.0906  0.0224
 2933SOL    HW120432   1.605   1.741   4.631  0.2222  2.0606 -3.3012
 2933SOL    HW220433   1.493   1.835   4.657 -0.2354 -0.7033  0.7146
 2934SOL     OW20434   2.267   4.693   9.681  0.7765 -0.1979  0.0127
 2934SOL    HW120435   2.346   0.003   9.693  0.6998  0.3957 -2.2406
 2934SOL    HW220436   2.312   4.610   9.663  1.4380  0.3393 -0.7597
 2935SOL     OW20437   4.485   1.242   3.400  0.0819 -0.3016  0.7419
 2935SOL    HW120438   4.567   1.288   3.382  0.4561 -0.3917  2.2426
 2935SOL    HW220439   4.415   1.305   3.416  0.9946  0.9246 -0.1178
 2936SOL     OW20440   2.726   0.560   8.364  0.3541  0.3875  0.1279
 2936SOL    HW120441   2.729   0.541   8.458 -0.0680 -1.1239 -0.1614
 2936SOL    HW220442   2.705   0.471   8.336 -0.7579  1.5517 -2.7075
 2937SOL     OW20443   1.535   4.487   0.700  0.3067  0.0487 -0.0503
 2937SOL    HW120444   1.613   4.536   0.725  1.2684 -1.2314 -0.5929
 2937SOL    HW220445   1.525   4.421   0.769  2.9668 -0.5039 -0.2316
 2938SOL     OW20446   2.081   2.303  11.268  0.2011  0.0842  0.1888
 2938SOL    HW120447   2.096   2.252  11.188  0.3507  0.1931  0.1481
 2938SOL    HW220448   2.056   2.386  11.227  0.7916 -0.1743 -0.6922
 2939SOL     OW20449   0.478   3.172   4.462  0.7337 -0.0068 -0.5334
 2939SOL    HW120450   0.414   3.104   4.443 -0.1209  0.7608 -0.4244
 2939SOL    HW220451   0.447   3.237   4.398  0.7688  2.1766  1.6712
 2940SOL     OW20452   2.512   0.094  14.969 -0.4909  0.1327 -0.1028
 2940SOL    HW120453   2.524   0.025  14.903 -0.6376  1.4050 -1.4737
 2940SOL    HW220454   2.416   0.092  14.976 -0.6598 -1.7303 -2.9928
 2941SOL     OW20455   3.474   4.254  16.568 -0.1350  0.4360  1.1664
 2941SOL    HW120456   3.435   4.308  16.637 -2.4501  2.1471 -1.4636
 2941SOL    HW220457   3.539   4.316  16.534 -0.5466 -0.9633 -2.1728
 2942SOL     OW20458   2.079   1.051   9.846  0.2424  0.3863 -0.5476
 2942SOL    HW120459   2.077   1.132   9.795 -1.0815  0.7176  0.0280
 2942SOL    HW220460   2.094   1.079   9.936  2.8969  0.7498 -1.0991
 2943SOL     OW20461   1.808   3.262   7.533 -0.1235 -0.1628 -0.2469
 2943SOL    HW120462   1.807   3.342   7.586  1.5372 -0.0999 -0.3046
 2943SOL    HW220463   1.759   3.295   7.458 -0.6569 -0.3013  0.0430
 2944SOL     OW20464   3.119   3.264   4.035  0.6207  0.3024  0.2097
 2944SOL    HW120465   3.213   3.248   4.047  0.7902  0.5646 -0.7290
 2944SOL    HW220466   3.116   3.357   4.013 -1.8520  0.1420 -0.1468
 2945SOL     OW20467   0.120   4.064   2.942 -0.5888 -0.2464  0.1350
 2945SOL    HW120468   0.071   4.015   3.008  0.9218 -1.2034  0.5459
 2945SOL    HW220469   0.194   4.103   2.988 -0.3613  0.7673 -1.0785
 2946SOL     OW20470   3.427   2.420   6.574  0.3887 -0.4379 -0.1612
 2946SOL    HW120471   3.460   2.350   6.630  1.1252 -1.3277 -1.6920
 2946SOL    HW220472   3.372   2.365   6.518  0.7130  1.5959 -2.4633
 2947SOL     OW20473   2.797   3.035   1.347  0.3986  0.4292 -0.1695
 2947SOL    HW120474   2.768   3.030   1.438  3.4270  1.5207  0.8355
 2947SOL    HW220475   2.786   2.941   1.333 -0.8831  0.2619  1.8444
 2948SOL     OW20476   4.382   0.855   8.450 -0.3176 -0.1303 -0.9572
 2948SOL    HW120477   4.459   0.825   8.402 -0.5890 -3.3918  0.6809
 2948SOL    HW220478   4.413   0.943   8.468  1.2208 -0.5671 -1.4844
 2949SOL     OW20479   4.143   1.806   5.997 -0.2359 -0.0841 -0.1661
 2949SOL    HW120480   4.151   1.823   5.903 -2.3642  0.2203 -0.2806
 2949SOL    HW220481   4.181   1.888   6.028 -0.8023 -0.7936  2.4290
 2950SOL     OW20482   4.131   3.190   7.033  0.0836 -0.4441  0.1838
 2950SOL    HW120483   4.171   3.226   6.954 -2.2574 -0.9224 -1.2461
 2950SOL    HW220484   4.169   3.254   7.093 -2.3765  1.9414 -0.7750
 2951SOL     OW20485   3.058   2.344   5.360 -0.8151  0.1709 -0.1659
 2951SOL    HW120486   3.070   2.437   5.377 -1.6848 -0.0473  1.6945
 2951SOL    HW220487   3.151   2.325   5.345 -1.1618 -0.0976 -2.0295
 2952SOL     OW20488   0.036   3.760   9.628  0.2814  0.3993  0.0597
 2952SOL    HW120489   0.069   3.833   9.576 -0.9225  2.4093  2.1201
 2952SOL    HW220490   4.686   3.784   9.629  0.6946  1.8161  2.8362
 2953SOL     OW20491   0.321   4.444   2.042  0.0390  0.5550  0.4004
 2953SOL    HW120492   0.324   4.513   2.108  0.8014  1.8868 -1.0152
 2953SOL    HW220493   0.256   4.383   2.078  0.7132 -0.4705 -0.1081
 2954SOL     OW20494   1.771   2.693   5.710 -0.1847  0.0311 -0.3783
 2954SOL    HW120495   1.745   2.682   5.801  1.7893 -0.9213  0.0686
 2954SOL    HW220496   1.832   2.619   5.703 -1.4821 -1.2898  2.5357
 2955SOL     OW20497   4.268   3.837   4.160  0.1229 -0.3051 -0.0187
 2955SOL    HW120498   4.349   3.876   4.193  2.4993 -2.6552 -3.0998
 2955SOL    HW220499   4.206   3.877   4.221 -0.2216  0.5868 -0.9784
 2956SOL     OW20500   2.603   0.727   8.180  0.5955 -0.6411  0.0621
 2956SOL    HW120501   2.636   0.695   8.096  3.1179 -0.7180  1.0969
 2956SOL    HW220502   2.628   0.654   8.235 -2.2066 -1.0165  0.8668
 2957SOL     OW20503   2.981   3.050   3.677  0.2110  0.2261 -0.0372
 2957SOL    HW120504   2.916   3.084   3.739  0.5348  0.8591 -0.0466
 2957SOL    HW220505   2.946   3.064   3.589  0.2809 -0.6437 -0.2055
 2958SOL     OW20506   4.460   3.077  10.184  0.4882 -0.1386 -0.0735
 2958SOL    HW120507   4.474   3.058  10.091 -0.5835  0.5873 -0.3891
 2958SOL    HW220508   4.382   3.024  10.202  0.4650 -0.3651 -0.8134
 2959SOL     OW20509   1.238   4.650   2.699 -0.0204 -0.2741  0.6720
 2959SOL    HW120510   1.199   4.658   2.612  0.8827 -0.3175  0.2633
 2959SOL    HW220511   1.188   4.584   2.746 -1.0287  1.6922  2.3582
 2960SOL     OW20512   3.262   1.639  13.312 -0.1519  0.1981 -0.6371
 2960SOL    HW120513   3.289   1.671  13.226  0.3353  0.2794 -0.4545
 2960SOL    HW220514   3.260   1.722  13.359  1.7275  0.6903 -1.4182
 2961SOL     OW20515   2.507   1.472  16.824  0.2357  0.0861  0.1780
 2961SOL    HW120516   2.517   1.425  16.741  0.5409 -0.6907  0.6528
 2961SOL    HW220517   2.591   1.514  16.843 -0.5855  1.3224  1.0474
 2962SOL     OW20518   0.789   1.258  13.413 -0.3966 -0.3885  0.0574
 2962SOL    HW120519   0.695   1.252  13.431 -0.6174 -1.5610 -1.4671
 2962SOL    HW220520   0.832   1.234  13.496  0.1282 -1.2331 -0.4560
 2963SOL     OW20521   3.696   4.622  17.200 -0.0657 -0.8625 -0.5511
 2963SOL    HW120522   3.689   4.705  17.247  1.2169  0.2789 -2.3430
 2963SOL    HW220523   3.616   4.621  17.149  0.1827  1.5977 -0.9988
 2964SOL     OW20524   1.508   3.255  16.003 -0.0018  0.2080 -0.5698
 2964SOL    HW120525   1.448   3.209  16.061  0.5480 -0.6771 -0.7029
 2964SOL    HW220526   1.531   3.330  16.059  1.4946 -1.5078  1.0898
 2965SOL     OW20527   0.795   0.737   5.388  0.5490 -0.3671  0.6407
 2965SOL    HW120528   0.742   0.798   5.337  1.6839 -0.2188 -0.3565
 2965SOL    HW220529   0.804   0.656   5.338 -0.0227  0.0934 -0.2031
 2966SOL     OW20530   4.289   2.898   4.392 -0.1183  0.1583  0.0518
 2966SOL    HW120531   4.285   2.855   4.306  0.4875 -0.2569  0.2242
 2966SOL    HW220532   4.226   2.968   4.378 -0.1546 -0.0319 -0.7326
 2967SOL     OW20533   0.416   1.010   1.005  0.1777  0.2640  0.7705
 2967SOL    HW120534   0.508   1.031   0.989  0.2030  0.2615  0.9126
 2967SOL    HW220535   0.424   0.923   0.966  1.3302  1.1881 -1.0121
 2968SOL     OW20536   3.636   0.070   3.533 -0.2054  0.4839 -0.0330
 2968SOL    HW120537   3.581   0.075   3.611  1.1955 -0.2688  1.0013
 2968SOL    HW220538   3.685   4.731   3.549  0.3119  0.9787  0.8753
 2969SOL     OW20539   4.670   0.272   2.645 -0.6177 -0.0020  0.6024
 2969SOL    HW120540   4.669   0.303   2.735  3.7970 -1.8689  1.3019
 2969SOL    HW220541   4.635   0.346   2.595 -1.5253 -0.7656  0.0881
 2970SOL     OW20542   2.135   1.032   8.307 -0.1633  0.4554 -0.1622
 2970SOL    HW120543   2.134   0.997   8.396  0.4317  1.3326  0.1825
 2970SOL    HW220544   2.190   0.962   8.273 -0.1825  0.9012 -1.1043
 2971SOL     OW20545   0.936   2.469   7.633 -0.3452 -0.3799 -0.0813
 2971SOL    HW120546   0.968   2.484   7.722  0.1009 -2.6411  0.1322
 2971SOL    HW220547   0.998   2.515   7.577  0.4137 -0.2181  0.9017
 2972SOL     OW20548   0.337   4.443  15.927  0.2727 -0.4733 -0.1313
 2972SOL    HW120549   0.328   4.530  15.889 -0.4184 -0.1456  0.7931
 2972SOL    HW220550   0.313   4.456  16.019 -2.6344 -2.5718 -0.6003
 2973SOL     OW20551   0.998   2.172   1.800  0.5722 -0.4775  0.2917
 2973SOL    HW120552   1.016   2.087   1.759 -0.2912 -0.9993  1.0001
 2973SOL    HW220553   0.906   2.194   1.789  0.4548 -0.9718  0.2703
 2974SOL     OW20554   2.337   1.088  14.651  0.1197 -0.3966 -0.3162
 2974SOL    HW120555   2.274   1.134  14.707 -1.9994  0.8044 -3.6934
 2974SOL    HW220556   2.418   1.124  14.686  1.0784 -1.3338 -1.5684
 2975SOL     OW20557   2.679   0.933   2.176 -0.6785  0.1601 -0.1365
 2975SOL    HW120558   2.590   0.970   2.171 -0.4055  0.9983  1.1430
 2975SOL    HW220559   2.731   1.014   2.177 -2.8626  1.5765 -1.3953
 2976SOL     OW20560   3.231   0.711   4.774 -0.1628 -0.0929  0.4405
 2976SOL    HW120561   3.159   0.667   4.818 -0.8207  1.1507  0.6242
 2976SOL    HW220562   3.198   0.708   4.684  2.1752 -4.7887 -0.2316
 2977SOL     OW20563   4.233   1.284   7.511 -0.3550 -0.6225  0.0621
 2977SOL    HW120564   4.221   1.222   7.584  0.4033 -1.9640 -0.9432
 2977SOL    HW220565   4.304   1.332   7.554  0.6927  0.6436 -3.1328
 2978SOL     OW20566   1.330   1.535  12.782  0.3177 -0.1836  0.1091
 2978SOL    HW120567   1.348   1.459  12.727  1.8747 -1.0029  1.7444
 2978SOL    HW220568   1.285   1.492  12.855 -2.0871 -1.3082 -2.0585
 2979SOL     OW20569   0.845   1.879   6.888 -0.0240  0.1848  0.2209
 2979SOL    HW120570   0.866   1.894   6.980 -0.4565  1.7974  0.0494
 2979SOL    HW220571   0.762   1.832   6.891 -0.0617  0.0789 -2.0123
 2980SOL     OW20572   4.602   1.820  11.087  0.4294  0.0453 -0.1066
 2980SOL    HW120573   4.520   1.861  11.113  0.9542  1.3427 -0.4794
 2980SOL    HW220574   4.663   1.894  11.094 -0.9104  1.0736  0.7824
 2981SOL     OW20575   0.480   0.679   8.028 -0.3900 -0.0574 -0.0428
 2981SOL    HW120576   0.460   0.602   8.082  1.2279 -0.4640 -0.0146
 2981SOL    HW220577   0.541   0.640   7.966 -0.7954 -0.4967 -0.1650
 2982SOL     OW20578   3.482   1.051   5.129  0.0616  0.1804 -0.9147
 2982SOL    HW120579   3.398   1.021   5.094 -0.3800 -1.9753  1.9861
 2982SOL    HW220580   3.445   1.113   5.193  0.0685 -0.5970 -0.1590
 2983SOL     OW20581   2.560   0.612   9.703 -0.1329  0.5986  0.4170
 2983SOL    HW120582   2.495   0.588   9.769  0.2324 -0.8686  0.2488
 2983SOL    HW220583   2.537   0.704   9.693  2.5455  1.1697 -0.4525
 2984SOL     OW20584   2.308   0.455   6.801  0.2417 -0.2289 -0.4558
 2984SOL    HW120585   2.397   0.488   6.812 -0.0375  0.4095 -0.0798
 2984SOL    HW220586   2.270   0.494   6.880  1.6797  3.1363 -1.4426
 2985SOL     OW20587   1.446   4.127   8.582  0.4566  0.2462  0.0684
 2985SOL    HW120588   1.479   4.057   8.637  1.0170  1.5340  1.3859
 2985SOL    HW220589   1.528   4.176   8.571  1.4203 -0.9073  2.1475
 2986SOL     OW20590   4.020   2.595   6.201 -0.2641  0.0485 -0.0536
 2986SOL    HW120591   3.983   2.544   6.274  0.1900 -0.3245 -0.0818
 2986SOL    HW220592   4.064   2.529   6.147 -0.1242 -1.1647  1.5162
 2987SOL     OW20593   4.393   1.913  13.870 -0.6939 -0.4941 -0.2517
 2987SOL    HW120594   4.322   1.964  13.831 -0.1440  2.0589  2.0955
 2987SOL    HW220595   4.353   1.887  13.953 -1.0916 -0.0431 -0.2977
 2988SOL     OW20596   0.375   2.301   3.383 -0.0130  0.5366 -0.1281
 2988SOL    HW120597   0.397   2.209   3.397 -1.3093  0.3594  0.7547
 2988SOL    HW220598   0.361   2.331   3.473 -0.7317 -0.8453  0.2074
 2989SOL     OW20599   0.994   2.453  15.886  0.0036  1.1158 -0.0695
 2989SOL    HW120600   1.017   2.413  15.970  1.2001 -0.0529 -0.9451
 2989SOL    HW220601   1.064   2.512  15.858 -0.6256  0.5870 -2.8217
 2990SOL     OW20602   4.606   3.571   8.656  0.5636 -0.0121  0.0663
 2990SOL    HW120603   4.562   3.540   8.577 -2.6297  0.1910  1.7881
 2990SOL    HW220604   4.535   3.615   8.703 -1.0399  1.0085 -3.3019
 2991SOL     OW20605   3.926   1.036   2.076 -0.4866 -0.0209 -0.3801
 2991SOL    HW120606   3.869   0.959   2.073  1.3675 -1.4964  2.0588
 2991SOL    HW220607   3.934   1.037   2.172 -1.5496 -0.9360 -0.2838
 2992SOL     OW20608   2.191   4.170   2.038  0.1479  0.0624 -0.2891
 2992SOL    HW120609   2.226   4.237   1.979 -1.6343  0.2840 -1.1083
 2992SOL    HW220610   2.116   4.224   2.063 -1.4946 -1.5653 -1.7201
 2993SOL     OW20611   0.183   0.442   3.304 -0.0438 -0.2566 -0.2736
 2993SOL    HW120612   0.187   0.379   3.376  2.1046 -1.4473 -1.4220
 2993SOL    HW220613   0.088   0.453   3.303 -0.0772 -0.5983 -0.7035
 2994SOL     OW20614   1.419   3.303   5.235 -0.0283  0.0009 -0.2984
 2994SOL    HW120615   1.503   3.347   5.239  0.6092 -0.9767 -2.7543
 2994SOL    HW220616   1.449   3.213   5.221 -1.5449 -0.5228 -0.1877
 2995SOL     OW20617   3.268   1.067   2.130 -0.5623 -0.0710 -0.1311
 2995SOL    HW120618   3.232   1.156   2.119  0.2171  0.4295  1.3038
 2995SOL    HW220619   3.360   1.068   2.104 -0.9385  1.5751 -1.4142
 2996SOL     OW20620   3.137   4.573   2.866  0.5823  0.3200  0.3011
 2996SOL    HW120621   3.086   4.550   2.944  0.2221 -2.0188 -0.6168
 2996SOL    HW220622   3.170   4.655   2.903  2.0155 -1.3683  2.8151
 2997SOL     OW20623   2.272   1.482  16.145 -0.5263 -0.3674 -0.5430
 2997SOL    HW120624   2.322   1.530  16.078 -0.4015 -0.6767 -0.6700
 2997SOL    HW220625   2.209   1.427  16.098  0.1362 -1.9994  0.4848
 2998SOL     OW20626   0.192   1.785   1.487 -0.4972 -0.1433 -0.0973
 2998SOL    HW120627   0.273   1.820   1.450  0.4212 -0.4285  1.6463
 2998SOL    HW220628   0.200   1.693   1.461 -0.8598 -0.9205  2.5521
 2999SOL     OW20629   1.085   2.335   1.569  0.3177  0.0465 -0.0735
 2999SOL    HW120630   1.068   2.268   1.636  1.9088  1.0235  1.3017
 2999SOL    HW220631   0.997   2.346   1.535 -0.0410  0.8270  1.1042
 3000SOL     OW20632   4.590   3.672   8.181  0.7365 -0.0003 -0.2994
 3000SOL    HW120633   4.575   3.674   8.086  0.4466  2.2765 -0.2084
 3000SOL    HW220634   4.498   3.647   8.193  1.3481 -2.3034 -0.5085
 3001SOL     OW20635   4.577   1.454   4.963 -0.1803  0.4024 -0.1971
 3001SOL    HW120636   4.572   1.514   5.037 -0.7204  0.4668 -0.2811
 3001SOL    HW220637   4.560   1.366   4.997 -0.5574  0.2300 -0.8247
 3002SOL     OW20638   3.186   4.365   1.696 -0.0873  0.4943 -0.2934
 3002SOL    HW120639   3.267   4.318   1.681 -0.4425 -0.4905  0.8637
 3002SOL    HW220640   3.206   4.451   1.733 -1.9303  1.0820 -0.6474
 3003SOL     OW20641   3.103   2.587  13.887  0.1138 -0.0305  0.1868
 3003SOL    HW120642   3.132   2.529  13.958 -3.1433 -1.0912  0.6136
 3003SOL    HW220643   3.188   2.611  13.849 -1.7489  0.4190 -3.5709
 3004SOL     OW20644   1.553   0.994   2.381 -0.5068 -0.4896 -0.0657
 3004SOL    HW120645   1.590   0.934   2.445  1.2483  3.1833  2.3714
 3004SOL    HW220646   1.485   1.027   2.440 -1.7033 -2.1997 -0.5116
 3005SOL     OW20647   4.413   0.995  11.936 -0.0922  0.2212 -0.0866
 3005SOL    HW120648   4.467   0.918  11.923 -1.0640 -0.0472 -2.6345
 3005SOL    HW220649   4.458   1.032  12.012  1.2219 -0.2471 -0.6417
 3006SOL     OW20650   0.440   3.826   4.245  0.1986  0.3266  0.0530
 3006SOL    HW120651   0.425   3.774   4.323 -1.3399  0.4422 -0.1586
 3006SOL    HW220652   0.533   3.847   4.246  0.5025 -0.8159 -2.7446
 3007SOL     OW20653   0.298   2.809  15.254  0.3842 -0.2094 -0.1343
 3007SOL    HW120654   0.367   2.830  15.317 -0.7599  1.1819  0.6510
 3007SOL    HW220655   0.232   2.780  15.317  1.0043  0.4725  0.8323
 3008SOL     OW20656   0.481   3.399   8.815  0.3733 -0.1382  0.0054
 3008SOL    HW120657   0.451   3.361   8.898  0.6457 -0.4653 -0.0442
 3008SOL    HW220658   0.508   3.333   8.751 -2.1251  0.8823 -2.0848
 3009SOL     OW20659   3.241   1.305   4.903 -0.1214 -0.1684 -0.0353
 3009SOL    HW120660   3.261   1.220   4.942 -0.5880  0.9817  2.6840
 3009SOL    HW220661   3.327   1.324   4.865  0.9312 -0.3019  2.2893
 3010SOL     OW20662   3.761   2.146   6.884 -0.1630  0.2080  0.4353
 3010SOL    HW120663   3.770   2.051   6.895 -0.3465  0.1589  0.1668
 3010SOL    HW220664   3.849   2.176   6.909 -0.2593  1.4484 -0.7163
 3011SOL     OW20665   0.556   1.361   8.547 -0.5724 -0.2954 -0.3150
 3011SOL    HW120666   0.638   1.353   8.596  0.4480  1.8339 -1.6369
 3011SOL    HW220667   0.589   1.379   8.458  1.7723  1.4437  0.9036
 3012SOL     OW20668   0.539   0.735   2.199 -0.0982  0.3925  0.3721
 3012SOL    HW120669   0.472   0.794   2.233 -3.6542 -1.8751 -2.7560
 3012SOL    HW220670   0.533   0.745   2.104  1.5216 -2.5462 -0.0388
 3013SOL     OW20671   3.411   0.272  15.032 -0.3074 -0.0803 -0.1533
 3013SOL    HW120672   3.477   0.331  14.996  1.5731 -2.1763 -0.1723
 3013SOL    HW220673   3.457   0.217  15.096 -1.4006  0.2622  0.9366
 3014SOL     OW20674   0.382   3.837   7.812 -0.1225 -0.6721  0.0959
 3014SOL    HW120675   0.289   3.818   7.827  0.3025 -0.7549  2.6110
 3014SOL    HW220676   0.403   3.745   7.798 -0.4380 -1.0020  1.7541
 3015SOL     OW20677   1.952   4.372   9.135  0.0089  0.3224 -0.2292
 3015SOL    HW120678   2.022   4.355   9.072 -0.4703  0.8452 -0.8993
 3015SOL    HW220679   1.874   4.366   9.080  0.1331  1.2103 -0.5003
 3016SOL     OW20680   0.923   2.763   2.515 -0.1601  0.3137  0.1605
 3016SOL    HW120681   0.840   2.753   2.467  0.0662 -1.8154  0.2063
 3016SOL    HW220682   0.978   2.734   2.442 -1.4055 -0.9233 -0.2917
 3017SOL     OW20683   4.171   4.695   3.829  0.1520  0.2970  0.1453
 3017SOL    HW120684   4.211   4.608   3.836  2.3940  1.4421  1.8396
 3017SOL    HW220685   4.255   4.734   3.805  1.0212 -1.5957  0.1480
 3018SOL     OW20686   1.818   3.546  17.591  1.0665  0.8949 -0.5328
 3018SOL    HW120687   1.754   3.616  17.600 -1.3123 -1.4236  0.6308
 3018SOL    HW220688   1.780   3.486  17.527  2.2556  0.3993 -0.7804
 3019SOL     OW20689   0.102   4.518  10.055 -0.2033 -0.2703  0.0100
 3019SOL    HW120690   0.042   4.496  10.126  0.4824 -3.0133 -0.2585
 3019SOL    HW220691   0.112   4.434  10.009  0.2992 -0.6406  0.7990
 3020SOL     OW20692   0.784   4.302   2.280  0.0164  0.6064  0.3857
 3020SOL    HW120693   0.834   4.304   2.199 -1.7137 -0.4811 -0.7068
 3020SOL    HW220694   0.700   4.288   2.238 -0.3936 -1.3255  1.8296
 3021SOL     OW20695   0.782   2.711   9.242  0.3908 -0.1671  0.4595
 3021SOL    HW120696   0.760   2.645   9.308  0.4301  0.8459  1.4873
 3021SOL    HW220697   0.777   2.786   9.301 -0.5526 -0.4580  0.7538
 3022SOL     OW20698   2.428   2.671   6.254 -0.7453 -0.3568 -0.2009
 3022SOL    HW120699   2.362   2.724   6.298 -1.0444 -1.9776  1.3045
 3022SOL    HW220700   2.383   2.641   6.175 -1.5193 -1.1607  0.5441
 3023SOL     OW20701   0.453   3.928   6.170 -0.3445  0.4276 -0.2608
 3023SOL    HW120702   0.445   4.016   6.209 -0.3058 -0.0989  0.9225
 3023SOL    HW220703   0.540   3.924   6.131 -0.5621  1.3309 -0.8639
 3024SOL     OW20704   0.467   2.329   3.118  0.6156 -0.4236 -0.3245
 3024SOL    HW120705   0.433   2.337   3.207  0.6963  0.0008 -0.3345
 3024SOL    HW220706   0.523   2.252   3.129  0.8147 -0.2271  0.0241
 3025SOL     OW20707   4.612   0.647   3.564 -0.6385 -0.1932 -0.8034
 3025SOL    HW120708   4.679   0.686   3.507 -1.7190  2.6039 -0.1634
 3025SOL    HW220709   4.640   0.556   3.573  0.3861  0.0921 -1.0485
 3026SOL     OW20710   2.756   2.471   1.281 -0.1912 -0.2127 -0.8310
 3026SOL    HW120711   2.737   2.402   1.345 -1.0695  0.6965 -0.1192
 3026SOL    HW220712   2.757   2.422   1.199 -1.6208  0.7611 -1.4335
 3027SOL     OW20713   2.426   3.150   1.734  0.0476  0.1565 -0.6022
 3027SOL    HW120714   2.374   3.090   1.680  0.0991 -0.4534  0.0223
 3027SOL    HW220715   2.374   3.230   1.728  1.8102  1.4871  1.9357
 3028SOL     OW20716   4.722   1.773   8.909 -1.0886 -0.0100 -0.2056
 3028SOL    HW120717   4.677   1.771   8.994  2.3443  0.2624  1.6237
 3028SOL    HW220718   4.659   1.786   8.838  0.3252 -0.4456 -1.5295
 3029SOL     OW20719   3.068   2.307  14.182 -0.6859 -0.0275  0.2465
 3029SOL    HW120720   3.144   2.365  14.173 -0.7746  0.0325 -0.1125
 3029SOL    HW220721   3.063   2.284  14.089  2.5545 -1.9997  0.5741
 3030SOL     OW20722   4.103   0.927  10.368 -0.3262 -0.0413  0.1897
 3030SOL    HW120723   4.158   0.988  10.417  1.5185 -0.5119 -1.3092
 3030SOL    HW220724   4.063   0.986  10.304 -0.2899  2.2409  2.2837
 3031SOL     OW20725   0.035   0.671   2.717  0.3933  0.1932 -0.9549
 3031SOL    HW120726   0.051   0.758   2.754 -2.0570  0.2334  0.0256
 3031SOL    HW220727   0.018   0.631   2.802  1.4597  1.3391 -0.2023
 3032SOL     OW20728   2.095   1.852   2.727  0.4182 -0.4034 -0.3129
 3032SOL    HW120729   2.024   1.882   2.670 -0.2240 -0.3891  0.4946
 3032SOL    HW220730   2.121   1.773   2.679 -2.0590  0.1504 -2.5726
 3033SOL     OW20731   1.995   4.034  11.429 -0.6927 -0.0150 -0.2188
 3033SOL    HW120732   1.916   4.056  11.480 -0.0964  1.2548  0.1476
 3033SOL    HW220733   1.954   3.979  11.362 -2.0298  0.9612 -0.2121
 3034SOL     OW20734   3.194   1.323   9.449  0.3163 -0.1710  0.5027
 3034SOL    HW120735   3.124   1.335   9.513 -0.6633 -1.7402 -0.2676
 3034SOL    HW220736   3.273   1.322   9.502  0.8317 -0.2374 -0.2823
 3035SOL     OW20737   4.007   2.238   0.019  0.0130 -0.4303 -0.6575
 3035SOL    HW120738   3.924   2.225   0.065  1.1939 -0.1136  1.5568
 3035SOL    HW220739   3.992   2.186  17.705 -0.0360 -0.4939 -0.6061
 3036SOL     OW20740   4.496   2.461   2.630 -0.4044  0.1564  0.3813
 3036SOL    HW120741   4.409   2.448   2.667 -1.1638  0.2532 -1.3978
 3036SOL    HW220742   4.547   2.391   2.670 -0.9515 -0.1277  0.5822
 3037SOL     OW20743   3.168   2.026  12.637 -0.4108 -0.1822 -0.5515
 3037SOL    HW120744   3.187   1.935  12.617 -1.5508 -0.4096 -0.5762
 3037SOL    HW220745   3.222   2.067  12.569  1.2920 -2.3563 -0.4931
 3038SOL     OW20746   3.033   1.022   0.121 -0.0852 -0.0856  0.7100
 3038SOL    HW120747   2.975   0.992   0.052  1.6981 -0.3396 -0.6906
 3038SOL    HW220748   3.018   1.116   0.122 -1.7699 -0.3415 -2.5595
 3039SOL     OW20749   3.436   0.530   5.028  0.2330  0.7092 -0.5682
 3039SOL    HW120750   3.401   0.442   5.014  0.6072  0.7732 -1.9221
 3039SOL    HW220751   3.367   0.577   5.076  0.1983  1.6213 -1.5020
 3040SOL     OW20752   3.901   1.939   7.502 -0.1152  0.5434 -0.2733
 3040SOL    HW120753   3.929   1.975   7.587 -1.3864  0.4725  0.1720
 3040SOL    HW220754   3.920   2.003   7.434  1.8619 -0.4552 -0.6532
 3041SOL     OW20755   2.641   4.174   6.161  0.0080 -0.4716 -0.0787
 3041SOL    HW120756   2.677   4.161   6.074  0.8634  2.2103 -0.1346
 3041SOL    HW220757   2.635   4.269   6.164 -1.0059 -0.5616  0.6086
 3042SOL     OW20758   2.445   0.199   6.990 -0.0000  0.1808  0.3085
 3042SOL    HW120759   2.417   0.133   7.054  0.5955  1.7232  2.1899
 3042SOL    HW220760   2.382   0.183   6.920 -0.1184 -2.3356  1.0069
 3043SOL     OW20761   2.075   0.320   2.355 -0.4819 -0.0299  0.7718
 3043SOL    HW120762   2.092   0.411   2.334 -1.5616 -0.2644 -1.1707
 3043SOL    HW220763   2.098   0.286   2.268 -1.2806 -1.0016  0.9264
 3044SOL     OW20764   2.349   0.375  14.397  0.3770  0.4059  0.0625
 3044SOL    HW120765   2.374   0.438  14.330  1.4984  0.6382  0.7056
 3044SOL    HW220766   2.333   0.299  14.340 -1.7752  1.3048 -0.5375
 3045SOL     OW20767   0.538   2.983   3.936  0.1499  0.0340 -0.4271
 3045SOL    HW120768   0.461   2.999   3.991  0.6888  2.8615 -0.4775
 3045SOL    HW220769   0.579   3.069   3.924  1.3648 -0.5790 -0.6311
 3046SOL     OW20770   0.565   2.914   1.069  0.0696 -0.2300  0.8645
 3046SOL    HW120771   0.550   2.922   1.163 -0.4164  0.6578  0.7167
 3046SOL    HW220772   0.479   2.873   1.061 -0.4004  1.0189 -0.6528
 3047SOL     OW20773   1.805   1.828   5.948  0.2925 -0.1598  0.1524
 3047SOL    HW120774   1.896   1.818   5.976  0.2740  0.7169  0.5223
 3047SOL    HW220775   1.764   1.748   5.981  0.9611 -0.4097  0.3736
 3048SOL     OW20776   2.982   1.540   6.519  0.1605 -0.1412  0.0076
 3048SOL    HW120777   2.932   1.492   6.585 -0.3472  0.3695 -0.0052
 3048SOL    HW220778   2.970   1.487   6.440  0.3471  2.0354 -1.5086
 3049SOL     OW20779   2.483   2.966   8.616  0.2282  0.5999 -0.2365
 3049SOL    HW120780   2.451   2.963   8.526 -0.2331  1.2616 -0.0905
 3049SOL    HW220781   2.401   2.944   8.660 -0.3903 -1.5533 -2.4641
 3050SOL     OW20782   2.501   1.184  11.989  0.0830  0.0126  0.4085
 3050SOL    HW120783   2.436   1.245  12.025 -0.2816  0.2404 -0.6514
 3050SOL    HW220784   2.549   1.234  11.923  0.9965 -0.7686  0.4766
 3051SOL     OW20785   0.688   0.226   4.373  0.1147  0.1195  0.5429
 3051SOL    HW120786   0.761   0.272   4.413 -0.6661  1.2368  0.6944
 3051SOL    HW220787   0.642   0.196   4.452 -3.2108  0.8607 -1.1108
 3052SOL     OW20788   0.660   0.833   3.120 -0.0678  0.2343  0.0478
 3052SOL    HW120789   0.631   0.741   3.121 -1.2624  0.6033 -0.8638
 3052SOL    HW220790   0.754   0.817   3.112 -0.0038  0.7775 -0.2496
 3053SOL     OW20791   2.145   0.282   6.147 -0.0052 -0.0535  0.0609
 3053SOL    HW120792   2.143   0.376   6.132  0.5265  0.0654  0.7470
 3053SOL    HW220793   2.085   0.279   6.222  0.0172 -0.0809  0.0778
 3054SOL     OW20794   2.004   3.448   4.274 -0.1925 -0.5652  0.0382
 3054SOL    HW120795   1.912   3.429   4.254  0.6752 -3.5048 -1.0757
 3054SOL    HW220796   2.019   3.534   4.236 -4.0231  0.9277  1.9347
 3055SOL     OW20797   2.452   4.524   3.479  0.2823 -0.3862  0.1368
 3055SOL    HW120798   2.432   4.448   3.533  1.1530 -1.7856 -1.5288
 3055SOL    HW220799   2.368   4.546   3.439  0.2352 -1.1291 -0.1745
 3056SOL     OW20800   3.446   3.664   6.235  0.5143 -0.1225  0.4185
 3056SOL    HW120801   3.410   3.753   6.240 -2.4704 -1.3469  0.1604
 3056SOL    HW220802   3.465   3.638   6.325  1.5610 -1.6523 -0.2583
 3057SOL     OW20803   1.668   4.211   8.031 -0.3225  0.1501  0.4431
 3057SOL    HW120804   1.691   4.303   8.023  2.0075 -0.7457 -3.2151
 3057SOL    HW220805   1.743   4.167   8.071 -0.0627  2.5493  2.5847
 3058SOL     OW20806   3.201   0.834  15.706  0.5246 -0.2200  0.4487
 3058SOL    HW120807   3.154   0.891  15.645 -2.3194 -3.0819 -0.0692
 3058SOL    HW220808   3.134   0.773  15.737 -0.1830 -0.9595 -2.4618
 3059SOL     OW20809   3.599   3.628   7.553  0.7084  0.0928  0.2272
 3059SOL    HW120810   3.655   3.564   7.596  0.2347 -0.1981  0.4092
 3059SOL    HW220811   3.518   3.634   7.604  0.5509 -0.0083 -0.0087
 3060SOL     OW20812   0.338   3.745   9.342 -0.6175  0.7557  0.1814
 3060SOL    HW120813   0.331   3.823   9.289  0.9932 -0.7867 -2.2907
 3060SOL    HW220814   0.355   3.796   9.421  0.9218  0.2810  0.1539
 3061SOL     OW20815   4.148   2.736  11.804  0.5939  0.0582 -0.0089
 3061SOL    HW120816   4.164   2.740  11.898  1.2874  1.7315 -0.2141
 3061SOL    HW220817   4.081   2.801  11.782  1.2362  1.1651  1.3426
 3062SOL     OW20818   2.517   4.705   4.475 -0.7635  0.2519  0.2000
 3062SOL    HW120819   2.503   4.705   4.570  0.9117 -1.7070  0.4491
 3062SOL    HW220820   2.523   0.054   4.447 -0.4642 -0.3179 -1.5767
 3063SOL     OW20821   4.214   2.748   6.333  0.5261 -0.8190 -0.1005
 3063SOL    HW120822   4.141   2.767   6.391  1.4375 -0.7534  1.0087
 3063SOL    HW220823   4.168   2.691   6.271  0.4245 -0.4971 -0.3219
 3064SOL     OW20824   2.246   1.728   1.956 -0.1352 -0.5248  0.0869
 3064SOL    HW120825   2.269   1.663   1.890 -0.0642  0.2610 -0.6550
 3064SOL    HW220826   2.228   1.675   2.034 -0.0923 -2.3354 -1.1333
 3065SOL     OW20827   2.372   4.699   4.093 -0.2196  0.0704 -0.7904
 3065SOL    HW120828   2.467   4.687   4.105 -0.1915  1.3630  0.1610
 3065SOL    HW220829   2.348   4.621   4.043  4.0767 -2.1785  0.6484
 3066SOL     OW20830   1.811   4.511   7.245  0.1513 -0.4814  0.3274
 3066SOL    HW120831   1.741   4.476   7.300 -0.2085  0.8763  0.7074
 3066SOL    HW220832   1.885   4.488   7.301  0.8566 -0.5733 -0.6441
 3067SOL     OW20833   3.497   2.940  12.459 -0.4491  0.2666  0.4099
 3067SOL    HW120834   3.426   2.890  12.497  1.1002 -0.9809  1.6659
 3067SOL    HW220835   3.564   2.943  12.527 -1.0562  2.9899  0.9169
 3068SOL     OW20836   2.656   3.504   6.767 -0.6430  0.2872  0.5288
 3068SOL    HW120837   2.588   3.530   6.705 -0.9099  2.6407  1.7753
 3068SOL    HW220838   2.732   3.491   6.710 -0.7216 -0.8015  0.6825
 3069SOL     OW20839   1.640   1.490   3.515 -0.3706 -0.5520 -0.1381
 3069SOL    HW120840   1.599   1.571   3.545  2.4660  1.1243 -0.7471
 3069SOL    HW220841   1.734   1.504   3.530 -0.1534 -2.5297  0.3502
 3070SOL     OW20842   0.638   2.868   6.771  0.1538  0.6060  0.2963
 3070SOL    HW120843   0.548   2.868   6.738  0.9910  1.9383 -1.9883
 3070SOL    HW220844   0.649   2.961   6.789 -0.4865  1.0962 -1.7976
 3071SOL     OW20845   3.819   1.215  11.587  0.7007 -0.2239  0.2335
 3071SOL    HW120846   3.896   1.229  11.533  1.0929 -1.5836  0.4423
 3071SOL    HW220847   3.837   1.128  11.623  3.0739  0.2675  0.2396
 3072SOL     OW20848   2.838   3.406   7.248 -0.1618 -0.6246  0.1946
 3072SOL    HW120849   2.826   3.363   7.163  0.1649 -0.7581  0.2172
 3072SOL    HW220850   2.823   3.497   7.223  1.3073 -0.2435  0.7099
 3073SOL     OW20851   0.135   3.919   6.549 -0.0469  0.6129 -0.0158
 3073SOL    HW120852   0.226   3.947   6.544  0.2585 -0.3651 -0.0486
 3073SOL    HW220853   0.101   3.978   6.482 -0.7709 -3.4907 -3.2633
 3074SOL     OW20854   1.408   3.679  11.594 -0.1812  0.7052  0.3894
 3074SOL    HW120855   1.439   3.760  11.554  1.1885  0.6519  1.3571
 3074SOL    HW220856   1.342   3.655  11.528 -1.1152  0.6219  1.3584
 3075SOL     OW20857   4.395   0.474   5.805  0.7130  0.2888 -0.0893
 3075SOL    HW120858   4.386   0.528   5.727 -1.4799  2.1984  1.4947
 3075SOL    HW220859   4.464   0.517   5.857  0.9420  1.4875 -1.3893
 3076SOL     OW20860   1.188   0.815   5.358  0.5702 -0.3547 -0.7225
 3076SOL    HW120861   1.249   0.822   5.431  1.9746 -0.9452 -1.8348
 3076SOL    HW220862   1.183   0.908   5.338  0.1845 -1.1355 -4.2876
 3077SOL     OW20863   0.689   0.501  14.873  0.0991 -0.6260 -0.1459
 3077SOL    HW120864   0.627   0.510  14.945 -2.0110  0.0407 -2.0542
 3077SOL    HW220865   0.634   0.487  14.796  0.1271 -0.7640 -0.1405
 3078SOL     OW20866   1.913   0.059   5.352 -0.2630  0.5132 -0.6318
 3078SOL    HW120867   1.988   0.008   5.381  1.3122  3.2394  0.1067
 3078SOL    HW220868   1.853   4.728   5.336 -0.4899  0.7555 -0.8937
 3079SOL     OW20869   0.497   4.737   6.074 -0.5105  0.4646  0.4490
 3079SOL    HW120870   0.546   0.076   6.081 -0.5465  0.7170 -2.1911
 3079SOL    HW220871   0.458   4.741   5.986  1.4732 -0.2555 -0.4541
 3080SOL     OW20872   4.092   1.152   7.304  0.1801 -0.0019  0.1496
 3080SOL    HW120873   4.009   1.122   7.341  0.1692  1.5729  1.3978
 3080SOL    HW220874   4.140   1.176   7.384  0.6436  1.4356 -0.5627
 3081SOL     OW20875   3.355   1.782  13.064  0.3644 -0.5431 -0.4925
 3081SOL    HW120876   3.303   1.854  13.028 -0.7340 -0.5846  1.0153
 3081SOL    HW220877   3.440   1.822  13.047 -0.5974  1.4512 -0.5490
 3082SOL     OW20878   1.915   4.655  15.278 -0.0211 -0.2615  0.2266
 3082SOL    HW120879   1.989   4.679  15.333  0.5614 -1.2821 -0.1204
 3082SOL    HW220880   1.904   4.562  15.296 -0.5601 -0.3858 -0.7498
 3083SOL     OW20881   1.391   3.198  12.045 -0.0889 -0.0086 -0.0104
 3083SOL    HW120882   1.369   3.145  12.122 -1.3383 -1.7576 -1.5782
 3083SOL    HW220883   1.466   3.149  12.012 -0.9675 -2.2811  1.3718
 3084SOL     OW20884   2.433   4.020   7.276  0.3425  0.0932  0.0913
 3084SOL    HW120885   2.523   4.041   7.252  0.4682 -0.9693 -0.3331
 3084SOL    HW220886   2.385   4.086   7.227 -0.3712 -1.3411 -1.1134
 3085SOL     OW20887   1.853   3.781  14.172 -0.0891  0.3699  0.4933
 3085SOL    HW120888   1.823   3.690  14.169  1.2011 -0.0169 -0.6620
 3085SOL    HW220889   1.778   3.822  14.129 -1.0178 -0.8257  0.9622
 3086SOL     OW20890   2.605   3.501  11.418 -0.1180 -0.2508 -0.0372
 3086SOL    HW120891   2.673   3.546  11.369  0.9499 -3.0577 -1.1358
 3086SOL    HW220892   2.546   3.575  11.431  1.0053  0.5402  0.5364
 3087SOL     OW20893   2.683   4.601   3.362  0.4666  0.2891  0.1515
 3087SOL    HW120894   2.687   4.681   3.414  3.9645 -0.6152  1.3173
 3087SOL    HW220895   2.594   4.578   3.389  1.4237 -3.6854 -0.0141
 3088SOL     OW20896   0.059   1.034   7.530  0.0189  0.2886  0.0282
 3088SOL    HW120897   4.717   1.017   7.489  0.4234  2.0111 -1.5362
 3088SOL    HW220898   0.040   1.117   7.574 -1.0078 -0.1304  0.3619
 3089SOL     OW20899   1.463   2.354   4.232 -0.5934  0.4184 -0.8320
 3089SOL    HW120900   1.521   2.430   4.226  0.8268 -0.7648 -1.9620
 3089SOL    HW220901   1.434   2.361   4.323  0.3425 -1.6391 -0.3876
 3090SOL     OW20902   2.187   1.336   5.670  0.4318  0.3264 -0.2638
 3090SOL    HW120903   2.225   1.326   5.758  1.9371 -0.4727 -1.0137
 3090SOL    HW220904   2.266   1.369   5.627  1.0816 -1.1488 -0.2217
 3091SOL     OW20905   0.307   1.808   7.982 -0.0537  0.0639 -0.2773
 3091SOL    HW120906   0.280   1.857   8.060  2.9576  0.6993  0.3598
 3091SOL    HW220907   0.226   1.772   7.945 -0.8679  0.7558  0.8383
 3092SOL     OW20908   2.376   2.039   6.627 -0.5028  0.3381 -0.3809
 3092SOL    HW120909   2.385   2.083   6.542  2.0557  4.1134  1.8406
 3092SOL    HW220910   2.463   1.999   6.638  0.1720  2.0624  0.5498
 3093SOL     OW20911   1.277   4.434   4.356  0.1352 -0.1734 -0.2186
 3093SOL    HW120912   1.269   4.368   4.286  3.0328 -2.4605  1.6248
 3093SOL    HW220913   1.240   4.505   4.303 -2.1706 -0.7180  0.6429
 3094SOL     OW20914   4.271   4.420   2.808  0.2522 -0.2324 -0.1896
 3094SOL    HW120915   4.207   4.484   2.777 -0.5742 -0.1244  1.7374
 3094SOL    HW220916   4.247   4.395   2.898  3.3713 -0.5342  0.5591
 3095SOL     OW20917   3.324   1.530   2.594 -0.4576  0.0514 -0.1337
 3095SOL    HW120918   3.307   1.492   2.681  0.5411 -1.9267 -0.7870
 3095SOL    HW220919   3.255   1.596   2.589  2.7502  3.1970 -3.1603
 3096SOL     OW20920   0.546   3.315   3.877 -0.5015 -0.2151  0.2913
 3096SOL    HW120921   0.628   3.268   3.890 -0.2968  0.4037  1.1577
 3096SOL    HW220922   0.548   3.325   3.781  0.5755  1.2202  0.4738
 3097SOL     OW20923   3.709   1.815   8.093  0.3235 -0.6380  0.3303
 3097SOL    HW120924   3.646   1.819   8.021 -0.4342 -1.1504  0.9625
 3097SOL    HW220925   3.679   1.732   8.130  0.3803 -0.7217  0.1901
 3098SOL     OW20926   0.199   0.744  15.287  0.3557 -0.3992 -0.6898
 3098SOL    HW120927   0.159   0.659  15.267 -0.5760 -0.2091  0.3525
 3098SOL    HW220928   0.165   0.797  15.215 -0.2932 -1.0850 -0.8882
 3099SOL     OW20929   1.732   2.460   9.497 -0.0280  0.4048  0.0528
 3099SOL    HW120930   1.691   2.514   9.429 -1.9367 -1.3869 -0.1833
 3099SOL    HW220931   1.825   2.474   9.479  0.1483 -1.9949 -0.9170
 3100SOL     OW20932   1.998   3.845   3.402 -0.1303 -0.5135  0.3831
 3100SOL    HW120933   1.924   3.792   3.431 -1.2156  1.0151  0.4333
 3100SOL    HW220934   2.043   3.790   3.338  0.8386  0.9804 -0.2407
 3101SOL     OW20935   1.927   3.440   4.912 -0.0668 -0.0157 -0.5082
 3101SOL    HW120936   1.838   3.407   4.903  0.5289 -1.2770 -1.7332
 3101SOL    HW220937   1.919   3.504   4.983  1.4273  0.7207 -1.0064
 3102SOL     OW20938   4.311   0.295   7.233  0.2632 -0.1316  0.5805
 3102SOL    HW120939   4.295   0.210   7.273 -1.3929 -0.3686 -0.5801
 3102SOL    HW220940   4.289   0.263   7.145  1.3786 -4.9629  2.0720
 3103SOL     OW20941   2.317   1.212  17.265 -0.0490 -0.0100  0.2155
 3103SOL    HW120942   2.265   1.254  17.334 -1.1327 -0.2047 -0.4680
 3103SOL    HW220943   2.373   1.279  17.226 -0.7631  0.5894  0.2208
 3104SOL     OW20944   0.578   3.421   5.432  0.2472 -1.0161 -0.3980
 3104SOL    HW120945   0.500   3.474   5.421  2.8955  2.4927 -2.1581
 3104SOL    HW220946   0.627   3.468   5.500  2.1723 -1.2934 -1.5800
 3105SOL     OW20947   1.496   2.203   2.805  0.5491 -0.8060  0.1022
 3105SOL    HW120948   1.471   2.162   2.888 -1.7541 -0.5499 -0.4607
 3105SOL    HW220949   1.575   2.247   2.836  1.1058 -2.3475  0.8401
 3106SOL     OW20950   1.916   0.113   7.861 -0.1948 -0.3050  0.0242
 3106SOL    HW120951   2.001   0.074   7.879  0.2280 -0.1358 -1.5760
 3106SOL    HW220952   1.866   0.094   7.940 -0.9146  1.6326  0.0400
 3107SOL     OW20953   1.828   2.979  14.943 -0.1863 -0.6697  0.2717
 3107SOL    HW120954   1.774   2.915  14.897  0.4824  0.3398 -1.9180
 3107SOL    HW220955   1.844   3.040  14.871  0.2793 -0.3086  0.6827
 3108SOL     OW20956   3.199   4.285   1.281 -0.1443  0.1383 -0.2068
 3108SOL    HW120957   3.261   4.329   1.339 -0.8088 -1.1731  1.5165
 3108SOL    HW220958   3.225   4.195   1.303  0.1269  0.9479  2.7354
 3109SOL     OW20959   4.118   1.401   1.561 -0.4968 -0.0818 -0.0228
 3109SOL    HW120960   4.053   1.471   1.550 -1.7597 -1.3672 -0.7080
 3109SOL    HW220961   4.061   1.324   1.557  1.5544 -1.6959  2.2252
 3110SOL     OW20962   0.174   3.908   5.651  0.3054  0.2567  0.2820
 3110SOL    HW120963   0.239   3.865   5.594  0.6614  1.0299  0.1078
 3110SOL    HW220964   0.109   3.929   5.585 -1.8184  0.5061  2.4540
 3111SOL     OW20965   3.468   1.563  16.326 -0.3404 -0.0997  0.0093
 3111SOL    HW120966   3.442   1.529  16.411 -0.9918 -1.5282 -0.7679
 3111SOL    HW220967   3.561   1.583  16.334 -0.3089 -0.7885  1.3179
 3112SOL     OW20968   0.017   0.462   7.075 -0.4434 -0.4187 -0.1582
 3112SOL    HW120969   4.670   0.459   7.112  0.0080 -1.3042  0.8367
 3112SOL    HW220970   0.061   0.380   7.095  1.6015  0.7216  0.0536
 3113SOL     OW20971   4.297   4.031  17.706  0.6468  0.4001  0.5277
 3113SOL    HW120972   4.266   4.061   0.026  1.0698 -1.8469  1.4681
 3113SOL    HW220973   4.244   4.077  17.641 -1.2450 -0.8772  1.1698
 3114SOL     OW20974   0.635   3.142   6.769  0.2701  0.6137 -0.2370
 3114SOL    HW120975   0.679   3.223   6.743 -2.9872  3.2021  2.3168
 3114SOL    HW220976   0.585   3.177   6.843 -0.3582 -1.6869  0.4303
 3115SOL     OW20977   3.494   2.762   5.734  0.1919  0.0905 -0.1778
 3115SOL    HW120978   3.499   2.680   5.785 -1.0663  0.0589 -0.0940
 3115SOL    HW220979   3.429   2.795   5.796 -0.7738 -3.0011  0.4661
 3116SOL     OW20980   2.773   1.605   7.764  0.0258  0.5075  0.4845
 3116SOL    HW120981   2.701   1.553   7.801 -0.2487 -0.5429 -1.5112
 3116SOL    HW220982   2.856   1.576   7.803  0.1337 -1.0067 -0.8405
 3117SOL     OW20983   4.354   3.612  12.127  0.1069 -0.5351  0.2568
 3117SOL    HW120984   4.337   3.583  12.216 -0.1984 -1.3813 -0.0669
 3117SOL    HW220985   4.348   3.706  12.140  1.3413 -0.5034  0.6221
 3118SOL     OW20986   1.187   0.403  11.305  0.2186 -0.8391 -0.0817
 3118SOL    HW120987   1.180   0.325  11.250 -0.0636 -0.3771 -0.7085
 3118SOL    HW220988   1.094   0.426  11.303  0.4060  0.0761  2.3361
 3119SOL     OW20989   3.563   3.537   1.936 -0.7736 -0.4416  0.3823
 3119SOL    HW120990   3.500   3.473   1.904 -1.2198  0.2404 -0.0950
 3119SOL    HW220991   3.651   3.498   1.938 -0.2781  0.6711  0.5070
 3120SOL     OW20992   2.982   1.884   7.118 -0.2215 -0.1955  0.2601
 3120SOL    HW120993   2.953   1.793   7.111 -0.5066  0.1131 -2.7857
 3120SOL    HW220994   3.067   1.869   7.160 -0.1490  2.6438  1.0973
 3121SOL     OW20995   1.552   2.119  14.849 -0.6074  0.9941  0.2731
 3121SOL    HW120996   1.608   2.043  14.864 -0.9570  0.5126 -0.7736
 3121SOL    HW220997   1.543   2.164  14.932  1.9696  0.4932  0.8232
 3122SOL     OW20998   4.428   1.554  10.930 -0.3186 -0.1668  0.2801
 3122SOL    HW120999   4.363   1.497  10.889  0.5978  0.2428 -1.7683
 3122SOL    HW221000   4.377   1.632  10.951  0.8731 -0.4473  4.1517
 3123SOL     OW21001   4.102   0.440  10.508 -0.0011  0.2861 -0.7474
 3123SOL    HW121002   4.189   0.409  10.534 -0.6374 -1.6960 -0.9976
 3123SOL    HW221003   4.100   0.438  10.412  0.1854  0.1482 -0.7477
 3124SOL     OW21004   0.124   1.858  11.237 -0.0210 -0.0934 -0.0699
 3124SOL    HW121005   0.091   1.925  11.177  3.3327  2.1117  0.5020
 3124SOL    HW221006   0.107   1.892  11.325  0.2264 -2.9994  1.1035
 3125SOL     OW21007   1.341   2.536   2.168  0.5130  0.6299 -0.2602
 3125SOL    HW121008   1.354   2.631   2.173 -1.2001  0.8760 -0.2420
 3125SOL    HW221009   1.258   2.538   2.120 -0.6265 -1.2135  1.6077
 3126SOL     OW21010   1.524   3.711  12.177 -0.5547  0.2929  0.0574
 3126SOL    HW121011   1.611   3.742  12.152 -0.3730  0.9880  1.5460
 3126SOL    HW221012   1.523   3.627  12.131  1.6232 -1.0705  2.4523
 3127SOL     OW21013   2.821   0.050   6.197 -0.1594  0.2723  0.3317
 3127SOL    HW121014   2.873   0.130   6.204 -1.3786  0.8088  3.2272
 3127SOL    HW221015   2.868   0.002   6.129  0.0723 -0.0885  0.7541
 3128SOL     OW21016   3.544   1.031   9.712 -0.3297  0.4275 -0.1897
 3128SOL    HW121017   3.582   0.944   9.697  0.1862  0.4418  1.0347
 3128SOL    HW221018   3.608   1.091   9.674 -1.1990  1.0776 -0.6267
 3129SOL     OW21019   2.920   1.265   4.123 -0.6718  0.4438  0.3926
 3129SOL    HW121020   2.981   1.257   4.196 -0.4649 -0.0138  0.1704
 3129SOL    HW221021   2.903   1.359   4.129 -3.1276  0.1531 -1.8259
 3130SOL     OW21022   2.586   2.657   3.340 -0.4427 -1.0092  0.0355
 3130SOL    HW121023   2.671   2.701   3.346 -1.3749  0.7932  0.0788
 3130SOL    HW221024   2.596   2.586   3.403  0.8948  0.0475  1.0437
 3131SOL     OW21025   4.310   0.357   4.895 -0.4074 -0.3332  0.0252
 3131SOL    HW121026   4.235   0.415   4.911 -1.3304 -1.5658  0.2046
 3131SOL    HW221027   4.314   0.380   4.802  2.5398 -2.7958 -0.4390
 3132SOL     OW21028   2.247   0.253   0.911 -0.7188  0.0498  0.0094
 3132SOL    HW121029   2.235   0.345   0.931  1.2719 -0.0211  1.4968
 3132SOL    HW221030   2.218   0.211   0.992  2.6492 -1.3846  0.4561
 3133SOL     OW21031   0.204   3.262  11.182 -0.1953  0.1474 -0.1750
 3133SOL    HW121032   0.277   3.200  11.189 -0.4242 -0.0498  0.4949
 3133SOL    HW221033   0.149   3.249  11.260  1.0681 -1.2924  0.4695
 3134SOL     OW21034   3.011   2.842   6.555 -0.0697  0.2441 -0.1351
 3134SOL    HW121035   3.004   2.929   6.516  0.6077  0.0770 -0.6340
 3134SOL    HW221036   3.062   2.799   6.486  2.9226  2.2729  0.7987
 3135SOL     OW21037   4.590   1.784   8.279  0.0411 -0.0558  0.0606
 3135SOL    HW121038   4.597   1.877   8.299 -1.8274  0.5536 -2.1204
 3135SOL    HW221039   4.517   1.753   8.332  0.3890  0.4707  0.8506
 3136SOL     OW21040   3.188   1.897   4.694 -0.2617  0.1378  0.0324
 3136SOL    HW121041   3.152   1.860   4.613 -1.2297 -0.1117  0.5846
 3136SOL    HW221042   3.213   1.988   4.675 -1.8768  0.3189 -1.2511
 3137SOL     OW21043   0.048   2.570   7.333 -0.2609 -0.0473 -0.3380
 3137SOL    HW121044   0.111   2.602   7.269  0.8721  2.9864  2.3125
 3137SOL    HW221045   0.093   2.493   7.370 -1.5663 -0.8603 -0.4589
 3138SOL     OW21046   0.200   2.391   4.702 -0.4621  0.1137 -0.5314
 3138SOL    HW121047   0.189   2.337   4.781 -1.6544  0.5372 -0.4044
 3138SOL    HW221048   0.278   2.443   4.719  0.4523 -0.9325 -1.5123
 3139SOL     OW21049   2.165   1.810  11.912 -0.3440  0.4503 -0.1943
 3139SOL    HW121050   2.147   1.882  11.973 -1.4684  0.5963 -0.6962
 3139SOL    HW221051   2.090   1.814  11.853 -0.7934 -1.1415  0.2705
 3140SOL     OW21052   0.184   2.254  14.542  0.0493 -0.1108 -0.7548
 3140SOL    HW121053   0.252   2.241  14.608 -1.2756 -1.5087  0.3240
 3140SOL    HW221054   0.202   2.344  14.514 -1.7784  0.4025 -0.2713
 3141SOL     OW21055   2.767   1.929   6.243  0.0430  0.5753  0.2771
 3141SOL    HW121056   2.817   1.954   6.321 -0.2695 -0.8894  0.9541
 3141SOL    HW221057   2.745   1.841   6.274 -1.9159  1.2291  0.7269
 3142SOL     OW21058   1.812   3.123   6.370  0.7065 -0.0527 -0.0993
 3142SOL    HW121059   1.765   3.143   6.451 -0.1380 -0.3118 -0.5195
 3142SOL    HW221060   1.771   3.039   6.349  0.0195  0.6760 -1.7410
 3143SOL     OW21061   2.487   1.338   8.839  0.3981 -0.1313 -0.0497
 3143SOL    HW121062   2.475   1.245   8.822  0.4433 -0.4119  1.5239
 3143SOL    HW221063   2.575   1.351   8.803  0.9452  2.2647  2.1789
 3144SOL     OW21064   0.860   4.402  13.820  0.1198  0.0960 -0.4515
 3144SOL    HW121065   0.828   4.385  13.732 -3.8600 -1.2778  1.2558
 3144SOL    HW221066   0.909   4.484  13.811  0.0163  0.0532 -1.3678
 3145SOL     OW21067   2.689   1.688  10.266  0.3717 -0.3398  0.1216
 3145SOL    HW121068   2.773   1.663  10.305  1.2687  0.2947 -1.3902
 3145SOL    HW221069   2.716   1.727  10.182 -0.9679 -1.1315 -0.6751
 3146SOL     OW21070   0.835   2.423   6.537 -0.3653  0.2822 -0.0668
 3146SOL    HW121071   0.924   2.415   6.571  0.1744  0.2294 -1.4923
 3146SOL    HW221072   0.795   2.440   6.623  2.9049  1.6859  1.1580
 3147SOL     OW21073   2.180   3.995   3.080  0.3302 -0.6866 -0.0110
 3147SOL    HW121074   2.176   3.933   3.152 -1.4226 -0.8339 -0.2270
 3147SOL    HW221075   2.104   4.046   3.110 -0.3169 -0.4648 -2.0109
 3148SOL     OW21076   3.678   3.224   1.952 -0.0265 -0.2624  0.0473
 3148SOL    HW121077   3.610   3.220   2.019  0.0070 -1.5103  0.0178
 3148SOL    HW221078   3.705   3.132   1.950  0.9824 -0.0157  2.4620
 3149SOL     OW21079   4.196   1.900   0.051 -0.0896 -0.0145  0.0417
 3149SOL    HW121080   4.265   1.850   0.094 -0.6643 -0.9951 -0.1737
 3149SOL    HW221081   4.222   1.919  17.726 -0.1831 -0.6469 -0.1143
 3150SOL     OW21082   0.383   3.407   6.169 -0.0052 -0.1429 -0.1706
 3150SOL    HW121083   0.422   3.494   6.173  1.7899 -1.1023  2.9098
 3150SOL    HW221084   0.293   3.429   6.143 -0.0228  0.9551  0.8023
 3151SOL     OW21085   0.867   0.087   8.177 -0.0429  0.1205 -0.3998
 3151SOL    HW121086   0.862   0.182   8.189  0.4688  0.1472 -0.3807
 3151SOL    HW221087   0.936   0.078   8.111  1.1085  2.2807  0.4960
 3152SOL     OW21088   4.708   3.939   5.872 -0.3797 -0.2083  0.5295
 3152SOL    HW121089   0.052   3.916   5.836 -0.0395  0.9472  0.5911
 3152SOL    HW221090   4.721   3.915   5.964  0.7518 -1.2706  0.0920
 3153SOL     OW21091   2.769   0.740   3.933  0.6656 -0.1119 -0.5612
 3153SOL    HW121092   2.753   0.819   3.985 -4.1400 -1.0542 -0.6407
 3153SOL    HW221093   2.723   0.670   3.978 -2.1345  1.4168 -1.0408
 3154SOL     OW21094   1.037   0.989  14.135 -0.3829  0.5110 -0.1291
 3154SOL    HW121095   1.128   0.963  14.153 -0.5032 -1.2451 -2.0030
 3154SOL    HW221096   1.006   0.920  14.075  0.4152 -0.9545  1.1322
 3155SOL     OW21097   0.656   3.732  15.446 -0.5460 -0.6203 -0.3071
 3155SOL    HW121098   0.593   3.729  15.374 -0.9712 -0.7775  0.0790
 3155SOL    HW221099   0.743   3.724  15.405 -0.8935  0.2354 -1.2019
 3156SOL     OW21100   0.453   4.207  17.210  0.3161  0.3271  0.1345
 3156SOL    HW121101   0.482   4.216  17.119 -0.6355 -2.1484 -0.4235
 3156SOL    HW221102   0.533   4.234  17.257  1.0307 -1.9656  0.2557
 3157SOL     OW21103   3.314   3.892  13.142  0.5066 -0.0010  0.0588
 3157SOL    HW121104   3.297   3.985  13.153  0.3494 -0.2768  2.2658
 3157SOL    HW221105   3.340   3.862  13.230  1.2714 -1.5937 -0.7103
 3158SOL     OW21106   2.344   0.364   5.522 -0.3313 -0.1213 -0.4294
 3158SOL    HW121107   2.344   0.418   5.444 -1.5233 -0.2971 -0.5527
 3158SOL    HW221108   2.329   0.425   5.595 -1.4922  1.2561 -1.8266
 3159SOL     OW21109   0.600   0.528   2.372  0.0482  0.2835 -0.3990
 3159SOL    HW121110   0.592   0.606   2.317 -0.4397  0.0746 -0.6250
 3159SOL    HW221111   0.511   0.496   2.383  0.9381 -2.7950 -2.3425
 3160SOL     OW21112   2.073   4.679   3.522  0.0448 -0.6366 -0.0239
 3160SOL    HW121113   2.012   4.721   3.460 -0.0974 -0.1876  0.4147
 3160SOL    HW221114   2.101   4.601   3.476  0.8875  0.0114 -0.6161
 3161SOL     OW21115   2.968   4.315   3.286 -0.4606  0.3488  0.5675
 3161SOL    HW121116   2.979   4.293   3.379  1.7017  0.3658  0.3172
 3161SOL    HW221117   3.050   4.279   3.253  0.0655  3.1305 -1.1498
 3162SOL     OW21118   1.097   1.711  14.174 -0.2610 -0.3496 -0.3734
 3162SOL    HW121119   1.034   1.641  14.191  1.6674 -2.1676 -0.6528
 3162SOL    HW221120   1.171   1.658  14.145 -0.4073 -0.0205 -1.3507
 3163SOL     OW21121   3.083   3.949   3.295 -0.1524 -0.1753  0.1996
 3163SOL    HW121122   3.143   4.013   3.333  0.7785 -0.3116 -1.0608
 3163SOL    HW221123   3.023   3.937   3.369 -0.1583  0.3589  0.2772
 3164SOL     OW21124   1.742   3.840   8.564 -0.0667 -0.0760  0.5360
 3164SOL    HW121125   1.763   3.912   8.504  1.6637 -1.6503 -0.7238
 3164SOL    HW221126   1.828   3.803   8.580 -1.2218 -2.5922  0.9857
 3165SOL     OW21127   4.651   0.687   4.100 -0.4482  0.6974 -0.0385
 3165SOL    HW121128   4.711   0.762   4.101  0.5470 -0.0901 -0.5807
 3165SOL    HW221129   4.587   0.719   4.163  0.5217 -0.6382  1.6193
 3166SOL     OW21130   2.899   1.843   3.171  1.1395 -0.0421 -0.1209
 3166SOL    HW121131   2.907   1.900   3.094 -0.2455 -0.0472 -0.2737
 3166SOL    HW221132   2.992   1.837   3.191  1.0772  0.7803  0.4228
 3167SOL     OW21133   2.210   3.150  17.155 -0.6697 -0.1649  0.3244
 3167SOL    HW121134   2.158   3.070  17.164 -0.2821 -0.5596 -0.8926
 3167SOL    HW221135   2.219   3.158  17.060  2.0649  2.7393  0.8470
 3168SOL     OW21136   0.126   2.384   0.060  0.3494  0.4120  0.0648
 3168SOL    HW121137   0.071   2.458   0.087  0.9218  0.2409  1.6969
 3168SOL    HW221138   0.210   2.426   0.075  0.1413  0.8001  0.1548
 3169SOL     OW21139   2.148   4.178   8.726  0.2298  0.0025 -0.0641
 3169SOL    HW121140   2.079   4.112   8.732  1.3277 -1.0504  0.7953
 3169SOL    HW221141   2.177   4.165   8.636 -1.9294  0.1688 -0.7714
 3170SOL     OW21142   3.509   0.899   0.262 -0.6570 -0.3602 -0.4481
 3170SOL    HW121143   3.564   0.977   0.256 -0.6899 -0.3984 -1.3234
 3170SOL    HW221144   3.447   0.931   0.197 -0.9183  0.2022  0.0778
 3171SOL     OW21145   3.102   0.943  13.018  0.1564  0.4185  0.5062
 3171SOL    HW121146   3.148   1.015  12.974 -0.4935  0.6007  0.1249
 3171SOL    HW221147   3.080   0.976  13.105  0.7168 -1.5133  1.3557
 3172SOL     OW21148   1.725   0.817   4.260 -0.1204 -0.5401  0.1935
 3172SOL    HW121149   1.757   0.873   4.190 -0.4852 -2.2391 -1.3323
 3172SOL    HW221150   1.805   0.776   4.292 -0.4707 -0.3842  1.2866
 3173SOL     OW21151   0.125   3.861   7.753  0.2254  0.0695  0.4803
 3173SOL    HW121152   0.088   3.871   7.840 -2.3652  1.7180 -0.8137
 3173SOL    HW221153   0.114   3.769   7.731 -1.4760  0.2362  0.6056
 3174SOL     OW21154   3.444   4.367   6.681 -0.2278 -0.1986 -0.5857
 3174SOL    HW121155   3.519   4.317   6.711 -1.3121 -1.4020  0.1535
 3174SOL    HW221156   3.373   4.327   6.732 -0.8107  0.3667 -0.9545
 3175SOL     OW21157   1.697   3.381   7.987  0.3552  0.3876  0.1829
 3175SOL    HW121158   1.751   3.385   7.908 -0.1200 -0.3221 -0.1764
 3175SOL    HW221159   1.630   3.447   7.967  1.7511  2.2181  1.4898
 3176SOL     OW21160   0.804   0.054  16.451  0.1732  0.3287 -0.1333
 3176SOL    HW121161   0.753   0.002  16.390 -0.9550  1.5934 -0.2804
 3176SOL    HW221162   0.892   0.016  16.452  0.5002  1.0607 -1.1772
 3177SOL     OW21163   3.703   1.120   0.319  0.1849 -0.1423 -0.2728
 3177SOL    HW121164   3.792   1.090   0.301  0.4401  2.1101 -2.8366
 3177SOL    HW221165   3.720   1.211   0.343 -2.7855  0.7048 -1.3380
 3178SOL     OW21166   4.220   4.511   3.092  0.3129  0.8563 -0.6669
 3178SOL    HW121167   4.145   4.570   3.098  0.0428  0.3825  0.5236
 3178SOL    HW221168   4.289   4.566   3.056 -0.2037  0.8020 -1.7570
 3179SOL     OW21169   3.972   0.231   8.277  0.5879 -0.7128  0.3097
 3179SOL    HW121170   4.031   0.189   8.339  0.2355 -0.7486  0.6195
 3179SOL    HW221171   3.999   0.196   8.192 -1.0869 -2.1114  0.3453
 3180SOL     OW21172   1.445   3.954   9.561  0.3325  0.1249 -0.4259
 3180SOL    HW121173   1.452   3.864   9.591  1.4290 -0.1039 -1.3561
 3180SOL    HW221174   1.470   3.941   9.469 -0.4224  0.1934 -0.6415
 3181SOL     OW21175   4.101   3.323   8.672 -0.3070 -0.5036  0.0143
 3181SOL    HW121176   4.065   3.340   8.585  1.8133  2.4942 -0.2993
 3181SOL    HW221177   4.021   3.285   8.709 -0.0104 -0.1633  0.9995
 3182SOL     OW21178   1.365   1.758   5.287  0.1842 -0.0805 -0.1033
 3182SOL    HW121179   1.278   1.793   5.307  0.9831  0.7881  1.7897
 3182SOL    HW221180   1.338   1.667   5.301 -1.2784 -0.2774 -4.0577
 3183SOL     OW21181   0.841   3.994   8.318  0.9332 -0.3471  0.2018
 3183SOL    HW121182   0.837   3.898   8.318 -0.3812 -0.2856 -0.7705
 3183SOL    HW221183   0.765   4.029   8.271  0.6149 -0.3495  0.7259
 3184SOL     OW21184   4.698   3.880   2.419  0.2071 -0.0889  0.2253
 3184SOL    HW121185   4.661   3.807   2.469  0.5496  0.1293  0.7906
 3184SOL    HW221186   4.666   3.953   2.472 -0.9094  0.3951 -1.1122
 3185SOL     OW21187   1.288   0.510  11.636 -0.6084  0.1653  0.1022
 3185SOL    HW121188   1.196   0.494  11.615 -0.6786  0.3017  0.3023
 3185SOL    HW221189   1.325   0.558  11.562  1.2527 -1.8306 -0.2674
 3186SOL     OW21190   2.383   2.614   8.666  0.1147  0.8945  0.0710
 3186SOL    HW121191   2.438   2.541   8.638 -2.0608 -0.1631 -1.3900
 3186SOL    HW221192   2.424   2.629   8.751 -1.4908  3.5491  0.3795
 3187SOL     OW21193   2.005   1.320   2.980  0.2207 -0.5104  0.2412
 3187SOL    HW121194   2.003   1.242   3.035  0.3683  0.2612  1.3453
 3187SOL    HW221195   1.952   1.381   3.031 -1.0525 -2.0868  0.7837
 3188SOL     OW21196   0.591   2.494   8.812  0.8357  0.1184  0.7118
 3188SOL    HW121197   0.584   2.582   8.774 -2.2039 -0.4829 -0.1084
 3188SOL    HW221198   0.519   2.452   8.765  2.4778 -1.4409 -0.3890
 3189SOL     OW21199   4.016   3.089  11.290 -0.3249 -0.0473 -0.3332
 3189SOL    HW121200   4.068   3.011  11.309  0.8740  0.7611 -0.2862
 3189SOL    HW221201   3.942   3.075  11.349  0.0052 -0.5018 -0.0166
 3190SOL     OW21202   2.654   3.134   3.622  0.3230 -0.3343  0.2406
 3190SOL    HW121203   2.634   3.212   3.674  2.0493  0.9912 -1.0956
 3190SOL    HW221204   2.571   3.091   3.601  1.3256 -0.7932 -2.6859
 3191SOL     OW21205   1.195   2.639   8.194 -0.1282  0.1156 -0.5688
 3191SOL    HW121206   1.259   2.583   8.150 -0.4297  1.3546 -2.5536
 3191SOL    HW221207   1.118   2.583   8.207  0.1806  0.1519  1.5329
 3192SOL     OW21208   4.333   1.872   2.247 -0.3335 -0.3783  0.3003
 3192SOL    HW121209   4.285   1.925   2.311  2.5346 -0.2714  2.3480
 3192SOL    HW221210   4.414   1.922   2.236 -1.9939  2.1173 -0.5758
 3193SOL     OW21211   2.063   1.347   7.772  0.2913  0.1404 -0.1392
 3193SOL    HW121212   2.145   1.390   7.798  1.0862  0.2444 -2.8478
 3193SOL    HW221213   2.011   1.364   7.851  1.1914 -0.6202  0.6234
 3194SOL     OW21214   2.574   0.203   4.381  0.7091  0.3673 -0.4234
 3194SOL    HW121215   2.500   0.213   4.321  2.3798  2.4599 -2.1707
 3194SOL    HW221216   2.644   0.208   4.315  0.1869 -2.1505 -1.1380
 3195SOL     OW21217   0.370   4.108  11.957 -0.5234  0.4396 -0.1803
 3195SOL    HW121218   0.404   4.196  11.972  0.5360  0.4710 -2.6860
 3195SOL    HW221219   0.439   4.070  11.902  0.2332 -0.0709  1.1218
 3196SOL     OW21220   1.580   2.936  10.833 -0.6457  0.7527 -0.2040
 3196SOL    HW121221   1.531   3.006  10.877  0.7190  1.1439  0.6986
 3196SOL    HW221222   1.661   2.973  10.868  0.2046 -0.7914 -0.5457
 3197SOL     OW21223   4.190   3.331   5.148  0.0082 -0.4721 -0.0326
 3197SOL    HW121224   4.207   3.291   5.064  0.3546  1.3132 -0.8160
 3197SOL    HW221225   4.165   3.420   5.123 -2.5967 -0.8998  1.0850
 3198SOL     OW21226   2.097   4.190   7.877 -0.0361  0.2063  0.0386
 3198SOL    HW121227   2.012   4.162   7.843 -1.3234  0.5599  2.9536
 3198SOL    HW221228   2.164   4.146   7.825  0.3539  0.4321  0.3489
 3199SOL     OW21229   0.676   3.029  17.557 -0.9489  0.1359  0.8048
 3199SOL    HW121230   0.586   3.040  17.589 -1.4234 -0.3956 -0.3433
 3199SOL    HW221231   0.655   2.987  17.474  1.2264  0.1816  0.2416
 3200SOL     OW21232   3.526   2.080   2.278 -0.1940  0.1253 -0.0033
 3200SOL    HW121233   3.511   1.990   2.309 -1.1716  0.8677  1.6433
 3200SOL    HW221234   3.609   2.071   2.231  0.2648  1.8892  0.4701
 3201SOL     OW21235   3.897   4.408  13.877  0.3656 -0.0458  0.6119
 3201SOL    HW121236   3.975   4.389  13.929 -0.0647 -1.7369  0.6558
 3201SOL    HW221237   3.932   4.389  13.790  1.2064  2.8046  0.3234
 3202SOL     OW21238   3.733   4.631   2.976  0.1038  0.4813 -0.1025
 3202SOL    HW121239   3.643   4.612   3.003  0.4870 -0.9707  0.1467
 3202SOL    HW221240   3.738   4.567   2.905 -0.6001  1.9080 -1.4426
 3203SOL     OW21241   4.390   0.835   5.874  0.0477 -0.2949 -0.3315
 3203SOL    HW121242   4.357   0.925   5.875  0.7067 -0.0520  0.0753
 3203SOL    HW221243   4.396   0.816   5.780 -0.8124  0.3050 -0.4970
 3204SOL     OW21244   0.047   3.563   5.284 -0.0037 -0.2590  0.1035
 3204SOL    HW121245   0.047   3.474   5.318 -1.1753  0.0307  0.8663
 3204SOL    HW221246   4.726   3.594   5.349 -0.6126 -1.0453 -0.1242
 3205SOL     OW21247   1.947   3.416  12.844 -0.0163  0.2008  0.8188
 3205SOL    HW121248   1.866   3.467  12.838  1.1965  1.7671 -1.9016
 3205SOL    HW221249   2.012   3.479  12.815  1.4472 -1.5596  0.3174
 3206SOL     OW21250   2.384   4.385   8.618  0.4392  0.2134  0.0264
 3206SOL    HW121251   2.436   4.465   8.628  1.7278 -0.5996 -0.0714
 3206SOL    HW221252   2.298   4.421   8.597  0.5912  1.9802  2.4867
 3207SOL     OW21253   4.131   3.914  15.941 -0.3605  0.3570 -0.3614
 3207SOL    HW121254   4.045   3.914  15.898 -0.0756  2.2641 -0.9173
 3207SOL    HW221255   4.161   3.833  15.901 -2.9062 -0.9516  0.3701
 3208SOL     OW21256   4.501   3.308   6.673 -0.4480 -0.4960  0.4503
 3208SOL    HW121257   4.535   3.227   6.635 -1.1485 -0.1103 -0.9923
 3208SOL    HW221258   4.558   3.324   6.749 -1.8140 -0.8947  1.5516
 3209SOL     OW21259   2.002   1.405   6.169  0.3889  0.2285  0.0250
 3209SOL    HW121260   1.931   1.454   6.128 -0.1643 -0.2128  0.4633
 3209SOL    HW221261   2.079   1.459   6.151  0.0497  0.7110  0.0244
 3210SOL     OW21262   2.332   2.511  11.110 -0.1172  0.2163  0.5127
 3210SOL    HW121263   2.282   2.541  11.186  2.1965  1.0859  1.6972
 3210SOL    HW221264   2.384   2.589  11.088  2.8623 -1.4811  1.5822
 3211SOL     OW21265   4.171   0.441   7.970 -0.2856 -0.1912 -0.7264
 3211SOL    HW121266   4.234   0.513   7.978 -1.0198  0.2032  1.6327
 3211SOL    HW221267   4.120   0.467   8.047 -0.3042  0.7114 -1.0468
 3212SOL     OW21268   3.509   2.700   5.304 -0.4528  0.1438 -0.0276
 3212SOL    HW121269   3.524   2.641   5.230  0.1561 -0.8807  0.9139
 3212SOL    HW221270   3.497   2.639   5.376  1.8226  2.0433  1.9600
 3213SOL     OW21271   2.206   0.968   9.350 -0.1243 -0.3937  0.2508
 3213SOL    HW121272   2.231   0.956   9.442  0.5626  0.6779  0.2049
 3213SOL    HW221273   2.136   1.034   9.357  0.7748  0.3996  1.7605
 3214SOL     OW21274   3.557   1.254  13.183  0.0505  0.0899 -0.4853
 3214SOL    HW121275   3.620   1.183  13.196 -1.6148 -0.7833  2.6064
 3214SOL    HW221276   3.550   1.250  13.087 -0.3979  2.1658 -0.5497
 3215SOL     OW21277   2.461   1.963   1.597  0.6185 -0.2531  0.6881
 3215SOL    HW121278   2.473   1.914   1.678  2.2833 -2.3758 -0.8555
 3215SOL    HW221279   2.463   1.901   1.525  0.9270  0.4305  0.1089
 3216SOL     OW21280   3.477   2.617   4.670  0.3422  0.5502  0.3390
 3216SOL    HW121281   3.395   2.664   4.659 -0.2023 -0.3711  0.4711
 3216SOL    HW221282   3.550   2.679   4.681 -0.1039  1.0199  0.6694
 3217SOL     OW21283   2.735   1.476   6.916 -0.1870  0.3051 -0.7459
 3217SOL    HW121284   2.676   1.416   6.871 -1.6833 -0.5657  2.4106
 3217SOL    HW221285   2.744   1.429   6.999  1.0044  0.4209 -0.8134
 3218SOL     OW21286   0.102   3.586   6.268  0.1503 -0.6904  0.7673
 3218SOL    HW121287   0.186   3.589   6.313  0.6733  0.1509 -0.2498
 3218SOL    HW221288   0.132   3.607   6.179 -2.4716  1.0822  0.3070
 3219SOL     OW21289   0.517   1.687   0.616 -0.6405 -0.2926 -0.4440
 3219SOL    HW121290   0.585   1.627   0.588  0.3612  0.7987 -0.3511
 3219SOL    HW221291   0.480   1.639   0.690 -0.9553 -0.1383 -0.5015
 3220SOL     OW21292   2.277   2.487   7.859 -0.5630  0.3826  0.0731
 3220SOL    HW121293   2.355   2.440   7.888  0.6789  1.9808 -0.6630
 3220SOL    HW221294   2.225   2.494   7.939 -0.1250 -0.6550  0.4457
 3221SOL     OW21295   1.085   0.913   1.724 -0.3195 -0.3823  0.1915
 3221SOL    HW121296   1.011   0.967   1.752 -2.6773 -3.7302  0.3282
 3221SOL    HW221297   1.080   0.839   1.784  0.8828  0.2146  1.0447
 3222SOL     OW21298   4.723   3.208   3.500  0.3010  0.5942 -0.3951
 3222SOL    HW121299   0.008   3.298   3.515 -1.2385  0.9234  0.4199
 3222SOL    HW221300   4.722   3.154   3.579  1.3108 -0.6591 -1.2317
 3223SOL     OW21301   3.150   2.646   8.594  0.0276  0.0006 -0.1310
 3223SOL    HW121302   3.199   2.699   8.531  1.8509  0.6747  1.8575
 3223SOL    HW221303   3.057   2.664   8.584  0.1226  0.9999  0.8302
 3224SOL     OW21304   2.783   3.003  11.685  0.4945  0.1218  0.7099
 3224SOL    HW121305   2.785   3.096  11.662 -0.9655  0.2906  1.2890
 3224SOL    HW221306   2.706   2.978  11.633  1.5571 -0.3015 -0.6617
 3225SOL     OW21307   3.836   2.088  11.902 -0.2942  0.3632  0.2267
 3225SOL    HW121308   3.831   2.181  11.924  0.6269  0.5229 -0.2655
 3225SOL    HW221309   3.747   2.064  11.931 -0.9598  2.9080  0.2407
 3226SOL     OW21310   0.249   2.455   0.791  0.4419  0.4883 -0.5182
 3226SOL    HW121311   0.309   2.382   0.777 -0.4864 -0.3815  0.0871
 3226SOL    HW221312   0.197   2.421   0.863 -0.0514  1.6276 -0.3387
 3227SOL     OW21313   0.904   3.158   5.539 -0.6155  0.0006  1.2172
 3227SOL    HW121314   0.969   3.188   5.602  1.4710 -1.7033 -0.0933
 3227SOL    HW221315   0.945   3.179   5.455  1.4791 -0.4981  2.1135
 3228SOL     OW21316   1.636   3.339   7.301 -0.4659  0.0660 -0.2026
 3228SOL    HW121317   1.565   3.274   7.298 -1.0816  0.6586  1.6075
 3228SOL    HW221318   1.646   3.365   7.209  4.1497  0.7592  0.5308
 3229SOL     OW21319   0.234   2.504   5.031  0.2081  0.4318 -0.0836
 3229SOL    HW121320   0.186   2.425   5.005 -0.0113  0.4812  0.1697
 3229SOL    HW221321   0.202   2.507   5.121 -0.6105  2.5274 -0.4492
 3230SOL     OW21322   2.734   0.201   8.956 -0.1929 -0.7260 -0.3069
 3230SOL    HW121323   2.738   0.265   9.028  0.2576 -1.2710  0.1596
 3230SOL    HW221324   2.829   0.191   8.947 -0.1942 -0.0467 -1.0614
 3231SOL     OW21325   0.300   2.123  17.392 -0.5136  0.3535  0.0077
 3231SOL    HW121326   0.267   2.208  17.420 -2.1624 -0.3577  0.2124
 3231SOL    HW221327   0.298   2.067  17.470 -0.9283  1.5664  0.8671
 3232SOL     OW21328   1.928   0.111  17.056  0.2138  0.0573  0.2378
 3232SOL    HW121329   1.872   0.056  17.109 -1.4310  2.2207  0.7343
 3232SOL    HW221330   2.018   0.094  17.084  0.5388  0.5483 -0.4905
 3233SOL     OW21331   2.938   1.391   6.736 -0.2522 -0.1243  0.5958
 3233SOL    HW121332   2.887   1.420   6.811 -0.1327  0.4708  0.4452
 3233SOL    HW221333   3.026   1.374   6.770 -0.6185  0.5374  1.8695
 3234SOL     OW21334   3.410   4.665   9.823  0.3270  0.0295 -0.0590
 3234SOL    HW121335   3.358   4.725   9.877  0.7942 -0.1771  0.6314
 3234SOL    HW221336   3.447   4.609   9.891 -1.2334 -0.4051  0.4249
 3235SOL     OW21337   1.558   3.947   2.716  0.2847 -0.6005 -0.1142
 3235SOL    HW121338   1.492   3.981   2.656  0.9010 -0.1214 -0.5313
 3235SOL    HW221339   1.640   3.982   2.680  0.0085  0.3189  0.1608
 3236SOL     OW21340   2.360   2.989  13.673  0.1139  0.2123 -0.3281
 3236SOL    HW121341   2.449   2.963  13.649  0.8064  0.0934  2.3274
 3236SOL    HW221342   2.358   2.963  13.766  1.7944 -3.2277 -1.2377
 3237SOL     OW21343   0.220   0.225   3.468 -0.4512 -0.4862 -0.3980
 3237SOL    HW121344   0.306   0.225   3.511 -0.5263  0.0213 -0.2464
 3237SOL    HW221345   0.177   0.172   3.534  0.4118  1.9510  2.1057
 3238SOL     OW21346   0.494   3.007   2.546  0.1944  0.1135  0.1100
 3238SOL    HW121347   0.498   3.103   2.545 -1.4689  0.1870  0.8275
 3238SOL    HW221348   0.581   2.976   2.571  1.1401  2.0400 -0.7844
 3239SOL     OW21349   4.321   4.040   3.520  0.0733 -0.2916  0.3624
 3239SOL    HW121350   4.331   4.001   3.607  0.2582  0.6327  0.7636
 3239SOL    HW221351   4.370   4.121   3.535 -2.3620  1.7290 -2.6712
 3240SOL     OW21352   3.389   3.821   4.750  0.3859 -0.2963  0.1947
 3240SOL    HW121353   3.342   3.779   4.822  1.3165  1.1553  1.6474
 3240SOL    HW221354   3.424   3.895   4.799  1.4044  0.2936 -1.4433
 3241SOL     OW21355   0.881   0.037   9.382  0.5499  0.1153 -0.6810
 3241SOL    HW121356   0.917   0.122   9.358 -0.9295  0.4520 -1.7450
 3241SOL    HW221357   0.968   4.739   9.387  0.0722 -0.8890 -0.3914
 3242SOL     OW21358   0.833   0.395   6.254  0.3623 -0.2611 -0.4319
 3242SOL    HW121359   0.899   0.412   6.187  0.0239 -0.6707 -0.8683
 3242SOL    HW221360   0.871   0.440   6.330  0.2609 -0.7929 -0.0651
 3243SOL     OW21361   1.239   1.305   5.425  0.5833  0.4463  0.2873
 3243SOL    HW121362   1.187   1.385   5.434 -0.2950 -0.1340  0.3523
 3243SOL    HW221363   1.272   1.293   5.514  2.0513  0.7604 -0.2134
 3244SOL     OW21364   3.966   2.553   2.823  0.1039 -0.8633  0.0175
 3244SOL    HW121365   3.896   2.501   2.862 -0.5299  1.1726  1.6030
 3244SOL    HW221366   3.925   2.618   2.765  2.9867 -0.8831 -2.0547
 3245SOL     OW21367   0.205   3.926   2.268  0.5637 -0.5439  0.5296
 3245SOL    HW121368   0.276   3.954   2.325  2.0675 -1.5040 -0.8675
 3245SOL    HW221369   0.132   3.891   2.319  0.4328 -0.9351  0.0717
 3246SOL     OW21370   3.892   0.165   6.939 -0.1429  0.4927 -0.0688
 3246SOL    HW121371   3.972   0.113   6.943 -0.1706  0.3623 -1.3474
 3246SOL    HW221372   3.841   0.111   7.000  3.3240  0.8733  3.2239
 3247SOL     OW21373   4.248   1.320  11.311 -0.3873 -0.1436  0.3689
 3247SOL    HW121374   4.232   1.301  11.219  1.1928 -1.2538  0.3214
 3247SOL    HW221375   4.330   1.368  11.321  1.1723 -2.3880 -1.8128
 3248SOL     OW21376   1.629   4.363  17.368  0.6456 -0.0695  0.2393
 3248SOL    HW121377   1.534   4.358  17.369  0.7637 -2.8758 -1.7374
 3248SOL    HW221378   1.653   4.358  17.460 -0.4695 -3.5195  0.3611
 3249SOL     OW21379   0.532   4.259   2.453 -0.1247 -0.2937 -0.6470
 3249SOL    HW121380   0.556   4.333   2.397  0.3374 -1.1275 -1.5562
 3249SOL    HW221381   0.549   4.284   2.543  2.5284  0.8521 -1.4554
 3250SOL     OW21382   4.155   0.791   2.485  0.2032 -0.5566  0.3905
 3250SOL    HW121383   4.172   0.850   2.411 -3.5158  0.5831  0.4688
 3250SOL    HW221384   4.224   0.725   2.477 -0.1200 -0.6987 -1.2143
 3251SOL     OW21385   4.523   3.875   0.016 -0.2855 -0.4521  0.0704
 3251SOL    HW121386   4.439   3.921   0.011  0.1429  0.5886  2.2399
 3251SOL    HW221387   4.503   3.792   0.059  1.4187  0.5202  2.7588
 3252SOL     OW21388   0.467   1.068   4.660  0.2216 -0.4692 -0.7752
 3252SOL    HW121389   0.536   1.114   4.708 -0.8648 -1.1949  1.4646
 3252SOL    HW221390   0.392   1.106   4.705  1.2669 -0.2158  0.7363
 3253SOL     OW21391   4.316   2.879   6.718  0.1638 -0.0385 -0.3083
 3253SOL    HW121392   4.247   2.931   6.679  1.6806  1.1259 -1.4333
 3253SOL    HW221393   4.394   2.934   6.712  0.6417 -0.7998 -1.1261
 3254SOL     OW21394   2.828   3.122   4.664 -0.1621 -0.2359  0.3169
 3254SOL    HW121395   2.916   3.160   4.666 -0.6910  0.8983  1.6452
 3254SOL    HW221396   2.842   3.036   4.704  0.4686  0.3122  1.2694
 3255SOL     OW21397   2.070   1.202   9.049 -0.1249  0.0959  0.6606
 3255SOL    HW121398   2.128   1.225   9.121  1.5902 -0.0172 -0.7040
 3255SOL    HW221399   2.031   1.119   9.079  0.4243 -0.2638  0.3648
 3256SOL     OW21400   3.024   2.583   9.779 -0.1365 -0.6088 -0.0471
 3256SOL    HW121401   2.967   2.650   9.741 -0.8346 -0.4907  1.1927
 3256SOL    HW221402   3.065   2.622   9.857 -2.0568  2.8944 -0.7913
 3257SOL     OW21403   4.111   4.664   0.676  0.2241 -0.0058 -0.2476
 3257SOL    HW121404   4.035   4.679   0.619  0.7772  1.7232 -0.5308
 3257SOL    HW221405   4.094   4.725   0.748  0.9897 -1.2056  0.9492
 3258SOL     OW21406   4.300   2.309   4.810 -0.0930 -0.9438  0.3553
 3258SOL    HW121407   4.364   2.357   4.757 -0.1476  1.3210  2.3315
 3258SOL    HW221408   4.233   2.286   4.747  1.8886 -2.6509 -1.1209
 3259SOL     OW21409   3.849   0.320   2.322 -0.1698 -0.3946  0.1972
 3259SOL    HW121410   3.816   0.265   2.251 -2.8824  0.2043  0.9624
 3259SOL    HW221411   3.860   0.261   2.397  0.8079 -0.6801 -0.1723
 3260SOL     OW21412   3.923   4.369  14.291 -0.1863 -0.2961 -0.0523
 3260SOL    HW121413   3.954   4.431  14.225 -0.1359 -1.9995 -1.6002
 3260SOL    HW221414   3.955   4.411  14.371 -0.8977  0.4593 -0.1532
 3261SOL     OW21415   0.965   0.764   6.327 -0.3043 -0.5447  0.3104
 3261SOL    HW121416   0.905   0.775   6.253  0.1418  1.9531  0.3058
 3261SOL    HW221417   0.939   0.846   6.368 -0.5428 -0.4182 -0.0909
 3262SOL     OW21418   0.435   2.755   9.400  0.0156 -0.3967 -0.3012
 3262SOL    HW121419   0.407   2.677   9.448 -1.3617 -0.6997 -1.6305
 3262SOL    HW221420   0.385   2.740   9.320 -2.4067  0.8512  0.9534
 3263SOL     OW21421   1.687   2.186   4.247 -0.0777  0.6317  0.0209
 3263SOL    HW121422   1.667   2.103   4.291  1.8121 -0.1635 -0.6157
 3263SOL    HW221423   1.602   2.226   4.228 -1.3406 -2.4934 -0.9100
 3264SOL     OW21424   2.278   3.314   0.017 -0.0207 -0.2143 -0.0224
 3264SOL    HW121425   2.303   3.407   0.015  0.5288 -0.3365  1.2793
 3264SOL    HW221426   2.297   3.288  17.692  0.2561 -0.0761 -0.0048
 3265SOL     OW21427   3.777   0.712   5.656 -1.4115  0.2231 -0.2110
 3265SOL    HW121428   3.703   0.670   5.613  0.1297 -0.7718 -1.8940
 3265SOL    HW221429   3.739   0.724   5.743 -1.3055 -2.6668  0.2219
 3266SOL     OW21430   1.992   4.352   1.352 -0.3031  1.0511 -0.1891
 3266SOL    HW121431   1.934   4.299   1.406 -2.1534  1.9739 -1.2663
 3266SOL    HW221432   1.945   4.367   1.270 -1.7099 -0.0349  0.4303
 3267SOL     OW21433   2.513   2.221  13.621 -0.4635  0.3572 -0.3086
 3267SOL    HW121434   2.468   2.196  13.702 -0.4811  3.8223  0.7521
 3267SOL    HW221435   2.560   2.296  13.657 -0.9587 -0.4702  2.0991
 3268SOL     OW21436   3.836   0.951   2.961  0.0860  0.5306 -0.2111
 3268SOL    HW121437   3.922   0.978   2.928 -0.6127  2.1027 -0.7435
 3268SOL    HW221438   3.785   1.032   2.957 -1.2974 -0.3760 -0.8706
 3269SOL     OW21439   3.401   2.254   3.895 -0.3386 -0.1877 -0.4202
 3269SOL    HW121440   3.372   2.271   3.985 -0.9308 -0.9882 -0.4562
 3269SOL    HW221441   3.316   2.249   3.851 -1.0984 -1.6095  1.1890
 3270SOL     OW21442   2.438   3.240  11.992 -0.1325 -0.3247 -0.2131
 3270SOL    HW121443   2.405   3.286  12.070 -0.8300  0.5577 -1.0288
 3270SOL    HW221444   2.380   3.275  11.925 -0.5363  2.1508  1.4040
 3271SOL     OW21445   1.651   1.066   7.235  0.3669 -0.4763 -0.3119
 3271SOL    HW121446   1.729   1.066   7.179  0.2773  3.1390 -0.4387
 3271SOL    HW221447   1.581   1.040   7.175 -2.6445  0.6271  2.7322
 3272SOL     OW21448   3.319   1.152   3.883  0.0605 -0.2139  0.0269
 3272SOL    HW121449   3.283   1.241   3.887 -1.5957 -0.8684 -0.4683
 3272SOL    HW221450   3.376   1.164   3.808 -0.8494 -1.3836 -0.8344
 3273SOL     OW21451   3.676   1.092   4.484  0.0626 -0.3448  0.8414
 3273SOL    HW121452   3.618   1.146   4.538 -0.0514  0.4795 -0.1156
 3273SOL    HW221453   3.766   1.124   4.495  0.3302 -0.8364  0.0343
 3274SOL     OW21454   3.517   1.563   6.777 -0.3349 -0.4159  0.1508
 3274SOL    HW121455   3.467   1.539   6.700  0.3064 -0.2369 -0.3279
 3274SOL    HW221456   3.597   1.515   6.755 -1.7804 -1.7498 -2.1328
 3275SOL     OW21457   1.719   3.465   7.701  0.2194 -0.3417 -0.4281
 3275SOL    HW121458   1.641   3.444   7.650 -0.3580  1.0089 -0.1100
 3275SOL    HW221459   1.720   3.560   7.686  2.0324  0.0211  1.9144
 3276SOL     OW21460   4.270   0.771   3.570  0.0537  0.4557 -0.5068
 3276SOL    HW121461   4.224   0.687   3.566 -0.5582  0.8057 -0.7968
 3276SOL    HW221462   4.275   0.797   3.478  2.3780 -0.0043 -0.4915
 3277SOL     OW21463   0.945   3.681   7.521  0.1603  0.1070 -0.0399
 3277SOL    HW121464   0.996   3.645   7.594  1.5103  0.9541 -0.5779
 3277SOL    HW221465   0.867   3.625   7.517 -0.5657  1.3167 -2.7172
 3278SOL     OW21466   1.573   2.173   8.511  0.0751  0.1198 -0.5250
 3278SOL    HW121467   1.486   2.207   8.490  0.2549  0.8464 -0.0840
 3278SOL    HW221468   1.568   2.151   8.604 -1.9013  1.1753 -0.3818
 3279SOL     OW21469   3.010   2.811  12.585  0.2128 -0.1980 -0.1111
 3279SOL    HW121470   2.939   2.750  12.604  0.2617 -1.0365 -2.6624
 3279SOL    HW221471   3.008   2.818  12.489  0.1261  1.9273  0.0612
 3280SOL     OW21472   2.126   1.577  13.121  0.1426  0.0178 -0.1264
 3280SOL    HW121473   2.036   1.558  13.094 -0.7177 -1.3278  3.7051
 3280SOL    HW221474   2.140   1.578  13.216 -0.5809 -4.3451  0.0074
 3281SOL     OW21475   2.721   0.906  10.315 -0.2319 -0.0918 -0.1656
 3281SOL    HW121476   2.773   0.944  10.387 -1.4137  0.9079  0.1704
 3281SOL    HW221477   2.793   0.886  10.255  0.0701 -2.5459  1.0041
 3282SOL     OW21478   2.677   4.676   2.586 -0.0753 -0.2802  0.0314
 3282SOL    HW121479   2.758   4.653   2.631 -0.0226  0.3177  0.2470
 3282SOL    HW221480   2.660   4.592   2.543 -3.1511 -0.6541  1.9850
 3283SOL     OW21481   4.323   4.021   0.278  0.1794 -0.2059  0.1470
 3283SOL    HW121482   4.242   4.069   0.262  0.3024 -0.0119  0.1004
 3283SOL    HW221483   4.300   3.956   0.344 -3.4362 -0.6864 -1.5805
 3284SOL     OW21484   1.132   1.404  10.217  0.2476  0.1463  0.0511
 3284SOL    HW121485   1.170   1.489  10.239 -0.3987  0.1268  1.2860
 3284SOL    HW221486   1.143   1.361  10.302  2.6318 -0.5056 -0.6017
 3285SOL     OW21487   0.800   3.075   1.344  0.9098  0.0087 -0.1620
 3285SOL    HW121488   0.780   3.159   1.303 -1.5702 -0.3524  0.2871
 3285SOL    HW221489   0.719   3.060   1.392  0.9009 -1.3510 -0.5892
 3286SOL     OW21490   4.070   2.268  13.045  0.0691 -0.5102  0.5500
 3286SOL    HW121491   4.043   2.215  13.120 -1.4041  1.3879  1.3758
 3286SOL    HW221492   4.157   2.235  13.023 -0.0071  0.0042 -0.5294
 3287SOL     OW21493   2.694   2.303   1.499 -0.0203 -0.0115  0.0280
 3287SOL    HW121494   2.742   2.344   1.571  1.4488 -1.3311 -0.1907
 3287SOL    HW221495   2.621   2.267   1.549 -0.2224 -0.7631 -0.8041
 3288SOL     OW21496   1.808   4.007   8.355 -0.0721  0.0681 -0.3120
 3288SOL    HW121497   1.851   3.972   8.277  0.8827 -2.1528  1.2031
 3288SOL    HW221498   1.848   4.093   8.369 -0.9218  0.0453  2.2825
 3289SOL     OW21499   3.332   2.097   4.184 -0.1344 -0.1590 -0.2597
 3289SOL    HW121500   3.409   2.044   4.163  1.4834  1.9199  0.4658
 3289SOL    HW221501   3.280   2.086   4.104 -1.5040  2.4623  0.2905
 3290SOL     OW21502   1.102   0.990   2.720  0.5123  0.2049  0.4079
 3290SOL    HW121503   1.116   0.895   2.725 -1.2785  0.0630  2.7475
 3290SOL    HW221504   1.007   1.001   2.708  0.3576 -1.3343  0.1653
 3291SOL     OW21505   2.686   0.349   7.056  0.0217 -0.7601  0.0372
 3291SOL    HW121506   2.773   0.320   7.027  0.0446 -0.1019 -0.5523
 3291SOL    HW221507   2.630   0.276   7.029 -3.1190  2.6028 -2.5499
 3292SOL     OW21508   2.504   2.773   1.278 -0.2212  0.0987  0.6829
 3292SOL    HW121509   2.497   2.718   1.200 -2.7118  1.0194  0.2492
 3292SOL    HW221510   2.573   2.734   1.331 -0.1749  1.2675  1.4795
 3293SOL     OW21511   3.359   0.205   8.084 -0.0810 -0.2217  0.4306
 3293SOL    HW121512   3.340   0.117   8.051  0.5521 -1.1917  2.6618
 3293SOL    HW221513   3.286   0.231   8.141  0.1797  0.7106  0.3461
 3294SOL     OW21514   3.392   1.971   6.077 -0.1228 -0.3823 -0.4029
 3294SOL    HW121515   3.312   2.014   6.108 -0.1079 -1.4925  1.1292
 3294SOL    HW221516   3.361   1.882   6.097  1.8560 -0.7862  0.8605
 3295SOL     OW21517   0.405   0.505   3.457 -0.0096 -0.0152 -0.1140
 3295SOL    HW121518   0.340   0.484   3.391  0.1412  3.0705 -1.2541
 3295SOL    HW221519   0.365   0.585   3.493 -0.7727  0.0325 -1.0909
 3296SOL     OW21520   4.095   2.019  11.983 -0.5588 -0.3884  0.3242
 3296SOL    HW121521   4.126   2.109  11.997  1.7427 -1.3049  1.1271
 3296SOL    HW221522   4.006   2.032  11.949 -0.5314 -0.5499  0.1911
 3297SOL     OW21523   3.758   2.662  10.516 -0.3649  0.2402  0.1419
 3297SOL    HW121524   3.848   2.630  10.507 -1.1525 -1.1938 -2.5949
 3297SOL    HW221525   3.732   2.608  10.591 -1.9292 -0.5048 -0.9524
 3298SOL     OW21526   4.401   0.596  14.040 -0.1633 -0.4011 -0.1858
 3298SOL    HW121527   4.407   0.691  14.041 -0.8825 -0.3572 -0.2255
 3298SOL    HW221528   4.487   0.561  14.016  0.6603  1.0739  0.6314
 3299SOL     OW21529   1.751   3.808  13.788 -0.0324 -0.0120  0.0621
 3299SOL    HW121530   1.807   3.883  13.771 -0.5505  0.3435 -0.0969
 3299SOL    HW221531   1.701   3.801  13.706  1.3465 -2.9751 -0.5348
 3300SOL     OW21532   2.454   2.233  10.021 -0.2220 -0.0790 -0.1310
 3300SOL    HW121533   2.468   2.274  10.107  1.6265 -2.3562  0.6876
 3300SOL    HW221534   2.385   2.170  10.043  0.1845 -1.0745 -1.6991
 3301SOL     OW21535   2.526   0.072   9.224  0.4685  0.2357 -0.3329
 3301SOL    HW121536   2.505   0.136   9.292  2.1761  0.5590 -0.1093
 3301SOL    HW221537   2.539   4.734   9.274 -1.8441  0.8399  1.2350
 3302SOL     OW21538   2.943   3.864  16.388 -0.7356 -0.1951  0.4918
 3302SOL    HW121539   2.998   3.832  16.317  0.0713 -0.1773  1.1088
 3302SOL    HW221540   3.000   3.931  16.426 -0.1597 -1.0234  1.0694
 3303SOL     OW21541   1.245   2.080   2.146  0.2662 -0.1889 -0.2894
 3303SOL    HW121542   1.244   1.989   2.117 -1.0145  0.0309 -0.9460
 3303SOL    HW221543   1.282   2.138   2.079 -1.7229  2.8061  1.1855
 3304SOL     OW21544   0.632   0.443  14.114  0.3595  0.1464 -0.0722
 3304SOL    HW121545   0.657   0.533  14.098 -2.2032  1.0493  0.9333
 3304SOL    HW221546   0.642   0.429  14.209 -1.0782 -1.0792 -0.0955
 3305SOL     OW21547   1.274   4.577   0.205  0.0575 -0.2973  0.2840
 3305SOL    HW121548   1.251   4.659   0.163  1.6031  0.1778  0.3588
 3305SOL    HW221549   1.359   4.603   0.241 -0.0912  0.3678  0.1563
 3306SOL     OW21550   3.521   0.574  11.110 -0.1335 -0.0697  0.0568
 3306SOL    HW121551   3.603   0.564  11.062 -0.1922 -0.0020 -0.0589
 3306SOL    HW221552   3.489   0.647  11.056 -1.0329 -1.9267 -1.9345
 3307SOL     OW21553   1.732   0.174  15.318 -0.1611  0.8189 -0.0688
 3307SOL    HW121554   1.819   0.213  15.306  0.9044 -1.2016  0.9442
 3307SOL    HW221555   1.763   0.087  15.344 -1.3086  0.5040  0.2403
 3308SOL     OW21556   0.460   3.282   4.979 -0.3349  0.0309  0.0145
 3308SOL    HW121557   0.423   3.362   4.941 -0.0994  0.0508 -0.1745
 3308SOL    HW221558   0.513   3.318   5.050  0.4152  0.3229 -0.6927
 3309SOL     OW21559   0.986   4.424   7.704 -0.4180  0.2576  0.5035
 3309SOL    HW121560   0.891   4.414   7.708 -0.3399 -0.1606  1.3164
 3309SOL    HW221561   1.004   4.336   7.739  2.0531  0.7147  0.3925
 3310SOL     OW21562   1.954   4.145   3.082 -0.2709 -0.3826 -0.2163
 3310SOL    HW121563   1.967   4.239   3.065  1.1858 -0.8687 -1.7999
 3310SOL    HW221564   1.911   4.114   3.002  0.6545 -1.7864 -0.1676
 3311SOL     OW21565   3.110   1.848   4.958  0.2566 -0.0461 -0.4314
 3311SOL    HW121566   3.154   1.771   4.922  1.7333 -0.4211  2.1765
 3311SOL    HW221567   3.126   1.914   4.890 -0.7896 -1.0476 -1.6280
 3312SOL     OW21568   1.369   0.439   4.681  0.1547 -0.1594  0.5933
 3312SOL    HW121569   1.302   0.389   4.729 -0.5010 -0.8537 -1.0575
 3312SOL    HW221570   1.387   0.510   4.742  2.2817  2.2773 -2.9109
 3313SOL     OW21571   1.540   2.704   2.898 -0.4146 -0.0628 -0.1635
 3313SOL    HW121572   1.572   2.794   2.899 -0.8230  0.0834 -0.1439
 3313SOL    HW221573   1.621   2.653   2.897 -0.3688  0.0337 -1.9520
 3314SOL     OW21574   4.355   0.638  12.632  0.2623 -0.4529  0.6796
 3314SOL    HW121575   4.397   0.553  12.621 -1.6317 -1.4475  1.2181
 3314SOL    HW221576   4.323   0.635  12.722 -2.5367  0.7189 -0.2892
 3315SOL     OW21577   2.580   1.547   5.256 -0.3813 -0.1441 -0.0119
 3315SOL    HW121578   2.627   1.575   5.334  1.4265 -1.2433 -0.6940
 3315SOL    HW221579   2.489   1.567   5.275  0.2363 -0.0415  2.8314
 3316SOL     OW21580   2.013   4.385   2.971  0.3949 -1.3604 -0.2529
 3316SOL    HW121581   1.933   4.405   2.923  0.3602  1.6865  1.0593
 3316SOL    HW221582   1.990   4.421   3.057  1.7829  2.2906 -1.4116
 3317SOL     OW21583   0.184   0.346   7.625  0.2315  0.4542 -0.3548
 3317SOL    HW121584   0.171   0.407   7.553  1.8559  1.2760  0.0541
 3317SOL    HW221585   0.205   0.403   7.699 -1.6654  0.1076  0.4721
 3318SOL     OW21586   2.383   3.193  11.673 -0.5392  0.4078  0.3121
 3318SOL    HW121587   2.345   3.272  11.710 -1.2067  0.5001 -0.5703
 3318SOL    HW221588   2.472   3.215  11.648 -0.8744  1.3720 -0.0090
 3319SOL     OW21589   1.624   0.458   6.365 -0.0753  0.0662 -0.1556
 3319SOL    HW121590   1.653   0.423   6.449  1.7933  0.7865 -0.5069
 3319SOL    HW221591   1.707   0.476   6.321 -0.5493  0.9606 -0.7110
 3320SOL     OW21592   2.679   2.419  17.353 -0.2248 -0.2020 -0.1737
 3320SOL    HW121593   2.750   2.355  17.352  0.6086  0.7552 -1.6115
 3320SOL    HW221594   2.608   2.365  17.318 -2.5230  2.0882  0.9598
 3321SOL     OW21595   2.574   2.669  15.588  0.3968  0.0435 -0.0415
 3321SOL    HW121596   2.577   2.764  15.594 -0.0973 -0.0742  2.0304
 3321SOL    HW221597   2.495   2.659  15.533  0.1414 -0.0549  0.3432
 3322SOL     OW21598   4.028   1.952  17.080 -0.1361 -0.0669 -0.0961
 3322SOL    HW121599   4.013   1.944  17.174 -1.1246 -2.2628 -0.4362
 3322SOL    HW221600   4.001   2.042  17.067 -1.2737 -0.3995 -0.0638
 3323SOL     OW21601   0.873   1.056   1.872  0.1128  0.1098  0.3143
 3323SOL    HW121602   0.886   1.073   1.966 -3.7078 -0.8959  1.0130
 3323SOL    HW221603   0.878   1.145   1.838 -0.5885 -0.5273 -1.4219
 3324SOL     OW21604   2.166   2.239   2.273  0.7486  0.3017  0.1459
 3324SOL    HW121605   2.247   2.261   2.227  0.1927  0.1277 -0.9097
 3324SOL    HW221606   2.099   2.267   2.211  0.4977  1.0017  0.7224
 3325SOL     OW21607   3.522   4.700  16.822 -0.0462 -0.5595  0.2409
 3325SOL    HW121608   3.488   0.010  16.895 -0.3051  3.1489 -2.4920
 3325SOL    HW221609   3.548   0.030  16.765 -1.0684  0.7040  1.3692
 3326SOL     OW21610   2.437   2.350   7.601  0.0010 -0.4452 -0.0340
 3326SOL    HW121611   2.482   2.423   7.644  2.2807  0.6867 -4.3854
 3326SOL    HW221612   2.379   2.320   7.671  0.0785 -0.3793  0.0588
 3327SOL     OW21613   2.685   4.644   5.875  0.7615 -0.3508 -0.3320
 3327SOL    HW121614   2.645   4.683   5.953  0.6458 -2.5094  0.6870
 3327SOL    HW221615   2.768   4.691   5.871 -0.0611  1.2344  1.4489
 3328SOL     OW21616   0.396   3.163   7.910 -0.8999  0.1848  0.6584
 3328SOL    HW121617   0.329   3.103   7.944  0.8160 -2.2770 -0.2917
 3328SOL    HW221618   0.480   3.118   7.918 -1.6147 -1.2440  0.2432
 3329SOL     OW21619   0.681   2.970   7.102  0.0770  0.2376 -0.1972
 3329SOL    HW121620   0.721   3.024   7.033  3.3170  0.5937  1.9538
 3329SOL    HW221621   0.684   3.029   7.177  1.2965  0.4952 -0.4465
 3330SOL     OW21622   1.019   2.779   8.004 -0.8180  0.1578  0.4398
 3330SOL    HW121623   1.085   2.845   7.981  0.8053 -0.9259  1.9842
 3330SOL    HW221624   1.051   2.736   8.083 -2.7248 -0.6108  0.7886
 3331SOL     OW21625   0.171   3.579   6.699  0.4187  0.0308 -0.4130
 3331SOL    HW121626   0.228   3.607   6.771 -1.2653 -1.2275  1.4341
 3331SOL    HW221627   0.228   3.517   6.653 -1.3444 -0.3515 -2.0684
 3332SOL     OW21628   2.226   3.674   2.012 -0.1416 -0.3169 -0.0675
 3332SOL    HW121629   2.165   3.609   1.977 -0.9419 -0.5705  1.7776
 3332SOL    HW221630   2.267   3.620   2.079  0.0201  0.1005  0.1716
 3333SOL     OW21631   3.807   0.127   1.506 -0.2307  1.1314  0.0181
 3333SOL    HW121632   3.724   0.116   1.552 -1.1657 -1.1310 -2.1941
 3333SOL    HW221633   3.761   0.112   1.423  1.0928  1.6107 -0.8014
 3334SOL     OW21634   2.744   1.092  15.206 -0.3154  0.2810  0.4153
 3334SOL    HW121635   2.782   1.162  15.154 -0.3161 -0.0552 -0.0389
 3334SOL    HW221636   2.728   1.026  15.138  0.5771 -0.4420  0.8987
 3335SOL     OW21637   2.851   2.762   4.176 -0.4093 -0.1496  0.0331
 3335SOL    HW121638   2.778   2.781   4.235  0.6052  0.1350  1.2010
 3335SOL    HW221639   2.864   2.844   4.130  1.9182 -0.5099  0.0605
 3336SOL     OW21640   0.141   0.414   1.168 -0.0693 -0.6598  0.3848
 3336SOL    HW121641   0.104   0.456   1.246  0.9273  1.8187 -0.4816
 3336SOL    HW221642   0.136   0.323   1.198  1.4338 -1.1747 -0.9458
 3337SOL     OW21643   0.828   2.211   6.343  0.4072 -0.1354  0.1464
 3337SOL    HW121644   0.787   2.144   6.398  0.4106  0.2095  0.5666
 3337SOL    HW221645   0.897   2.247   6.398 -0.2365 -2.3209  2.3684
 3338SOL     OW21646   1.344   4.163  15.783  0.1688 -0.1459  0.8317
 3338SOL    HW121647   1.343   4.243  15.835 -0.7607  0.6173 -0.3586
 3338SOL    HW221648   1.419   4.180  15.726 -1.1912 -0.3688 -1.0259
 3339SOL     OW21649   2.044   4.697   0.029  0.2708  0.7983  0.2775
 3339SOL    HW121650   2.047   4.648   0.111  1.9082  1.5762  0.6727
 3339SOL    HW221651   1.999   4.635  17.736 -1.2202  0.2073  2.0745
 3340SOL     OW21652   2.947   4.303  11.215  0.5327  0.1776 -0.4311
 3340SOL    HW121653   2.975   4.393  11.229  1.1132 -0.2134  0.9085
 3340SOL    HW221654   3.026   4.251  11.229  0.1492 -1.3092 -3.7455
 3341SOL     OW21655   2.611   2.513   3.082  0.1473  0.0180 -0.0908
 3341SOL    HW121656   2.574   2.531   3.168 -2.6384  0.4351 -1.3725
 3341SOL    HW221657   2.703   2.525   3.104 -0.0401  0.9514  0.1593
 3342SOL     OW21658   4.040   3.139   9.047 -0.6286  0.2552  0.3054
 3342SOL    HW121659   3.977   3.203   9.015  0.7391  0.8931 -1.1359
 3342SOL    HW221660   4.055   3.087   8.968 -3.4072  0.0416 -0.0660
 3343SOL     OW21661   3.513   4.664   0.469 -0.3589 -0.3056  0.0678
 3343SOL    HW121662   3.575   4.705   0.529  0.4343 -2.5864  0.8350
 3343SOL    HW221663   3.557   4.674   0.385  0.5781 -1.5928  0.3974
 3344SOL     OW21664   1.887   0.028   3.331  0.2079  0.0564  0.3357
 3344SOL    HW121665   1.867   0.117   3.302 -1.3361 -0.8665 -1.3879
 3344SOL    HW221666   1.800   0.007   3.365  0.6258 -0.8683  0.8360
 3345SOL     OW21667   0.848   0.062  10.439 -0.4424 -0.0061  0.1035
 3345SOL    HW121668   0.770   0.094  10.483 -1.8001 -1.1016 -1.5248
 3345SOL    HW221669   0.916   0.098  10.496 -1.0650  1.7461 -0.2586
 3346SOL     OW21670   2.621   1.555   7.355 -0.5189 -0.2772 -0.2752
 3346SOL    HW121671   2.574   1.553   7.439 -0.0917  0.1162 -0.0321
 3346SOL    HW221672   2.551   1.523   7.298  1.0757 -1.0308 -1.8003
 3347SOL     OW21673   1.770   1.867   8.233 -0.2877 -0.0256 -0.6351
 3347SOL    HW121674   1.800   1.956   8.218 -0.0459 -0.0017 -0.0153
 3347SOL    HW221675   1.738   1.875   8.323  0.8722 -0.2178 -0.2128
 3348SOL     OW21676   4.664   4.123  16.442 -0.2142 -0.0021  0.1007
 3348SOL    HW121677   4.572   4.097  16.444  0.3390 -1.8503  0.7503
 3348SOL    HW221678   4.665   4.214  16.471 -2.0531  0.0995 -0.0942
 3349SOL     OW21679   4.325   1.218  11.559 -0.0061  0.3548 -0.3869
 3349SOL    HW121680   4.348   1.291  11.617  0.6941  0.1161 -0.3649
 3349SOL    HW221681   4.278   1.266  11.491 -0.4126 -0.0122 -0.3613
 3350SOL     OW21682   3.898   2.786   4.609  0.4770  0.6220 -0.0785
 3350SOL    HW121683   3.878   2.696   4.584  0.1622  1.0004 -1.1635
 3350SOL    HW221684   3.819   2.837   4.593  0.3223 -0.3826 -2.5584
 3351SOL     OW21685   2.042   4.073   5.202  1.0522  0.4178  0.2306
 3351SOL    HW121686   2.107   4.005   5.218 -1.1902 -2.0482 -1.2765
 3351SOL    HW221687   1.964   4.050   5.153  0.6705  2.1412  0.0374
 3352SOL     OW21688   2.270   0.671   6.346  0.4492 -0.8064 -0.6378
 3352SOL    HW121689   2.244   0.740   6.407  0.2856 -0.8810 -0.6231
 3352SOL    HW221690   2.223   0.597   6.385 -1.4744  0.0283 -1.3522
 3353SOL     OW21691   1.645   0.869   6.803  0.2444 -0.6339  0.1952
 3353SOL    HW121692   1.558   0.860   6.842  0.9121 -4.5320  0.7489
 3353SOL    HW221693   1.648   0.957   6.766 -1.1170  0.2098  2.0485
 3354SOL     OW21694   0.581   0.815   8.375  0.1191 -0.3050  0.2062
 3354SOL    HW121695   0.622   0.834   8.459 -1.3303  2.0581  0.3828
 3354SOL    HW221696   0.516   0.883   8.357  0.3579 -0.3782 -0.9747
 3355SOL     OW21697   4.495   3.001   6.003 -0.3977  0.1623 -0.1189
 3355SOL    HW121698   4.455   2.969   5.922  0.2206  0.4276 -0.5249
 3355SOL    HW221699   4.478   3.095   6.003  0.4702  0.3036  4.4462
 3356SOL     OW21700   2.583   3.724  16.663 -0.3202  0.5134  0.2415
 3356SOL    HW121701   2.648   3.764  16.606 -1.8189  1.1197 -1.0496
 3356SOL    HW221702   2.611   3.633  16.672 -2.6364 -0.1331  0.8138
 3357SOL     OW21703   0.905   1.131   4.845  0.1721 -0.6599  0.1808
 3357SOL    HW121704   0.938   1.131   4.755  0.8399 -0.8736  0.4282
 3357SOL    HW221705   0.970   1.071   4.881 -0.6056 -2.8876 -2.1613
 3358SOL     OW21706   1.177   2.501   2.630 -0.0485 -0.3048  0.5057
 3358SOL    HW121707   1.253   2.557   2.647 -0.2791 -0.9319  3.6300
 3358SOL    HW221708   1.111   2.531   2.692 -0.0546 -1.1763  0.9286
 3359SOL     OW21709   2.044   4.354   1.654  0.1404 -0.3787  0.6991
 3359SOL    HW121710   1.991   4.279   1.628 -0.7985  1.3123 -2.3040
 3359SOL    HW221711   2.056   4.400   1.571  0.9154 -0.4634  0.7613
 3360SOL     OW21712   0.248   2.225   4.105  0.0411 -0.1293 -0.8511
 3360SOL    HW121713   0.196   2.303   4.089 -1.3787 -0.7411  0.7863
 3360SOL    HW221714   0.211   2.170   4.035 -0.3989 -1.9936  0.8365
 3361SOL     OW21715   0.730   4.726   1.950  0.0691  0.4421 -0.3287
 3361SOL    HW121716   0.660   0.002   2.013  2.2495 -0.1435  2.3099
 3361SOL    HW221717   0.731   0.052   1.883  1.0987  1.0926  0.3372
 3362SOL     OW21718   2.065   2.479  15.408  0.0987 -0.4708 -0.0304
 3362SOL    HW121719   2.014   2.468  15.488  0.7916  1.5423  0.6941
 3362SOL    HW221720   2.097   2.569  15.418 -2.0569  0.5014 -2.1750
 3363SOL     OW21721   0.312   1.931  12.874 -0.1093  0.1965 -0.3398
 3363SOL    HW121722   0.322   2.002  12.811 -0.4333  0.1392 -0.4512
 3363SOL    HW221723   0.376   1.953  12.942 -1.1289  0.4456  0.5377
 3364SOL     OW21724   1.375   0.570  11.374 -0.4867 -0.2273  0.1197
 3364SOL    HW121725   1.353   0.626  11.300  0.1098 -0.8633 -0.5462
 3364SOL    HW221726   1.309   0.505  11.350 -0.0520 -0.4248 -0.5429
 3365SOL     OW21727   1.999   3.967   7.558  0.0964  0.0915 -0.4554
 3365SOL    HW121728   2.073   4.003   7.509  0.4857 -0.8583 -0.5653
 3365SOL    HW221729   1.930   3.992   7.496 -0.2837 -1.9944 -0.8738
 3366SOL     OW21730   2.524   2.468   3.891 -0.4114 -0.0617 -0.5183
 3366SOL    HW121731   2.510   2.413   3.968 -2.4856  0.7071 -0.3635
 3366SOL    HW221732   2.501   2.552   3.930 -0.9252 -1.2905  1.7973
 3367SOL     OW21733   2.753   2.549   6.331  0.2838  0.7828 -0.1609
 3367SOL    HW121734   2.798   2.593   6.404 -2.0512  1.2371  0.9928
 3367SOL    HW221735   2.749   2.609   6.257 -2.1123  2.3781  1.2418
 3368SOL     OW21736   3.268   1.782  14.783 -0.0661 -0.3292 -0.1313
 3368SOL    HW121737   3.194   1.789  14.844  0.2053  0.1411  0.1486
 3368SOL    HW221738   3.320   1.711  14.821  0.0848 -1.0984 -1.7718
 3369SOL     OW21739   1.293   3.655   8.503  0.1351 -0.3885 -0.9977
 3369SOL    HW121740   1.365   3.718   8.495 -0.5341  0.4932 -0.0344
 3369SOL    HW221741   1.223   3.709   8.467 -0.6280 -1.0608 -0.5104
 3370SOL     OW21742   3.959   1.868   7.986  0.3199  0.2287 -0.1715
 3370SOL    HW121743   3.985   1.778   8.006  0.9559  0.4986  0.2114
 3370SOL    HW221744   3.869   1.869   8.020  0.1006 -0.1135 -0.7254
 3371SOL     OW21745   2.478   4.269   8.937  0.6279 -0.3860 -0.1463
 3371SOL    HW121746   2.450   4.180   8.917 -0.3173  0.4222 -2.4888
 3371SOL    HW221747   2.568   4.252   8.912 -0.1751 -2.0178 -1.8994
 3372SOL     OW21748   1.176   3.799   9.454 -0.0099 -0.2732  0.6386
 3372SOL    HW121749   1.197   3.713   9.419 -1.8526  0.1154 -1.3992
 3372SOL    HW221750   1.081   3.811   9.451  0.0655  0.3548  0.7315
 3373SOL     OW21751   1.812   1.486   3.111 -0.5038  0.2552  0.0216
 3373SOL    HW121752   1.745   1.446   3.166  1.3160 -1.4516  1.0468
 3373SOL    HW221753   1.760   1.532   3.045 -0.4498 -0.0425 -0.2261
 3374SOL     OW21754   3.410   2.709   2.729 -0.2334 -0.1424  0.4499
 3374SOL    HW121755   3.424   2.632   2.784 -0.7403 -0.7435 -0.2535
 3374SOL    HW221756   3.335   2.751   2.771  0.6538  2.2459 -0.3469
 3375SOL     OW21757   4.628   2.686   3.316 -0.0756 -0.6170  0.3869
 3375SOL    HW121758   4.668   2.716   3.234  0.4971 -1.3452  0.4044
 3375SOL    HW221759   4.656   2.596   3.305 -0.5625 -0.7762  0.4343
 3376SOL     OW21760   3.957   0.670   1.586  0.2665 -0.1738 -0.5592
 3376SOL    HW121761   4.048   0.691   1.567  0.8484  0.4981  3.0010
 3376SOL    HW221762   3.959   0.576   1.566  1.4451 -0.0604 -0.9623
 3377SOL     OW21763   2.766   4.168   8.846  0.5483  1.3610  0.2318
 3377SOL    HW121764   2.710   4.151   8.771 -0.0195 -3.1215  1.6848
 3377SOL    HW221765   2.787   4.083   8.885  0.6344  0.7731 -1.0918
 3378SOL     OW21766   1.140   3.873   3.352  0.4263  0.4490  0.2730
 3378SOL    HW121767   1.203   3.808   3.384  0.6466 -1.0120 -3.0871
 3378SOL    HW221768   1.072   3.880   3.418  0.6700 -0.9179  0.6806
 3379SOL     OW21769   2.015   2.250  12.807  0.0161 -1.0837 -0.0926
 3379SOL    HW121770   1.959   2.315  12.765  2.3888  1.5187  0.7687
 3379SOL    HW221771   1.972   2.262  12.891  1.7416 -1.9579  0.9059
 3380SOL     OW21772   3.192   2.521   8.016 -0.3870  0.2180  0.5711
 3380SOL    HW121773   3.224   2.509   7.926 -2.3897 -0.8806 -0.0122
 3380SOL    HW221774   3.124   2.453   8.019  1.4239 -1.6135  0.0760
 3381SOL     OW21775   3.281   1.140   7.067 -0.7053  0.3465 -0.3585
 3381SOL    HW121776   3.249   1.135   6.977  1.1276  0.0942 -0.9972
 3381SOL    HW221777   3.373   1.164   7.057 -1.3166  1.1492 -3.8043
 3382SOL     OW21778   2.332   4.468   9.319  0.5288 -0.0944  0.1518
 3382SOL    HW121779   2.375   4.484   9.235  0.8466  1.3788  0.6001
 3382SOL    HW221780   2.387   4.518   9.379  0.7982  0.8891 -0.9314
 3383SOL     OW21781   2.627   4.492   7.609  0.0709  0.3464  0.1745
 3383SOL    HW121782   2.585   4.560   7.662 -0.4349 -0.4111  0.7333
 3383SOL    HW221783   2.637   4.541   7.527  2.1043  0.0384  0.2356
 3384SOL     OW21784   1.307   3.721   3.708 -0.1199 -0.4766 -0.5200
 3384SOL    HW121785   1.353   3.650   3.663 -0.0440 -1.1973  0.6847
 3384SOL    HW221786   1.367   3.794   3.694  2.9648 -3.1702 -1.0694
 3385SOL     OW21787   1.942   1.881   6.607 -0.1232 -0.5577  0.0642
 3385SOL    HW121788   1.998   1.836   6.670 -0.1194  0.0960  0.5298
 3385SOL    HW221789   1.903   1.811   6.555  1.7818 -0.1621 -1.8908
 3386SOL     OW21790   0.910   3.869  15.282 -0.2592 -0.1198 -0.1842
 3386SOL    HW121791   0.876   3.821  15.207  4.9083 -0.3192 -2.3662
 3386SOL    HW221792   0.856   3.948  15.277 -1.2334 -0.7687  0.0463
 3387SOL     OW21793   1.484   4.452   0.049 -0.0206 -0.1173 -0.0833
 3387SOL    HW121794   1.478   4.504   0.128 -0.3679  0.0385 -0.2139
 3387SOL    HW221795   1.393   4.459   0.019  0.1356  3.0928  0.2279
 3388SOL     OW21796   4.676   1.634   2.066 -0.1928 -0.2610 -0.2635
 3388SOL    HW121797   4.681   1.567   1.999 -1.1641 -0.3438 -0.2443
 3388SOL    HW221798   4.693   1.586   2.147 -1.8758  0.7950  0.7006
 3389SOL     OW21799   2.685   4.400   7.177 -0.1069  0.1240  0.4209
 3389SOL    HW121800   2.756   4.346   7.211  2.5957  1.8706 -2.4558
 3389SOL    HW221801   2.643   4.346   7.110  1.9213 -1.2546  0.2687
 3390SOL     OW21802   3.830   1.208  11.166  0.1765  0.4231 -0.0829
 3390SOL    HW121803   3.784   1.256  11.097 -0.9520  0.1488  0.4822
 3390SOL    HW221804   3.815   1.263  11.243 -1.1763 -2.6530  1.8816
 3391SOL     OW21805   3.231   0.909  14.495  0.3578  0.0902 -0.3488
 3391SOL    HW121806   3.159   0.931  14.554 -0.1145 -3.8457  0.5707
 3391SOL    HW221807   3.210   0.816  14.480 -0.4165  0.5973 -2.4740
 3392SOL     OW21808   1.618   3.670   7.987  0.6133  0.4934  0.0968
 3392SOL    HW121809   1.628   3.643   8.078 -0.7374  3.3142  1.0628
 3392SOL    HW221810   1.635   3.764   7.990  1.7863  0.3574 -1.9622
 3393SOL     OW21811   1.266   3.691   6.574 -0.2994  0.3317  0.0469
 3393SOL    HW121812   1.330   3.620   6.586 -1.2365 -0.3915  0.8344
 3393SOL    HW221813   1.324   3.766   6.565 -0.3965  0.5064  0.8733
 3394SOL     OW21814   1.159   0.885   6.689  0.1149 -0.0275  0.1087
 3394SOL    HW121815   1.193   0.961   6.736  1.7368 -0.8570  0.2764
 3394SOL    HW221816   1.067   0.901   6.711 -0.0332  2.0054 -1.9637
 3395SOL     OW21817   0.935   3.243   3.114  0.3656 -0.4052 -0.2407
 3395SOL    HW121818   0.939   3.311   3.182  3.3754  1.5925 -2.3605
 3395SOL    HW221819   0.866   3.185   3.144 -0.5170  0.4328 -0.6354
 3396SOL     OW21820   3.296   3.784   5.383 -0.2206  0.5388  0.4062
 3396SOL    HW121821   3.373   3.751   5.338 -0.3760  1.0335 -0.2282
 3396SOL    HW221822   3.328   3.764   5.471  0.6736  2.2316  0.4531
 3397SOL     OW21823   2.388   2.445   9.102  0.2023  0.1143 -0.1218
 3397SOL    HW121824   2.318   2.461   9.166  1.8584 -0.9918  1.9834
 3397SOL    HW221825   2.429   2.367   9.139  0.2524  0.1718 -0.0561
 3398SOL     OW21826   1.146   3.949   0.155  0.4790 -0.3040  0.4364
 3398SOL    HW121827   1.174   4.039   0.137  0.8824 -0.1498  1.8520
 3398SOL    HW221828   1.197   3.919   0.230  2.4363  1.3715 -0.1919
 3399SOL     OW21829   4.080   1.632   5.695 -0.1197  0.0411  0.2010
 3399SOL    HW121830   4.140   1.557   5.698 -0.6294 -0.3908 -0.4124
 3399SOL    HW221831   4.148   1.699   5.689  1.3456 -1.2843  1.9106
 3400SOL     OW21832   1.709   1.649   2.938 -0.5822 -0.7842 -0.0913
 3400SOL    HW121833   1.680   1.646   2.847 -1.6177  0.3059  0.1964
 3400SOL    HW221834   1.681   1.740   2.948 -0.9329 -0.9312  0.2669
 3401SOL     OW21835   4.000   0.876   0.265 -0.1876  0.0798  1.0324
 3401SOL    HW121836   4.077   0.819   0.276  0.4207  0.3228 -1.9434
 3401SOL    HW221837   3.963   0.869   0.353 -0.5192 -0.8493  0.8249
 3402SOL     OW21838   2.670   4.151  12.405  0.8983  0.3596 -0.1721
 3402SOL    HW121839   2.727   4.178  12.478  2.1529 -0.2235 -0.9272
 3402SOL    HW221840   2.691   4.223  12.345  0.3700  0.3238 -0.3926
 3403SOL     OW21841   4.547   3.406   2.472  0.1553 -0.1868  0.4905
 3403SOL    HW121842   4.485   3.380   2.541  0.1169 -1.8679 -0.1797
 3403SOL    HW221843   4.569   3.318   2.439 -0.8562 -1.5968  3.5762
 3404SOL     OW21844   4.252   1.647   6.941  0.3241 -0.0104 -0.0485
 3404SOL    HW121845   4.291   1.608   7.019 -0.6029  0.9844  0.9128
 3404SOL    HW221846   4.162   1.614   6.941  0.8251 -1.4181  1.8300
 3405SOL     OW21847   3.566   3.850   5.479  0.0451  0.1653 -0.2181
 3405SOL    HW121848   3.630   3.781   5.464 -2.2149 -1.7674 -0.9161
 3405SOL    HW221849   3.583   3.914   5.410 -1.6197  0.6521 -0.1958
 3406SOL     OW21850   2.235   4.596   6.949  0.3031  0.6638 -0.6998
 3406SOL    HW121851   2.268   4.604   7.038  2.1454 -1.0025 -1.2218
 3406SOL    HW221852   2.173   4.668   6.939 -0.3197  0.3454  0.9177
 3407SOL     OW21853   3.787   4.400   5.459  0.0176  0.2192 -0.7159
 3407SOL    HW121854   3.807   4.484   5.417  1.0077  0.0336 -0.6107
 3407SOL    HW221855   3.872   4.356   5.463  0.2783  0.7875  0.0671
 3408SOL     OW21856   3.289   1.073   4.580 -0.4044 -0.2709 -0.1417
 3408SOL    HW121857   3.362   1.126   4.613 -0.4438 -0.8499  0.8911
 3408SOL    HW221858   3.333   0.988   4.584 -1.7475 -1.0128 -1.2023
 3409SOL     OW21859   4.454   3.399   3.787  0.0299  0.6371 -0.3802
 3409SOL    HW121860   4.436   3.377   3.879  1.0867  1.1783 -0.0375
 3409SOL    HW221861   4.488   3.315   3.756 -1.0172  0.9609 -2.3924
 3410SOL     OW21862   1.156   1.027   9.698  0.4090  0.0041  1.0098
 3410SOL    HW121863   1.250   1.045   9.691  0.4286  0.3456  2.1969
 3410SOL    HW221864   1.116   1.069   9.621 -0.6680 -2.5440  0.1817
 3411SOL     OW21865   2.150   0.510   0.983 -0.1354 -0.0728 -0.5159
 3411SOL    HW121866   2.122   0.575   0.919  1.7090  2.7795  1.5629
 3411SOL    HW221867   2.070   0.478   1.024 -0.1615  1.6877  0.8120
 3412SOL     OW21868   3.795   2.494   1.369 -0.3438 -0.4244  0.4813
 3412SOL    HW121869   3.854   2.427   1.334 -0.0568  0.9342 -1.6618
 3412SOL    HW221870   3.827   2.508   1.458 -0.4731  1.8747  0.1766
 3413SOL     OW21871   1.174   1.444   4.212 -0.1571  0.0111  0.5240
 3413SOL    HW121872   1.143   1.453   4.301 -0.4338  0.9133  0.3374
 3413SOL    HW221873   1.153   1.526   4.167 -0.4966 -0.2436  0.2216
 3414SOL     OW21874   3.055   3.977   1.455 -0.2134 -0.1446  0.5284
 3414SOL    HW121875   3.081   4.057   1.502  1.1743  0.3483 -1.0707
 3414SOL    HW221876   3.008   3.924   1.520 -3.2685  3.0929  0.9972
 3415SOL     OW21877   4.383   3.122   7.419 -0.4558  0.3315 -0.1803
 3415SOL    HW121878   4.395   3.093   7.329  0.3574  0.0972 -0.0027
 3415SOL    HW221879   4.399   3.037   7.460  1.3949  0.8320  0.1262
 3416SOL     OW21880   2.616   2.861   7.592  0.6502 -0.0415 -0.3082
 3416SOL    HW121881   2.712   2.864   7.583  0.5540  0.2561 -1.2399
 3416SOL    HW221882   2.594   2.840   7.501 -1.4281  3.5541 -0.6264
 3417SOL     OW21883   1.750   2.034   7.885  0.2864  0.1081 -0.0371
 3417SOL    HW121884   1.710   2.109   7.841 -2.2501 -0.7506  0.8033
 3417SOL    HW221885   1.691   1.966   7.853  1.1241  0.1696 -1.7436
 3418SOL     OW21886   3.430   4.623   7.722 -0.0629  0.0956  0.5839
 3418SOL    HW121887   3.335   4.611   7.721 -0.0020 -0.3891  0.9985
 3418SOL    HW221888   3.441   4.718   7.718 -0.4052  0.0669 -1.1651
 3419SOL     OW21889   4.517   0.362   8.607 -0.2385 -0.0814  0.3403
 3419SOL    HW121890   4.526   0.355   8.512 -1.3903  0.7572  0.1667
 3419SOL    HW221891   4.438   0.416   8.605 -0.9783 -1.1687 -0.0087
 3420SOL     OW21892   2.013   1.727   7.786 -0.1777  0.0251 -0.0622
 3420SOL    HW121893   2.013   1.822   7.797 -2.5830  0.1634 -1.2478
 3420SOL    HW221894   2.065   1.712   7.865  1.5475  1.6334 -0.8795
 3421SOL     OW21895   3.668   1.949   3.095  0.0664 -0.9593  0.0750
 3421SOL    HW121896   3.696   1.888   3.164 -0.4855 -0.2356  0.9361
 3421SOL    HW221897   3.739   1.934   3.034 -1.8789 -0.4967 -2.2957
 3422SOL     OW21898   3.145   4.104   0.953  0.4071  0.2671  0.0911
 3422SOL    HW121899   3.065   4.126   0.904  1.4151 -0.5050 -1.9098
 3422SOL    HW221900   3.109   4.089   1.041  0.4750  0.4348  0.1474
 3423SOL     OW21901   3.318   1.045  16.018 -0.2706  0.9603 -0.6386
 3423SOL    HW121902   3.290   1.121  15.966 -0.3439  1.4984  0.1953
 3423SOL    HW221903   3.244   0.986  16.001  2.3476 -2.3568 -0.4522
 3424SOL     OW21904   0.078   2.301  11.130  0.0859 -0.1655 -0.5084
 3424SOL    HW121905   0.026   2.377  11.155  1.7848  0.8125  0.0087
 3424SOL    HW221906   0.146   2.333  11.071  1.0523  0.7315  1.0953
 3425SOL     OW21907   0.862   2.546   1.847 -0.0708 -0.0305  0.1944
 3425SOL    HW121908   0.783   2.547   1.900 -0.7401  3.0283 -0.8666
 3425SOL    HW221909   0.833   2.505   1.765 -1.4874  2.6106 -0.6175
 3426SOL     OW21910   4.374   4.494   7.082 -0.0799 -0.4228 -0.1366
 3426SOL    HW121911   4.380   4.580   7.042  0.4002 -0.2936  0.2165
 3426SOL    HW221912   4.296   4.464   7.036 -0.2023 -1.0293  0.4655
 3427SOL     OW21913   4.663   2.751   9.029  0.4592  0.1837  0.3185
 3427SOL    HW121914   4.627   2.818   8.971  1.4020 -0.7976 -1.4124
 3427SOL    HW221915   4.719   2.704   8.967 -1.0612  1.3271 -1.8860
 3428SOL     OW21916   0.484   2.319   0.834 -0.3638  0.0810 -0.1915
 3428SOL    HW121917   0.568   2.344   0.795 -0.4283  0.3373 -0.1646
 3428SOL    HW221918   0.495   2.378   0.909  1.2658 -0.4666  0.0036
 3429SOL     OW21919   1.917   3.398   3.060  0.0262 -0.1738  0.6291
 3429SOL    HW121920   1.917   3.489   3.089  0.9049 -0.6876  2.2438
 3429SOL    HW221921   1.882   3.404   2.971  0.8743 -0.2366  0.2935
 3430SOL     OW21922   1.070   3.889   5.387  0.2287 -0.4171 -0.1111
 3430SOL    HW121923   1.015   3.910   5.312  0.0280 -1.9849 -0.3859
 3430SOL    HW221924   1.151   3.857   5.350  0.4361 -0.2287  0.1767
 3431SOL     OW21925   2.484   2.947  15.325  0.0438 -0.2001 -0.4214
 3431SOL    HW121926   2.407   2.898  15.295  1.2884 -2.4899  0.0528
 3431SOL    HW221927   2.443   3.025  15.361  0.2598 -0.3418  0.1334
 3432SOL     OW21928   0.011   3.963   3.179  0.1771 -0.5907  0.2861
 3432SOL    HW121929   0.039   3.916   3.257 -1.4584 -0.6180  0.8398
 3432SOL    HW221930   4.665   3.928   3.168 -0.2521  0.3825  0.6702
 3433SOL     OW21931   3.580   0.712   3.965  0.2600  0.0350  0.6366
 3433SOL    HW121932   3.635   0.786   3.990 -1.3467  0.8547  1.6702
 3433SOL    HW221933   3.650   0.646   3.957  1.8792  2.1529 -2.6107
 3434SOL     OW21934   2.632   0.775   8.660 -0.3243 -0.0033 -0.3673
 3434SOL    HW121935   2.640   0.680   8.651 -2.3060  0.1146 -3.5226
 3434SOL    HW221936   2.722   0.801   8.683 -2.1048  3.1972  2.9375
 3435SOL     OW21937   4.631   3.627   3.735  0.0983  0.7595  0.8077
 3435SOL    HW121938   4.618   3.557   3.798  1.4340  0.6379  0.9379
 3435SOL    HW221939   4.541   3.642   3.706  1.0912  1.0853 -2.0916
 3436SOL     OW21940   1.191   0.891   0.300  0.4487 -0.1933 -0.2194
 3436SOL    HW121941   1.221   0.965   0.247 -1.7924 -1.8980 -3.8935
 3436SOL    HW221942   1.159   0.825   0.238  1.2782  0.1412 -1.0064
 3437SOL     OW21943   2.947   1.288   3.106 -0.3062  0.3899  0.2817
 3437SOL    HW121944   3.006   1.238   3.162  0.2618  2.5911  1.6561
 3437SOL    HW221945   2.902   1.334   3.177  1.7795  1.5601  0.8445
 3438SOL     OW21946   2.871   2.322   9.174 -0.5263 -0.3645  0.2384
 3438SOL    HW121947   2.800   2.346   9.114 -1.0545  0.0363  1.0258
 3438SOL    HW221948   2.873   2.399   9.231  0.6703 -0.0508 -0.2178
 3439SOL     OW21949   2.175   4.184  16.847  0.7268 -0.4334 -0.8721
 3439SOL    HW121950   2.267   4.157  16.836  0.2162 -2.1765 -0.7929
 3439SOL    HW221951   2.137   4.104  16.811 -2.5118  0.6692  0.1809
 3440SOL     OW21952   1.337   0.437  13.744  0.0208  0.3758  0.2206
 3440SOL    HW121953   1.395   0.378  13.695  1.1450  1.8968 -0.2940
 3440SOL    HW221954   1.394   0.513  13.760 -0.5096  0.4862  1.5456
 3441SOL     OW21955   4.382   4.557  10.577 -0.6771 -0.6387 -0.2945
 3441SOL    HW121956   4.332   4.633  10.607  1.0844 -0.4964  2.2118
 3441SOL    HW221957   4.331   4.545  10.497  0.6855 -4.8533 -0.5188
 3442SOL     OW21958   4.640   0.798   3.196  0.5290  0.3529  0.1135
 3442SOL    HW121959   4.616   0.708   3.216 -0.9411  0.5393 -0.8119
 3442SOL    HW221960   4.593   0.851   3.260  0.6295  1.0325 -0.3689
 3443SOL     OW21961   3.268   3.706  10.469  0.3478  0.1433  0.4227
 3443SOL    HW121962   3.206   3.746  10.408  0.7408  1.3127  0.7920
 3443SOL    HW221963   3.351   3.721  10.424  0.7027 -0.3457  0.9173
 3444SOL     OW21964   4.287   0.404   5.481 -0.5388 -0.2794 -0.6623
 3444SOL    HW121965   4.301   0.311   5.463 -0.4022 -0.4719  0.4587
 3444SOL    HW221966   4.203   0.408   5.527  1.2017  0.6120  2.4369
 3445SOL     OW21967   1.611   3.522   2.950  0.6606  0.1856  0.1648
 3445SOL    HW121968   1.683   3.521   3.012  1.5357  4.0095 -0.8081
 3445SOL    HW221969   1.656   3.484   2.874 -1.5494 -2.1059 -0.0080
 3446SOL     OW21970   3.262   3.348   1.056 -0.6367 -0.4705  0.4868
 3446SOL    HW121971   3.299   3.412   1.117 -1.6250 -1.3844  2.0594
 3446SOL    HW221972   3.256   3.277   1.121 -0.3318 -1.7254 -0.8502
 3447SOL     OW21973   4.127   4.513  17.519  0.8519 -0.0846 -0.3512
 3447SOL    HW121974   4.061   4.551  17.461 -2.4089 -2.9381  1.4450
 3447SOL    HW221975   4.089   4.429  17.546  3.1588 -1.1678 -0.4513
 3448SOL     OW21976   2.330   1.933   3.089  0.1580  0.3397  0.6137
 3448SOL    HW121977   2.249   1.908   3.044  0.5507  2.6255 -1.3453
 3448SOL    HW221978   2.305   2.015   3.129  0.0896 -0.7573  2.8072
 3449SOL     OW21979   3.281   0.713   5.394 -0.4055  0.1057 -0.1613
 3449SOL    HW121980   3.222   0.773   5.439 -0.5554  0.4519 -0.8212
 3449SOL    HW221981   3.354   0.775   5.399  0.1095 -0.6432  1.5210
 3450SOL     OW21982   1.350   1.089   7.629  0.2999  0.1521 -0.4268
 3450SOL    HW121983   1.388   1.023   7.686 -4.5842  1.1536  3.9648
 3450SOL    HW221984   1.390   1.171   7.658  0.1687 -0.6142  1.9002
 3451SOL     OW21985   0.170   0.369  12.444 -0.2091 -0.6207 -0.3177
 3451SOL    HW121986   0.237   0.302  12.456  1.3943  0.9182 -0.6100
 3451SOL    HW221987   0.213   0.427  12.382 -2.1410  1.8643  0.6523
 3452SOL     OW21988   2.840   2.654  16.372 -0.3164 -0.0992 -0.2520
 3452SOL    HW121989   2.865   2.692  16.456 -1.2598 -0.2430  0.0885
 3452SOL    HW221990   2.924   2.639  16.328  0.2286 -1.7726  1.3601
 3453SOL     OW21991   0.503   4.412   0.381 -0.2716 -0.0655  0.0680
 3453SOL    HW121992   0.438   4.360   0.428 -0.3450  0.2147  0.2760
 3453SOL    HW221993   0.470   4.499   0.403  0.8557  0.2684  0.4676
 3454SOL     OW21994   4.125   1.042   3.621 -0.4880 -0.5458 -0.0982
 3454SOL    HW121995   4.157   0.952   3.618 -2.4339 -1.1388 -3.4034
 3454SOL    HW221996   4.105   1.048   3.527 -0.2636 -2.4335 -0.2607
 3455SOL     OW21997   3.763   4.038   4.571 -0.7916  0.2911  0.2413
 3455SOL    HW121998   3.819   3.992   4.634  1.6427  0.5621 -1.7467
 3455SOL    HW221999   3.830   4.097   4.537 -2.6658  2.1869 -0.1911
 3456SOL     OW22000   1.150   0.786   7.036  0.5677 -0.2514 -0.4320
 3456SOL    HW122001   1.112   0.735   6.965  0.7854 -0.3570 -0.4738
 3456SOL    HW222002   1.088   0.852   7.067  0.8099  0.3032 -1.1312
 3457SOL     OW22003   3.256   0.462  14.307 -0.1139 -0.4693 -0.3357
 3457SOL    HW122004   3.351   0.474  14.306 -0.1728 -0.1991 -2.5459
 3457SOL    HW222005   3.230   0.554  14.299 -0.6283 -0.5206  0.7932
 3458SOL     OW22006   3.049   1.183  13.189 -0.0133 -0.5576 -0.0320
 3458SOL    HW122007   3.119   1.237  13.151 -0.5167  0.2684  0.2075
 3458SOL    HW222008   3.035   1.227  13.272  0.3685  0.9237 -0.7469
 3459SOL     OW22009   1.169   0.890   7.474  0.4112  0.0597 -0.3034
 3459SOL    HW122010   1.213   0.948   7.413  0.6885  0.3329  0.1544
 3459SOL    HW222011   1.237   0.828   7.496 -0.1346 -0.4775 -0.1276
 3460SOL     OW22012   4.736   3.347   6.374  0.0114 -0.1586 -0.1342
 3460SOL    HW122013   4.739   3.422   6.315 -1.3030 -1.3791 -1.7472
 3460SOL    HW222014   4.670   3.289   6.337 -0.0107  0.2428 -0.7385
 3461SOL     OW22015   1.600   3.897   4.103 -0.0373 -0.0386 -0.3069
 3461SOL    HW122016   1.595   3.801   4.098  0.5804 -0.0512 -0.6700
 3461SOL    HW222017   1.520   3.909   4.054 -0.2394 -1.1084 -0.2553
 3462SOL     OW22018   1.425   4.709   3.710  0.5141 -0.1856 -0.3476
 3462SOL    HW122019   1.396   4.621   3.686 -1.0555  0.1752  0.2697
 3462SOL    HW222020   1.516   4.700   3.739 -0.3301 -0.2166  2.3136
 3463SOL     OW22021   3.891   4.585   2.573  0.3441 -0.1437  0.3124
 3463SOL    HW122022   3.900   4.571   2.479 -1.1511  0.5954  0.0564
 3463SOL    HW222023   3.880   4.494   2.603  1.2845  0.0504  1.2728
 3464SOL     OW22024   1.585   2.032  10.012  0.2573  0.1668 -0.3084
 3464SOL    HW122025   1.562   1.968  10.079  4.2748  1.4665  2.3530
 3464SOL    HW222026   1.588   2.111  10.067 -1.8608 -0.7527  1.1473
 3465SOL     OW22027   2.165   2.732  15.436  0.0870  0.2613 -0.2757
 3465SOL    HW122028   2.243   2.754  15.488  1.5962 -1.6865 -1.7137
 3465SOL    HW222029   2.131   2.819  15.414 -0.1646  0.5866  1.4100
 3466SOL     OW22030   2.785   0.721   2.451 -0.3986  0.3755 -0.1533
 3466SOL    HW122031   2.758   0.691   2.365  0.8938  2.0943 -1.1611
 3466SOL    HW222032   2.839   0.653   2.491 -0.1950 -0.3699 -1.7136
 3467SOL     OW22033   0.879   3.439   8.612 -0.1939 -0.4160  0.3310
 3467SOL    HW122034   0.965   3.403   8.631  0.2300  0.4312  0.0531
 3467SOL    HW222035   0.838   3.353   8.615 -0.9230 -0.1539 -1.7408
 3468SOL     OW22036   3.477   2.710   7.482  0.8591 -0.2171 -0.6434
 3468SOL    HW122037   3.541   2.643   7.458  0.3070 -0.9240 -0.1422
 3468SOL    HW222038   3.543   2.779   7.485  1.6088 -1.0293  1.4775
 3469SOL     OW22039   1.809   0.667  10.360 -0.7996  0.9366 -0.3278
 3469SOL    HW122040   1.865   0.704  10.292 -0.2379 -0.4900 -0.6516
 3469SOL    HW222041   1.796   0.742  10.417 -1.5146  1.6648 -1.4288
 3470SOL     OW22042   3.714   0.647   5.037 -1.0557 -0.4812 -0.0301
 3470SOL    HW122043   3.760   0.580   4.986  2.0302 -0.8967  3.3360
 3470SOL    HW222044   3.622   0.622   5.032 -1.0879 -0.8756  2.4625
 3471SOL     OW22045   2.512   3.393   0.792 -0.1102  0.0661  0.1706
 3471SOL    HW122046   2.468   3.310   0.809  0.0856 -0.0391  0.1698
 3471SOL    HW222047   2.565   3.416   0.868  0.7917 -0.7491 -0.2119
 3472SOL     OW22048   3.773   0.863   7.615  0.0415 -0.1226  0.0893
 3472SOL    HW122049   3.757   0.854   7.709  1.4139  0.4168  0.3678
 3472SOL    HW222050   3.682   0.841   7.596  0.2129 -1.8777  1.3448
 3473SOL     OW22051   2.282   2.982   7.354  0.0199 -0.1625 -0.2111
 3473SOL    HW122052   2.197   3.024   7.340 -0.1028  0.4384  2.3673
 3473SOL    HW222053   2.340   3.056   7.372  0.3608 -0.8546  1.4995
 3474SOL     OW22054   4.672   3.985  10.235  0.0605  0.1285  0.5680
 3474SOL    HW122055   4.729   3.932  10.180 -0.4499 -0.8313  0.9552
 3474SOL    HW222056   4.585   3.975  10.197  0.8500 -1.6252 -0.7796
 3475SOL     OW22057   2.997   2.731  17.536  0.6720 -0.2759  0.0418
 3475SOL    HW122058   3.087   2.744  17.506  0.2903  1.4909 -0.3730
 3475SOL    HW222059   2.955   2.719  17.451  0.2772 -0.3653  0.2534
 3476SOL     OW22060   0.407   3.316   1.249  0.0547  0.3375 -0.1456
 3476SOL    HW122061   0.391   3.248   1.184  0.3216 -0.9956  1.1707
 3476SOL    HW222062   0.338   3.307   1.315 -0.0084  1.6546 -0.0329
 3477SOL     OW22063   4.027   1.927   9.575  0.0487  0.1162  0.6268
 3477SOL    HW122064   4.022   1.976   9.493  0.6055 -0.3075  0.3438
 3477SOL    HW222065   4.029   1.997   9.640 -2.4627  1.2927 -0.5783
 3478SOL     OW22066   2.257   1.814   3.444  0.6242  0.0396 -0.2794
 3478SOL    HW122067   2.213   1.761   3.378  1.3153  0.5936 -1.1844
 3478SOL    HW222068   2.349   1.805   3.421  1.2123  0.2974  1.9956
 3479SOL     OW22069   4.216   2.615  14.167  0.6314 -0.1634  0.6125
 3479SOL    HW122070   4.168   2.571  14.097 -0.2870  2.6505 -0.4956
 3479SOL    HW222071   4.230   2.703  14.135  0.9945 -0.7985 -0.9495
 3480SOL     OW22072   2.544   2.331  14.555  0.1229  1.0315 -0.1392
 3480SOL    HW122073   2.479   2.264  14.535  0.7112 -0.1612  1.9678
 3480SOL    HW222074   2.573   2.362  14.469  0.6673  1.9510  0.3745
 3481SOL     OW22075   3.232   0.895   6.164 -0.8306  0.3991  0.4850
 3481SOL    HW122076   3.323   0.892   6.194 -0.5890  0.8638 -0.2117
 3481SOL    HW222077   3.193   0.839   6.231  2.8711 -2.5688  0.1605
 3482SOL     OW22078   4.386   1.694   8.844  0.7448 -0.4091  0.1360
 3482SOL    HW122079   4.412   1.741   8.923 -1.8631 -0.7879  1.2278
 3482SOL    HW222080   4.450   1.731   8.783 -0.6304  2.2085  0.3106
 3483SOL     OW22081   3.039   3.520   3.985 -0.1828  0.0119 -0.1926
 3483SOL    HW122082   3.005   3.600   3.945  2.2416  1.7092  1.1025
 3483SOL    HW222083   2.958   3.477   4.011  0.1396 -0.4967 -0.0149
 3484SOL     OW22084   3.921   1.716   5.044  0.2404  0.2067 -0.3330
 3484SOL    HW122085   3.882   1.692   5.128  1.4214  0.3042  0.2431
 3484SOL    HW222086   3.998   1.659   5.041 -1.8457 -2.5904  0.1807
 3485SOL     OW22087   4.216   2.743   2.760  0.6686  0.3387 -0.6268
 3485SOL    HW122088   4.131   2.711   2.730  0.4992 -1.3627  1.6974
 3485SOL    HW222089   4.199   2.837   2.760  0.8971  0.3805  0.0494
 3486SOL     OW22090   2.905   3.909   6.787 -0.4559  0.4328 -0.1356
 3486SOL    HW122091   2.811   3.900   6.775 -0.7009 -0.0299  2.1556
 3486SOL    HW222092   2.941   3.860   6.713  0.0577 -1.2782  1.2433
 3487SOL     OW22093   0.909   0.580   1.894  0.1689 -0.2590 -0.2222
 3487SOL    HW122094   0.828   0.622   1.865  0.5168  1.0563  0.6805
 3487SOL    HW222095   0.868   0.507   1.941 -1.2903 -0.1292 -1.3178
 3488SOL     OW22096   1.789   4.040   6.440 -0.1411 -0.0219  0.2778
 3488SOL    HW122097   1.757   4.115   6.489  3.3554  0.5159  1.7076
 3488SOL    HW222098   1.876   4.032   6.477  1.5589  2.7830 -3.1017
 3489SOL     OW22099   1.034   1.702   6.178 -0.7273 -0.2801  0.1995
 3489SOL    HW122100   1.087   1.707   6.257 -1.1535  0.4298  0.4489
 3489SOL    HW222101   0.971   1.773   6.195  0.1043  0.4738  0.1411
 3490SOL     OW22102   4.184   1.001   2.869  0.6743  0.1952 -0.3339
 3490SOL    HW122103   4.197   1.015   2.963  2.3091  2.3081 -0.8747
 3490SOL    HW222104   4.211   0.909   2.865 -2.3023 -0.7861  2.2883
 3491SOL     OW22105   4.391   4.063  12.049 -0.3224  0.4401 -0.3141
 3491SOL    HW122106   4.463   4.116  12.082 -0.3907 -1.3657  2.7172
 3491SOL    HW222107   4.378   4.097  11.960 -0.3277 -0.1815 -0.5544
 3492SOL     OW22108   2.796   2.472   4.781  0.1023 -0.0094 -0.0836
 3492SOL    HW122109   2.757   2.438   4.862 -2.5616 -0.2697 -1.4819
 3492SOL    HW222110   2.886   2.440   4.788  0.1227 -0.1912 -1.1914
 3493SOL     OW22111   0.428   0.973   3.514 -0.0999  0.3175  0.0015
 3493SOL    HW122112   0.410   0.883   3.541  0.8274  0.8666  2.4328
 3493SOL    HW222113   0.357   0.975   3.449 -0.0328  0.5130 -0.0655
 3494SOL     OW22114   0.827   0.971   2.721  0.0415  0.7747  0.1968
 3494SOL    HW122115   0.762   1.015   2.666 -1.6234 -1.1625  0.6118
 3494SOL    HW222116   0.782   0.943   2.801  1.1887 -2.4922 -0.3163
 3495SOL     OW22117   2.942   0.603  16.165  0.0065  0.3615 -0.0572
 3495SOL    HW122118   3.001   0.600  16.240 -1.8454 -0.9084  1.3503
 3495SOL    HW222119   2.901   0.517  16.174 -0.8468  0.5752 -1.9887
 3496SOL     OW22120   1.168   1.442   8.027  0.1241 -0.3598 -0.4086
 3496SOL    HW122121   1.207   1.456   7.941  0.6247 -2.5777 -0.5441
 3496SOL    HW222122   1.155   1.533   8.055  0.7718 -0.4307  0.1272
 3497SOL     OW22123   4.424   2.332   3.599  0.1794  0.6051 -0.1080
 3497SOL    HW122124   4.350   2.299   3.650  3.3314 -1.0584  3.4389
 3497SOL    HW222125   4.374   2.386   3.538  0.4000 -3.2014 -3.6123
 3498SOL     OW22126   3.013   4.488   7.879  0.0070  0.3691  0.2572
 3498SOL    HW122127   2.956   4.442   7.941  0.5389  0.7325  1.0006
 3498SOL    HW222128   3.079   4.419   7.870  0.2769  0.5271  1.0924
 3499SOL     OW22129   3.403   3.754   1.951 -0.2261  0.3086  0.1276
 3499SOL    HW122130   3.331   3.695   1.926 -0.3390 -0.5114  2.3140
 3499SOL    HW222131   3.474   3.690   1.944 -0.3219  0.4332 -1.9950
 3500SOL     OW22132   3.903   3.166   6.354 -0.3220 -0.1950 -0.0840
 3500SOL    HW122133   3.894   3.208   6.269 -0.7222  2.1432  1.1133
 3500SOL    HW222134   3.916   3.076   6.324 -1.3716 -1.8581  4.3590
 3501SOL     OW22135   3.695   4.515   6.412  0.1771 -0.1112  0.6735
 3501SOL    HW122136   3.696   4.519   6.316  2.0036 -2.5435  0.5890
 3501SOL    HW222137   3.682   4.421   6.428  0.1568 -0.2016  0.1498
 3502SOL     OW22138   0.450   1.677  17.718 -0.0635 -0.0666 -0.0219
 3502SOL    HW122139   0.403   1.649  17.639  2.8856 -4.4191 -0.2122
 3502SOL    HW222140   0.512   1.735  17.675 -0.4748 -0.8554 -1.6809
 3503SOL     OW22141   2.670   2.919   5.398 -0.3297 -0.0650  0.0944
 3503SOL    HW122142   2.721   2.886   5.324 -2.2117 -2.3551 -0.2143
 3503SOL    HW222143   2.633   2.845   5.447  1.5564 -1.1393 -0.1120
 3504SOL     OW22144   4.147   0.890  14.459 -0.4631  0.3271 -0.4302
 3504SOL    HW122145   4.095   0.941  14.521  0.8437 -0.5206  1.3471
 3504SOL    HW222146   4.170   0.812  14.509 -1.7789  0.1826 -0.0505
 3505SOL     OW22147   1.538   3.797   6.621  0.3968  0.2791  0.2943
 3505SOL    HW122148   1.496   3.754   6.696  0.5003  1.0579  0.7944
 3505SOL    HW222149   1.617   3.743   6.616 -1.1319 -1.6007 -3.2035
 3506SOL     OW22150   4.387   3.355   2.076 -0.4490 -0.5972  0.3944
 3506SOL    HW122151   4.327   3.418   2.037 -0.4459 -1.3995 -0.9380
 3506SOL    HW222152   4.463   3.412   2.087 -0.1664  0.1423 -5.2506
 3507SOL     OW22153   0.765   3.159   2.105 -0.5029 -0.3239 -0.2069
 3507SOL    HW122154   0.798   3.233   2.157  1.3221 -1.6315  0.4878
 3507SOL    HW222155   0.836   3.100   2.131  0.7436  0.8127 -1.0625
 3508SOL     OW22156   2.506   2.519   2.369 -0.0368  0.2864 -0.5308
 3508SOL    HW122157   2.569   2.589   2.387  1.3784  0.0021 -4.1747
 3508SOL    HW222158   2.550   2.437   2.392  0.5507  0.5381 -0.7455
 3509SOL     OW22159   0.392   3.921  15.031  0.2369  0.3852 -0.0972
 3509SOL    HW122160   0.406   4.015  15.047  1.3426  0.4653 -1.4269
 3509SOL    HW222161   0.311   3.915  14.981 -0.0303 -0.8991  0.4951
 3510SOL     OW22162   1.886   0.906   6.488  0.0419 -0.2633 -0.4532
 3510SOL    HW122163   1.827   0.832   6.500 -0.0086 -0.3902 -1.4764
 3510SOL    HW222164   1.857   0.933   6.400  0.9870  1.5982 -0.1843
 3511SOL     OW22165   2.314   1.543   5.327  0.2832 -0.7672  0.0650
 3511SOL    HW122166   2.363   1.587   5.396 -1.5391 -0.5385  1.2081
 3511SOL    HW222167   2.227   1.534   5.366 -0.5518 -1.4333 -1.9341
 3512SOL     OW22168   3.559   4.364  11.883 -0.1411 -1.2018 -1.0228
 3512SOL    HW122169   3.594   4.276  11.867  1.7712 -0.8110  1.0563
 3512SOL    HW222170   3.624   4.395  11.945  0.0530 -0.2231 -1.7073
 3513SOL     OW22171   2.376   0.441  14.079 -0.1852  0.7790  0.3286
 3513SOL    HW122172   2.453   0.418  14.130 -0.2523  1.1226  0.5923
 3513SOL    HW222173   2.417   0.421  13.995 -2.1379 -0.7892 -0.2397
 3514SOL     OW22174   0.142   3.987   9.854  0.5539 -0.0347 -0.1220
 3514SOL    HW122175   0.155   3.908   9.802  2.6969  1.4688 -1.8496
 3514SOL    HW222176   0.096   3.945   9.927 -1.2854 -0.0578 -1.2900
 3515SOL     OW22177   4.351   0.243  17.381  0.0647  0.1723  0.0581
 3515SOL    HW122178   4.358   0.200  17.296 -0.3814  0.8715 -0.3324
 3515SOL    HW222179   4.337   0.160  17.426  0.5481 -1.0114 -1.9990
 3516SOL     OW22180   0.880   1.271   8.279 -0.2510  0.4842 -0.2197
 3516SOL    HW122181   0.828   1.286   8.200  2.3508  1.2541 -1.7811
 3516SOL    HW222182   0.940   1.204   8.245 -0.1569  0.6595 -0.3982
 3517SOL     OW22183   1.516   0.067   1.147  0.1881 -0.8407  0.6982
 3517SOL    HW122184   1.479   0.123   1.215  2.3479  0.9058  0.4339
 3517SOL    HW222185   1.583   0.022   1.199  1.9101 -0.1912 -0.9546
 3518SOL     OW22186   0.076   2.769   8.406 -0.2509  0.3511  0.4629
 3518SOL    HW122187   0.098   2.765   8.313 -0.7664  0.1362  0.3509
 3518SOL    HW222188   0.074   2.864   8.418 -0.2073  0.2785  1.0707
 3519SOL     OW22189   4.313   1.106   5.287 -0.2755 -0.3566  0.8322
 3519SOL    HW122190   4.336   1.020   5.323  1.5378  1.5698  4.2002
 3519SOL    HW222191   4.242   1.125   5.348 -1.1734  1.0966 -0.6609
 3520SOL     OW22192   2.739   0.878   4.244 -0.2152  0.1831  0.0675
 3520SOL    HW122193   2.828   0.873   4.210  0.1264 -0.2896  1.0425
 3520SOL    HW222194   2.732   0.963   4.286 -0.5664  0.5137 -0.6579
 3521SOL     OW22195   0.031   0.040   7.261 -0.0464 -0.6739 -0.0145
 3521SOL    HW122196   4.684   0.014   7.238  0.0314 -1.8429  0.9958
 3521SOL    HW222197   0.008   0.089   7.339  1.3466 -0.1779  0.0811
 3522SOL     OW22198   0.677   0.184   6.128  0.3532 -0.1416 -0.2590
 3522SOL    HW122199   0.699   0.266   6.172  0.5691 -0.5616  0.4106
 3522SOL    HW222200   0.753   0.135   6.159  0.2567 -0.3757 -0.3976
 3523SOL     OW22201   2.679   2.981  17.725 -0.6603  0.5554  0.3263
 3523SOL    HW122202   2.759   3.003   0.007 -0.5702  0.5937  0.1590
 3523SOL    HW222203   2.644   3.070  17.718  1.3987  1.3615  0.3351
 3524SOL     OW22204   2.166   1.049  11.812 -0.3891  0.3206  0.1729
 3524SOL    HW122205   2.137   0.991  11.742  0.7291 -1.1661  0.9427
 3524SOL    HW222206   2.101   1.035  11.880 -1.2108 -0.6246 -0.8187
 3525SOL     OW22207   1.456   3.556  17.562  0.0956 -0.3817  0.0226
 3525SOL    HW122208   1.500   3.641  17.567 -2.0271  0.7230  0.0396
 3525SOL    HW222209   1.471   3.515  17.648 -2.3226 -0.2946  0.4988
 3526SOL     OW22210   0.976   1.821  12.879  0.2629 -0.2001 -0.2813
 3526SOL    HW122211   0.962   1.877  12.956  0.1535 -0.5174 -0.0700
 3526SOL    HW222212   1.058   1.779  12.904  0.5441 -0.1320 -1.0836
 3527SOL     OW22213   0.211   3.250   2.414 -0.1092 -0.5947 -0.7519
 3527SOL    HW122214   0.219   3.227   2.321  1.4564  0.7420 -0.9396
 3527SOL    HW222215   0.297   3.286   2.434 -0.6024 -0.5484  1.2285
 3528SOL     OW22216   1.658   0.542   1.568 -0.2902 -0.3440 -0.2912
 3528SOL    HW122217   1.569   0.573   1.586 -0.1950 -0.1820 -0.0958
 3528SOL    HW222218   1.658   0.554   1.473 -0.1638  0.6598 -0.1685
 3529SOL     OW22219   2.040   2.919   6.309  0.4065 -0.3352 -0.1413
 3529SOL    HW122220   1.990   2.931   6.228  0.1012  0.5801  0.1778
 3529SOL    HW222221   2.023   2.999   6.359  2.0703  0.7909 -1.3819
 3530SOL     OW22222   0.628   1.111  11.718 -0.0772 -0.2521 -0.2068
 3530SOL    HW122223   0.633   1.041  11.653 -1.1878  0.6186 -1.2426
 3530SOL    HW222224   0.613   1.190  11.665 -0.3343 -0.2275 -0.1008
 3531SOL     OW22225   4.547   2.721  12.601  0.2654  0.8024  0.6507
 3531SOL    HW122226   4.620   2.702  12.542  1.3692  0.0085  2.2814
 3531SOL    HW222227   4.486   2.648  12.594  2.0443 -0.2984 -3.3074
 3532SOL     OW22228   0.425   3.786   4.526  0.9319  0.3228 -0.6178
 3532SOL    HW122229   0.485   3.713   4.540  0.2567 -0.1157  0.0118
 3532SOL    HW222230   0.358   3.769   4.592  0.0700  0.0555 -1.5559
 3533SOL     OW22231   2.969   0.976   7.755 -0.7181  0.1412 -0.5484
 3533SOL    HW122232   2.917   1.057   7.759 -2.0986 -0.7916  0.1650
 3533SOL    HW222233   2.982   0.966   7.660 -0.5568 -1.6591 -0.3328
 3534SOL     OW22234   1.108   2.690   2.331 -0.2937  0.6940  0.9022
 3534SOL    HW122235   1.159   2.771   2.331 -1.7988  1.6433  0.3304
 3534SOL    HW222236   1.103   2.673   2.237 -0.3828  3.1197  0.4642
 3535SOL     OW22237   1.478   0.832   1.841 -0.0753  0.7356 -0.1609
 3535SOL    HW122238   1.436   0.881   1.912  0.0319  1.5488 -0.6655
 3535SOL    HW222239   1.557   0.800   1.885  1.5089  3.6102 -0.9106
 3536SOL     OW22240   4.196   4.621   8.613  0.2407  0.0755 -0.0683
 3536SOL    HW122241   4.278   4.572   8.623 -1.1798 -2.1192  0.8126
 3536SOL    HW222242   4.130   4.566   8.656  0.3062 -1.4055 -1.8840
 3537SOL     OW22243   4.488   1.784   9.149 -0.2948 -0.0119 -0.3848
 3537SOL    HW122244   4.408   1.836   9.143  0.2380  0.8334 -0.0752
 3537SOL    HW222245   4.508   1.792   9.242  0.8642 -0.4997 -0.5895
 3538SOL     OW22246   4.149   4.267   4.970  0.0646  0.9140  0.1447
 3538SOL    HW122247   4.113   4.201   5.029  1.5552 -0.4721 -0.5238
 3538SOL    HW222248   4.087   4.268   4.897 -2.3010  1.9882  2.1777
 3539SOL     OW22249   3.260   3.644   2.565  0.3490  0.4827  0.0811
 3539SOL    HW122250   3.290   3.733   2.546 -1.3411  1.2503  1.1075
 3539SOL    HW222251   3.240   3.613   2.476  0.4285  2.0291 -0.4860
 3540SOL     OW22252   3.977   2.475   7.553 -0.1612  0.2419 -0.0414
 3540SOL    HW122253   3.964   2.386   7.586 -1.3371 -0.5684 -2.7365
 3540SOL    HW222254   4.019   2.445   7.473  1.6878  2.2344  0.1845
 3541SOL     OW22255   2.161   4.026   6.210 -0.6389 -0.4277  0.5372
 3541SOL    HW122256   2.253   4.018   6.187 -0.7751 -2.8514  0.7934
 3541SOL    HW222257   2.127   3.965   6.144 -1.9962  0.0789  0.7678
 3542SOL     OW22258   4.507   2.471   4.633 -0.2729 -0.2609 -0.1159
 3542SOL    HW122259   4.599   2.446   4.627  0.3072  2.1207 -1.2150
 3542SOL    HW222260   4.489   2.497   4.542 -0.3667  1.0266  0.2713
 3543SOL     OW22261   3.736   1.780   3.292  0.1127 -0.3210 -0.0613
 3543SOL    HW122262   3.650   1.778   3.334  0.8953 -2.9504  1.4494
 3543SOL    HW222263   3.726   1.697   3.245  0.2483 -0.6717  0.5197
 3544SOL     OW22264   1.956   3.785  14.447  0.0966 -0.0664 -0.3663
 3544SOL    HW122265   1.908   3.770  14.365 -0.6495  0.5211 -0.0366
 3544SOL    HW222266   1.928   3.876  14.454 -2.5886 -0.8938 -0.1988
 3545SOL     OW22267   0.373   1.978   6.483 -0.1953  0.5005  0.1782
 3545SOL    HW122268   0.403   1.980   6.392 -0.0649  0.7883  0.2260
 3545SOL    HW222269   0.457   1.979   6.529 -0.6022 -1.0688  0.9469
 3546SOL     OW22270   2.161   0.620   3.440 -0.2527 -0.0406  0.0699
 3546SOL    HW122271   2.229   0.640   3.505 -1.1826  0.1907  0.9756
 3546SOL    HW222272   2.191   0.662   3.359  0.1761 -0.3019  0.0935
 3547SOL     OW22273   2.546   2.162  15.352  0.5983  0.1763  0.2678
 3547SOL    HW122274   2.593   2.165  15.269 -1.2464 -0.5231 -0.8206
 3547SOL    HW222275   2.506   2.249  15.353  1.0400  0.4159 -2.8856
 3548SOL     OW22276   1.442   0.481   6.151  0.1673 -0.5833  0.1309
 3548SOL    HW122277   1.486   0.493   6.236  1.5513  2.4881 -1.0004
 3548SOL    HW222278   1.350   0.489   6.177  0.0720 -0.7534 -0.1547
 3549SOL     OW22279   1.564   1.455   8.263 -0.2203 -0.4402  0.0812
 3549SOL    HW122280   1.633   1.426   8.323  0.6765 -2.4851 -1.9094
 3549SOL    HW222281   1.582   1.414   8.178 -2.0188 -0.0280 -0.4958
 3550SOL     OW22282   0.092   0.542   4.398  0.4887  0.1593 -0.3255
 3550SOL    HW122283   0.142   0.595   4.337  2.0748 -1.3085 -0.2951
 3550SOL    HW222284   0.052   0.611   4.452 -3.1164  0.2766 -3.1186
 3551SOL     OW22285   2.268   3.830   3.910 -0.2819  0.5211  0.1676
 3551SOL    HW122286   2.315   3.838   3.993  1.8969 -4.5702 -0.6022
 3551SOL    HW222287   2.247   3.923   3.900 -1.6135  0.3465  1.2634
 3552SOL     OW22288   2.330   4.510  16.526  0.4831  0.3340 -0.0730
 3552SOL    HW122289   2.418   4.515  16.564  0.5113  0.9175 -0.2159
 3552SOL    HW222290   2.279   4.469  16.596  0.6267  1.4126  0.6655
 3553SOL     OW22291   0.242   3.748   2.832  0.0691  0.4451 -0.5781
 3553SOL    HW122292   0.154   3.713   2.842 -0.8089  2.4758 -1.2348
 3553SOL    HW222293   0.268   3.688   2.761  1.3430 -1.2735  1.3466
 3554SOL     OW22294   0.838   2.583   6.331  0.5783 -0.2255 -0.2499
 3554SOL    HW122295   0.838   2.520   6.403 -0.1116  0.5802  0.4543
 3554SOL    HW222296   0.891   2.653   6.367  0.8587 -0.2360 -0.6460
 3555SOL     OW22297   2.319   0.939  13.218 -0.3501  0.0597 -0.2680
 3555SOL    HW122298   2.368   0.922  13.137  1.7361 -0.5497  1.1400
 3555SOL    HW222299   2.377   0.998  13.264 -0.8012  0.7828 -0.6191
 3556SOL     OW22300   4.271   3.936   9.092  0.4319  0.0342  0.1926
 3556SOL    HW122301   4.190   3.930   9.041  0.2610  1.4625  0.2890
 3556SOL    HW222302   4.333   3.976   9.031 -0.3640 -0.9011 -1.2316
 3557SOL     OW22303   2.945   1.754   8.902 -0.2295  0.2205 -0.1796
 3557SOL    HW122304   3.002   1.683   8.932  0.8998  0.9449 -0.6074
 3557SOL    HW222305   2.875   1.718   8.848  1.3891  2.5288 -3.8587
 3558SOL     OW22306   0.089   4.150  12.835 -0.2875 -0.1271  0.3191
 3558SOL    HW122307   0.168   4.095  12.837  0.3350  0.7036 -1.6927
 3558SOL    HW222308   0.045   4.094  12.899  1.0766  0.7065  2.0109
 3559SOL     OW22309   1.856   0.842  13.742 -0.2697 -0.0030 -0.2833
 3559SOL    HW122310   1.832   0.931  13.767 -0.7008  0.3180 -1.8590
 3559SOL    HW222311   1.835   0.833  13.649 -1.7052  0.6384 -0.0116
 3560SOL     OW22312   4.259   1.914   6.379  0.1172  0.4248 -0.2619
 3560SOL    HW122313   4.170   1.884   6.399 -0.4731  1.5292 -1.2125
 3560SOL    HW222314   4.284   1.954   6.462 -2.7094  1.7206 -0.0278
 3561SOL     OW22315   2.534   2.771   2.997 -0.3590  0.0152 -0.7219
 3561SOL    HW122316   2.533   2.786   2.903  1.4249  1.0402 -0.5701
 3561SOL    HW222317   2.568   2.682   3.001  0.9169  0.5510  0.2569
 3562SOL     OW22318   1.046   1.110   4.580  0.4146  0.4387 -0.5000
 3562SOL    HW122319   1.126   1.066   4.552 -0.2644 -1.1788  0.0587
 3562SOL    HW222320   1.076   1.201   4.576 -0.6445  0.7612 -0.8695
 3563SOL     OW22321   3.395   0.177  14.199 -0.5100 -0.0070 -0.6128
 3563SOL    HW122322   3.328   0.130  14.249  0.4810 -1.6363 -0.8306
 3563SOL    HW222323   3.364   0.160  14.110  3.0871 -2.0629 -1.4759
 3564SOL     OW22324   3.252   0.583   9.318 -0.3466 -0.1709 -0.4091
 3564SOL    HW122325   3.209   0.542   9.242  0.0997  0.0961 -0.8036
 3564SOL    HW222326   3.249   0.524   9.394 -2.1766  3.6781  2.4759
 3565SOL     OW22327   2.913   3.409   4.445 -0.2581 -0.2381 -0.2062
 3565SOL    HW122328   2.938   3.496   4.414  1.5981 -0.1711  1.4675
 3565SOL    HW222329   2.996   3.366   4.468  0.5318  2.5087  2.1344
 3566SOL     OW22330   2.926   0.034   5.900  0.1694 -0.5430 -0.8237
 3566SOL    HW122331   3.018   0.011   5.909 -0.0004 -0.7396  0.4474
 3566SOL    HW222332   2.933   0.129   5.898 -1.1808 -0.4496 -1.0228
 3567SOL     OW22333   1.943   4.683   5.781  0.0422  0.2789 -0.4298
 3567SOL    HW122334   1.927   4.731   5.700 -3.0540  0.9266  0.5669
 3567SOL    HW222335   2.002   0.008   5.817  0.6098  0.4059 -1.5803
 3568SOL     OW22336   0.636   0.222  15.993  0.0789 -0.3246 -0.3251
 3568SOL    HW122337   0.554   0.231  16.042 -0.7084 -2.3053 -1.2930
 3568SOL    HW222338   0.698   0.256  16.058  0.7135  0.5157 -1.3575
 3569SOL     OW22339   2.212   2.092   2.758  0.4526  0.0966  0.2792
 3569SOL    HW122340   2.169   2.008   2.775  1.3897 -0.6664 -1.1001
 3569SOL    HW222341   2.159   2.121   2.683  2.3171 -0.2276 -1.1647
 3570SOL     OW22342   2.735   4.719   1.862 -0.3637  0.2473 -0.1519
 3570SOL    HW122343   2.730   0.063   1.904 -1.5602  0.9270 -1.6928
 3570SOL    HW222344   2.779   4.674   1.934  0.6034  1.4696  0.0238
 3571SOL     OW22345   1.276   3.813   8.863 -0.1691  0.0039  0.0652
 3571SOL    HW122346   1.349   3.852   8.815 -1.1654  0.3404 -1.1608
 3571SOL    HW222347   1.329   3.752   8.915 -1.6172 -0.0691  1.4517
 3572SOL     OW22348   3.272   3.135   8.315  0.3227 -0.3410  0.3874
 3572SOL    HW122349   3.365   3.122   8.299  0.7061  0.6223  1.8519
 3572SOL    HW222350   3.277   3.154   8.408  0.7387  0.3200  0.2298
 3573SOL     OW22351   2.878   3.116   5.048  0.4948 -0.2589  0.2884
 3573SOL    HW122352   2.790   3.152   5.037  0.8167 -0.1594 -1.9019
 3573SOL    HW222353   2.868   3.029   5.010  0.4242 -0.1655  0.0941
 3574SOL     OW22354   0.380   4.029   2.456 -0.3155  0.1989  0.2792
 3574SOL    HW122355   0.373   4.005   2.549  0.4399 -1.0626  0.0218
 3574SOL    HW222356   0.433   4.109   2.457 -2.5338  1.6842 -0.7637
 3575SOL     OW22357   1.232   0.486   1.955 -0.4253 -0.2316  0.6210
 3575SOL    HW122358   1.322   0.454   1.949 -0.1329  0.5929  0.5933
 3575SOL    HW222359   1.201   0.463   1.867 -2.0039  2.7135  0.4140
 3576SOL     OW22360   1.145   1.706   8.048  0.1980  0.2554  0.3006
 3576SOL    HW122361   1.201   1.772   8.009  2.0270  0.8328  3.8484
 3576SOL    HW222362   1.100   1.761   8.112  1.7262  1.2001  0.5604
 3577SOL     OW22363   2.993   1.484   7.339  0.0862  0.2350  0.2473
 3577SOL    HW122364   3.037   1.410   7.383  1.2740  0.0393 -1.2649
 3577SOL    HW222365   3.059   1.553   7.341  2.2740 -1.8086 -0.7888
 3578SOL     OW22366   1.904   1.588  12.970 -0.0439 -0.1099  0.5168
 3578SOL    HW122367   1.835   1.565  13.033 -2.3858  0.9872 -1.6381
 3578SOL    HW222368   1.915   1.682  12.978 -0.2309 -0.3927  4.5169
 3579SOL     OW22369   1.001   3.687   6.840 -0.3238  0.1724 -0.2904
 3579SOL    HW122370   0.944   3.686   6.764 -0.9652  2.1838  0.1564
 3579SOL    HW222371   1.074   3.743   6.813 -1.1716  1.3691 -0.1447
 3580SOL     OW22372   2.296   4.539   5.291  0.4605 -0.5019  0.8151
 3580SOL    HW122373   2.365   4.545   5.226  0.2035  0.8055  0.6721
 3580SOL    HW222374   2.294   4.628   5.325 -2.3063 -0.9260  1.7810
 3581SOL     OW22375   0.268   4.376   7.468 -0.5088  0.7266 -0.4217
 3581SOL    HW122376   0.289   4.424   7.388  1.3852 -0.6240 -0.7363
 3581SOL    HW222377   0.313   4.292   7.455 -1.2694  0.2448  0.0668
 3582SOL     OW22378   3.190   2.993   3.345 -0.3019 -0.5936 -0.5485
 3582SOL    HW122379   3.148   2.934   3.407 -0.9447 -1.2649 -1.6244
 3582SOL    HW222380   3.214   2.933   3.274  0.9218 -3.7312  2.5490
 3583SOL     OW22381   0.016   1.724  11.950 -0.4299  0.0461 -0.1288
 3583SOL    HW122382   4.720   1.764  12.028 -1.9874  0.5883 -1.1683
 3583SOL    HW222383   0.027   1.798  11.890  0.9599  0.6137  0.8109
 3584SOL     OW22384   2.716   2.493  15.320 -0.0218  0.5188  0.3134
 3584SOL    HW122385   2.760   2.573  15.292 -0.2290 -0.1169 -1.8198
 3584SOL    HW222386   2.765   2.428  15.271 -0.5790  0.4075 -0.0963
 3585SOL     OW22387   0.511   2.651  10.296  0.0996  0.0880 -0.5492
 3585SOL    HW122388   0.596   2.652  10.341  0.3359 -1.0085 -0.9798
 3585SOL    HW222389   0.456   2.578  10.324  0.3006  0.1992  0.1352
 3586SOL     OW22390   1.578   1.820   4.956  0.0694 -0.4303 -0.2776
 3586SOL    HW122391   1.578   1.810   4.861  1.0681  1.1930 -0.4360
 3586SOL    HW222392   1.491   1.851   4.980 -0.4412 -1.0496 -1.2892
 3587SOL     OW22393   4.150   3.572  13.511  0.4398 -0.2317  0.6008
 3587SOL    HW122394   4.228   3.580  13.455  0.8904 -0.3535  1.2021
 3587SOL    HW222395   4.141   3.666  13.525 -0.8918 -0.3108  0.2189
 3588SOL     OW22396   1.274   3.588   0.677 -0.1245  0.5525  0.0208
 3588SOL    HW122397   1.252   3.640   0.754 -0.7142  2.5073 -1.4694
 3588SOL    HW222398   1.195   3.602   0.625  0.2923 -0.8346 -0.9636
 3589SOL     OW22399   3.983   2.756   5.976  0.0048 -0.0553  0.0974
 3589SOL    HW122400   4.077   2.759   5.959 -0.2195  3.6657 -0.4604
 3589SOL    HW222401   3.983   2.713   6.062  0.2159  1.1917  0.7167
 3590SOL     OW22402   0.117   1.531   1.306  0.3591  0.0005 -0.7685
 3590SOL    HW122403   0.157   1.452   1.271 -1.6591 -0.7696 -1.3518
 3590SOL    HW222404   0.117   1.588   1.228  2.0712 -1.2948 -1.7066
 3591SOL     OW22405   3.920   3.381  14.432 -0.1714 -0.6808  0.5066
 3591SOL    HW122406   3.894   3.471  14.414 -1.6317 -1.2872 -0.4711
 3591SOL    HW222407   4.005   3.367  14.391  0.9141  0.6399  2.3258
 3592SOL     OW22408   2.773   0.380   1.308  0.5757  0.1195  0.3986
 3592SOL    HW122409   2.750   0.288   1.297 -0.8534  0.4316  0.6741
 3592SOL    HW222410   2.737   0.428   1.233 -1.3830 -1.2112  0.4657
 3593SOL     OW22411   4.184   2.564   4.504  0.3899 -0.3163 -0.1397
 3593SOL    HW122412   4.122   2.496   4.478  1.4004 -0.8024 -1.2791
 3593SOL    HW222413   4.152   2.635   4.447  2.5784 -0.0369 -1.0176
 3594SOL     OW22414   3.785   0.290   3.694  0.2409 -0.8786 -0.1446
 3594SOL    HW122415   3.739   0.226   3.639  0.1313 -0.0644 -1.0073
 3594SOL    HW222416   3.870   0.283   3.650 -1.1240 -2.5625 -2.5605
 3595SOL     OW22417   3.289   2.994   6.701  0.7878  0.1395 -0.6385
 3595SOL    HW122418   3.269   2.996   6.794 -0.5726 -1.8674 -0.9079
 3595SOL    HW222419   3.203   2.985   6.661 -0.2720 -0.9471  1.8940
 3596SOL     OW22420   3.347   1.749   7.776 -0.0759 -0.5176  0.0198
 3596SOL    HW122421   3.390   1.796   7.706 -0.4244 -0.0804  0.0983
 3596SOL    HW222422   3.341   1.662   7.736 -0.9808 -0.1848 -0.5749
 3597SOL     OW22423   3.142   2.524   2.879  0.0143 -0.4950 -0.3075
 3597SOL    HW122424   3.236   2.524   2.865  0.2716 -0.7569  1.3942
 3597SOL    HW222425   3.107   2.599   2.832  0.1701 -0.3601 -0.2059
 3598SOL     OW22426   0.791   4.618   9.877 -0.3865  0.1943 -0.0963
 3598SOL    HW122427   0.789   4.641   9.784  0.7142 -1.0190 -0.4415
 3598SOL    HW222428   0.749   4.699   9.904  0.8759  0.3525  1.3906
 3599SOL     OW22429   1.872   1.669   4.006 -0.0818 -0.4280 -0.7522
 3599SOL    HW122430   1.859   1.728   4.081  1.0646  0.7520 -1.4651
 3599SOL    HW222431   1.959   1.645   4.038  0.7918  0.2699 -2.6054
 3600SOL     OW22432   3.586   4.264   3.010 -0.0572 -0.2824  0.0793
 3600SOL    HW122433   3.511   4.251   3.069 -0.9211  0.8152 -0.7886
 3600SOL    HW222434   3.553   4.254   2.921 -0.1440  3.0344 -0.2568
 3601SOL     OW22435   0.422   3.458   7.108  0.2430  0.2409 -0.3291
 3601SOL    HW122436   0.421   3.549   7.139 -1.7197 -0.1996  0.8912
 3601SOL    HW222437   0.355   3.415   7.161  2.1314  0.6192  2.3702
 3602SOL     OW22438   2.251   3.848   7.398  0.4837 -0.1239  0.2233
 3602SOL    HW122439   2.302   3.914   7.350  1.1638 -2.1853 -1.8951
 3602SOL    HW222440   2.319   3.791   7.435  1.0970  1.0506  0.9270
 3603SOL     OW22441   3.496   0.394  13.656 -0.4210  0.3251 -0.1555
 3603SOL    HW122442   3.547   0.429  13.728 -0.7945 -0.1863  0.3530
 3603SOL    HW222443   3.462   0.467  13.605 -0.4013  0.7223  0.4058
 3604SOL     OW22444   4.557   0.508  10.084 -0.4613  0.1908 -0.4106
 3604SOL    HW122445   4.551   0.558  10.165 -1.4954  0.0414 -0.4038
 3604SOL    HW222446   4.623   0.560  10.037  0.3005  0.8352  1.3983
 3605SOL     OW22447   0.394   2.944  17.120  0.5199  0.3585  0.5559
 3605SOL    HW122448   0.335   2.958  17.046 -0.0306  1.0323  1.1199
 3605SOL    HW222449   0.443   3.026  17.123  0.0359  0.6431  0.7139
 3606SOL     OW22450   3.099   0.272   8.233  0.2392 -0.5644 -0.5033
 3606SOL    HW122451   3.083   0.367   8.231 -1.7156 -0.8822  0.5002
 3606SOL    HW222452   3.012   0.236   8.248 -0.2941  2.1138  2.8928
 3607SOL     OW22453   2.578   3.303   6.930  0.5578 -0.1638  0.1546
 3607SOL    HW122454   2.528   3.247   6.870 -0.6961 -0.4114  1.4051
 3607SOL    HW222455   2.592   3.379   6.874  0.8732 -1.1134 -1.0643
 3608SOL     OW22456   1.988   3.699   4.450  0.1774 -0.0903  0.2302
 3608SOL    HW122457   2.038   3.755   4.510 -0.9983 -3.0264  3.9276
 3608SOL    HW222458   2.035   3.618   4.471  1.0365  0.9446  2.3993
 3609SOL     OW22459   2.292   4.449  15.390 -0.0228 -0.1899 -0.3664
 3609SOL    HW122460   2.222   4.504  15.425  0.5014 -1.4440  2.6796
 3609SOL    HW222461   2.361   4.469  15.453 -1.1458  0.1290  0.7636
 3610SOL     OW22462   2.243   3.937   1.917 -0.1923  0.0346  0.7897
 3610SOL    HW122463   2.231   3.854   1.962 -0.6774 -0.3971 -0.1432
 3610SOL    HW222464   2.223   4.007   1.978  1.1198 -1.1522  2.5721
 3611SOL     OW22465   1.956   4.549   7.697 -0.2221 -0.7312 -0.4378
 3611SOL    HW122466   1.966   4.528   7.790  2.1006 -1.1593 -0.8019
 3611SOL    HW222467   1.982   4.466   7.658 -0.9174 -1.6963  1.1580
 3612SOL     OW22468   4.059   4.608  11.002  0.2207 -0.9088 -0.2332
 3612SOL    HW122469   4.020   4.631  10.918 -0.3951  1.9598  0.8546
 3612SOL    HW222470   4.150   4.633  10.988  0.1521 -1.7921 -2.2445
 3613SOL     OW22471   2.175   1.476   3.828 -0.4991  0.3950  0.1003
 3613SOL    HW122472   2.081   1.458   3.823 -0.9175  2.2018  1.6494
 3613SOL    HW222473   2.205   1.443   3.743  0.9988  1.6007  0.1653
 3614SOL     OW22474   1.615   3.894   4.410 -0.1304 -0.2540  0.7474
 3614SOL    HW122475   1.521   3.906   4.394 -0.4384  1.2885  3.6982
 3614SOL    HW222476   1.644   3.834   4.342 -0.5679  1.2407 -0.7702
 3615SOL     OW22477   1.521   4.725  13.743  0.0392  0.6977 -0.2569
 3615SOL    HW122478   1.578   4.651  13.762 -1.0356  0.0420  0.4500
 3615SOL    HW222479   1.587   0.052  13.738 -1.9307  2.7066  1.4188
 3616SOL     OW22480   2.566   4.173   4.953 -0.1929 -0.2516 -0.1936
 3616SOL    HW122481   2.579   4.239   5.020 -0.8712 -0.8396  0.5274
 3616SOL    HW222482   2.603   4.091   4.986  1.9416  1.1947  1.0187
 3617SOL     OW22483   0.732   1.301   4.482 -0.3561  0.3750  0.0875
 3617SOL    HW122484   0.742   1.278   4.389  0.1831 -1.4743  0.5991
 3617SOL    HW222485   0.767   1.389   4.493 -2.2657  1.0279  0.8610
 3618SOL     OW22486   2.573   1.587  12.725 -0.4662 -0.1570 -0.0532
 3618SOL    HW122487   2.545   1.523  12.790  0.9330 -1.5082 -0.7850
 3618SOL    HW222488   2.502   1.650  12.716 -0.2658 -0.2717 -2.3162
 3619SOL     OW22489   2.170   4.476   4.602 -0.3081 -0.0034  0.0440
 3619SOL    HW122490   2.081   4.495   4.572  0.0579  0.6773 -0.6167
 3619SOL    HW222491   2.146   4.440   4.687 -1.1008 -1.8498 -0.9479
 3620SOL     OW22492   3.275   1.014  11.155  0.2360 -0.0581  0.2086
 3620SOL    HW122493   3.208   1.063  11.203  1.1877  1.9501 -0.5253
 3620SOL    HW222494   3.321   0.991  11.236 -1.2090 -0.2470  0.9937
 3621SOL     OW22495   1.655   2.043  17.006 -0.1792  0.1518 -0.0020
 3621SOL    HW122496   1.736   2.087  17.032  0.3755 -0.6446 -0.3827
 3621SOL    HW222497   1.593   2.113  16.988  1.5334  1.3382 -1.2238
 3622SOL     OW22498   3.483   0.850   3.759 -0.2194 -0.0766  0.1035
 3622SOL    HW122499   3.552   0.834   3.695 -1.8154 -0.8205 -1.4406
 3622SOL    HW222500   3.506   0.794   3.833  0.6709 -1.4167 -1.1906
 3623SOL     OW22501   4.281   1.784   5.355 -0.1389  0.2663 -0.6042
 3623SOL    HW122502   4.291   1.843   5.280  0.8471  1.6715  0.6322
 3623SOL    HW222503   4.194   1.806   5.390  1.4830  2.0858  2.3565
 3624SOL     OW22504   2.062   3.726  14.721  0.0670 -0.5101  0.8267
 3624SOL    HW122505   1.970   3.731  14.745  0.2933  0.2856  1.5349
 3624SOL    HW222506   2.061   3.744  14.627  0.5167  0.2076  0.9540
 3625SOL     OW22507   4.722   0.151   8.245 -0.2696  0.0058 -0.6947
 3625SOL    HW122508   4.723   0.155   8.150 -0.0706 -1.5997 -0.7630
 3625SOL    HW222509   0.041   0.079   8.262  0.4383  0.0311 -3.2390
 3626SOL     OW22510   3.603   4.685   8.082  0.4406 -0.5900  0.4334
 3626SOL    HW122511   3.649   4.705   8.164  1.1809  1.1166 -0.4216
 3626SOL    HW222512   3.632   0.008   8.018 -0.7827 -1.0360 -0.5735
 3627SOL     OW22513   4.274   3.171  15.219  0.2848 -0.3464  0.2000
 3627SOL    HW122514   4.300   3.185  15.310 -0.1117 -2.4684  0.6548
 3627SOL    HW222515   4.293   3.258  15.186  1.3714  0.5696  3.2435
 3628SOL     OW22516   1.460   0.799   5.475  0.2770 -0.0871 -0.2433
 3628SOL    HW122517   1.421   0.872   5.523 -0.1249 -1.0346  0.8573
 3628SOL    HW222518   1.552   0.828   5.470 -0.1972  1.8015  1.9077
 3629SOL     OW22519   2.114   4.250   3.681  0.2744  0.2634 -0.9340
 3629SOL    HW122520   2.200   4.275   3.712 -1.0939 -0.9165  3.7546
 3629SOL    HW222521   2.131   4.181   3.617  0.2513  0.3624 -1.0475
 3630SOL     OW22522   4.139   0.086   8.456  0.0581  0.1866  0.2599
 3630SOL    HW122523   4.225   0.101   8.417  0.6880 -1.4302  1.0579
 3630SOL    HW222524   4.152   0.020   8.524 -1.9127  0.1957  0.6314
 3631SOL     OW22525   1.517   3.950   3.696 -0.5441  0.0874  0.5883
 3631SOL    HW122526   1.594   3.919   3.743 -1.0872  0.4616  1.7189
 3631SOL    HW222527   1.552   4.018   3.638 -2.6924 -0.1469 -1.0041
 3632SOL     OW22528   4.122   3.161  12.517 -0.2204 -0.3617 -0.2393
 3632SOL    HW122529   4.178   3.238  12.512  0.0053 -0.7061 -2.9917
 3632SOL    HW222530   4.033   3.194  12.502  0.6134  1.1650 -1.8590
 3633SOL     OW22531   0.724   4.387   3.027  0.0173 -0.0374  0.2372
 3633SOL    HW122532   0.640   4.396   3.073 -0.6869 -1.4343 -0.7621
 3633SOL    HW222533   0.770   4.462   3.064 -3.0534  2.6314 -1.2958
 3634SOL     OW22534   0.447   1.317  13.608  0.0930  0.6047  0.1289
 3634SOL    HW122535   0.413   1.369  13.535 -1.6727  0.3155  0.7485
 3634SOL    HW222536   0.481   1.258  13.541 -1.4752  0.3718 -0.4662
 3635SOL     OW22537   1.802   0.801  13.200  0.7046  0.3450 -0.7321
 3635SOL    HW122538   1.788   0.707  13.189  1.0647  0.0919  0.9616
 3635SOL    HW222539   1.753   0.834  13.125 -1.1191  0.9332  0.7215
 3636SOL     OW22540   1.170   1.323   4.900 -0.7317 -0.0688  0.0755
 3636SOL    HW122541   1.217   1.240   4.910 -0.8827 -0.2136 -0.4340
 3636SOL    HW222542   1.242   1.384   4.915  2.6670 -4.1449  0.5751
 3637SOL     OW22543   4.001   3.637  14.651  0.4905  0.1462 -0.6817
 3637SOL    HW122544   4.082   3.660  14.606  0.6076  0.7787 -0.1476
 3637SOL    HW222545   3.936   3.647  14.582  1.7345  1.8416 -1.6003
 3638SOL     OW22546   2.831   0.149   6.507 -0.0310 -0.6626 -0.5585
 3638SOL    HW122547   2.871   0.227   6.469  0.7676 -0.8474 -0.1001
 3638SOL    HW222548   2.738   0.159   6.490 -0.2853  0.3026  1.4527
 3639SOL     OW22549   1.456   1.842  13.936  0.5033 -0.3535  0.7889
 3639SOL    HW122550   1.486   1.858  14.026 -0.6085 -1.8762  1.4275
 3639SOL    HW222551   1.363   1.823  13.951  0.3560  1.3735  2.0612
 3640SOL     OW22552   4.526   4.110   4.022  0.1607  0.0570 -0.0080
 3640SOL    HW122553   4.511   4.195   4.064 -0.1379  1.8587 -3.8187
 3640SOL    HW222554   4.515   4.056   4.101 -0.7058  0.0475 -0.1376
 3641SOL     OW22555   0.653   1.256   5.376  0.2152  0.3676 -0.9163
 3641SOL    HW122556   0.725   1.208   5.418  0.5808  0.1299 -1.8235
 3641SOL    HW222557   0.697   1.333   5.340 -2.0250  1.7679 -0.6241
 3642SOL     OW22558   1.329   0.965  14.131 -0.4772 -0.5223 -0.0453
 3642SOL    HW122559   1.310   0.943  14.039  4.3382  1.1253 -1.4542
 3642SOL    HW222560   1.423   0.947  14.136 -0.2279  0.6878 -0.4882
 3643SOL     OW22561   0.512   2.066   2.044  0.7334  0.6168  0.6034
 3643SOL    HW122562   0.466   2.130   2.099  1.1915  1.9982 -0.6079
 3643SOL    HW222563   0.446   2.055   1.976  0.0333  1.1431  1.2015
 3644SOL     OW22564   2.014   0.300   7.461  0.3573  0.5456  0.3116
 3644SOL    HW122565   2.076   0.368   7.488 -0.1969  1.6715 -1.2242
 3644SOL    HW222566   1.933   0.348   7.442  0.9544  1.3443 -0.2295
 3645SOL     OW22567   2.964   0.288  10.852 -0.4047  0.0491  0.0178
 3645SOL    HW122568   2.900   0.262  10.919 -2.2028 -0.2614 -1.8175
 3645SOL    HW222569   3.003   0.370  10.881  0.7338 -0.2195 -0.7440
 3646SOL     OW22570   0.153   3.839   4.421  0.3760  0.0816  0.7876
 3646SOL    HW122571   0.226   3.777   4.425 -0.0931 -0.6695 -2.2798
 3646SOL    HW222572   0.162   3.886   4.503  0.2301 -0.7832  1.2977
 3647SOL     OW22573   3.249   4.329   7.824  0.1404  0.2014  0.2627
 3647SOL    HW122574   3.278   4.336   7.733 -1.4659  1.0346 -0.1850
 3647SOL    HW222575   3.326   4.292   7.867  0.5991 -0.0154 -0.7500
 3648SOL     OW22576   1.504   3.332   7.572  0.5287 -0.2057 -0.4796
 3648SOL    HW122577   1.443   3.385   7.520  2.8578 -0.5876 -3.6424
 3648SOL    HW222578   1.486   3.252   7.522  0.1943 -1.0982  1.0776
 3649SOL     OW22579   2.118   2.771   3.964  0.0383  0.0178 -0.2827
 3649SOL    HW122580   2.024   2.785   3.957  0.2128  1.1567 -0.3614
 3649SOL    HW222581   2.127   2.690   3.914 -0.2703 -0.5579  0.5900
 3650SOL     OW22582   1.910   2.407   6.348  0.1673 -0.1064 -0.5787
 3650SOL    HW122583   1.991   2.382   6.392 -0.1452  2.5884  1.5187
 3650SOL    HW222584   1.920   2.354   6.269  2.0428  0.9535 -1.0611
 3651SOL     OW22585   2.603   4.324   4.074 -0.2520 -0.1454  0.8817
 3651SOL    HW122586   2.617   4.334   3.980  0.6773  2.5901  1.3170
 3651SOL    HW222587   2.566   4.409   4.097 -0.1949  0.0490  0.2410
 3652SOL     OW22588   1.060   1.525   4.474  0.0407 -0.3985 -0.0523
 3652SOL    HW122589   1.082   1.460   4.541 -3.7498 -0.5932  0.9887
 3652SOL    HW222590   0.965   1.513   4.477 -0.2723  1.2616 -3.3614
 3653SOL     OW22591   2.119   0.607   8.128  0.6659 -0.1368  0.1834
 3653SOL    HW122592   2.053   0.584   8.063  2.9753  3.2398 -3.3317
 3653SOL    HW222593   2.199   0.582   8.081 -0.6549  0.1581 -2.1785
 3654SOL     OW22594   1.054   4.104   3.768 -0.1080  0.2559  0.3776
 3654SOL    HW122595   1.064   4.171   3.837 -0.8936 -1.4411  2.1345
 3654SOL    HW222596   0.979   4.051   3.794 -0.7291 -0.0060 -2.0242
 3655SOL     OW22597   3.770   4.289  12.522 -0.2677  0.1266 -0.5076
 3655SOL    HW122598   3.711   4.237  12.577  1.2602 -1.7639 -0.6412
 3655SOL    HW222599   3.855   4.259  12.554 -0.6260  0.6280  0.8882
 3656SOL     OW22600   0.356   3.338  17.039 -0.0803 -0.2603 -0.4711
 3656SOL    HW122601   0.315   3.255  17.014 -0.5945  0.5407 -2.2767
 3656SOL    HW222602   0.367   3.385  16.956  2.2230 -2.1908 -1.2472
 3657SOL     OW22603   1.629   0.869   8.212  0.0819 -0.5135  0.1280
 3657SOL    HW122604   1.592   0.956   8.232  1.8600  0.5938 -1.3958
 3657SOL    HW222605   1.558   0.819   8.252 -0.1936 -0.1190  0.1357
 3658SOL     OW22606   3.756   1.158  12.508 -0.2246  0.1363  0.4881
 3658SOL    HW122607   3.767   1.143  12.602  1.7480 -1.3531  0.0274
 3658SOL    HW222608   3.721   1.072  12.484 -0.2356 -0.2849  1.9934
 3659SOL     OW22609   3.134   0.711   6.707 -0.0192 -0.0475 -0.8854
 3659SOL    HW122610   3.113   0.620   6.725  3.9435 -0.7416  0.2398
 3659SOL    HW222611   3.052   0.739   6.665 -2.4508 -2.6299  2.1176
 3660SOL     OW22612   0.928   3.283   9.138  0.6293  0.3281  0.2418
 3660SOL    HW122613   0.881   3.225   9.197 -0.9387  0.5763 -0.7819
 3660SOL    HW222614   1.007   3.303   9.189 -0.4008  1.3480  1.4279
 3661SOL     OW22615   4.251   1.678   3.201  0.0046 -0.3146 -0.1773
 3661SOL    HW122616   4.193   1.683   3.125  1.1029  1.3619 -0.8905
 3661SOL    HW222617   4.290   1.595   3.174  0.6641 -0.0725  0.0512
 3662SOL     OW22618   3.653   3.066   3.832 -0.1645  0.2342 -0.0900
 3662SOL    HW122619   3.587   3.000   3.851 -0.3672  0.9861  1.8288
 3662SOL    HW222620   3.649   3.067   3.736  1.9858 -1.3229 -0.2106
 3663SOL     OW22621   1.028   3.760  14.837 -0.2118  0.5329  0.5892
 3663SOL    HW122622   0.941   3.777  14.802  0.5688 -0.3555 -1.7874
 3663SOL    HW222623   1.074   3.779  14.755  0.5709 -2.1284  0.4293
 3664SOL     OW22624   0.489   0.619  16.725  0.0522  0.1922  0.3154
 3664SOL    HW122625   0.548   0.552  16.690  0.9650  1.7040 -1.0463
 3664SOL    HW222626   0.435   0.635  16.647  0.2377  1.8530  0.5362
 3665SOL     OW22627   3.013   0.572   3.572  0.4714 -0.2709  0.0485
 3665SOL    HW122628   3.069   0.644   3.599 -0.4320  0.4584 -0.0205
 3665SOL    HW222629   3.040   0.516   3.646 -1.1356 -0.7057  0.3089
 3666SOL     OW22630   1.953   1.125  13.159  0.9327  0.0192 -0.1318
 3666SOL    HW122631   1.891   1.197  13.144 -1.0676 -1.7035 -0.1607
 3666SOL    HW222632   1.908   1.054  13.204 -2.2500  2.9510  1.2691
 3667SOL     OW22633   4.182   2.159   0.202  0.4215  0.6588 -1.2943
 3667SOL    HW122634   4.115   2.218   0.167  0.0478  2.1502  1.9512
 3667SOL    HW222635   4.170   2.084   0.143  0.5101 -1.4140  1.3280
 3668SOL     OW22636   4.138   1.595   3.711  0.1950 -0.1072 -0.2953
 3668SOL    HW122637   4.196   1.671   3.706  0.1968 -0.0749  0.1960
 3668SOL    HW222638   4.071   1.613   3.645 -0.3145  0.6003  0.4107
 3669SOL     OW22639   3.148   3.281   8.065 -0.8809 -0.3109 -0.0896
 3669SOL    HW122640   3.061   3.308   8.035 -1.0461  0.3050  0.9581
 3669SOL    HW222641   3.126   3.257   8.155 -1.5579 -1.7381 -0.6326
 3670SOL     OW22642   0.352   4.676   6.298 -0.5457  0.3041  0.9039
 3670SOL    HW122643   0.426   4.698   6.241 -0.0739  0.5664  1.6164
 3670SOL    HW222644   0.323   4.597   6.253 -2.7119  0.4043  2.1198
 3671SOL     OW22645   1.528   3.742  15.945  0.4951  0.8310  0.3180
 3671SOL    HW122646   1.441   3.742  15.984 -0.2224  1.6482 -1.3103
 3671SOL    HW222647   1.584   3.727  16.022  2.0143 -2.3308 -1.4062
 3672SOL     OW22648   3.087   2.267   2.402 -0.1133  0.6142 -0.1162
 3672SOL    HW122649   3.115   2.194   2.347 -3.6622 -0.6384 -0.2167
 3672SOL    HW222650   3.170   2.290   2.445  0.0726 -1.6279  0.7358
 3673SOL     OW22651   1.627   2.045   2.609 -0.2695  0.2536  0.1931
 3673SOL    HW122652   1.593   2.106   2.674 -2.1426  1.6640 -2.1072
 3673SOL    HW222653   1.549   2.023   2.557  0.7411 -1.7767 -0.4788
 3674SOL     OW22654   3.418   2.356  13.887  0.1295 -0.3281 -0.1961
 3674SOL    HW122655   3.514   2.355  13.882  0.1758 -1.2778  0.7537
 3674SOL    HW222656   3.402   2.446  13.860  1.6826  0.4682  1.5966
 3675SOL     OW22657   0.796   4.608  14.362 -0.3514  0.1814  0.1297
 3675SOL    HW122658   0.745   4.671  14.412  1.3194  1.8426 -0.2755
 3675SOL    HW222659   0.856   4.580  14.430 -0.9237 -0.2433  0.4566
 3676SOL     OW22660   3.039   2.151   8.954  0.1348 -0.2929 -0.1517
 3676SOL    HW122661   3.078   2.227   8.997 -1.1008  0.1591  0.1714
 3676SOL    HW222662   2.947   2.160   8.977  0.6321  0.0607  1.7287
 3677SOL     OW22663   2.839   0.991   5.972 -0.3702  0.4950  0.3734
 3677SOL    HW122664   2.886   1.068   5.941 -1.4369  1.0818  0.2140
 3677SOL    HW222665   2.870   0.921   5.915  0.1693  1.5174 -0.6084
 3678SOL     OW22666   2.353   2.572   8.242 -0.1843 -0.1368  0.4745
 3678SOL    HW122667   2.435   2.525   8.256 -1.4092 -2.8958 -1.6151
 3678SOL    HW222668   2.370   2.607   8.154  2.5430  0.0038  1.0551
 3679SOL     OW22669   3.124   3.917   5.214  0.0336 -0.8239 -0.2202
 3679SOL    HW122670   3.194   3.902   5.277 -0.8366 -0.3522  0.8703
 3679SOL    HW222671   3.118   3.837   5.163  1.4031 -1.7148  1.0118
 3680SOL     OW22672   0.055   2.988  13.918  0.1084 -0.1362 -0.6566
 3680SOL    HW122673   0.048   2.969  13.824 -0.1518 -2.8980 -0.0766
 3680SOL    HW222674   0.061   2.903  13.962  0.4210  0.4320  0.3910
 3681SOL     OW22675   0.223   1.533   6.300 -0.0697  0.7623 -0.5479
 3681SOL    HW122676   0.157   1.590   6.262 -0.2352  1.2211  0.4355
 3681SOL    HW222677   0.171   1.452   6.305  0.0120  0.6231 -1.8354
 3682SOL     OW22678   1.178   2.106   6.614  0.2960  0.0136 -0.2966
 3682SOL    HW122679   1.234   2.107   6.692 -0.2953 -2.4457  0.1772
 3682SOL    HW222680   1.223   2.038   6.564  0.1292 -1.3574  1.4095
 3683SOL     OW22681   1.973   0.363  16.886 -0.3578  0.2494  0.7045
 3683SOL    HW122682   1.929   0.291  16.931 -0.3935 -0.6049 -0.7008
 3683SOL    HW222683   2.055   0.351  16.935 -0.2080 -0.6223  0.2512
 3684SOL     OW22684   2.254   3.533   3.926 -0.7831  0.1610 -0.1160
 3684SOL    HW122685   2.229   3.617   3.966  2.3426  0.1139  1.9182
 3684SOL    HW222686   2.283   3.483   4.002  1.1352  1.1785 -0.1718
 3685SOL     OW22687   3.050   4.087   2.371  0.0823 -0.4516 -0.4331
 3685SOL    HW122688   3.043   4.025   2.444 -1.4946 -2.2018 -2.0682
 3685SOL    HW222689   3.144   4.089   2.353 -0.1729  3.0799 -1.3340
 3686SOL     OW22690   0.749   2.346   8.167  0.0302  0.0132  0.1430
 3686SOL    HW122691   0.710   2.339   8.255  1.6191 -0.5480  0.8028
 3686SOL    HW222692   0.716   2.267   8.124 -1.2814  0.7788 -0.2591
 3687SOL     OW22693   1.340   4.450   3.637 -0.8836 -0.4084 -0.8009
 3687SOL    HW122694   1.246   4.457   3.655 -0.8245 -0.9607 -0.2872
 3687SOL    HW222695   1.354   4.355   3.646  0.5397  0.0634  2.0911
 3688SOL     OW22696   0.747   4.652   8.346  0.1442  0.3922 -0.0212
 3688SOL    HW122697   0.698   4.609   8.276 -1.3988 -1.2688  2.0787
 3688SOL    HW222698   0.815   4.702   8.300 -0.6567  0.6363 -0.9546
 3689SOL     OW22699   2.111   2.495   8.073  0.1653 -0.4978  0.0220
 3689SOL    HW122700   2.162   2.501   8.153  2.0787 -1.1916 -1.1450
 3689SOL    HW222701   2.025   2.474   8.110  1.1740 -0.8532  2.1397
 3690SOL     OW22702   3.811   4.486   1.738  0.7676 -0.3154  0.3690
 3690SOL    HW122703   3.806   4.489   1.642  1.3390 -0.3235  0.3383
 3690SOL    HW222704   3.904   4.506   1.740  0.7800 -0.3391  0.1199
 3691SOL     OW22705   3.468   0.208   7.366 -0.2047 -0.0276 -0.0283
 3691SOL    HW122706   3.440   0.267   7.296 -1.8742 -1.2810 -0.4330
 3691SOL    HW222707   3.557   0.237   7.383  0.1861 -1.5481  0.5113
 3692SOL     OW22708   0.691   1.726  10.683  0.4089 -0.0671  0.7149
 3692SOL    HW122709   0.683   1.636  10.713  4.1238  0.0083  1.9504
 3692SOL    HW222710   0.694   1.770  10.768 -0.2214  2.8728 -0.7834
 3693SOL     OW22711   1.951   2.099   4.287  0.1139 -0.8556  0.2702
 3693SOL    HW122712   2.008   2.149   4.229 -0.9579  0.2295  0.1354
 3693SOL    HW222713   1.876   2.159   4.281  0.5644 -0.4231 -1.1124
 3694SOL     OW22714   2.142   2.257   4.172 -0.2602  0.4919 -0.4140
 3694SOL    HW122715   2.171   2.348   4.168  0.5276  0.2598 -0.0120
 3694SOL    HW222716   2.185   2.223   4.094  1.8784 -1.5923  1.6259
 3695SOL     OW22717   2.347   4.631   2.956 -0.0138 -0.2559 -0.1005
 3695SOL    HW122718   2.387   4.641   2.869  1.7147  0.3535  0.7596
 3695SOL    HW222719   2.269   4.685   2.943  1.8578  2.1371 -1.5200
 3696SOL     OW22720   3.677   0.487   7.241 -0.6733 -0.5600 -0.4860
 3696SOL    HW122721   3.679   0.578   7.270  0.9069 -0.6775 -0.2325
 3696SOL    HW222722   3.591   0.482   7.198  0.9640 -4.1900 -3.3618
 3697SOL     OW22723   1.956   0.179   4.534  0.1215 -0.4431  0.1760
 3697SOL    HW122724   1.930   0.196   4.625 -1.8322 -0.4119 -0.4016
 3697SOL    HW222725   2.051   0.183   4.543  0.0774  1.8775 -0.3698
 3698SOL     OW22726   3.835   3.172   3.120  0.3982  0.0708  0.7382
 3698SOL    HW122727   3.746   3.137   3.131 -0.1565  1.8667  1.8869
 3698SOL    HW222728   3.836   3.229   3.044 -1.2076  0.1083  0.7498
 3699SOL     OW22729   4.148   2.402  12.423 -0.8787 -0.6053 -0.5453
 3699SOL    HW122730   4.234   2.400  12.466 -0.5650  0.0490 -1.1501
 3699SOL    HW222731   4.145   2.488  12.382  1.0282 -0.4125 -0.2794
 3700SOL     OW22732   3.935   0.701   3.812  0.1653  0.0695  0.2063
 3700SOL    HW122733   3.891   0.647   3.877 -0.2145  0.5060  0.3148
 3700SOL    HW222734   4.003   0.747   3.860 -0.1673 -0.8520  1.5357
 3701SOL     OW22735   1.007   3.199  11.869  0.7100  0.0366 -0.4273
 3701SOL    HW122736   1.096   3.172  11.847  0.9342 -0.8481  1.5378
 3701SOL    HW222737   0.977   3.118  11.912 -2.4085  2.0538  1.1986
 3702SOL     OW22738   3.689   1.118   9.470  0.8121  0.0668 -0.4664
 3702SOL    HW122739   3.781   1.106   9.447  0.6834 -0.3430 -0.7593
 3702SOL    HW222740   3.659   1.028   9.459  0.5731 -0.1014  1.4986
 3703SOL     OW22741   4.389   1.299   6.560 -0.3545  0.4174  0.0001
 3703SOL    HW122742   4.340   1.362   6.506 -2.4668 -1.3678 -0.1975
 3703SOL    HW222743   4.434   1.351   6.626  2.0778 -0.7605 -0.7595
 3704SOL     OW22744   4.260   1.060  13.080  0.2021 -0.1795 -0.6193
 3704SOL    HW122745   4.203   1.087  13.009  1.4603  2.3919 -0.6735
 3704SOL    HW222746   4.342   1.037  13.036  1.3507 -1.4912  2.1457
 3705SOL     OW22747   1.537   0.434  14.554 -0.5879 -0.3851  0.0226
 3705SOL    HW122748   1.499   0.347  14.561  1.1778 -1.1940 -0.4900
 3705SOL    HW222749   1.622   0.405  14.520  0.7887  2.7834  0.7730
 3706SOL     OW22750   1.919   3.054   3.753  0.4247 -0.2806 -0.3401
 3706SOL    HW122751   1.927   3.084   3.662  0.1362 -0.2875 -0.3650
 3706SOL    HW222752   1.909   2.960   3.738  0.9274 -0.4343  0.2702
 3707SOL     OW22753   4.085   4.035   6.912  0.2349 -0.2056 -0.2602
 3707SOL    HW122754   4.135   3.965   6.869 -0.1384 -0.3026 -0.5362
 3707SOL    HW222755   4.157   4.087   6.947  1.6176 -1.0817 -1.7743
 3708SOL     OW22756   0.936   0.383   6.748  0.5060  0.4041  0.1710
 3708SOL    HW122757   0.945   0.290   6.729 -1.5891  0.2332 -0.0076
 3708SOL    HW222758   0.888   0.374   6.831 -1.3182  1.2849 -0.7787
 3709SOL     OW22759   2.483   2.559   7.418 -0.1058  0.4282 -0.3568
 3709SOL    HW122760   2.578   2.573   7.410 -0.2489  0.9727 -1.1574
 3709SOL    HW222761   2.474   2.466   7.395  0.2656  0.6247 -1.3321
 3710SOL     OW22762   4.686   3.445   4.272 -0.6516 -0.0905  0.0607
 3710SOL    HW122763   4.661   3.525   4.317 -0.3564  0.3188 -0.4905
 3710SOL    HW222764   4.671   3.464   4.179  0.8692 -1.1502 -0.4026
 3711SOL     OW22765   4.465   4.570   6.124 -0.1313 -0.3861 -0.2346
 3711SOL    HW122766   4.557   4.581   6.148 -0.4080 -1.0152  1.1019
 3711SOL    HW222767   4.433   4.515   6.196 -1.1946  1.1584  0.4659
 3712SOL     OW22768   1.731   4.688   5.032 -0.3948 -0.2403  0.5039
 3712SOL    HW122769   1.784   0.025   5.045  1.0822 -0.9082 -1.4040
 3712SOL    HW222770   1.644   4.727   5.035  0.1157  1.0111 -0.9481
 3713SOL     OW22771   1.102   3.074   0.632  0.5678  0.8476 -0.2774
 3713SOL    HW122772   1.166   3.142   0.610  0.4897  1.3600  1.0787
 3713SOL    HW222773   1.084   3.113   0.717  0.9871 -0.5400  0.4498
 3714SOL     OW22774   4.657   2.355   9.367 -0.5030  0.2906  0.1872
 3714SOL    HW122775   4.564   2.336   9.377  0.0141 -2.8848 -0.7672
 3714SOL    HW222776   4.676   2.380   9.458 -0.5452 -0.0832  0.3023
 3715SOL     OW22777   1.599   1.810  16.605  0.1390  0.6928  0.0572
 3715SOL    HW122778   1.578   1.790  16.696  2.6008 -1.4085  0.1363
 3715SOL    HW222779   1.693   1.826  16.613 -0.4154  3.2427  1.4318
 3716SOL     OW22780   1.084   0.354   0.256 -0.5778  0.0918 -0.2165
 3716SOL    HW122781   1.168   0.355   0.302 -0.8105 -2.1661  0.2497
 3716SOL    HW222782   1.037   0.413   0.314  0.3913  0.9500 -0.2937
 3717SOL     OW22783   4.425   0.137  17.120 -0.2324 -0.0721 -0.4289
 3717SOL    HW122784   4.478   0.209  17.083  0.4382  0.4398  1.5428
 3717SOL    HW222785   4.487   0.064  17.117 -1.3589 -1.0898  1.3582
 3718SOL     OW22786   3.237   0.025   0.495  0.0081 -0.4763  0.1769
 3718SOL    HW122787   3.330   0.031   0.470  0.0263  1.9796  0.8281
 3718SOL    HW222788   3.244   0.011   0.589  1.2626  1.2419  0.3375
 3719SOL     OW22789   0.098   2.078   4.764 -0.2736 -0.3134 -0.4915
 3719SOL    HW122790   0.175   2.096   4.710  1.2128  0.7143  1.9626
 3719SOL    HW222791   0.025   2.067   4.704  0.5283  0.5273 -1.6050
 3720SOL     OW22792   1.505   3.452  15.514 -0.0546  0.5079  0.4823
 3720SOL    HW122793   1.442   3.492  15.455  0.1794  3.4021  2.2019
 3720SOL    HW222794   1.531   3.519  15.577  2.5371  0.4341 -0.4805
 3721SOL     OW22795   0.496   2.897  15.397  0.3487 -0.5585  0.7677
 3721SOL    HW122796   0.507   2.927  15.487  4.7627 -0.9600  0.3896
 3721SOL    HW222797   0.487   2.986  15.362 -3.0530 -1.6122 -1.0156
 3722SOL     OW22798   0.605   3.325   7.688  0.5901  0.5399  0.1425
 3722SOL    HW122799   0.685   3.276   7.668 -0.2037 -1.6433  2.2414
 3722SOL    HW222800   0.563   3.260   7.744  1.1177 -1.2142 -1.4727
 3723SOL     OW22801   1.716   4.671   1.292 -0.2272 -0.2496 -0.8381
 3723SOL    HW122802   1.721   0.013   1.337  0.0349 -0.0099 -1.3165
 3723SOL    HW222803   1.808   4.656   1.275  0.1387 -0.2668  1.1215
 3724SOL     OW22804   4.423   4.495  11.051  0.2681 -0.6577 -0.6737
 3724SOL    HW122805   4.396   4.550  10.977  1.3575 -1.0908 -1.4118
 3724SOL    HW222806   4.349   4.459  11.099  0.5475 -1.1141 -0.5775
 3725SOL     OW22807   1.199   1.153   6.799 -0.0450  0.5768  0.2866
 3725SOL    HW122808   1.157   1.237   6.781  0.5294  1.3252  2.4975
 3725SOL    HW222809   1.209   1.157   6.894  3.9714 -0.5788 -0.0635
 3726SOL     OW22810   3.617   3.554   3.116 -0.4388  0.6832 -0.0000
 3726SOL    HW122811   3.563   3.489   3.160  2.4978 -2.1455 -0.5851
 3726SOL    HW222812   3.680   3.585   3.181 -1.5111  1.7524  0.5300
 3727SOL     OW22813   3.979   2.209   8.875 -0.0598  0.4101  0.8012
 3727SOL    HW122814   3.913   2.185   8.809 -2.1975 -0.6534  3.3346
 3727SOL    HW222815   4.028   2.280   8.833  0.8016 -0.0437  1.0701
 3728SOL     OW22816   0.955   0.636   4.497  0.2044  0.4080 -0.0355
 3728SOL    HW122817   1.022   0.585   4.451 -0.5464  0.2257 -0.9263
 3728SOL    HW222818   0.991   0.664   4.581 -0.5088  0.9609  0.0871
 3729SOL     OW22819   1.930   0.914   5.446  0.1382  0.1299  0.0343
 3729SOL    HW122820   1.989   0.931   5.373  0.2867 -0.1018  0.1011
 3729SOL    HW222821   1.983   0.954   5.515 -1.3120  1.4014  0.3945
 3730SOL     OW22822   2.972   2.165   0.320  0.0319  0.3946  0.9313
 3730SOL    HW122823   2.952   2.123   0.236 -0.0454  0.1252  1.0851
 3730SOL    HW222824   2.900   2.228   0.319  0.2009  0.5956  1.4452
 3731SOL     OW22825   4.022   3.898  11.424  0.1551  0.0508 -0.5301
 3731SOL    HW122826   3.983   3.902  11.337 -0.8171  0.4492 -0.0722
 3731SOL    HW222827   4.080   3.823  11.413 -2.3166 -1.7292 -1.2299
 3732SOL     OW22828   2.750   3.733   5.204 -0.2690  0.4938  0.3064
 3732SOL    HW122829   2.806   3.801   5.242 -2.4391  0.7219  3.1295
 3732SOL    HW222830   2.714   3.765   5.121 -0.3334  1.4454  0.7009
 3733SOL     OW22831   0.217   3.715   1.773  0.0398 -0.1865 -0.1659
 3733SOL    HW122832   0.290   3.744   1.827 -2.6934  4.5136  1.0002
 3733SOL    HW222833   0.231   3.748   1.684  0.3484 -1.8946 -0.7497
 3734SOL     OW22834   2.570   3.426  13.254 -0.0145  0.4855 -0.1539
 3734SOL    HW122835   2.647   3.414  13.198 -0.8197 -0.9894 -0.9451
 3734SOL    HW222836   2.532   3.495  13.200  0.5321  0.4936 -0.5296
 3735SOL     OW22837   2.179   0.322   1.601 -0.6580 -0.1780 -0.0532
 3735SOL    HW122838   2.258   0.368   1.572  0.7018 -2.1470  0.4934
 3735SOL    HW222839   2.155   0.378   1.674 -0.6148  0.8086 -0.7999
 3736SOL     OW22840   1.820   0.573   0.767 -0.6926  1.1304 -0.7646
 3736SOL    HW122841   1.791   0.549   0.855  0.1641 -1.1028 -1.0976
 3736SOL    HW222842   1.908   0.610   0.776 -0.3111  0.1385 -0.4761
 3737SOL     OW22843   4.239   0.698   1.926  0.6441  0.5051  0.0931
 3737SOL    HW122844   4.199   0.770   1.974  0.3216  0.0623  0.4875
 3737SOL    HW222845   4.326   0.694   1.965  0.6373 -1.5481 -0.0818
 3738SOL     OW22846   1.293   4.461   7.709  0.1266  0.1236  0.3867
 3738SOL    HW122847   1.374   4.433   7.752 -0.0176  0.2388  0.7329
 3738SOL    HW222848   1.250   4.505   7.782  0.6177  2.6434 -0.8709
 3739SOL     OW22849   3.297   1.379   3.139  0.1747 -0.0472  0.2108
 3739SOL    HW122850   3.241   1.416   3.207  1.9652  1.4509  0.8822
 3739SOL    HW222851   3.363   1.327   3.186  0.0425  0.1152  0.5782
 3740SOL     OW22852   2.260   3.780  14.158  0.2161  0.2473 -0.1316
 3740SOL    HW122853   2.205   3.736  14.094 -1.1241  3.7884 -1.3758
 3740SOL    HW222854   2.343   3.783  14.111  1.2198  0.9877  1.6510
 3741SOL     OW22855   1.036   1.939   9.354  0.3712 -0.4647  0.1997
 3741SOL    HW122856   1.081   1.905   9.431 -1.6993 -0.9940  1.1601
 3741SOL    HW222857   1.066   1.877   9.287 -2.1202 -4.2171  2.5868
 3742SOL     OW22858   0.235   4.480  16.214  0.6240 -0.4747  0.2113
 3742SOL    HW122859   0.245   4.423  16.290 -1.3223 -1.1464 -0.0181
 3742SOL    HW222860   0.142   4.468  16.193  0.7071  0.3859 -0.6277
 3743SOL     OW22861   3.188   1.190  15.792 -0.5574 -0.3043  0.3476
 3743SOL    HW122862   3.115   1.172  15.733 -1.5733  0.2327  1.4490
 3743SOL    HW222863   3.230   1.260  15.741 -0.0263 -1.1797 -0.4104
 3744SOL     OW22864   4.404   1.069   6.189 -0.0121 -0.5274 -0.7588
 3744SOL    HW122865   4.492   1.073   6.151 -0.2816  1.9614 -1.1072
 3744SOL    HW222866   4.376   1.161   6.184 -0.5460 -0.7611 -2.2440
 3745SOL     OW22867   2.703   3.469   3.054 -0.1121  0.1287  0.3321
 3745SOL    HW122868   2.746   3.542   3.099 -0.0405  0.0570  0.3819
 3745SOL    HW222869   2.759   3.401   3.092  0.4725 -0.9289 -2.4896
 3746SOL     OW22870   0.528   1.654   5.612  0.1881 -0.2202  0.2448
 3746SOL    HW122871   0.539   1.559   5.605 -0.4484 -0.2933  0.2424
 3746SOL    HW222872   0.494   1.682   5.527  0.8488  1.3562  0.5018
 3747SOL     OW22873   0.815   0.516   7.911 -0.1528 -0.3173 -0.3453
 3747SOL    HW122874   0.857   0.434   7.882  0.0455  0.0263 -1.0284
 3747SOL    HW222875   0.818   0.508   8.006 -0.2970  0.3020 -0.2898
 3748SOL     OW22876   0.732   2.893   6.416 -0.3620  0.2061  0.2245
 3748SOL    HW122877   0.817   2.854   6.397  0.0412  1.0133  0.3828
 3748SOL    HW222878   0.755   2.974   6.463  0.9389  1.2160 -2.1254
 3749SOL     OW22879   3.493   2.632  12.738 -0.1630 -0.7028  0.4177
 3749SOL    HW122880   3.472   2.715  12.695 -0.4897 -1.7743 -1.4993
 3749SOL    HW222881   3.574   2.656  12.781  0.2033 -0.4139 -0.4380
 3750SOL     OW22882   3.422   0.383   5.691  0.1679 -0.0997  0.5232
 3750SOL    HW122883   3.347   0.389   5.631  0.5788 -2.5789 -0.2364
 3750SOL    HW222884   3.484   0.449   5.660  0.0819  0.2037  0.9964
 3751SOL     OW22885   3.483   2.688  16.783  0.4766  0.3147 -0.5460
 3751SOL    HW122886   3.472   2.614  16.724  0.6209  1.6243 -2.2068
 3751SOL    HW222887   3.394   2.722  16.780  0.8075  1.2144 -0.2402
 3752SOL     OW22888   0.246   2.407   6.045 -0.0467 -0.6782  0.4056
 3752SOL    HW122889   0.261   2.317   6.074 -0.2897 -0.5946  0.7968
 3752SOL    HW222890   0.315   2.458   6.086 -0.1077  0.2760 -0.6647
 3753SOL     OW22891   0.527   2.621   5.315  0.4528 -0.4661  1.1359
 3753SOL    HW122892   0.481   2.540   5.338  0.4582 -0.6798  0.3898
 3753SOL    HW222893   0.496   2.676   5.387 -0.9563 -0.9764  0.9138
 3754SOL     OW22894   4.219   0.127   5.353 -0.3645  0.0735 -0.1032
 3754SOL    HW122895   4.140   0.152   5.305  0.5168  1.8992 -0.6197
 3754SOL    HW222896   4.187   0.127   5.444 -0.4524  0.0987 -0.1341
 3755SOL     OW22897   1.336   3.011   5.895 -0.5896  0.0350  0.0399
 3755SOL    HW122898   1.338   2.919   5.922 -1.4433 -0.0595 -0.2211
 3755SOL    HW222899   1.255   3.036   5.939 -1.2090 -0.4545 -0.8148
 3756SOL     OW22900   2.955   3.929  17.504  1.0397  0.6911 -0.2098
 3756SOL    HW122901   2.885   3.994  17.514  0.9751  0.2888  1.9484
 3756SOL    HW222902   2.971   3.927  17.409 -0.0410 -1.5681 -0.3483
 3757SOL     OW22903   0.480   0.534   8.282 -0.4463  0.4041 -0.1205
 3757SOL    HW122904   0.532   0.613   8.299  0.3263  0.2306 -1.6072
 3757SOL    HW222905   0.391   0.566   8.298 -1.1356 -1.0744 -1.0630
 3758SOL     OW22906   2.006   1.611   4.685  0.3446  0.1593  0.0612
 3758SOL    HW122907   2.017   1.661   4.766  0.4386  2.2844 -1.2551
 3758SOL    HW222908   2.095   1.597   4.653  0.6343 -0.3277  1.0553
 3759SOL     OW22909   2.901   2.115   5.501 -0.6754 -0.5132  0.2689
 3759SOL    HW122910   2.948   2.148   5.425 -1.4084  0.6966  0.3613
 3759SOL    HW222911   2.968   2.076   5.558 -0.1077  2.9629  1.9872
 3760SOL     OW22912   4.523   1.775   7.726  0.0030  0.6243 -0.2916
 3760SOL    HW122913   4.435   1.746   7.703 -0.8011  0.4061  3.1004
 3760SOL    HW222914   4.516   1.799   7.818 -1.1552  1.1900 -0.5312
 3761SOL     OW22915   0.611   2.782  16.829  0.0888  0.4901  0.0572
 3761SOL    HW122916   0.571   2.707  16.873 -1.0622  0.1938 -1.4771
 3761SOL    HW222917   0.704   2.766  16.845 -0.0717  0.7596  1.2371
 3762SOL     OW22918   0.112   0.818   4.589 -0.7009  0.0519  0.5265
 3762SOL    HW122919   0.094   0.909   4.562  0.6894  1.0795  3.0760
 3762SOL    HW222920   0.190   0.835   4.641 -0.7424 -3.6425  1.7492
 3763SOL     OW22921   0.419   2.786   8.943 -0.3526  0.4670  0.0113
 3763SOL    HW122922   0.364   2.848   8.895 -0.2520  0.6037  0.0720
 3763SOL    HW222923   0.469   2.755   8.868 -0.3983  1.7940 -0.5610
 3764SOL     OW22924   1.033   2.349   9.051  0.6280  0.0867 -0.4714
 3764SOL    HW122925   1.023   2.285   9.121  2.3841  2.4954  2.0200
 3764SOL    HW222926   0.940   2.364   9.031  0.7179  1.6614  0.2362
 3765SOL     OW22927   3.513   4.595   5.329 -0.2520  0.2889  0.1419
 3765SOL    HW122928   3.482   4.506   5.313  2.1036 -0.3245 -1.1015
 3765SOL    HW222929   3.592   4.593   5.274 -0.2923 -0.1184  0.1010
 3766SOL     OW22930   3.725   2.502   8.933  0.4075  0.9769  0.2823
 3766SOL    HW122931   3.656   2.502   8.866 -1.0905 -1.9588  1.8375
 3766SOL    HW222932   3.680   2.504   9.017 -0.4048 -1.5726 -0.0948
 3767SOL     OW22933   2.092   2.329   8.765  0.6039  0.7750  0.4545
 3767SOL    HW122934   2.136   2.398   8.815  2.2406  0.1240 -0.0732
 3767SOL    HW222935   2.151   2.317   8.690 -1.7684 -1.7950 -1.0039
 3768SOL     OW22936   2.864   2.951   3.031  0.2834 -0.2667 -0.6434
 3768SOL    HW122937   2.872   2.983   3.121  3.1312 -0.5459 -0.7891
 3768SOL    HW222938   2.784   2.900   3.042  0.0026  0.8806  2.8770
 3769SOL     OW22939   0.993   2.091  10.668  0.0007 -0.0646 -0.4809
 3769SOL    HW122940   1.003   2.182  10.697 -0.2594 -0.4275  0.7625
 3769SOL    HW222941   0.935   2.057  10.736  0.6355  1.3656  0.7937
 3770SOL     OW22942   4.194   2.528   7.071  0.2619  0.6775 -0.2173
 3770SOL    HW122943   4.108   2.570   7.077  0.1664  0.5039 -0.3554
 3770SOL    HW222944   4.232   2.567   6.992  0.2872  2.0504  0.4734
 3771SOL     OW22945   4.178   3.752  11.741  0.0567  0.0140  0.1007
 3771SOL    HW122946   4.151   3.733  11.831  0.3612  1.7267  0.5689
 3771SOL    HW222947   4.267   3.782  11.761  0.3603 -0.4516 -0.5619
 3772SOL     OW22948   0.131   0.067  15.592  0.2065  0.1066  0.5559
 3772SOL    HW122949   0.214   0.021  15.585  0.3071  0.6182 -1.7058
 3772SOL    HW222950   0.070   0.003  15.554  0.1504 -0.4083  1.5215
 3773SOL     OW22951   0.984   4.708   1.646  0.4149 -0.4774  0.1920
 3773SOL    HW122952   0.899   4.675   1.676 -0.1651 -1.2535 -2.3199
 3773SOL    HW222953   1.012   0.004   1.730  0.5263 -1.1849  0.4703
 3774SOL     OW22954   1.034   0.334   6.035 -0.1004  0.6523  0.0731
 3774SOL    HW122955   1.097   0.324   6.106  1.7893 -2.7041 -2.0450
 3774SOL    HW222956   1.039   0.429   6.028  0.6796  0.6088 -0.0157
 3775SOL     OW22957   1.689   2.260  12.188  0.7031  0.6569 -0.5387
 3775SOL    HW122958   1.726   2.315  12.257 -2.4519  0.9652  0.8889
 3775SOL    HW222959   1.663   2.326  12.124 -1.8499  2.0981  2.0142
 3776SOL     OW22960   3.294   0.746  10.785  0.1087  0.4503  0.0794
 3776SOL    HW122961   3.258   0.778  10.702 -0.0193 -1.3244 -0.5715
 3776SOL    HW222962   3.374   0.697  10.765  0.0800  0.2494  0.4612
 3777SOL     OW22963   2.156   1.079   7.429  0.0120 -0.1014  0.5223
 3777SOL    HW122964   2.218   1.038   7.370  0.3021  0.2212  0.6043
 3777SOL    HW222965   2.144   1.011   7.495  0.1898  0.4675  1.1438
 3778SOL     OW22966   2.005   3.430   6.741  0.8066  0.1597 -0.1375
 3778SOL    HW122967   1.968   3.407   6.827  1.6835  0.9730  0.4650
 3778SOL    HW222968   1.996   3.348   6.692 -0.5073 -0.0733  0.4926
 3779SOL     OW22969   0.939   3.799  13.226 -0.6653  0.2444  0.3070
 3779SOL    HW122970   0.930   3.895  13.227  1.4522  0.4462  0.7141
 3779SOL    HW222971   0.850   3.777  13.200 -0.5122  1.3616 -1.1517
 3780SOL     OW22972   0.116   2.795  15.444  0.3027 -0.7516 -0.3860
 3780SOL    HW122973   0.023   2.789  15.465  1.1016 -1.0608  3.1144
 3780SOL    HW222974   0.154   2.811  15.530  1.3448  2.7418 -1.4967
 3781SOL     OW22975   0.957   1.895   3.353  0.1610  0.2933  0.6462
 3781SOL    HW122976   0.988   1.936   3.434 -0.7173 -1.3344  1.8275
 3781SOL    HW222977   1.032   1.875   3.298  1.8131  0.5579  2.8012
 3782SOL     OW22978   2.001   4.506   0.677 -0.1728  0.2935 -0.3486
 3782SOL    HW122979   2.061   4.579   0.693  0.5389 -0.2645 -0.4870
 3782SOL    HW222980   2.060   4.432   0.685  0.7559  1.2578  1.7029
 3783SOL     OW22981   2.630   0.676   9.066  0.2034  0.3431 -1.0583
 3783SOL    HW122982   2.606   0.638   9.151 -0.3302  0.0246 -1.3538
 3783SOL    HW222983   2.540   0.699   9.044 -0.5839  0.1822  2.0543
 3784SOL     OW22984   3.028   0.431   5.329 -0.1261  0.6385  0.5377
 3784SOL    HW122985   2.977   0.370   5.382 -2.7322  1.6713 -0.8143
 3784SOL    HW222986   2.954   0.487   5.306 -1.0303 -1.5225 -1.8554
 3785SOL     OW22987   3.310   1.019   7.604 -0.1356  0.2256  0.3271
 3785SOL    HW122988   3.217   1.000   7.589  0.1690 -1.7809  0.8949
 3785SOL    HW222989   3.338   1.029   7.513 -2.4458 -2.0945 -0.6369
 3786SOL     OW22990   1.976   1.726   2.273 -0.3897 -0.0259  0.2368
 3786SOL    HW122991   2.041   1.790   2.303 -0.3171 -0.6093  1.3085
 3786SOL    HW222992   1.914   1.787   2.234  0.0403 -0.4015 -1.0328
 3787SOL     OW22993   2.983   1.488  15.399  0.2977  0.2211  0.1718
 3787SOL    HW122994   2.971   1.507  15.492 -1.2677 -1.1555  0.2500
 3787SOL    HW222995   2.901   1.523  15.366  0.7761  0.9706 -0.2255
 3788SOL     OW22996   3.555   1.505   2.435  0.1223 -0.6035 -0.7740
 3788SOL    HW122997   3.574   1.421   2.392  2.3367  0.0791 -1.1257
 3788SOL    HW222998   3.469   1.482   2.472  0.3279  0.1330  0.1492
 3789SOL     OW22999   0.801   4.059   4.304 -0.4441 -0.4097 -0.5133
 3789SOL    HW123000   0.735   4.040   4.370 -1.1552 -1.9150 -1.6788
 3789SOL    HW223001   0.770   3.995   4.241  0.0240 -0.4629 -0.6910
 3790SOL     OW23002   3.888   1.068   4.814  0.3083 -0.1027  0.2768
 3790SOL    HW123003   3.842   1.147   4.842  1.5532  0.1815  1.5156
 3790SOL    HW223004   3.815   1.015   4.782  1.5030 -0.6505 -1.5792
 3791SOL     OW23005   2.932   2.218   9.619 -0.0767  0.0440 -0.1784
 3791SOL    HW123006   2.862   2.177   9.569  0.0219 -1.9600  1.3442
 3791SOL    HW223007   2.908   2.208   9.711  0.0026 -1.7219 -0.3581
 3792SOL     OW23008   3.543   0.308   4.659  0.0119 -0.0628 -0.2946
 3792SOL    HW123009   3.509   0.379   4.714 -1.1281  0.9230 -2.2603
 3792SOL    HW223010   3.627   0.341   4.629 -0.9930  1.6692 -1.2077
 3793SOL     OW23011   1.953   3.736   8.188 -0.4321 -0.3489  0.1588
 3793SOL    HW123012   1.986   3.659   8.142 -1.3137 -1.3564  1.2118
 3793SOL    HW223013   1.870   3.753   8.144 -1.2142 -1.3031  1.2834
 3794SOL     OW23014   3.925   4.286  17.757  0.7554 -0.2868  0.5517
 3794SOL    HW123015   3.887   4.346  17.694  2.5497  0.2675 -0.0105
 3794SOL    HW223016   3.877   4.210  17.724  1.8949 -0.9059  0.3090
 3795SOL     OW23017   2.956   2.086   9.296  0.1313 -0.0182  0.0075
 3795SOL    HW123018   2.878   2.088   9.351  1.3712  1.0852  1.7193
 3795SOL    HW223019   2.926   2.152   9.233 -0.1501 -1.4265 -1.3394
 3796SOL     OW23020   4.221   4.258  16.176  0.2873 -0.5174  0.2551
 3796SOL    HW123021   4.226   4.301  16.091 -0.1596  0.4307  0.7122
 3796SOL    HW223022   4.130   4.272  16.201 -0.6828 -0.5768 -3.2037
 3797SOL     OW23023   4.301   3.387   4.590  0.0544 -0.2901 -0.2301
 3797SOL    HW123024   4.382   3.398   4.639  0.2254 -3.2690  0.0981
 3797SOL    HW223025   4.279   3.475   4.557 -1.8470 -0.6756  0.0400
 3798SOL     OW23026   2.247   2.850  11.882  0.5723  0.6010  0.6532
 3798SOL    HW123027   2.272   2.758  11.877 -3.4745 -0.4568 -0.4746
 3798SOL    HW223028   2.309   2.881  11.948  0.6392  0.5031  0.6371
 3799SOL     OW23029   4.022   3.858   7.551 -0.3620 -0.2518  0.6566
 3799SOL    HW123030   4.061   3.943   7.531  3.0430 -1.4945  1.8707
 3799SOL    HW223031   3.984   3.874   7.638  0.6991 -1.6595  1.3783
 3800SOL     OW23032   4.231   4.241   1.648 -0.2536 -0.5631 -0.3858
 3800SOL    HW123033   4.214   4.300   1.721  1.0823 -1.3025  0.5249
 3800SOL    HW223034   4.326   4.250   1.639 -0.2816  0.6424  0.4838
 3801SOL     OW23035   2.375   2.463   2.101  0.0752 -0.5174  0.1822
 3801SOL    HW123036   2.452   2.481   2.047 -0.6858 -1.2194 -1.1362
 3801SOL    HW223037   2.406   2.476   2.191  0.4767 -0.8696  0.0929
 3802SOL     OW23038   1.559   2.052   6.549 -0.5881  0.0563  0.0864
 3802SOL    HW123039   1.629   2.110   6.521 -0.1202 -0.0886  0.9635
 3802SOL    HW223040   1.599   2.028   6.633 -0.7265  1.1278  0.4628
 3803SOL     OW23041   0.905   1.567   7.619 -0.5296 -0.3060  0.3649
 3803SOL    HW123042   0.918   1.631   7.688  1.7253  0.0817 -0.4051
 3803SOL    HW223043   0.882   1.486   7.664 -1.0515  0.8564  2.1661
 3804SOL     OW23044   4.718   3.604  15.423 -0.2567  0.7437 -0.1300
 3804SOL    HW123045   0.056   3.633  15.379  0.4842 -0.4902  0.4205
 3804SOL    HW223046   4.737   3.536  15.487 -0.7688  1.2783  0.5874
 3805SOL     OW23047   0.845   0.765   2.347 -0.4806 -0.2610 -0.3699
 3805SOL    HW123048   0.802   0.778   2.262 -0.9487  0.6158 -0.0021
 3805SOL    HW223049   0.938   0.774   2.328 -1.0237 -1.0709 -3.3504
 3806SOL     OW23050   4.329   1.984   3.164 -0.0994 -0.5033 -0.0572
 3806SOL    HW123051   4.318   1.894   3.195  1.1728 -0.0537  1.6862
 3806SOL    HW223052   4.295   1.967   3.076 -2.6401  2.2140  0.3786
 3807SOL     OW23053   0.937   0.077   6.666  0.1245  0.0466  0.4302
 3807SOL    HW123054   0.867   0.070   6.600  0.8246 -0.5683 -0.2501
 3807SOL    HW223055   0.964   4.727   6.666 -1.5021 -0.4272  0.3629
 3808SOL     OW23056   4.137   4.330   1.906 -0.3259  0.4034 -0.7295
 3808SOL    HW123057   4.218   4.286   1.934  0.7189  1.2964 -2.3591
 3808SOL    HW223058   4.077   4.302   1.975  1.6102 -0.5774  0.5693
 3809SOL     OW23059   4.481   0.610   6.783  0.0509  0.1927 -0.2710
 3809SOL    HW123060   4.542   0.682   6.802 -0.5909  1.0793 -1.5810
 3809SOL    HW223061   4.435   0.645   6.707 -2.5874 -1.9216  0.3658
 3810SOL     OW23062   0.971   0.939   4.161  0.0661  0.1671 -0.2044
 3810SOL    HW123063   1.000   1.026   4.135  2.3530 -0.2232  1.0085
 3810SOL    HW223064   0.876   0.945   4.175  0.2089  0.1224  0.7526
 3811SOL     OW23065   2.540   0.926   5.591 -0.2634 -0.0847 -0.5344
 3811SOL    HW123066   2.454   0.914   5.551  0.3214 -2.7631 -1.0107
 3811SOL    HW223067   2.548   1.020   5.609  0.8352  0.1889 -2.4642
 3812SOL     OW23068   1.336   1.915  16.903 -0.2009 -0.4894  0.8710
 3812SOL    HW123069   1.346   1.908  16.998  0.5459 -1.1663  0.7519
 3812SOL    HW223070   1.259   1.972  16.898 -0.5243 -1.1688 -1.9656
 3813SOL     OW23071   0.466   1.280  12.602 -0.3993 -0.3963 -0.2606
 3813SOL    HW123072   0.430   1.212  12.544 -0.5563 -2.5815  2.4107
 3813SOL    HW223073   0.558   1.254  12.601 -0.0497  0.8289 -0.5710
 3814SOL     OW23074   1.410   1.953  14.676 -0.5327 -0.0903 -0.3868
 3814SOL    HW123075   1.335   2.009  14.693  1.5568  2.3363  0.9731
 3814SOL    HW223076   1.482   2.013  14.699 -1.0444  0.4342 -0.1694
 3815SOL     OW23077   3.717   3.103  13.599  0.4377 -0.7380 -0.1837
 3815SOL    HW123078   3.685   3.117  13.689  0.6926 -1.1531 -0.0283
 3815SOL    HW223079   3.638   3.100  13.546  1.8575 -1.5941 -2.2446
 3816SOL     OW23080   1.485   2.268  15.057  0.0050  0.2813  0.4082
 3816SOL    HW123081   1.401   2.313  15.057 -1.3513 -2.2220  0.7774
 3816SOL    HW223082   1.527   2.333  15.113 -0.4607 -0.7296  1.9285
 3817SOL     OW23083   0.615   4.577   0.807  0.2083 -0.4566  0.1004
 3817SOL    HW123084   0.652   4.663   0.828  0.5735 -1.2144  2.4670
 3817SOL    HW223085   0.702   4.538   0.793 -0.6574 -2.2108 -0.3646
 3818SOL     OW23086   3.427   1.619  14.883  0.4190  0.6829 -0.1169
 3818SOL    HW123087   3.411   1.564  14.806  0.6489  0.4852 -0.0231
 3818SOL    HW223088   3.512   1.640  14.846  1.5275  1.4124  2.8386
 3819SOL     OW23089   1.687   0.172  15.020 -0.2533 -0.2336  0.9668
 3819SOL    HW123090   1.687   0.159  15.115  0.4068 -1.8020  0.7491
 3819SOL    HW223091   1.763   0.229  15.005 -0.6210  0.7946  2.8990
 3820SOL     OW23092   1.933   4.087  14.372 -0.4429  0.7117 -0.2556
 3820SOL    HW123093   1.885   4.169  14.387 -2.5918 -0.1339 -2.3951
 3820SOL    HW223094   1.976   4.107  14.288 -1.9781  0.8355 -1.0210
 3821SOL     OW23095   0.245   0.627   3.111  0.4868 -0.5429 -0.0695
 3821SOL    HW123096   0.281   0.585   3.033 -1.8473 -0.2581 -1.3252
 3821SOL    HW223097   0.261   0.558   3.175  0.0311 -0.2239  0.3915
 3822SOL     OW23098   3.463   2.538   8.393  0.2889  0.4628 -0.3399
 3822SOL    HW123099   3.385   2.491   8.363 -0.3349  1.2841  0.0010
 3822SOL    HW223100   3.516   2.534   8.313  0.9893 -1.9289  0.2382
 3823SOL     OW23101   1.051   2.820   0.589 -0.2333  0.3324  0.3553
 3823SOL    HW123102   1.050   2.816   0.493  1.4860  3.2382  0.2002
 3823SOL    HW223103   1.072   2.913   0.604  1.1453  0.2477 -1.0587
 3824SOL     OW23104   1.594   2.914   4.915  0.3556 -0.1356  0.2636
 3824SOL    HW123105   1.665   2.945   4.858  1.4276 -0.1647  1.5582
 3824SOL    HW223106   1.518   2.897   4.861  0.5861 -0.7138  0.1152
 3825SOL     OW23107   4.445   4.703  17.756 -0.2318 -0.3696  0.1498
 3825SOL    HW123108   4.495   4.622  17.744 -1.8882 -1.5975  1.5132
 3825SOL    HW223109   4.475   4.715   0.080  1.4671  0.9792 -0.6024
 3826SOL     OW23110   1.650   1.763   3.886 -0.0759  0.0821  0.0906
 3826SOL    HW123111   1.730   1.720   3.913 -1.1943 -1.5684  0.7749
 3826SOL    HW223112   1.614   1.770   3.975  0.3703  0.5707  0.2314
 3827SOL     OW23113   0.109   0.288   4.887 -0.3814  0.0078 -0.4401
 3827SOL    HW123114   0.152   0.369   4.861 -0.9157 -0.0296 -1.4474
 3827SOL    HW223115   0.036   0.322   4.939  1.5089  2.3664  0.6651
 3828SOL     OW23116   3.974   2.761   6.500 -0.0708 -0.0180 -0.1707
 3828SOL    HW123117   3.881   2.760   6.479 -0.2536  1.1701  0.5746
 3828SOL    HW223118   4.001   2.693   6.561  1.4461 -0.6741 -1.5512
 3829SOL     OW23119   4.509   1.237   4.543  0.4445 -0.1213 -0.0153
 3829SOL    HW123120   4.545   1.219   4.457  2.1333  0.4303  0.5713
 3829SOL    HW223121   4.582   1.259   4.601  1.2851  0.5529 -1.3334
 3830SOL     OW23122   1.451   3.903   5.652  0.0799 -0.1388 -0.4303
 3830SOL    HW123123   1.513   3.975   5.662 -0.0895  0.0665 -0.8377
 3830SOL    HW223124   1.368   3.941   5.681 -0.4209 -1.4896 -0.1003
 3831SOL     OW23125   4.028   0.618   0.843 -0.6943 -0.5459 -0.1346
 3831SOL    HW123126   4.005   0.542   0.790 -0.6616  0.5683 -1.7419
 3831SOL    HW223127   3.942   0.657   0.853  0.1251  1.4365 -0.8629
 3832SOL     OW23128   1.897   2.906   5.566 -0.2106  0.9659 -0.0669
 3832SOL    HW123129   1.821   2.964   5.565 -0.7769  0.2237  0.7155
 3832SOL    HW223130   1.857   2.820   5.579 -1.6431  2.2241  3.6983
 3833SOL     OW23131   2.041   2.687   4.489  0.0767 -0.3846 -0.8707
 3833SOL    HW123132   2.028   2.738   4.409  1.7908  0.9036 -0.3267
 3833SOL    HW223133   1.992   2.743   4.550  0.0227  0.7363 -1.9500
 3834SOL     OW23134   4.151   4.725   5.949 -0.2486  0.5491  0.1397
 3834SOL    HW123135   4.080   4.669   5.981  1.3878 -0.7957  1.4268
 3834SOL    HW223136   4.100   0.036   5.888  0.5018 -1.0118 -1.8565
 3835SOL     OW23137   0.781   1.963  16.786  0.0806  0.0232 -0.3618
 3835SOL    HW123138   0.850   2.007  16.835  0.0420 -1.1865  0.7543
 3835SOL    HW223139   0.706   2.016  16.813  1.7061  0.8102  2.5701
 3836SOL     OW23140   3.481   3.022   2.342 -0.4918 -0.1007  0.2878
 3836SOL    HW123141   3.433   2.956   2.394  0.4045 -0.9277  0.0598
 3836SOL    HW223142   3.501   2.970   2.264  0.0213 -1.1123  1.0894
 3837SOL     OW23143   3.455   3.737  12.544 -0.1461  0.1191  0.6184
 3837SOL    HW123144   3.531   3.779  12.503  0.3678  0.1824  1.6200
 3837SOL    HW223145   3.403   3.718  12.466 -0.5902 -0.8340  1.1485
 3838SOL     OW23146   1.722   2.962   7.373  0.0694  0.6706 -0.0648
 3838SOL    HW123147   1.707   3.043   7.422  1.3103  0.8149  0.0792
 3838SOL    HW223148   1.659   2.907   7.419  1.1906 -0.2920  0.3160
 3839SOL     OW23149   2.108   0.991   5.249  0.1386 -0.2853  0.0547
 3839SOL    HW123150   2.060   1.059   5.203 -0.5594 -0.0641  1.1018
 3839SOL    HW223151   2.180   0.981   5.187  0.1197  0.1647 -0.0340
 3840SOL     OW23152   2.950   4.117   0.758  0.9144  0.3777 -0.1276
 3840SOL    HW123153   2.995   4.057   0.699 -0.7734 -0.5686 -0.4654
 3840SOL    HW223154   2.931   4.187   0.696  1.7436 -1.0931 -2.0095
 3841SOL     OW23155   3.144   1.499   3.310 -0.8048  0.3213  0.7592
 3841SOL    HW123156   3.109   1.563   3.373  1.0243  1.6682  0.4072
 3841SOL    HW223157   3.076   1.432   3.317 -1.5133  0.6425 -2.7365
 3842SOL     OW23158   4.415   0.944  11.222 -0.3286  0.6971 -0.2862
 3842SOL    HW123159   4.421   1.015  11.159 -0.5051  0.2246 -0.8366
 3842SOL    HW223160   4.324   0.956  11.251 -0.5726  0.0436 -0.7741
 3843SOL     OW23161   1.015   4.714  11.347  0.2420  0.5176 -0.1925
 3843SOL    HW123162   1.092   4.695  11.400  0.4978  4.6707  0.9112
 3843SOL    HW223163   1.032   4.679  11.260  0.3336 -1.2363  0.5302
 3844SOL     OW23164   1.990   3.155   9.136 -0.1532 -0.1315  0.1299
 3844SOL    HW123165   1.934   3.114   9.070 -1.7837  0.9289  0.8529
 3844SOL    HW223166   1.991   3.246   9.108 -1.2637  0.2965  1.4860
 3845SOL     OW23167   0.777   2.646   8.616  0.2446 -0.2701  0.5888
 3845SOL    HW123168   0.858   2.648   8.565 -0.2075 -0.9182 -0.1557
 3845SOL    HW223169   0.738   2.733   8.607 -2.5525 -1.8273 -2.3525
 3846SOL     OW23170   4.614   3.139   2.497 -0.3165 -0.2689  0.0078
 3846SOL    HW123171   4.541   3.093   2.539  0.2537 -1.5366 -0.3973
 3846SOL    HW223172   4.655   3.069   2.447 -0.9310 -1.2186  0.8219
 3847SOL     OW23173   0.687   3.245  10.273 -0.3243 -0.5062 -0.7872
 3847SOL    HW123174   0.757   3.183  10.296  0.6376  0.5530 -0.8316
 3847SOL    HW223175   0.701   3.253  10.179  1.5288  2.6322 -0.2395
 3848SOL     OW23176   0.825   2.401  16.934  0.0547  0.4753  0.8452
 3848SOL    HW123177   0.732   2.384  16.942  1.1641 -2.6666  6.4475
 3848SOL    HW223178   0.870   2.329  16.977 -0.4227  0.5723  1.4923
 3849SOL     OW23179   0.196   2.820  16.811 -0.4441  0.0584 -0.5673
 3849SOL    HW123180   0.112   2.792  16.773 -0.8854 -3.4567  3.0732
 3849SOL    HW223181   0.176   2.908  16.844  2.1692 -0.2877  1.8935
 3850SOL     OW23182   1.122   4.117  15.205 -0.3632  0.7287  0.2443
 3850SOL    HW123183   1.157   4.192  15.158 -0.1369 -0.1480 -0.9829
 3850SOL    HW223184   1.043   4.092  15.157 -0.5955  1.2391  0.3682
 3851SOL     OW23185   1.384   3.087   9.720  0.6558 -1.1684  0.3145
 3851SOL    HW123186   1.290   3.069   9.724  0.6014 -1.0994 -0.6533
 3851SOL    HW223187   1.415   3.017   9.777  1.2442 -1.1202  0.0616
 3852SOL     OW23188   0.232   0.921   3.245  0.1060 -0.3636  0.5707
 3852SOL    HW123189   0.306   0.962   3.199 -0.9780 -1.0343 -1.8048
 3852SOL    HW223190   0.233   0.831   3.213  1.7785  0.1459 -0.8626
 3853SOL     OW23191   4.312   2.936   2.288 -0.2432  0.3403  0.7329
 3853SOL    HW123192   4.406   2.922   2.300 -0.1524  1.8541  1.8774
 3853SOL    HW223193   4.298   3.031   2.288  1.1733  0.5438 -0.4740
 3854SOL     OW23194   3.159   1.784   7.480 -0.3333 -0.5207  0.1545
 3854SOL    HW123195   3.115   1.866   7.502 -1.6594 -1.5121  1.2097
 3854SOL    HW223196   3.160   1.741   7.566  2.1681  0.8657  0.8404
 3855SOL     OW23197   1.690   0.281   5.844  0.0767 -0.2546  0.1057
 3855SOL    HW123198   1.713   0.247   5.757 -2.5815  1.7567 -1.3742
 3855SOL    HW223199   1.689   0.374   5.823 -0.2989  0.2836  2.5869
 3856SOL     OW23200   0.313   2.162  13.528  0.4210 -0.1925  0.3050
 3856SOL    HW123201   0.343   2.141  13.617 -1.3458  1.5425  1.3045
 3856SOL    HW223202   0.246   2.224  13.557  1.3050  0.0369  1.8830
 3857SOL     OW23203   1.335   3.396   2.965  0.2369 -0.1238  0.1518
 3857SOL    HW123204   1.266   3.435   3.018 -1.0537 -4.5172  1.6837
 3857SOL    HW223205   1.412   3.425   3.013  0.2446  1.5740 -0.8603
 3858SOL     OW23206   3.729   2.796   5.100 -0.3857 -0.1884  0.4304
 3858SOL    HW123207   3.687   2.856   5.163  2.3234  0.5171  1.5503
 3858SOL    HW223208   3.811   2.785   5.148  0.1178 -0.9176 -0.6088
 3859SOL     OW23209   4.270   4.059   2.972  0.4051  0.7386 -0.2290
 3859SOL    HW123210   4.350   4.111   2.961  0.8064  0.5346  1.7121
 3859SOL    HW223211   4.206   4.130   2.973 -0.5514 -0.1312 -0.2970
 3860SOL     OW23212   0.128   2.695   0.301  0.0385 -0.1460 -0.0660
 3860SOL    HW123213   0.059   2.682   0.366 -1.4038 -0.0916 -1.5790
 3860SOL    HW223214   0.180   2.620   0.329  0.4679 -0.2167 -1.0482
 3861SOL     OW23215   0.565   3.041  16.835  0.3923  0.4360 -0.0519
 3861SOL    HW123216   0.657   3.060  16.850  0.9351 -3.0824  1.0265
 3861SOL    HW223217   0.567   2.947  16.816  1.2297 -0.1723  3.1282
 3862SOL     OW23218   0.247   1.904   4.413  0.2474  0.0871 -0.3518
 3862SOL    HW123219   0.200   1.856   4.481  0.3447  0.2179 -0.1900
 3862SOL    HW223220   0.308   1.956   4.466  0.7304 -2.0205  1.1646
 3863SOL     OW23221   2.305   0.733  16.729  0.0276 -0.8214  0.3429
 3863SOL    HW123222   2.358   0.662  16.695  2.3588  0.1741  1.8763
 3863SOL    HW223223   2.349   0.811  16.695 -1.6951  0.4087  0.9356
 3864SOL     OW23224   4.712   1.237   8.716 -0.3397  0.4731  0.0882
 3864SOL    HW123225   4.659   1.170   8.760 -0.1115  0.3320  0.1489
 3864SOL    HW223226   4.738   1.283   8.796  2.4257  1.2008 -1.2498
 3865SOL     OW23227   0.539   3.185   3.187 -0.3798 -0.3690 -0.1699
 3865SOL    HW123228   0.580   3.099   3.201  0.9901  0.1119 -1.1985
 3865SOL    HW223229   0.445   3.168   3.178 -0.7868  1.6522  0.4070
 3866SOL     OW23230   3.806   0.217   4.328  0.3179 -0.5830  0.2312
 3866SOL    HW123231   3.889   0.236   4.283  0.0351  1.9777  0.7934
 3866SOL    HW223232   3.820   0.253   4.416  0.3626  2.6851 -1.1108
 3867SOL     OW23233   2.139   0.825   6.571 -0.3653  0.4360 -0.1532
 3867SOL    HW123234   2.049   0.849   6.591 -1.0678 -2.1239 -0.2465
 3867SOL    HW223235   2.176   0.837   6.658 -2.0043 -1.0029  0.7311
 3868SOL     OW23236   3.008   1.119   5.173 -0.1657  0.6949  0.2625
 3868SOL    HW123237   2.937   1.117   5.108 -1.7685  1.1017  2.0058
 3868SOL    HW223238   2.968   1.057   5.234  1.5779 -0.2180  0.4636
 3869SOL     OW23239   4.488   2.971  12.497 -0.6801 -0.2530  0.8165
 3869SOL    HW123240   4.561   2.975  12.435  1.0458 -0.9237  2.8073
 3869SOL    HW223241   4.500   2.895  12.554  0.8808 -0.4666  0.2103
 3870SOL     OW23242   2.645   2.675  17.408 -0.1760 -0.1232  0.2118
 3870SOL    HW123243   2.724   2.700  17.360  0.0292 -2.0116 -0.4350
 3870SOL    HW223244   2.642   2.580  17.400 -0.2202 -0.1567  0.6496
 3871SOL     OW23245   0.187   3.968   9.170  0.3803 -0.0220  0.1198
 3871SOL    HW123246   0.200   4.041   9.109 -1.6216 -0.3961 -0.7696
 3871SOL    HW223247   0.121   3.916   9.123 -1.5138  0.5626  2.1113
 3872SOL     OW23248   1.868   3.503   6.318  0.4593 -0.7033 -0.5513
 3872SOL    HW123249   1.802   3.470   6.380  1.3832  1.1396  1.4130
 3872SOL    HW223250   1.908   3.579   6.361  0.5403  0.1893 -2.2205
 3873SOL     OW23251   0.310   4.020   1.384 -0.1177 -0.2357  0.2357
 3873SOL    HW123252   0.370   4.092   1.367 -1.6877  1.1510  0.5613
 3873SOL    HW223253   0.376   3.953   1.404 -0.7179 -1.3166 -1.4201
 3874SOL     OW23254   2.467   0.601   4.358 -0.4613  0.3610  0.1590
 3874SOL    HW123255   2.422   0.550   4.291  0.0549  1.2424 -0.8666
 3874SOL    HW223256   2.449   0.691   4.328  0.4669  0.4649 -0.1149
 3875SOL     OW23257   4.569   4.126   2.499  0.3732 -0.2379 -0.3799
 3875SOL    HW123258   4.510   4.051   2.511 -1.9096  1.5735 -0.3247
 3875SOL    HW223259   4.508   4.200   2.502  1.1153  0.3427  0.2120
 3876SOL     OW23260   3.270   2.127   6.894 -0.4538 -0.3904  0.0747
 3876SOL    HW123261   3.290   2.132   6.800  1.1488 -0.8320  0.3808
 3876SOL    HW223262   3.359   2.095   6.908 -0.5256 -0.5915  0.0602
 3877SOL     OW23263   2.191   0.343   5.124  0.3808 -0.0025  0.4886
 3877SOL    HW123264   2.205   0.419   5.180  0.6183  1.3851 -1.4443
 3877SOL    HW223265   2.193   0.273   5.189  0.9072  1.7305  2.3376
 3878SOL     OW23266   2.478   0.955   3.615  0.0767 -0.4328  0.2101
 3878SOL    HW123267   2.510   0.968   3.704 -0.4565  1.1146  0.1757
 3878SOL    HW223268   2.552   0.994   3.568  0.4610  1.5519  2.4814
 3879SOL     OW23269   4.468   0.642   5.043 -0.2413 -0.0218  0.1517
 3879SOL    HW123270   4.506   0.555   5.030  1.1253  0.6060 -0.0386
 3879SOL    HW223271   4.503   0.673   5.127  0.1215 -0.1467  0.0463
 3880SOL     OW23272   3.061   4.362   6.711 -0.2327  0.2364  0.1244
 3880SOL    HW123273   3.111   4.359   6.792  1.2100 -2.4019 -0.8699
 3880SOL    HW223274   2.996   4.291   6.718 -1.7172  1.7725  1.8492
 3881SOL     OW23275   2.211   4.423  11.259  0.0728  0.2940 -0.0993
 3881SOL    HW123276   2.240   4.334  11.239  0.0342  0.2818 -0.1012
 3881SOL    HW223277   2.174   4.447  11.175  1.8430  3.1710 -0.0452
 3882SOL     OW23278   0.980   1.221  14.254  0.7439 -0.1908 -0.6649
 3882SOL    HW123279   1.071   1.203  14.277  1.2481  0.7586 -1.8926
 3882SOL    HW223280   0.970   1.146  14.196 -2.4759  0.9604 -1.6038
 3883SOL     OW23281   3.071   3.801   4.848 -0.0710 -0.2224 -0.2544
 3883SOL    HW123282   3.027   3.783   4.931  1.1093  0.6933  0.5627
 3883SOL    HW223283   3.159   3.798   4.884 -0.5958  0.1946  1.0706
 3884SOL     OW23284   4.546   2.465  14.832 -0.4271  0.3114  0.0396
 3884SOL    HW123285   4.620   2.517  14.799 -0.0087  0.2054  0.8005
 3884SOL    HW223286   4.470   2.519  14.809 -0.2651  0.8475  0.7517
 3885SOL     OW23287   1.634   3.846  14.048  0.2341  0.5859 -0.2105
 3885SOL    HW123288   1.665   3.866  13.960  1.1391  0.6385  0.1192
 3885SOL    HW223289   1.539   3.862  14.041 -0.0363 -0.9654 -0.0915
 3886SOL     OW23290   0.769   4.438   6.309 -0.1918  0.2021  0.4454
 3886SOL    HW123291   0.836   4.375   6.281  2.1835  2.7259  0.3963
 3886SOL    HW223292   0.815   4.518   6.283  0.0755  0.5232  1.8774
 3887SOL     OW23293   4.148   1.379   1.835  0.0032  0.2055 -0.0891
 3887SOL    HW123294   4.130   1.376   1.741 -1.2886  0.9954  0.1306
 3887SOL    HW223295   4.074   1.430   1.869 -1.0586  0.9647 -3.5603
 3888SOL     OW23296   0.084   2.003   6.689  0.0969  0.3828 -0.3662
 3888SOL    HW123297   0.118   2.092   6.677  3.0636 -0.4718  1.5366
 3888SOL    HW223298   0.047   1.989   6.602 -0.5754  2.3721 -0.4037
 3889SOL     OW23299   2.061   3.167  13.248  0.1921 -0.0499  0.1099
 3889SOL    HW123300   2.150   3.203  13.255  0.4207  0.2245 -3.8431
 3889SOL    HW223301   2.089   3.076  13.256 -2.5330 -1.0533 -1.6943
 3890SOL     OW23302   2.841   3.147   6.987  0.0930 -0.3308  0.0666
 3890SOL    HW123303   2.762   3.183   6.947  0.4403 -1.2381 -1.3952
 3890SOL    HW223304   2.882   3.092   6.921 -1.1018 -1.6487  0.4262
 3891SOL     OW23305   0.359   0.732   6.361  0.0984 -0.3064  0.0731
 3891SOL    HW123306   0.287   0.708   6.303 -1.8383  0.7596  2.0225
 3891SOL    HW223307   0.345   0.667   6.429  0.2661 -2.1572 -1.6789
 3892SOL     OW23308   0.599   1.426   7.496  1.0240  0.6239  0.5674
 3892SOL    HW123309   0.685   1.436   7.536  1.4204 -0.9951  0.1239
 3892SOL    HW223310   0.591   1.331   7.507 -1.3504  0.6752 -0.6186
 3893SOL     OW23311   2.722   3.379   2.737  0.0093  0.1574  0.0293
 3893SOL    HW123312   2.753   3.469   2.725  0.4780  0.0773  0.6692
 3893SOL    HW223313   2.631   3.382   2.705  0.1130 -0.7909 -0.3412
 3894SOL     OW23314   0.740   2.543   3.307  0.2945  0.4815 -0.1725
 3894SOL    HW123315   0.729   2.452   3.281  2.0085  1.2674 -3.6862
 3894SOL    HW223316   0.796   2.581   3.240  1.8736  0.4328  1.1383
 3895SOL     OW23317   3.159   1.049   1.027  0.0278 -0.1960 -0.4059
 3895SOL    HW123318   3.216   0.988   0.980 -0.4046  0.9891 -2.4767
 3895SOL    HW223319   3.104   1.088   0.960 -2.0104 -0.7284  0.9421
 3896SOL     OW23320   1.094   4.193  15.724  0.0338  0.5212 -0.0694
 3896SOL    HW123321   1.118   4.162  15.637  1.3686 -3.6966  1.7797
 3896SOL    HW223322   1.177   4.187  15.771  0.0217 -0.9977 -0.2407
 3897SOL     OW23323   1.947   2.704   8.334 -0.0946  0.2536  0.1821
 3897SOL    HW123324   2.035   2.724   8.365 -0.1989  0.3069  0.4406
 3897SOL    HW223325   1.928   2.794   8.310  0.9892  0.2768 -0.6058
 3898SOL     OW23326   4.150   0.686   6.857 -0.3347 -0.0739  0.2066
 3898SOL    HW123327   4.097   0.606   6.865 -0.6374 -0.0268 -1.2347
 3898SOL    HW223328   4.181   0.683   6.766  1.4784  0.5041  0.8080
 3899SOL     OW23329   4.727   4.238   3.160 -0.0621  0.6899  0.4077
 3899SOL    HW123330   4.734   4.144   3.173  0.6842  0.8419  1.0504
 3899SOL    HW223331   0.017   4.270   3.244  1.4931  0.1468  0.0217
 3900SOL     OW23332   2.509   3.551  12.187 -0.2129  0.1634  0.2653
 3900SOL    HW123333   2.509   3.580  12.096 -0.0825  0.8564  0.4867
 3900SOL    HW223334   2.458   3.626  12.218 -1.9294 -1.3024  0.9954
 3901SOL     OW23335   0.592   1.074  12.757  0.3552 -0.4252 -0.1899
 3901SOL    HW123336   0.680   1.060  12.722  1.3592  0.8096  1.8131
 3901SOL    HW223337   0.548   1.013  12.698 -2.0152  0.8277  0.2859
 3902SOL     OW23338   2.905   4.395   7.595 -0.8687 -0.5153 -0.2577
 3902SOL    HW123339   2.950   4.463   7.646 -0.7491 -1.9589  1.5771
 3902SOL    HW223340   2.813   4.419   7.607 -1.0263 -1.1142 -0.2853
 3903SOL     OW23341   0.475   2.420   2.699  0.3796 -0.0067  0.4258
 3903SOL    HW123342   0.382   2.432   2.720  0.6366  1.5938  0.5995
 3903SOL    HW223343   0.489   2.495   2.641  1.0799  0.9784  1.8684
 3904SOL     OW23344   3.257   0.245   6.375 -0.0749 -0.2137 -0.6186
 3904SOL    HW123345   3.336   0.200   6.344  0.7318  1.4515 -0.9564
 3904SOL    HW223346   3.274   0.331   6.338 -0.8209  0.2032  0.0148
 3905SOL     OW23347   0.290   1.843   7.464  0.2961 -0.3539 -0.1755
 3905SOL    HW123348   0.300   1.845   7.369 -3.2575  0.4291 -0.5257
 3905SOL    HW223349   0.292   1.748   7.478 -1.6136 -0.6037 -1.6859
 3906SOL     OW23350   1.011   2.363   2.081  0.6149 -0.3046 -0.4195
 3906SOL    HW123351   0.923   2.327   2.074  0.9554 -1.0571 -0.7490
 3906SOL    HW223352   1.035   2.339   2.171  2.5593 -0.9605 -1.1186
 3907SOL     OW23353   1.435   4.042   4.663 -0.0044 -0.6008 -0.3308
 3907SOL    HW123354   1.525   4.016   4.684  0.3351  2.3539  1.9509
 3907SOL    HW223355   1.441   4.107   4.593 -2.2935  0.5559  0.5111
 3908SOL     OW23356   2.761   2.932   4.446  0.2930 -0.4296 -0.2413
 3908SOL    HW123357   2.762   2.837   4.458  0.6360 -0.2771  0.9580
 3908SOL    HW223358   2.712   2.951   4.526  2.0519  2.0450  0.2390
 3909SOL     OW23359   3.758   1.864   6.921 -0.5419  0.4493  0.3860
 3909SOL    HW123360   3.671   1.831   6.901  0.0225 -1.7942  1.5896
 3909SOL    HW223361   3.787   1.796   6.982 -0.5853 -1.3891 -1.6748
 3910SOL     OW23362   4.677   3.376   3.122 -0.1352  0.3330 -0.0353
 3910SOL    HW123363   4.595   3.338   3.091  1.1589 -1.1534 -1.6508
 3910SOL    HW223364   4.665   3.469   3.139 -1.6601  0.3956 -1.4733
 3911SOL     OW23365   3.483   3.494   7.333  0.1600 -0.7153  0.5533
 3911SOL    HW123366   3.541   3.561   7.366 -1.1743  1.7550 -2.1182
 3911SOL    HW223367   3.553   3.433   7.309 -0.6794 -1.6380  0.4250
 3912SOL     OW23368   3.403   3.503   1.248  0.3139 -0.0233  0.2341
 3912SOL    HW123369   3.460   3.550   1.309  0.3959 -0.0836  0.2028
 3912SOL    HW223370   3.325   3.558   1.247 -0.5741 -1.2403  1.9920
 3913SOL     OW23371   3.340   1.527   6.564 -0.2532  0.3156  0.5233
 3913SOL    HW123372   3.414   1.545   6.506  0.3021  1.0513  1.4744
 3913SOL    HW223373   3.261   1.541   6.512  1.1056  2.0942 -1.0820
 3914SOL     OW23374   0.736   3.844   4.935  0.0446  0.4215  0.4496
 3914SOL    HW123375   0.790   3.809   4.865  1.7648  0.0559  1.9723
 3914SOL    HW223376   0.669   3.776   4.938  0.1794  0.2325 -1.0094
 3915SOL     OW23377   2.175   2.556   3.404 -0.5219  0.3287 -0.1214
 3915SOL    HW123378   2.173   2.626   3.339 -1.4313 -2.4175 -3.0246
 3915SOL    HW223379   2.261   2.577   3.443  0.5800 -1.2587 -1.6795
 3916SOL     OW23380   1.941   4.226  14.698  0.7137  0.8208 -0.1089
 3916SOL    HW123381   2.025   4.266  14.719  0.8707 -0.5250  1.9047
 3916SOL    HW223382   1.943   4.159  14.766 -2.9159  1.2989  0.4546
 3917SOL     OW23383   1.103   2.133   5.171 -0.1372  0.3334  0.4180
 3917SOL    HW123384   1.060   2.112   5.254  0.8630 -1.3060  0.5366
 3917SOL    HW223385   1.121   2.227   5.164  1.6779  0.0291  0.9512
 3918SOL     OW23386   0.330   1.596   4.671 -0.3151 -0.2913  0.2812
 3918SOL    HW123387   0.419   1.560   4.675 -1.6230 -3.8749 -2.3142
 3918SOL    HW223388   0.291   1.526   4.619  1.4487  0.4705 -2.1026
 3919SOL     OW23389   1.499   4.208   4.017 -0.2299  0.1109  0.2102
 3919SOL    HW123390   1.565   4.212   3.948 -0.1907 -1.6876  0.1418
 3919SOL    HW223391   1.477   4.115   4.011 -0.3051  0.0041  1.9981
 3920SOL     OW23392   4.606   2.488   8.167 -0.1943 -0.0180 -0.1702
 3920SOL    HW123393   4.640   2.535   8.090 -0.6754  1.1391  0.3127
 3920SOL    HW223394   4.683   2.455   8.213 -0.2543 -2.7346 -2.0649
 3921SOL     OW23395   2.630   1.989  13.565  0.7647 -0.3759  0.6052
 3921SOL    HW123396   2.595   2.077  13.574 -0.5693 -1.2356  3.7558
 3921SOL    HW223397   2.563   1.941  13.613  1.3200  0.0716  1.8167
 3922SOL     OW23398   0.056   0.731   0.954  0.3733 -0.2335 -0.4171
 3922SOL    HW123399   0.042   0.746   0.860 -1.1931  0.4929 -0.0769
 3922SOL    HW223400   0.098   0.645   0.949 -1.9576 -1.3072 -2.1304
 3923SOL     OW23401   3.334   2.086  12.100  0.1791 -0.0758  0.2254
 3923SOL    HW123402   3.337   2.177  12.129  2.6530 -0.5578  1.4736
 3923SOL    HW223403   3.267   2.037  12.147  0.4300 -0.8432 -0.2204
 3924SOL     OW23404   0.688   4.651  15.068 -0.9163  0.6599 -0.0148
 3924SOL    HW123405   0.773   4.611  15.083 -0.6969  0.7267 -1.0612
 3924SOL    HW223406   0.729   4.737  15.081  0.4858  0.0489 -0.3700
 3925SOL     OW23407   4.473   1.229   1.704 -0.1031  0.4978 -0.0968
 3925SOL    HW123408   4.416   1.252   1.630 -1.5300  0.6062  1.0312
 3925SOL    HW223409   4.417   1.166   1.749  1.0999  0.2896  1.0766
 3926SOL     OW23410   0.632   4.094   2.935  0.1474  0.2589 -0.9087
 3926SOL    HW123411   0.661   4.048   3.014  0.5238 -0.7358 -1.6231
 3926SOL    HW223412   0.681   4.176   2.941 -0.8459  0.7494  0.5602
 3927SOL     OW23413   3.609   3.006   5.281  0.8202  0.6699 -0.2493
 3927SOL    HW123414   3.567   2.972   5.360 -0.2443  0.7264 -0.7875
 3927SOL    HW223415   3.533   3.029   5.227  1.0239 -2.9498 -2.0373
 3928SOL     OW23416   1.134   3.500   5.916  0.2218  0.6514  0.1969
 3928SOL    HW123417   1.153   3.581   5.869 -0.5065 -0.8347 -2.6271
 3928SOL    HW223418   1.201   3.510   5.984  1.7470 -0.0355 -1.2291
 3929SOL     OW23419   4.488   3.756   6.046  0.0071 -0.1670 -0.0623
 3929SOL    HW123420   4.465   3.712   6.128 -0.4866  0.6367  0.2249
 3929SOL    HW223421   4.561   3.815   6.065 -0.4380  0.7432 -1.2311
 3930SOL     OW23422   4.601   1.661   8.011  0.1403 -0.1760  0.0099
 3930SOL    HW123423   4.610   1.685   8.103  0.1974 -2.0146  0.4804
 3930SOL    HW223424   4.517   1.701   7.989 -1.4351 -1.7285  3.3161
 3931SOL     OW23425   0.475   2.808   2.322 -1.1693 -0.2699  0.0036
 3931SOL    HW123426   0.462   2.881   2.382  0.7415  0.0516  0.0012
 3931SOL    HW223427   0.494   2.857   2.242 -1.1565 -1.2377 -0.5942
 3932SOL     OW23428   2.469   0.753   8.421  0.1219  0.1779  0.4528
 3932SOL    HW123429   2.520   0.755   8.340 -0.3059 -1.2161  0.1547
 3932SOL    HW223430   2.526   0.808   8.475  1.1509 -1.7515  1.3185
 3933SOL     OW23431   3.075   0.103  12.225 -0.0454  0.2266  0.7057
 3933SOL    HW123432   3.127   0.182  12.237  0.5982 -0.5365  2.8023
 3933SOL    HW223433   3.060   0.074  12.315  0.8050 -2.6475 -0.1124
 3934SOL     OW23434   1.250   4.091   8.395  0.4314 -0.5091  0.4912
 3934SOL    HW123435   1.322   4.097   8.457  1.4424  2.0458 -0.9392
 3934SOL    HW223436   1.181   4.043   8.441 -1.4570 -0.2786 -2.0817
 3935SOL     OW23437   0.202   0.859  12.150  1.3191 -0.5993 -0.1987
 3935SOL    HW123438   0.150   0.784  12.180 -0.3302  0.2025 -1.0543
 3935SOL    HW223439   0.179   0.915  12.224  2.6928 -0.4246  0.0893
 3936SOL     OW23440   2.436   2.507   4.390 -0.1858  0.3605  0.6127
 3936SOL    HW123441   2.371   2.436   4.386  0.0244  0.2568 -0.9412
 3936SOL    HW223442   2.421   2.547   4.475  0.8901  2.2935 -0.1161
 3937SOL     OW23443   4.054   2.173   0.612 -0.6489 -0.4692  0.1097
 3937SOL    HW123444   4.108   2.198   0.687 -0.9692 -0.0971  0.2148
 3937SOL    HW223445   4.005   2.254   0.604  0.6449  0.4644  1.6030
 3938SOL     OW23446   1.020   3.311   5.735 -0.6622  0.1133 -0.1996
 3938SOL    HW123447   0.953   3.292   5.801  0.8306 -0.0866  1.2668
 3938SOL    HW223448   1.075   3.370   5.787 -1.5704  0.9164 -0.1502
 3939SOL     OW23449   3.128   1.910   6.309  0.1749  0.2874 -0.2356
 3939SOL    HW123450   3.083   1.826   6.298 -1.0940  1.0018 -0.4374
 3939SOL    HW223451   3.117   1.933   6.401 -2.5586 -0.5697 -0.3637
 3940SOL     OW23452   1.176   4.421   2.848 -0.0971  0.6432  0.3688
 3940SOL    HW123453   1.084   4.396   2.844  0.5678 -1.5600 -1.0695
 3940SOL    HW223454   1.216   4.371   2.919 -0.8229 -1.2968 -0.5805
 3941SOL     OW23455   3.953   3.601   2.443 -0.5371  0.8931  0.7544
 3941SOL    HW123456   3.879   3.542   2.460  0.0388  0.9522  3.4671
 3941SOL    HW223457   3.923   3.628   2.356 -0.0942  0.0722  0.3449
 3942SOL     OW23458   3.918   2.976   3.873  0.7178 -0.1385  0.4506
 3942SOL    HW123459   3.824   2.993   3.881  1.2851  2.6661  0.9877
 3942SOL    HW223460   3.926   3.054   3.819  2.6038 -1.0048 -0.5380
 3943SOL     OW23461   4.698   2.806   5.017 -0.1587  0.3240 -0.0940
 3943SOL    HW123462   4.724   2.739   4.953 -0.1821  1.3246 -1.1511
 3943SOL    HW223463   4.646   2.752   5.077  1.3172  0.4638  1.2838
 3944SOL     OW23464   1.442   0.642   3.285  0.1125  0.1422 -0.1996
 3944SOL    HW123465   1.440   0.712   3.220  0.8856  1.1660  0.8727
 3944SOL    HW223466   1.380   0.681   3.347 -1.8989 -2.8012 -0.3431
 3945SOL     OW23467   0.420   4.322   7.232 -0.7210 -0.4501 -0.4744
 3945SOL    HW123468   0.348   4.325   7.169 -1.9150  1.3218  0.9714
 3945SOL    HW223469   0.489   4.375   7.194  0.0961 -1.4179 -0.3308
 3946SOL     OW23470   1.792   0.343  14.456 -0.1777 -0.2866 -0.3646
 3946SOL    HW123471   1.824   0.347  14.366  1.0025 -0.6344  0.0354
 3946SOL    HW223472   1.873   0.354  14.506 -0.5592 -0.4376  0.2855
 3947SOL     OW23473   1.130   0.734   1.940 -0.9499 -0.1238  0.4726
 3947SOL    HW123474   1.039   0.707   1.928 -0.7031 -0.4841 -0.6598
 3947SOL    HW223475   1.170   0.647   1.944 -0.4212  0.0985  0.1271
 3948SOL     OW23476   2.147   2.157  16.357 -0.4096  0.2615 -0.8408
 3948SOL    HW123477   2.149   2.067  16.389  0.1144  0.2506 -0.9034
 3948SOL    HW223478   2.181   2.147  16.268  0.6281 -0.4508 -0.3654
 3949SOL     OW23479   2.677   3.608   3.792  0.2674  0.5344  0.0203
 3949SOL    HW123480   2.644   3.607   3.882 -0.7381  1.7820 -0.3443
 3949SOL    HW223481   2.766   3.630   3.819  0.6908 -2.1301  0.8613
 3950SOL     OW23482   3.983   1.883   6.444 -0.3628 -0.3645 -0.1978
 3950SOL    HW123483   3.967   1.789   6.445  1.8490 -0.7290 -0.2335
 3950SOL    HW223484   3.940   1.897   6.359  0.1942 -1.9024 -0.7258
 3951SOL     OW23485   0.754   0.727   3.390 -0.1549  0.8253  0.7494
 3951SOL    HW123486   0.818   0.794   3.414  0.0567  1.7502 -2.3061
 3951SOL    HW223487   0.716   0.769   3.313  1.6429 -1.8099 -1.5964
 3952SOL     OW23488   3.585   2.926   2.726  0.2431 -0.5223 -0.0080
 3952SOL    HW123489   3.524   2.857   2.703 -0.4335  0.0646  0.0104
 3952SOL    HW223490   3.565   2.917   2.819  0.3599  1.8751  0.2578
 3953SOL     OW23491   3.175   1.948   8.820  0.3104  0.3962  1.2146
 3953SOL    HW123492   3.129   2.026   8.851  2.4845  1.2069  2.4375
 3953SOL    HW223493   3.112   1.881   8.846 -0.5574  0.1536 -1.5226
 3954SOL     OW23494   0.703   1.937   2.212  0.4348 -0.4365  0.5021
 3954SOL    HW123495   0.715   1.843   2.199 -0.2935 -0.5554  0.6653
 3954SOL    HW223496   0.654   1.956   2.132  0.5484  1.2180  0.8282
 3955SOL     OW23497   1.886   2.335  15.262  0.4415  0.2188 -0.3480
 3955SOL    HW123498   1.916   2.273  15.196  0.8516  0.3439 -0.2787
 3955SOL    HW223499   1.963   2.391  15.276  1.1655 -0.5930 -1.0470
 3956SOL     OW23500   3.717   0.421   1.605  0.2080  0.0903 -0.0735
 3956SOL    HW123501   3.702   0.482   1.678  0.8623 -1.2089  1.1459
 3956SOL    HW223502   3.812   0.413   1.612  0.6027  2.6755 -2.6155
 3957SOL     OW23503   3.989   4.305  13.647 -0.0023  0.0038 -0.5506
 3957SOL    HW123504   3.967   4.227  13.698 -0.3306  0.5481  0.1453
 3957SOL    HW223505   4.072   4.278  13.608 -1.1206 -2.9957 -0.8467
 3958SOL     OW23506   1.109   1.250   7.666 -0.0520 -0.3745 -0.0796
 3958SOL    HW123507   1.169   1.300   7.721 -2.4729  2.6138 -0.0989
 3958SOL    HW223508   1.171   1.180   7.646 -0.3092 -0.5949 -0.1032
 3959SOL     OW23509   3.496   1.854   6.587 -0.0699 -0.4491 -0.3090
 3959SOL    HW123510   3.553   1.924   6.555 -0.2871 -0.4743 -0.7562
 3959SOL    HW223511   3.539   1.775   6.554  0.6090 -0.7462  1.2862
 3960SOL     OW23512   1.247   3.845   2.127  0.4166  0.5254 -1.0441
 3960SOL    HW123513   1.318   3.908   2.139  2.6038 -2.2720  0.7667
 3960SOL    HW223514   1.164   3.886   2.149  1.1740  2.2622 -1.4312
 3961SOL     OW23515   2.169   0.774   3.885  0.0839 -0.0463 -0.6768
 3961SOL    HW123516   2.119   0.784   3.966  1.0566 -0.0079 -0.0793
 3961SOL    HW223517   2.109   0.805   3.817 -1.4009  1.6154  1.3824
 3962SOL     OW23518   0.142   3.535   8.659 -0.2050  0.4113 -0.1873
 3962SOL    HW123519   0.052   3.566   8.666 -0.6250  0.1850 -4.1745
 3962SOL    HW223520   0.189   3.613   8.687  0.6258  0.5707 -2.0294
 3963SOL     OW23521   4.300   3.465  16.066 -0.0131 -0.5667  0.0946
 3963SOL    HW123522   4.321   3.553  16.098  1.1124 -1.2161  1.1539
 3963SOL    HW223523   4.332   3.450  15.977  0.5117  0.6115  0.0710
 3964SOL     OW23524   2.422   0.102  14.656 -0.0656  0.4178  0.1774
 3964SOL    HW123525   2.476   0.057  14.590 -0.2426  0.6779 -0.1455
 3964SOL    HW223526   2.436   0.195  14.637 -2.1946  0.8914  0.9900
 3965SOL     OW23527   0.695   3.969   2.664  0.2432  0.1999 -0.0587
 3965SOL    HW123528   0.647   4.008   2.737  0.7529 -0.3492  0.5668
 3965SOL    HW223529   0.697   3.877   2.688  0.2761  0.1470 -0.2625
 3966SOL     OW23530   0.925   1.744   0.626 -0.1891  0.1972 -0.1026
 3966SOL    HW123531   0.898   1.782   0.543  1.4453 -0.5372 -0.9740
 3966SOL    HW223532   0.853   1.767   0.685 -1.5909 -2.0801 -0.9365
 3967SOL     OW23533   3.788   2.514   6.884  0.1216 -0.5389 -0.5817
 3967SOL    HW123534   3.708   2.563   6.866  2.6931  3.1799 -1.8762
 3967SOL    HW223535   3.749   2.438   6.926 -0.9105  1.1181  1.4318
 3968SOL     OW23536   1.965   4.738   7.066 -0.4600  0.2559  0.3091
 3968SOL    HW123537   1.896   4.676   7.090 -2.0077  1.9096  0.1228
 3968SOL    HW223538   1.984   0.044   7.146 -0.4142  1.2581 -0.3023
 3969SOL     OW23539   0.877   3.052   2.605 -0.1473  0.5097 -0.4617
 3969SOL    HW123540   0.817   2.993   2.651  0.9223  0.1922  0.5176
 3969SOL    HW223541   0.918   2.989   2.545  1.2015  1.0753 -0.1365
 3970SOL     OW23542   3.088   2.211  17.694 -0.2965  0.3753 -0.2021
 3970SOL    HW123543   3.045   2.295  17.678 -0.1849  0.8652  2.0464
 3970SOL    HW223544   3.016   2.151  17.709  0.0019  0.1074  0.1493
 3971SOL     OW23545   3.039   0.489   4.965  0.0700 -0.0497  0.3705
 3971SOL    HW123546   3.087   0.510   5.046 -0.2864  2.0875  0.0211
 3971SOL    HW223547   2.946   0.509   4.975 -0.2107 -1.9097  1.4067
 3972SOL     OW23548   3.587   0.294   8.606  0.0735 -0.2920 -0.1761
 3972SOL    HW123549   3.503   0.253   8.586 -1.0010  0.9300  1.8236
 3972SOL    HW223550   3.641   0.217   8.623 -0.4948 -1.2225 -2.4952
 3973SOL     OW23551   1.075   3.771   3.850 -0.4420  0.8449 -0.1328
 3973SOL    HW123552   1.130   3.774   3.772 -1.2337  1.8586 -0.6420
 3973SOL    HW223553   1.053   3.678   3.846 -0.1988  0.7095  1.4454
 3974SOL     OW23554   4.643   4.606   7.975 -0.3608  0.3910  0.6656
 3974SOL    HW123555   4.722   4.642   8.014 -1.1942  1.5576  1.2920
 3974SOL    HW223556   4.682   4.583   7.891  0.1121  0.1674  0.9479
 3975SOL     OW23557   4.165   0.133   2.595 -0.2642 -0.2767 -0.1095
 3975SOL    HW123558   4.188   0.115   2.504 -0.9213 -0.7844 -0.1767
 3975SOL    HW223559   4.239   0.192   2.608 -1.1116  0.6538  0.5326
 3976SOL     OW23560   4.256   3.511   3.006 -0.1214 -0.3526  0.0617
 3976SOL    HW123561   4.255   3.418   3.030  0.2775 -0.1684  0.7663
 3976SOL    HW223562   4.312   3.499   2.929  1.3514  0.2552  1.0307
 3977SOL     OW23563   2.486   3.964   5.192 -0.0124 -0.0725  0.3714
 3977SOL    HW123564   2.553   3.917   5.142 -1.7385 -2.9505  0.8052
 3977SOL    HW223565   2.540   4.025   5.243  1.2905  0.7338 -1.9526
 3978SOL     OW23566   1.858   2.254  14.607 -0.0879 -0.2552 -0.2768
 3978SOL    HW123567   1.801   2.286  14.677  1.5683 -1.1431  1.4692
 3978SOL    HW223568   1.798   2.194  14.562  0.9252 -2.3160  1.1623
 3979SOL     OW23569   3.451   2.357  12.147 -0.2958  0.4079 -0.0780
 3979SOL    HW123570   3.439   2.438  12.197 -2.1809  0.2386 -0.2587
 3979SOL    HW223571   3.529   2.313  12.181 -1.1724 -0.8561  0.2606
 3980SOL     OW23572   2.273   2.799  13.190  0.0524 -0.4594 -0.0762
 3980SOL    HW123573   2.281   2.838  13.103 -1.3343 -1.2817 -0.5720
 3980SOL    HW223574   2.360   2.762  13.205  0.7650  1.5498  0.8631
 3981SOL     OW23575   4.725   1.249   8.450 -0.0132 -0.3970  0.4145
 3981SOL    HW123576   4.687   1.235   8.536 -0.1790  0.5625  0.4915
 3981SOL    HW223577   0.071   1.270   8.480  0.1306 -0.4059  0.0000
 3982SOL     OW23578   3.411   4.086   7.467  0.2941  0.1348  0.2187
 3982SOL    HW123579   3.437   3.994   7.476 -0.3448 -0.0585  0.1291
 3982SOL    HW223580   3.405   4.080   7.372  0.3613  2.5376  0.0534
 3983SOL     OW23581   3.965   1.642   6.943  0.5710  0.4683  0.7368
 3983SOL    HW123582   3.992   1.648   6.851  0.3490 -1.9361  0.5238
 3983SOL    HW223583   3.889   1.585   6.937 -0.1925  1.5925 -0.3044
 3984SOL     OW23584   2.254   0.132   0.046 -0.0898 -0.1694  0.0280
 3984SOL    HW123585   2.180   0.073   0.037 -0.4104  0.8358 -4.1038
 3984SOL    HW223586   2.224   0.189   0.117 -1.9654 -0.9591 -0.1227
 3985SOL     OW23587   3.562   2.894   8.086  0.3978 -0.5235  0.2146
 3985SOL    HW123588   3.509   2.821   8.118  2.1214 -0.7876  2.4973
 3985SOL    HW223589   3.545   2.896   7.992 -0.9627  1.4035  0.5245
 3986SOL     OW23590   3.370   0.613   3.100  0.1238 -0.1140 -0.3048
 3986SOL    HW123591   3.415   0.612   3.185 -4.3555 -0.4302  2.0719
 3986SOL    HW223592   3.431   0.556   3.054 -0.7465 -1.5012  0.2624
 3987SOL     OW23593   1.317   2.983   8.975  0.0506 -0.4592  0.0231
 3987SOL    HW123594   1.298   2.917   8.908 -1.4933  0.0912 -0.0667
 3987SOL    HW223595   1.237   2.992   9.026  0.2145 -0.3731  0.2632
 3988SOL     OW23596   1.851   2.461   4.853  0.6132  0.6973  0.6219
 3988SOL    HW123597   1.932   2.512   4.862  0.2873  1.2441  0.4636
 3988SOL    HW223598   1.781   2.496   4.908  1.8143  1.6540  1.5509
 3989SOL     OW23599   1.427   4.209   0.474  0.1023  0.0326  0.1242
 3989SOL    HW123600   1.337   4.225   0.444  0.3863  0.4364 -0.5045
 3989SOL    HW223601   1.419   4.206   0.570 -0.6359  0.8943  0.0924
 3990SOL     OW23602   4.208   4.418   8.223  0.5185  0.0951  0.5978
 3990SOL    HW123603   4.302   4.420   8.206  0.1411  2.5485 -1.2406
 3990SOL    HW223604   4.195   4.513   8.235 -0.9080 -0.1787  1.2320
 3991SOL     OW23605   2.074   4.121   2.582  1.1229 -0.2260 -0.6816
 3991SOL    HW123606   2.102   4.188   2.644 -1.2939 -1.0904  1.3574
 3991SOL    HW223607   2.006   4.170   2.537  0.9627  1.4508  1.4133
 3992SOL     OW23608   0.409   0.883  17.594 -0.6405  0.2687 -0.6457
 3992SOL    HW123609   0.401   0.815  17.660  3.3798  0.8629  0.4459
 3992SOL    HW223610   0.351   0.953  17.623  1.5495  2.3174 -1.1613
 3993SOL     OW23611   0.332   1.591   8.626  0.7203 -0.3540 -0.6616
 3993SOL    HW123612   0.420   1.563   8.652  0.5785 -0.2464 -0.0586
 3993SOL    HW223613   0.354   1.662   8.565  1.3784 -0.8118 -0.9603
 3994SOL     OW23614   3.547   3.658  10.035  0.3448  0.0687  0.0386
 3994SOL    HW123615   3.639   3.671  10.010  0.0846  0.1314 -0.8742
 3994SOL    HW223616   3.503   3.699   9.961 -0.6845 -0.9676  0.0855
 3995SOL     OW23617   2.284   0.827   1.726 -0.6804  0.0818 -0.4262
 3995SOL    HW123618   2.313   0.768   1.797 -2.6271  0.3995  0.6333
 3995SOL    HW223619   2.366   0.876   1.720 -0.5105 -0.1991 -0.4202
 3996SOL     OW23620   4.361   4.680   1.046 -0.2653  0.1240 -0.3270
 3996SOL    HW123621   4.308   0.015   1.070 -1.2684 -0.6177 -0.1787
 3996SOL    HW223622   4.342   4.662   0.954 -1.0053  0.5157 -0.2550
 3997SOL     OW23623   1.210   1.586   2.098  0.1230 -0.8721  0.2706
 3997SOL    HW123624   1.298   1.597   2.134 -0.0570 -1.4818  0.8769
 3997SOL    HW223625   1.232   1.531   2.023 -0.6564  0.2173 -0.7601
 3998SOL     OW23626   3.143   4.414   0.815  0.0747  0.3582 -0.3722
 3998SOL    HW123627   3.124   4.445   0.726  1.2560 -0.2267 -0.8351
 3998SOL    HW223628   3.096   4.331   0.822 -0.5099  0.6315 -1.0902
 3999SOL     OW23629   4.679   0.370   2.315 -0.1864  0.2045  0.2934
 3999SOL    HW123630   4.590   0.341   2.335  0.4956 -1.2402  1.2629
 3999SOL    HW223631   4.694   0.431   2.387 -0.7590  0.8062 -0.0965
 4000SOL     OW23632   3.261   4.101   6.386 -0.2480 -0.7679 -0.4565
 4000SOL    HW123633   3.333   4.150   6.425 -2.3071  0.4169  1.8099
 4000SOL    HW223634   3.191   4.165   6.398 -1.1418 -2.1615  1.6715
 4001SOL     OW23635   2.624   3.859   2.893 -0.6390  0.0431  0.1380
 4001SOL    HW123636   2.696   3.848   2.954 -0.8343 -1.0192  0.1688
 4001SOL    HW223637   2.562   3.899   2.954 -0.0803  1.9551 -0.5537
 4002SOL     OW23638   2.920   1.899   2.881 -0.7361 -0.2649 -0.1552
 4002SOL    HW123639   2.861   1.828   2.857 -0.4231  0.0647 -1.9006
 4002SOL    HW223640   2.872   1.975   2.849 -0.7100  0.3857  1.3183
 4003SOL     OW23641   2.764   3.634   9.066  0.4533 -0.0784  0.2482
 4003SOL    HW123642   2.825   3.691   9.113  1.1379 -0.5364 -0.1005
 4003SOL    HW223643   2.814   3.560   9.032  0.4755 -0.8012  1.8533
 4004SOL     OW23644   0.029   2.466   4.485  0.3468  0.4380 -0.5148
 4004SOL    HW123645   0.019   2.378   4.450 -0.1537  0.5751 -0.7237
 4004SOL    HW223646   0.089   2.445   4.557 -2.1705 -1.3588  1.0805
 4005SOL     OW23647   3.376   1.101  16.285  0.8485  0.1599  0.1726
 4005SOL    HW123648   3.340   1.014  16.303  0.5036 -0.1023 -1.7899
 4005SOL    HW223649   3.366   1.102  16.190  1.3057  0.5443  0.1305
 4006SOL     OW23650   1.096   1.035   2.443 -0.0721  0.1839  0.3910
 4006SOL    HW123651   1.105   1.029   2.538 -2.8674  1.7300  0.7641
 4006SOL    HW223652   1.109   0.942   2.426 -1.2735 -0.2999  2.0964
 4007SOL     OW23653   0.679   3.060   4.560  0.3671 -0.1768  0.3461
 4007SOL    HW123654   0.654   3.049   4.652 -0.1690  1.3807  0.3864
 4007SOL    HW223655   0.598   3.095   4.522  0.7856  1.5453  1.0146
 4008SOL     OW23656   0.274   0.548  14.927  0.5975  0.3060 -0.4285
 4008SOL    HW123657   0.339   0.536  14.997 -1.1341 -0.2825  1.0999
 4008SOL    HW223658   0.299   0.491  14.854  1.3087 -2.1739  1.7196
 4009SOL     OW23659   4.248   1.410  15.533 -0.5703 -0.0460 -0.6828
 4009SOL    HW123660   4.322   1.367  15.491  0.0470 -0.1028  0.4487
 4009SOL    HW223661   4.181   1.345  15.513 -0.2903  0.1870 -2.4129
 4010SOL     OW23662   1.335   0.451   3.847 -0.0748  0.4901  0.3219
 4010SOL    HW123663   1.417   0.468   3.802  0.7340  1.1230  2.0238
 4010SOL    HW223664   1.368   0.400   3.921  0.2505  0.7858  0.3779
 4011SOL     OW23665   0.399   4.472   0.672  0.6578 -0.0551  0.1397
 4011SOL    HW123666   0.345   4.450   0.747 -1.7029  0.8779 -1.2893
 4011SOL    HW223667   0.484   4.486   0.714 -0.3937  3.2429  1.1745
 4012SOL     OW23668   3.345   4.546   2.676 -0.1808 -0.1204  0.4854
 4012SOL    HW123669   3.267   4.565   2.727 -0.0298  1.9872 -0.0937
 4012SOL    HW223670   3.306   4.480   2.619  0.0720  0.4250 -0.3224
 4013SOL     OW23671   2.533   1.442   2.897 -0.0046 -0.3889 -0.1545
 4013SOL    HW123672   2.540   1.474   2.987  4.1404  0.6441 -0.8299
 4013SOL    HW223673   2.621   1.463   2.865 -0.3367  1.5194  0.1732
 4014SOL     OW23674   2.562   1.034   8.822 -0.2038 -0.8180  0.5005
 4014SOL    HW123675   2.569   1.036   8.918 -1.5083 -1.6045  0.6171
 4014SOL    HW223676   2.649   1.017   8.788 -0.4406 -1.6688  0.3286
 4015SOL     OW23677   2.632   1.748   1.623  0.0887  0.8665  0.0991
 4015SOL    HW123678   2.573   1.691   1.574  0.9358  1.1686 -1.2419
 4015SOL    HW223679   2.717   1.738   1.580 -0.5165 -0.1315 -0.8758
 4016SOL     OW23680   0.480   4.102   5.507 -0.0911 -0.0629 -0.5599
 4016SOL    HW123681   0.495   4.161   5.433 -0.5512 -1.3134 -1.6495
 4016SOL    HW223682   0.397   4.136   5.541  0.2097  0.2701 -0.1398
 4017SOL     OW23683   0.555   4.045  10.264 -0.6547 -0.5371 -0.5200
 4017SOL    HW123684   0.516   3.970  10.220 -2.4835 -0.0893  0.3389
 4017SOL    HW223685   0.625   4.056  10.200 -1.2638 -2.8455 -1.5854
 4018SOL     OW23686   4.508   2.729   2.777 -0.0882 -0.0304  0.5214
 4018SOL    HW123687   4.414   2.719   2.792  0.4723 -2.8592  2.1041
 4018SOL    HW223688   4.533   2.641   2.750 -0.4067 -0.2198  0.8394
 4019SOL     OW23689   2.398   0.867   9.843 -0.1900  0.7905  0.1987
 4019SOL    HW123690   2.332   0.834   9.905  1.5191  1.9821  2.6186
 4019SOL    HW223691   2.456   0.918   9.899  0.8148 -1.4076  1.1537
 4020SOL     OW23692   3.840   2.970   2.255  0.4163  0.0801  0.2188
 4020SOL    HW123693   3.799   2.902   2.308 -1.5851  0.4977 -0.7921
 4020SOL    HW223694   3.851   2.922   2.173  1.4772 -2.0648  1.6276
 4021SOL     OW23695   4.470   3.671  10.450 -0.1994 -0.2973 -0.4113
 4021SOL    HW123696   4.461   3.764  10.431 -0.5151  0.0065  1.2332
 4021SOL    HW223697   4.380   3.641  10.436 -0.3271  0.5066 -1.2830
 4022SOL     OW23698   0.454   0.455  16.102  0.3282 -0.2510  0.1822
 4022SOL    HW123699   0.434   0.382  16.161 -1.2602 -0.5299 -0.7067
 4022SOL    HW223700   0.367   0.452  16.061  0.8850 -0.3575 -0.9927
 4023SOL     OW23701   2.507   4.237   3.129  0.8452 -0.4205 -0.3948
 4023SOL    HW123702   2.592   4.280   3.140  1.5578 -1.0089 -3.3742
 4023SOL    HW223703   2.443   4.306   3.115 -0.9139 -2.0281 -0.1976
 4024SOL     OW23704   2.179   3.862   4.549  0.2627 -0.0547  0.1808
 4024SOL    HW123705   2.240   3.918   4.502 -0.2888  1.5286  1.3667
 4024SOL    HW223706   2.231   3.782   4.553 -0.7060 -0.6856  0.3365
 4025SOL     OW23707   1.568   0.238   2.701  0.3908 -0.5192 -0.6691
 4025SOL    HW123708   1.545   0.157   2.654 -0.9084 -0.8776  0.6168
 4025SOL    HW223709   1.635   0.212   2.764 -0.5431 -1.5580 -0.1222
 4026SOL     OW23710   2.070   3.535   8.084 -0.9418 -0.1233  0.3825
 4026SOL    HW123711   2.070   3.439   8.085 -1.6707 -0.1533 -1.4130
 4026SOL    HW223712   2.071   3.555   7.990  2.3546 -0.7647  0.2722
 4027SOL     OW23713   1.443   0.586  14.764  0.6726 -0.2451 -0.3337
 4027SOL    HW123714   1.486   0.536  14.694 -0.8497  0.1829 -1.5626
 4027SOL    HW223715   1.460   0.512  14.823 -0.0789  0.1599  0.3968
 4028SOL     OW23716   0.689   0.899  15.322  0.1544 -0.0875  0.1380
 4028SOL    HW123717   0.626   0.841  15.281  0.3286  0.5292 -0.9851
 4028SOL    HW223718   0.649   0.954  15.390 -1.2714 -0.9050 -0.0369
 4029SOL     OW23719   4.166   2.580   3.235 -0.4019 -0.9084 -0.2583
 4029SOL    HW123720   4.170   2.549   3.144  0.1397  0.0346 -0.5530
 4029SOL    HW223721   4.226   2.518   3.275 -0.1636  1.2900  2.8109
 4030SOL     OW23722   0.184   0.625   6.208 -0.3831 -0.6506 -0.0458
 4030SOL    HW123723   0.129   0.566   6.260 -0.0476  0.4917  1.6262
 4030SOL    HW223724   0.196   0.574   6.128  0.8862 -0.8962  0.3049
 4031SOL     OW23725   3.255   1.661  11.484  0.5522 -0.3471  0.2815
 4031SOL    HW123726   3.298   1.677  11.400  1.8146  1.5217  1.2755
 4031SOL    HW223727   3.321   1.700  11.541  1.7398  1.1273 -2.1048
 4032SOL     OW23728   1.865   4.518  17.610 -0.3011 -0.9190  0.2520
 4032SOL    HW123729   1.827   4.605  17.601 -0.3453 -0.7412  2.0810
 4032SOL    HW223730   1.792   4.460  17.630  1.0841 -3.4691 -2.0385
 4033SOL     OW23731   3.928   1.063   0.102  0.3347  0.0688  0.3719
 4033SOL    HW123732   3.944   0.987   0.158  2.4571  0.2483  0.0113
 4033SOL    HW223733   4.003   1.122   0.107 -1.4486  2.1557  2.4675
 4034SOL     OW23734   4.406   1.631   2.305  0.0244  0.3043 -0.4956
 4034SOL    HW123735   4.372   1.719   2.286  0.1346  0.6774  1.0812
 4034SOL    HW223736   4.426   1.598   2.217  1.3472  1.6282 -0.6956
 4035SOL     OW23737   0.235   2.653  12.447 -0.0146 -0.1130  0.4640
 4035SOL    HW123738   0.242   2.732  12.394  2.5396 -1.3737 -1.0998
 4035SOL    HW223739   0.327   2.648  12.475 -0.3271  0.0522  1.5289
 4036SOL     OW23740   1.236   2.091  16.454 -0.1455 -0.2520 -0.9064
 4036SOL    HW123741   1.274   2.045  16.529 -0.5343 -0.4201 -0.8116
 4036SOL    HW223742   1.314   2.137  16.422 -0.7228 -0.5638 -2.8126
 4037SOL     OW23743   1.262   3.672   6.176  0.1004  0.3036  0.3616
 4037SOL    HW123744   1.303   3.758   6.188  0.7331  0.0637 -0.0525
 4037SOL    HW223745   1.337   3.615   6.158  1.3058  1.0727  2.9657
 4038SOL     OW23746   2.240   0.796  10.367 -0.1788  0.2167  0.2077
 4038SOL    HW123747   2.224   0.801  10.461  0.8494 -3.8763  0.5786
 4038SOL    HW223748   2.188   0.722  10.335  0.6167 -0.5916  0.8010
 4039SOL     OW23749   4.485   2.042   8.884  0.0969  0.2596  0.0614
 4039SOL    HW123750   4.576   2.053   8.910  0.2242 -0.2913 -0.1512
 4039SOL    HW223751   4.449   2.103   8.948  1.4393 -1.8751  2.8618
 4040SOL     OW23752   2.417   0.533   4.890 -0.4004  0.0932  0.0857
 4040SOL    HW123753   2.351   0.562   4.954 -2.4482 -1.9639 -1.0711
 4040SOL    HW223754   2.379   0.449   4.863  1.5064 -0.8712  0.4628
 4041SOL     OW23755   1.669   3.439   6.478  0.3235  0.3579 -0.2831
 4041SOL    HW123756   1.686   3.514   6.534 -2.0315  1.1184 -0.5922
 4041SOL    HW223757   1.577   3.460   6.462  0.7149  1.4986 -1.0017
 4042SOL     OW23758   0.307   3.358   5.666 -0.3013 -0.1379 -0.3324
 4042SOL    HW123759   0.324   3.421   5.596 -0.1992 -1.9402 -1.9081
 4042SOL    HW223760   0.231   3.406   5.699  0.2254  0.7856 -0.4554
 4043SOL     OW23761   4.257   1.634  15.042  0.3997 -0.8239 -0.4256
 4043SOL    HW123762   4.349   1.615  15.029  0.5295  0.0033 -0.7088
 4043SOL    HW223763   4.263   1.721  15.003  2.4939 -1.8503 -2.3644
 4044SOL     OW23764   3.707   3.535   5.200 -0.3017 -0.7914 -0.6384
 4044SOL    HW123765   3.744   3.447   5.200 -0.5570 -0.9033 -0.2931
 4044SOL    HW223766   3.677   3.551   5.290  1.0854  1.2490 -0.5447
 4045SOL     OW23767   0.846   3.212   0.556 -0.0646 -0.5297 -0.1415
 4045SOL    HW123768   0.930   3.171   0.571  0.2772  0.6365  1.0783
 4045SOL    HW223769   0.793   3.156   0.613  0.5196 -0.6919  0.2305
 4046SOL     OW23770   1.809   2.262   1.515 -0.3726  0.1729 -0.3466
 4046SOL    HW123771   1.884   2.317   1.540  0.1372  0.3010 -2.0984
 4046SOL    HW223772   1.832   2.241   1.424  0.6342 -0.2897  0.0171
 4047SOL     OW23773   3.619   1.947   4.449 -0.2171 -0.5393 -0.3081
 4047SOL    HW123774   3.536   1.989   4.472 -0.0946  0.6453 -1.9627
 4047SOL    HW223775   3.611   1.946   4.353 -0.8315 -1.8569 -0.2375
 4048SOL     OW23776   2.944   2.386   5.619 -0.0172  0.3162 -0.2459
 4048SOL    HW123777   2.997   2.343   5.552 -1.1045  0.5138 -1.2403
 4048SOL    HW223778   2.931   2.318   5.685  2.8595  0.8053  0.8486
 4049SOL     OW23779   4.076   0.285   4.557 -0.0144  0.0927  0.3744
 4049SOL    HW123780   4.107   0.216   4.616 -0.2650 -0.5824 -0.2838
 4049SOL    HW223781   4.136   0.258   4.487  0.9440  0.5013  1.0278
 4050SOL     OW23782   1.493   4.532   1.161 -0.0867  0.1927  0.1440
 4050SOL    HW123783   1.510   4.614   1.114  0.5239  0.4885  0.8966
 4050SOL    HW223784   1.584   4.511   1.183  0.6761 -0.7627 -3.8572
 4051SOL     OW23785   4.350   0.605   1.700 -0.3981 -0.0341 -0.2419
 4051SOL    HW123786   4.304   0.662   1.638  1.7484  2.1766  0.2208
 4051SOL    HW223787   4.309   0.626   1.784 -1.9054  0.9207 -1.2125
 4052SOL     OW23788   2.795   2.629  12.591  0.0804 -0.1203 -0.0301
 4052SOL    HW123789   2.818   2.572  12.664 -2.0299 -0.0817  0.6669
 4052SOL    HW223790   2.706   2.596  12.578  0.0606  0.1139 -0.4774
 4053SOL     OW23791   2.154   2.738  15.096  0.2861 -0.2881 -0.0927
 4053SOL    HW123792   2.240   2.756  15.058  0.8303 -1.2860  0.6566
 4053SOL    HW223793   2.118   2.825  15.111  0.0596 -0.7309  1.9074
 4054SOL     OW23794   3.533   1.241   2.345  0.2452 -0.8274  0.0694
 4054SOL    HW123795   3.549   1.193   2.264  1.8988  2.5656 -1.5924
 4054SOL    HW223796   3.602   1.209   2.403 -1.1200 -1.2896  1.4559
 4055SOL     OW23797   2.038   0.579  13.399 -0.1814  0.0292  0.2240
 4055SOL    HW123798   2.102   0.534  13.344 -0.1812  1.4168 -0.8964
 4055SOL    HW223799   2.050   0.666  13.362 -0.9618  0.4296  0.9093
 4056SOL     OW23800   2.958   4.249   3.590 -0.8535 -0.5705 -1.0710
 4056SOL    HW123801   3.034   4.207   3.633 -2.8567 -1.0087  2.0535
 4056SOL    HW223802   2.942   4.314   3.658 -0.4123 -0.9021 -0.6452
 4057SOL     OW23803   2.521   2.328   0.238 -0.2291 -0.1649  0.0510
 4057SOL    HW123804   2.500   2.301   0.148  1.5467  1.2672 -0.7934
 4057SOL    HW223805   2.578   2.257   0.267 -0.6153  1.5770  5.0335
 4058SOL     OW23806   0.134   0.119   7.744 -0.4494 -0.1801  0.0325
 4058SOL    HW123807   0.163   0.204   7.712 -1.5217  0.5097  0.9041
 4058SOL    HW223808   0.221   0.082   7.725 -0.1518  1.1323 -1.1996
 4059SOL     OW23809   4.343   2.708  11.435 -0.1179 -0.1446  0.1877
 4059SOL    HW123810   4.397   2.787  11.443 -1.6964  1.0962 -1.3172
 4059SOL    HW223811   4.264   2.750  11.400  0.4304  0.6420 -0.1202
 4060SOL     OW23812   2.095   1.329  15.984  0.6174 -0.2509 -0.3042
 4060SOL    HW123813   2.140   1.249  15.958 -0.1033 -0.7546  0.0009
 4060SOL    HW223814   2.078   1.354  15.893 -1.8282 -0.9550 -0.0608
 4061SOL     OW23815   3.392   2.090   4.539 -0.3016 -0.2808 -0.6200
 4061SOL    HW123816   3.420   2.059   4.625  1.6170  1.2495 -0.6927
 4061SOL    HW223817   3.415   2.183   4.546 -0.0626 -0.4289  0.5304
 4062SOL     OW23818   2.285   0.799  11.243  0.0654  0.2798 -0.1538
 4062SOL    HW123819   2.196   0.788  11.209 -0.0300  1.9670 -0.4330
 4062SOL    HW223820   2.330   0.836  11.168  4.8626 -2.2886  1.4804
 4063SOL     OW23821   1.207   0.068   0.068 -0.2762 -0.1947  0.1022
 4063SOL    HW123822   1.198   0.156   0.104  1.9130  0.0811 -0.0544
 4063SOL    HW223823   1.208   0.088  17.740  2.1263  4.1383  1.0423
 4064SOL     OW23824   4.571   4.024   5.094 -0.4667  0.2526 -0.0559
 4064SOL    HW123825   4.659   3.989   5.105 -1.7256 -2.1838  2.3137
 4064SOL    HW223826   4.543   4.038   5.184 -1.2454 -0.6076 -0.1635
 4065SOL     OW23827   0.292   4.340  16.437  0.1269 -0.2991 -0.2104
 4065SOL    HW123828   0.247   4.325  16.520  0.8479 -1.6988 -0.0676
 4065SOL    HW223829   0.380   4.312  16.463 -0.0169  1.0650  1.7455
 4066SOL     OW23830   2.628   0.020  12.525 -0.0356 -0.1549  0.6199
 4066SOL    HW123831   2.653   0.071  12.448 -0.5440  0.4243  0.8364
 4066SOL    HW223832   2.667   0.066  12.600  1.2543  0.1379 -0.2156
 4067SOL     OW23833   2.579   0.263   6.703  0.6336  0.5801  0.2907
 4067SOL    HW123834   2.635   0.211   6.761 -1.3366 -1.2197  0.5643
 4067SOL    HW223835   2.537   0.196   6.649 -1.0934 -0.6740  3.2071
 4068SOL     OW23836   2.010   1.186   5.081 -0.0135  0.1026  0.0494
 4068SOL    HW123837   2.033   1.279   5.084  1.3616 -0.2660  1.0347
 4068SOL    HW223838   2.054   1.163   4.999  0.8750  0.6242  0.3852
 4069SOL     OW23839   4.042   4.043   4.105 -0.3052 -0.4317 -0.2579
 4069SOL    HW123840   4.007   4.087   4.182  0.1798  1.0592 -0.8884
 4069SOL    HW223841   4.039   3.957   4.147  0.4475 -0.1141  0.4413
 4070SOL     OW23842   1.630   4.493   2.583  0.3965  0.1817  0.3771
 4070SOL    HW123843   1.718   4.487   2.544  0.9702  0.6409  1.6050
 4070SOL    HW223844   1.586   4.481   2.499 -1.1932 -0.5046  1.3124
 4071SOL     OW23845   2.952   2.465   9.464 -0.4601  0.5064  0.5512
 4071SOL    HW123846   3.029   2.415   9.438  0.6902  1.4512  2.1779
 4071SOL    HW223847   2.917   2.421   9.542  0.7610 -1.9365 -0.2704
 4072SOL     OW23848   4.447   4.335   7.566 -0.3555  0.0045  0.4458
 4072SOL    HW123849   4.411   4.298   7.486  0.9137  0.2892 -0.2677
 4072SOL    HW223850   4.485   4.415   7.529 -2.6812  0.9495  0.1580
 4073SOL     OW23851   1.364   2.438   3.975 -0.0419  0.6467  0.3496
 4073SOL    HW123852   1.341   2.351   3.944 -0.1666  0.8296 -0.0785
 4073SOL    HW223853   1.399   2.411   4.060 -0.3161  1.4920  0.7359
 4074SOL     OW23854   3.312   1.062   4.148  0.5701  0.2645  0.0791
 4074SOL    HW123855   3.287   0.971   4.133  1.6337 -0.3281  1.9266
 4074SOL    HW223856   3.323   1.101   4.061  1.1436 -2.3081 -0.9745
 4075SOL     OW23857   2.275   3.994   7.785 -0.1553 -0.0611  0.0527
 4075SOL    HW123858   2.362   3.990   7.746  0.2618 -1.0768  1.0984
 4075SOL    HW223859   2.223   3.927   7.741  0.5473  0.4554 -1.5623
 4076SOL     OW23860   2.351   3.658   7.058 -0.2220  0.6063  0.7423
 4076SOL    HW123861   2.399   3.639   7.139 -0.8892 -0.7275  0.8271
 4076SOL    HW223862   2.416   3.703   7.005  0.2583  1.1637  1.7985
 4077SOL     OW23863   2.667   0.317   8.227  0.1991 -0.0642  0.4104
 4077SOL    HW123864   2.729   0.322   8.154  0.4734 -1.5201  0.5586
 4077SOL    HW223865   2.715   0.274   8.297  2.6099  0.1097 -1.1432
 4078SOL     OW23866   4.027   0.289   3.528  0.8575  0.1424 -0.0719
 4078SOL    HW123867   4.033   0.328   3.441 -2.8579  0.5953 -0.1328
 4078SOL    HW223868   4.051   0.198   3.511  0.8445  0.0245  0.5441
 4079SOL     OW23869   3.867   2.082   5.469  0.0057  0.5140 -0.4847
 4079SOL    HW123870   3.904   2.114   5.387  0.0789 -0.9536 -1.0090
 4079SOL    HW223871   3.880   2.161   5.521  3.0062 -0.0296 -0.4344
 4080SOL     OW23872   2.196   0.399   7.855  0.1752 -0.2162  0.2412
 4080SOL    HW123873   2.102   0.393   7.876  0.1818 -0.4584  0.1994
 4080SOL    HW223874   2.224   0.333   7.918  0.2355 -0.3095  0.1151
 4081SOL     OW23875   1.103   1.842   5.272 -0.7332  0.2524 -0.0108
 4081SOL    HW123876   1.124   1.923   5.225 -0.6351 -0.7148 -1.6580
 4081SOL    HW223877   1.012   1.830   5.245 -0.6340  0.8064 -0.5701
 4082SOL     OW23878   2.764   0.664   6.307  0.2864 -0.7454  0.3337
 4082SOL    HW123879   2.679   0.643   6.345 -0.7065 -0.2599 -1.6001
 4082SOL    HW223880   2.752   0.606   6.232 -1.5203  1.4712 -1.0920
 4083SOL     OW23881   3.355   3.461   5.777  0.3863 -0.2169 -0.2366
 4083SOL    HW123882   3.363   3.555   5.787  1.3272 -0.2739 -0.4726
 4083SOL    HW223883   3.303   3.431   5.851 -0.1100  1.1452 -0.0351
 4084SOL     OW23884   0.741   0.021   0.505  0.1010 -0.2944  0.4275
 4084SOL    HW123885   0.646   0.031   0.507  0.1426  1.1258 -3.4353
 4084SOL    HW223886   0.764   0.090   0.567 -1.2856 -0.1048  0.7346
 4085SOL     OW23887   2.026   3.051   2.336  0.1357 -0.0132 -0.1687
 4085SOL    HW123888   1.997   3.059   2.427  1.7513  0.6731  0.2895
 4085SOL    HW223889   1.944   3.029   2.290  1.0837 -1.6216 -1.1070
 4086SOL     OW23890   0.600   3.774  16.191 -0.3460 -0.0010  0.0559
 4086SOL    HW123891   0.594   3.811  16.103  1.9604  0.6628  0.1700
 4086SOL    HW223892   0.600   3.679  16.180  2.0444 -0.0127  0.0204
 4087SOL     OW23893   3.538   3.397   8.309 -0.5862  0.1729 -0.2372
 4087SOL    HW123894   3.470   3.403   8.242 -1.3488  2.6239  0.7556
 4087SOL    HW223895   3.492   3.427   8.387 -1.0991 -0.4012 -0.3177
 4088SOL     OW23896   3.402   0.346   7.153 -0.0578 -0.7641 -0.2288
 4088SOL    HW123897   3.413   0.300   7.070  2.0935  0.2064 -0.4632
 4088SOL    HW223898   3.324   0.397   7.132  1.1731  1.4683  0.6001
 4089SOL     OW23899   2.351   4.219  14.867 -0.2583 -0.5392  0.3576
 4089SOL    HW123900   2.378   4.252  14.953 -2.2662 -0.9016  1.1442
 4089SOL    HW223901   2.430   4.237  14.817 -0.9231 -1.0018 -0.8472
 4090SOL     OW23902   3.043   1.939  15.787 -0.3500 -0.4544 -0.1516
 4090SOL    HW123903   3.125   1.919  15.833  0.3756  2.7302 -0.0783
 4090SOL    HW223904   2.992   1.975  15.859 -0.4068 -0.4965 -0.1708
 4091SOL     OW23905   3.178   4.037   1.726 -0.8527  0.0130  0.3056
 4091SOL    HW123906   3.165   4.071   1.814  2.1456  0.7835  0.4440
 4091SOL    HW223907   3.264   4.070   1.700  0.0064 -1.4448  1.3329
 4092SOL     OW23908   4.446   1.658  13.712 -0.6440 -0.0873  0.0330
 4092SOL    HW123909   4.412   1.724  13.772  0.4903  0.0947  0.4753
 4092SOL    HW223910   4.368   1.624  13.669  0.3456  0.7668 -2.4368
 4093SOL     OW23911   2.124   3.843   2.512 -0.0671 -0.2800  0.1829
 4093SOL    HW123912   2.166   3.805   2.589  0.7154 -1.5064 -0.8443
 4093SOL    HW223913   2.114   3.931   2.548 -2.2474  0.8894 -3.2780
 4094SOL     OW23914   1.427   0.718  10.495  0.1966 -0.0350  0.0717
 4094SOL    HW123915   1.348   0.692  10.448  0.4563 -0.2660 -0.2361
 4094SOL    HW223916   1.481   0.653  10.450 -2.5931 -2.3822  0.1114
 4095SOL     OW23917   3.100   1.139   6.179  0.4249  0.1537  0.0400
 4095SOL    HW123918   3.115   1.053   6.138 -1.0230 -1.0082  1.9431
 4095SOL    HW223919   3.175   1.150   6.237  0.2274 -0.3149  0.3863
 4096SOL     OW23920   0.537   3.000   2.157 -0.6798 -0.3051 -0.7823
 4096SOL    HW123921   0.494   3.023   2.075 -2.6715 -1.7105 -0.1097
 4096SOL    HW223922   0.623   3.044   2.153 -0.8469 -0.1304 -2.4079
 4097SOL     OW23923   2.531   4.576   1.928 -0.0052  0.0016  0.0023
 4097SOL    HW123924   2.598   4.636   1.894  0.6633 -0.1083  1.1124
 4097SOL    HW223925   2.583   4.495   1.929  2.5527  1.6759  3.5595
 4098SOL     OW23926   3.867   2.122   1.927  0.2162 -0.3401 -0.3495
 4098SOL    HW123927   3.859   2.213   1.955  0.2601 -0.1742 -0.8735
 4098SOL    HW223928   3.934   2.136   1.860  1.5153 -0.3630  0.9543
 4099SOL     OW23929   0.733   3.300   8.117 -0.1615 -0.1697  0.0738
 4099SOL    HW123930   0.772   3.385   8.136 -2.0979  0.9466 -0.9224
 4099SOL    HW223931   0.750   3.251   8.198 -1.5654 -1.8678 -0.6497
 4100SOL     OW23932   1.716   3.347   1.720  0.0244  0.3472  0.2181
 4100SOL    HW123933   1.745   3.427   1.676 -2.6931  0.8845 -0.5959
 4100SOL    HW223934   1.756   3.353   1.807  0.1114  0.5044  0.1683
 4101SOL     OW23935   0.982   0.972   3.385 -0.3664 -0.0889  0.8406
 4101SOL    HW123936   0.970   1.046   3.445  1.9691 -0.2809  1.5242
 4101SOL    HW223937   1.012   1.018   3.307 -2.3354  0.5050  0.4425
 4102SOL     OW23938   4.383   3.273   8.714 -0.1265 -0.2066 -0.4516
 4102SOL    HW123939   4.288   3.286   8.705  0.1217  0.0777 -2.5979
 4102SOL    HW223940   4.411   3.301   8.627  0.9943  0.6048  0.1724
 4103SOL     OW23941   1.250   3.989   2.575  0.1075  0.4549 -0.9485
 4103SOL    HW123942   1.215   4.033   2.653  0.2539  1.1723 -1.2831
 4103SOL    HW223943   1.187   3.918   2.565  0.8972 -0.4219  0.2428
 4104SOL     OW23944   3.277   2.735  11.574 -0.3436 -0.0159 -0.1670
 4104SOL    HW123945   3.279   2.640  11.572  1.7539  0.0753 -2.5102
 4104SOL    HW223946   3.254   2.754  11.665 -2.0956 -2.0543 -0.1777
 4105SOL     OW23947   0.071   2.359   8.647 -0.2157  0.0955 -1.0942
 4105SOL    HW123948   0.001   2.351   8.712 -0.5819  1.1032 -1.3597
 4105SOL    HW223949   0.089   2.453   8.645 -4.1134  0.8714  0.2841
 4106SOL     OW23950   3.837   4.162   6.960  0.0932 -0.1737 -0.2187
 4106SOL    HW123951   3.929   4.181   6.939  0.4568  0.7129  2.2325
 4106SOL    HW223952   3.843   4.069   6.984 -0.4177 -0.2357 -0.3418
 4107SOL     OW23953   2.532   3.616   7.802 -0.3017  0.4233 -0.2946
 4107SOL    HW123954   2.521   3.567   7.884 -3.2308 -1.5521 -1.8563
 4107SOL    HW223955   2.446   3.607   7.761 -1.0808 -1.8454  1.8249
 4108SOL     OW23956   0.708   4.612   3.966  0.1114 -0.4016  0.2757
 4108SOL    HW123957   0.796   4.599   3.930 -0.3121 -1.4953 -0.3765
 4108SOL    HW223958   0.715   4.686   4.026 -0.0883 -0.1799  0.0231
 4109SOL     OW23959   3.380   1.959   3.768 -0.2485 -0.8356  0.6194
 4109SOL    HW123960   3.321   2.029   3.741  0.9216  0.2790  0.9505
 4109SOL    HW223961   3.391   1.996   3.856  0.7892  1.4541 -0.4639
 4110SOL     OW23962   2.901   2.914   1.854 -0.4071  0.5182  0.3768
 4110SOL    HW123963   2.813   2.937   1.822 -0.3354  0.2651 -0.0110
 4110SOL    HW223964   2.890   2.938   1.946 -1.9746 -0.6369  0.5040
 4111SOL     OW23965   2.672   4.506  16.433  0.6513  0.3167 -0.1043
 4111SOL    HW123966   2.636   4.565  16.499 -0.8197  2.4686 -2.8608
 4111SOL    HW223967   2.637   4.428  16.477  1.2522 -0.0225 -0.2188
 4112SOL     OW23968   3.340   1.494  13.905 -0.2803  0.0624  0.0252
 4112SOL    HW123969   3.285   1.512  13.982 -2.4518 -1.4530 -1.1571
 4112SOL    HW223970   3.354   1.401  13.922 -0.6088  0.1836  0.9871
 4113SOL     OW23971   2.203   0.258   2.123 -0.1852 -0.2223 -0.5262
 4113SOL    HW123972   2.143   0.196   2.081  0.9200 -2.7444  1.6235
 4113SOL    HW223973   2.284   0.216   2.096  0.4531  0.6936 -0.0513
 4114SOL     OW23974   1.898   2.124   3.943  0.1623 -0.0952 -0.3802
 4114SOL    HW123975   1.976   2.069   3.941  0.7131  0.6369  0.7784
 4114SOL    HW223976   1.864   2.116   3.854  1.8546 -0.6406 -0.9764
 4115SOL     OW23977   3.063   3.907   4.538 -0.2504  0.0373 -0.5255
 4115SOL    HW123978   3.126   3.836   4.548 -0.9610 -0.5908 -0.4847
 4115SOL    HW223979   3.125   3.978   4.555 -2.4125  1.5880  0.8971
 4116SOL     OW23980   1.217   2.633   4.593  0.0025 -0.9343  0.0912
 4116SOL    HW123981   1.169   2.713   4.614  0.8567 -0.0237 -1.4174
 4116SOL    HW223982   1.229   2.645   4.499  2.9859 -1.9734  0.3313
 4117SOL     OW23983   1.508   1.505   4.099 -0.0658  0.1729 -0.2639
 4117SOL    HW123984   1.423   1.533   4.065 -0.6331 -0.1099  0.9149
 4117SOL    HW223985   1.539   1.575   4.158  1.4301  1.7381 -2.9167
 4118SOL     OW23986   3.868   2.929   8.834 -0.5033 -0.1322  0.2376
 4118SOL    HW123987   3.876   3.023   8.814 -0.0018 -0.2945 -0.3121
 4118SOL    HW223988   3.963   2.917   8.838 -0.5350 -0.4047  0.1450
 4119SOL     OW23989   3.316   0.180   4.301  0.2159  0.1110  0.3099
 4119SOL    HW123990   3.411   0.178   4.312  0.3947 -2.3830 -1.5592
 4119SOL    HW223991   3.299   0.265   4.342  1.1208  0.8165 -0.7934
 4120SOL     OW23992   2.731   4.386   3.184  0.2411  0.2597 -0.1908
 4120SOL    HW123993   2.797   4.334   3.231 -1.1501 -2.4648 -1.2048
 4120SOL    HW223994   2.704   4.451   3.248  0.7073  1.2843 -1.0470
 4121SOL     OW23995   0.833   2.977   9.939 -0.3393 -0.3619  0.4715
 4121SOL    HW123996   0.875   2.911   9.884 -0.1057  1.5416 -1.6380
 4121SOL    HW223997   0.841   2.950  10.031 -3.3788 -0.3386  0.7396
 4122SOL     OW23998   1.959   0.041   9.431  0.0842 -0.2607  0.3714
 4122SOL    HW123999   2.006   4.700   9.438 -1.1603 -0.9579  0.4924
 4122SOL    HW224000   2.025   0.104   9.403  1.8154 -1.7596  1.0991
 4123SOL     OW24001   4.025   3.510   6.099  0.3220 -0.2150  0.1703
 4123SOL    HW124002   3.987   3.442   6.044 -2.3817  0.0439  1.6973
 4123SOL    HW224003   4.072   3.459   6.165 -1.4004  0.9918  2.3340
 4124SOL     OW24004   4.442   3.256   8.175  0.2125  0.1022  0.2843
 4124SOL    HW124005   4.365   3.236   8.122  0.1642  1.6890 -0.2648
 4124SOL    HW224006   4.487   3.172   8.180  0.5107  0.3895  2.7741
 4125SOL     OW24007   4.439   2.917   3.213  0.1297 -0.1059 -0.0765
 4125SOL    HW124008   4.375   2.875   3.155  1.3220 -1.1346 -0.6317
 4125SOL    HW224009   4.471   2.843   3.264 -2.9218 -0.7605  0.9283
 4126SOL     OW24010   1.493   1.092   4.333  0.0274 -0.4975 -0.0957
 4126SOL    HW124011   1.444   1.137   4.264  0.2602  0.1284  0.1515
 4126SOL    HW224012   1.487   1.002   4.300  1.7189 -0.0083 -1.7264
 4127SOL     OW24013   1.372   3.062  12.277  0.0242  0.0452  0.0968
 4127SOL    HW124014   1.325   3.131  12.325  5.1743  2.1547  2.0690
 4127SOL    HW224015   1.396   3.003  12.348 -0.6090 -1.3384 -0.8537
 4128SOL     OW24016   4.623   3.566   4.617 -0.5809 -0.0753 -0.4495
 4128SOL    HW124017   4.683   3.612   4.558 -1.3465  1.3271 -0.1354
 4128SOL    HW224018   4.564   3.639   4.635 -0.4777 -0.2718  0.6904
 4129SOL     OW24019   2.443   4.300   7.512  0.2703  0.0635 -0.3324
 4129SOL    HW124020   2.514   4.334   7.566 -0.3818  0.6184  0.1748
 4129SOL    HW224021   2.427   4.364   7.443  0.8993  1.5731  0.9329
 4130SOL     OW24022   4.716   0.159   2.062  0.1117  0.4557  0.5420
 4130SOL    HW124023   0.004   0.249   2.078  3.0900 -0.4293 -0.1349
 4130SOL    HW224024   4.621   0.167   2.061  0.1736  1.0237 -1.4521
 4131SOL     OW24025   3.816   2.709   5.609 -0.5506  0.1590 -0.2349
 4131SOL    HW124026   3.840   2.641   5.671 -1.7355 -0.4476 -0.4296
 4131SOL    HW224027   3.904   2.744   5.594  0.5353 -2.7911 -0.8069
 4132SOL     OW24028   3.603   1.450   1.673 -0.2802  0.3356  0.4156
 4132SOL    HW124029   3.598   1.471   1.580 -1.3265  0.7561  0.5703
 4132SOL    HW224030   3.687   1.483   1.705  0.7809 -0.6418 -1.3846
 4133SOL     OW24031   4.248   4.274   8.635 -0.0943  0.0153 -0.9567
 4133SOL    HW124032   4.289   4.281   8.721  1.4174 -2.0943 -1.5010
 4133SOL    HW224033   4.311   4.326   8.585 -1.8603  3.0954  0.0463
 4134SOL     OW24034   0.130   0.540  11.143 -0.0188  0.3350  0.2996
 4134SOL    HW124035   0.036   0.538  11.161 -0.1410 -1.6570 -0.5307
 4134SOL    HW224036   0.127   0.613  11.081 -1.9142  1.5886  1.8735
 4135SOL     OW24037   4.309   2.330   0.590  0.1403 -0.2785  0.0923
 4135SOL    HW124038   4.385   2.352   0.535 -1.8026  0.2675 -2.3880
 4135SOL    HW224039   4.242   2.363   0.530 -1.2142 -3.8598 -0.3599
 4136SOL     OW24040   2.686   0.945   9.623 -0.0005 -0.6736  0.2748
 4136SOL    HW124041   2.649   1.005   9.688 -0.9298 -0.5986 -0.3428
 4136SOL    HW224042   2.775   0.967   9.652 -0.4752  0.5350  0.8262
 4137SOL     OW24043   0.696   2.087   5.529 -0.4395 -0.6292 -0.0937
 4137SOL    HW124044   0.666   2.102   5.439 -3.1216 -0.2592  0.8706
 4137SOL    HW224045   0.676   2.170   5.572  0.9079 -1.1082  1.4912
 4138SOL     OW24046   2.832   1.705   3.411 -0.2339 -0.4921 -0.1959
 4138SOL    HW124047   2.926   1.711   3.426 -0.0403  0.1534 -1.6939
 4138SOL    HW224048   2.816   1.778   3.351 -0.7045  1.0639  1.8503
 4139SOL     OW24049   3.436   4.562  12.043  0.3768  0.9749  0.5634
 4139SOL    HW124050   3.459   4.517  11.961 -0.4380 -0.5351  1.1654
 4139SOL    HW224051   3.355   4.606  12.018  0.4738 -0.6957 -2.6895
 4140SOL     OW24052   1.245   0.637   6.533  0.0803 -1.0284 -0.1347
 4140SOL    HW124053   1.220   0.729   6.541 -1.1541 -1.2163 -1.5879
 4140SOL    HW224054   1.319   0.633   6.593  1.6658  0.5808 -1.9765
 4141SOL     OW24055   1.848   0.431  16.622 -0.9896 -0.0174 -0.7521
 4141SOL    HW124056   1.933   0.467  16.595 -1.5227  0.9738 -1.0906
 4141SOL    HW224057   1.859   0.424  16.717  0.8977 -0.0261 -0.9689
 4142SOL     OW24058   1.597   2.246   0.257 -0.1118 -0.3996  0.1940
 4142SOL    HW124059   1.595   2.182   0.186 -1.9175 -0.3651  0.2291
 4142SOL    HW224060   1.647   2.317   0.217 -0.9858  0.1474  0.0775
 4143SOL     OW24061   4.346   1.341   8.401 -0.0903  0.4704 -0.3819
 4143SOL    HW124062   4.395   1.421   8.422  0.2410  0.1996 -0.1081
 4143SOL    HW224063   4.402   1.290   8.342 -0.9392 -0.6464 -0.2020
 4144SOL     OW24064   1.916   4.200   6.121 -0.6711  0.1172 -0.0514
 4144SOL    HW124065   1.984   4.148   6.164 -0.5737  1.5321  1.5191
 4144SOL    HW224066   1.948   4.204   6.031  0.6660 -0.4513  0.3933
 4145SOL     OW24067   3.109   1.889   5.268 -0.1347 -0.2738  0.2268
 4145SOL    HW124068   3.016   1.875   5.282 -0.0740 -0.6666  0.2412
 4145SOL    HW224069   3.111   1.886   5.172 -0.0181  0.0848  0.2178
 4146SOL     OW24070   2.794   0.087   8.072 -0.7445 -0.9168 -0.4983
 4146SOL    HW124071   2.779   0.042   8.155 -0.4740 -1.9362 -0.9997
 4146SOL    HW224072   2.736   0.045   8.009 -3.4450 -0.1450  1.4598
 4147SOL     OW24073   1.498   4.164   7.224 -0.0110  0.3475 -0.5750
 4147SOL    HW124074   1.498   4.230   7.293 -1.3866 -0.0864 -0.1659
 4147SOL    HW224075   1.408   4.163   7.191 -0.9063 -0.4288  1.8880
 4148SOL     OW24076   4.493   0.171   5.296  0.0594  0.2325  0.3229
 4148SOL    HW124077   4.399   0.167   5.311 -0.1140  0.8982 -0.5584
 4148SOL    HW224078   4.535   0.125   5.368  2.0842  0.8025 -0.4732
 4149SOL     OW24079   4.694   3.502   9.629 -0.3719 -0.8579  0.8258
 4149SOL    HW124080   0.040   3.467   9.621  0.4832  1.0548  1.9188
 4149SOL    HW224081   4.713   3.596   9.627  1.6298 -1.3078 -0.6454
 4150SOL     OW24082   1.663   4.386   0.478 -0.2731  0.3428 -0.1872
 4150SOL    HW124083   1.643   4.412   0.568  0.8825 -0.3956  0.2742
 4150SOL    HW224084   1.609   4.307   0.481  1.6825 -0.8211  3.5777
 4151SOL     OW24085   0.908   1.619  14.697  0.5225  0.2927  0.3705
 4151SOL    HW124086   0.979   1.664  14.741 -0.8832  1.1795  1.7487
 4151SOL    HW224087   0.945   1.607  14.610 -1.7773 -2.3030 -0.2553
 4152SOL     OW24088   0.650   0.548  15.957 -0.1877 -0.1506  0.2339
 4152SOL    HW124089   0.674   0.609  16.027 -0.4068  1.0077 -0.6919
 4152SOL    HW224090   0.594   0.494  16.012 -1.7837 -0.0119 -1.2579
 4153SOL     OW24091   2.027   0.402   5.650  0.2011  0.2454 -0.2187
 4153SOL    HW124092   1.991   0.489   5.630  2.3026  0.7818 -1.6052
 4153SOL    HW224093   2.074   0.421   5.731 -2.0308 -0.7882  1.3388
 4154SOL     OW24094   0.999   3.628   6.207 -0.0205 -0.2919 -0.1979
 4154SOL    HW124095   0.956   3.598   6.126 -1.8172 -0.7973  0.9283
 4154SOL    HW224096   1.089   3.635   6.175 -0.2864  1.3811 -0.5808
 4155SOL     OW24097   2.423   1.531   6.389  0.0997 -0.3060  0.4997
 4155SOL    HW124098   2.345   1.571   6.428 -1.1402 -1.7856 -0.4785
 4155SOL    HW224099   2.483   1.539   6.463  0.0713  0.7656  0.4113
 4156SOL     OW24100   2.615   1.523   8.233 -0.5509 -0.4977 -0.1124
 4156SOL    HW124101   2.629   1.618   8.234  0.5763 -0.6939  1.4706
 4156SOL    HW224102   2.525   1.530   8.201 -1.2546 -0.9015  1.8113
 4157SOL     OW24103   2.154   4.734   4.273  0.1724  0.2696 -0.2026
 4157SOL    HW124104   2.240   4.726   4.232  0.1087  4.1078 -1.1203
 4157SOL    HW224105   2.098   4.725   4.196  1.2152  0.8601 -1.0139
 4158SOL     OW24106   4.024   3.041   7.317 -0.3173  0.0455 -0.6635
 4158SOL    HW124107   4.037   3.110   7.251  0.5405  0.4780 -0.0411
 4158SOL    HW224108   4.100   2.985   7.330 -1.1502 -0.6897  1.0197
 4159SOL     OW24109   0.612   2.236   9.090 -0.1046  0.0877 -0.1449
 4159SOL    HW124110   0.519   2.218   9.108  0.2646 -1.0611  0.6285
 4159SOL    HW224111   0.640   2.150   9.058  1.7385  0.8084 -0.4558
 4160SOL     OW24112   0.256   1.820   2.450 -0.0312  0.4090  0.1716
 4160SOL    HW124113   0.284   1.732   2.426 -2.5320  0.5396 -3.1915
 4160SOL    HW224114   0.160   1.811   2.446  0.2924 -2.9033 -0.3359
 4161SOL     OW24115   2.613   4.576   9.371  0.1060  0.7191 -0.0427
 4161SOL    HW124116   2.695   4.621   9.392  0.9652 -2.2615  2.9709
 4161SOL    HW224117   2.640   4.506   9.311 -0.8732 -1.5813  2.2312
 4162SOL     OW24118   0.672   3.150   3.539 -0.2383  0.0735 -0.0214
 4162SOL    HW124119   0.586   3.183   3.512  0.0129  0.8294  0.1130
 4162SOL    HW224120   0.699   3.100   3.462 -0.3157  2.1393 -1.3900
 4163SOL     OW24121   2.027   3.159   5.171 -0.1543  0.4461  0.3142
 4163SOL    HW124122   2.096   3.184   5.232 -0.1612  1.1560  0.0190
 4163SOL    HW224123   1.949   3.170   5.226 -2.3615  1.6750 -3.0387
 4164SOL     OW24124   1.248   2.526   8.737  0.1482 -0.3023  0.3836
 4164SOL    HW124125   1.274   2.455   8.797 -0.9863 -0.4363  0.7200
 4164SOL    HW224126   1.315   2.529   8.670 -1.0459  1.5475 -0.7120
 4165SOL     OW24127   0.250   4.206   3.930 -0.2662 -0.4795 -0.5228
 4165SOL    HW124128   0.318   4.156   3.975 -1.5854 -1.6499  0.1697
 4165SOL    HW224129   0.195   4.232   4.004 -2.5111 -1.1459 -1.9448
 4166SOL     OW24130   1.009   2.976   6.668 -0.0463  0.1005 -0.1995
 4166SOL    HW124131   1.051   3.059   6.649 -1.5475  1.0073  0.4806
 4166SOL    HW224132   0.916   2.997   6.653 -0.2008 -1.7403 -1.9372
 4167SOL     OW24133   3.385   3.444   4.888 -0.0163 -0.7181 -0.7623
 4167SOL    HW124134   3.449   3.412   4.951  1.3066  0.8390 -1.3146
 4167SOL    HW224135   3.310   3.391   4.914 -1.2397  1.5336  0.2886
 4168SOL     OW24136   2.829   3.205   6.021 -0.6915 -0.8312 -0.0661
 4168SOL    HW124137   2.819   3.293   6.058 -1.7391 -0.8362 -0.3260
 4168SOL    HW224138   2.924   3.199   6.008 -0.7442  1.0533 -1.2387
 4169SOL     OW24139   4.403   2.836   8.527  0.5593  0.8158 -0.0062
 4169SOL    HW124140   4.364   2.891   8.460 -1.1394  2.1754  2.0856
 4169SOL    HW224141   4.448   2.765   8.481 -0.0139  1.5230 -1.6301
 4170SOL     OW24142   4.673   1.848   0.617  0.0702  0.1807 -0.0835
 4170SOL    HW124143   0.008   1.833   0.673  0.7932  2.0787 -0.5546
 4170SOL    HW224144   4.698   1.801   0.538  1.9469 -1.4683  1.4920
 4171SOL     OW24145   2.042   4.278  13.133  0.0709  0.3916 -0.2373
 4171SOL    HW124146   2.033   4.369  13.162 -3.2854  0.7820 -2.3901
 4171SOL    HW224147   2.131   4.262  13.164 -0.2024 -0.8930 -0.1130
 4172SOL     OW24148   2.535   2.983   2.361  0.2623  0.0545 -0.3925
 4172SOL    HW124149   2.446   2.952   2.345 -0.3051  1.0938  0.7699
 4172SOL    HW224150   2.573   2.906   2.403 -2.5651  0.3905  2.7385
 4173SOL     OW24151   0.375   2.475   0.142  0.2723  0.2069  0.3066
 4173SOL    HW124152   0.437   2.412   0.106 -1.9944 -2.0886  0.3865
 4173SOL    HW224153   0.411   2.495   0.228  0.3342 -0.5042  0.4457
 4174SOL     OW24154   1.029   4.418   5.778 -0.2234  0.3043  0.3444
 4174SOL    HW124155   1.091   4.472   5.730 -0.2520  1.2630  1.3953
 4174SOL    HW224156   1.047   4.453   5.865  0.3802  1.1700 -0.1353
 4175SOL     OW24157   1.463   2.711   4.345  0.2572  0.0914 -0.2068
 4175SOL    HW124158   1.532   2.655   4.309  0.5330 -1.4971  2.7754
 4175SOL    HW224159   1.388   2.658   4.316 -0.8373  0.8335  1.3026
 4176SOL     OW24160   3.236   4.392   6.931 -0.3661  0.4697  0.0819
 4176SOL    HW124161   3.242   4.487   6.918 -1.8999  0.1824 -2.5048
 4176SOL    HW224162   3.265   4.387   7.023 -3.3258  4.2209  1.2137
 4177SOL     OW24163   1.302   4.189   3.682 -0.3421 -0.2125 -0.2525
 4177SOL    HW124164   1.219   4.149   3.711  0.1106 -0.4255  0.7355
 4177SOL    HW224165   1.365   4.117   3.689  0.4977  0.6027  0.5138
 4178SOL     OW24166   4.004   0.254   6.557 -0.7632 -0.3613  0.4969
 4178SOL    HW124167   4.066   0.191   6.596 -0.1757  0.8057  1.4389
 4178SOL    HW224168   4.067   0.311   6.512 -1.6912  0.7106  0.5686
 4179SOL     OW24169   4.428   4.580   9.966  0.0367  0.4106  0.5150
 4179SOL    HW124170   4.440   4.611   9.876 -1.5595  0.0471  0.1743
 4179SOL    HW224171   4.507   4.616  10.007 -1.3433 -0.2161  3.7210
 4180SOL     OW24172   1.687   4.188   3.809 -0.7297  0.0412 -0.3079
 4180SOL    HW124173   1.665   4.163   3.719 -0.5853  2.6859 -1.0826
 4180SOL    HW224174   1.768   4.139   3.824  0.8447  2.2447 -1.7044
 4181SOL     OW24175   4.615   2.023   5.058  0.3459  0.0187  0.0101
 4181SOL    HW124176   4.584   1.968   4.987  3.3577 -1.3539 -0.2330
 4181SOL    HW224177   4.654   1.955   5.113  1.1833  0.0291 -0.5863
 4182SOL     OW24178   4.230   1.898   0.919 -0.3853 -0.4946 -0.0352
 4182SOL    HW124179   4.207   1.813   0.884  1.4268 -0.4980 -1.1823
 4182SOL    HW224180   4.260   1.940   0.839 -0.0971 -0.7757 -0.0719
 4183SOL     OW24181   3.399   4.676   3.435  0.0666 -0.3755  0.6319
 4183SOL    HW124182   3.478   4.727   3.452  1.8657 -2.3727 -1.8674
 4183SOL    HW224183   3.339   0.006   3.419  1.5979  0.1814 -2.4811
 4184SOL     OW24184   4.062   2.683   8.129 -0.3932 -0.0574  0.6244
 4184SOL    HW124185   4.026   2.711   8.213  1.2229  2.3183  0.5422
 4184SOL    HW224186   4.152   2.657   8.145 -0.0917  1.7031  1.7921
 4185SOL     OW24187   2.225   3.093  14.860 -0.2818  0.0480 -0.1113
 4185SOL    HW124188   2.247   3.141  14.940  2.4571 -0.3584 -0.6014
 4185SOL    HW224189   2.166   3.156  14.819  1.2431  1.4612 -0.1136
 4186SOL     OW24190   2.471   3.450   3.485  0.3055  0.1991  0.4897
 4186SOL    HW124191   2.449   3.464   3.577 -1.7537  1.1650 -0.1381
 4186SOL    HW224192   2.515   3.530   3.458 -0.7816 -0.1795 -2.3624
 4187SOL     OW24193   4.356   2.796   7.999 -0.1946  0.1535  0.5150
 4187SOL    HW124194   4.305   2.793   7.918  1.4589 -0.7913 -0.4953
 4187SOL    HW224195   4.345   2.706   8.031  1.0219 -1.3110 -3.1030
 4188SOL     OW24196   1.312   4.520   1.487 -0.4036  0.4087  0.2677
 4188SOL    HW124197   1.260   4.595   1.461  1.2668  0.6485 -2.3319
 4188SOL    HW224198   1.377   4.533   1.418  0.9007 -0.3081  1.3466
 4189SOL     OW24199   3.292   2.971   4.188  0.5853  0.1436  0.3485
 4189SOL    HW124200   3.245   2.901   4.142  0.1341  0.1993  0.7261
 4189SOL    HW224201   3.243   2.962   4.270 -0.2757  0.2703 -0.1593
 4190SOL     OW24202   2.497   4.339  11.477 -0.1668  0.4485  0.1066
 4190SOL    HW124203   2.544   4.410  11.521  2.2164 -0.1460 -1.5001
 4190SOL    HW224204   2.568   4.299  11.427  1.1680 -1.7488  3.6968
 4191SOL     OW24205   1.875   1.930   2.567  0.5753  0.2399 -0.4813
 4191SOL    HW124206   1.885   1.942   2.472 -2.2474  1.6044 -0.6065
 4191SOL    HW224207   1.788   1.964   2.588  1.0272 -0.6914  2.9189
 4192SOL     OW24208   2.923   0.059  12.486 -0.0464 -0.0885  0.6049
 4192SOL    HW124209   2.875   0.080  12.566  0.3622  0.4144  0.7165
 4192SOL    HW224210   2.859   0.101  12.428 -0.5074 -0.6922  0.6673
 4193SOL     OW24211   4.110   3.828   2.539 -0.3188 -0.1373 -0.5599
 4193SOL    HW124212   4.052   3.766   2.496 -0.7928  0.2888 -0.5415
 4193SOL    HW224213   4.104   3.815   2.633 -1.9343 -0.3755 -0.6879
 4194SOL     OW24214   4.332   0.221   2.998  0.6674  0.0540 -0.3164
 4194SOL    HW124215   4.243   0.186   2.997  0.6790  0.0546 -1.1560
 4194SOL    HW224216   4.333   0.313   2.969 -0.5550  0.2835  0.3628
 4195SOL     OW24217   2.398   4.157   1.070  0.3674 -0.3209  0.0419
 4195SOL    HW124218   2.333   4.134   1.003 -0.0454  2.3407 -0.4723
 4195SOL    HW224219   2.344   4.192   1.140 -1.2622 -0.7743 -0.9949
 4196SOL     OW24220   2.391   4.411   5.941  0.3997 -0.1423 -0.3377
 4196SOL    HW124221   2.361   4.343   5.881  2.7444 -2.2674  0.8852
 4196SOL    HW224222   2.305   4.450   5.959  1.0294  1.3682 -0.5707
 4197SOL     OW24223   0.692   1.472  11.871 -0.1807 -0.4433 -0.0713
 4197SOL    HW124224   0.724   1.382  11.874  2.0370  0.3848  1.4344
 4197SOL    HW224225   0.694   1.474  11.776 -0.4008 -1.1017 -0.0871
 4198SOL     OW24226   1.828   3.318   8.243 -0.1302  0.2959 -0.4256
 4198SOL    HW124227   1.768   3.390   8.262  0.1558  1.0078 -2.2050
 4198SOL    HW224228   1.774   3.281   8.173  0.1549  1.1438 -1.0994
 4199SOL     OW24229   0.035   3.849   8.215 -0.4717 -0.3601  0.1666
 4199SOL    HW124230   4.737   3.913   8.157  1.4047  0.1560 -0.5612
 4199SOL    HW224231   4.728   3.767   8.207  0.0962 -0.5084 -1.7121
 4200SOL     OW24232   3.616   2.946  11.647 -0.3007  0.7769  0.0441
 4200SOL    HW124233   3.561   2.969  11.722 -0.0398  2.0335 -0.1575
 4200SOL    HW224234   3.559   2.958  11.571 -1.5470  1.6408  1.1049
 4201SOL     OW24235   2.003   3.405   1.477 -0.1629  0.2155  0.6989
 4201SOL    HW124236   2.050   3.468   1.422  0.6416 -0.9594  0.0489
 4201SOL    HW224237   1.961   3.353   1.408  0.0050  1.9311 -0.6995
 4202SOL     OW24238   3.530   4.330   5.406  0.0561  0.5231  0.7117
 4202SOL    HW124239   3.499   4.282   5.482 -1.1960 -0.2409 -0.2792
 4202SOL    HW224240   3.615   4.353   5.443  0.4762  1.0669 -0.5922
 4203SOL     OW24241   2.861   4.280   7.349  0.0227  0.2579 -0.0817
 4203SOL    HW124242   2.953   4.275   7.326  0.2784  0.2100  0.9506
 4203SOL    HW224243   2.866   4.319   7.436  0.3591  0.8845 -0.3832
 4204SOL     OW24244   0.182   3.040  12.482  0.0063  0.0943  0.0623
 4204SOL    HW124245   0.165   3.067  12.572 -2.2408 -2.6697  0.4709
 4204SOL    HW224246   0.273   3.063  12.464  0.4328 -3.1597 -2.0346
 4205SOL     OW24247   3.230   0.299   5.151  0.4114 -0.2515  0.3649
 4205SOL    HW124248   3.148   0.253   5.170  0.0697 -0.2434 -1.0960
 4205SOL    HW224249   3.218   0.372   5.212 -3.6883 -1.1883  0.6842
 4206SOL     OW24250   2.053   2.638   7.222  0.2211 -0.0655  0.4671
 4206SOL    HW124251   2.141   2.674   7.218 -1.1932  3.0871 -1.9944
 4206SOL    HW224252   2.021   2.677   7.303  0.1938 -0.5178  0.6739
 4207SOL     OW24253   2.708   4.416   0.118  0.1472  0.0254  0.4203
 4207SOL    HW124254   2.694   4.340   0.173  0.3584 -0.9478 -0.8839
 4207SOL    HW224255   2.726   4.483   0.185 -1.2042  0.9894 -0.1888
 4208SOL     OW24256   3.760   1.072   9.185  0.7762  0.3584 -0.5358
 4208SOL    HW124257   3.828   1.109   9.128 -0.7993  1.0649 -1.9567
 4208SOL    HW224258   3.731   1.156   9.221 -0.2232  0.1211 -0.7954
 4209SOL     OW24259   3.781   4.280   1.297 -0.2054 -0.1762 -0.2110
 4209SOL    HW124260   3.819   4.213   1.240  2.4322 -0.4420  1.8696
 4209SOL    HW224261   3.821   4.254   1.381 -0.8161  0.6215  0.3274
 4210SOL     OW24262   0.052   4.624   3.792 -0.1682 -0.2751  0.9348
 4210SOL    HW124263   0.105   4.649   3.868  0.5669 -1.1559  0.7059
 4210SOL    HW224264   4.738   4.552   3.822  0.1073 -0.2554  1.5118
 4211SOL     OW24265   4.412   4.007   1.769 -0.5159  0.1777 -0.0131
 4211SOL    HW124266   4.485   3.949   1.749 -1.0102 -0.3444 -0.3266
 4211SOL    HW224267   4.350   3.983   1.700 -1.3110  0.2669  0.6693
 4212SOL     OW24268   3.648   0.462   9.052  0.5927 -0.1196  0.3420
 4212SOL    HW124269   3.669   0.515   8.975 -3.2021  1.8875  0.6464
 4212SOL    HW224270   3.604   0.527   9.106  0.2141 -2.4082  2.7386
 4213SOL     OW24271   0.110   4.458  15.646  0.1577  0.5572  0.4651
 4213SOL    HW124272   0.120   4.364  15.629  3.0586  0.4699  2.6180
 4213SOL    HW224273   0.087   4.489  15.559 -0.1151  0.0390  0.3519
 4214SOL     OW24274   0.038   2.061  17.277  0.1512  0.6161 -0.3447
 4214SOL    HW124275   0.047   2.065  17.182 -0.6886  0.3118 -0.4430
 4214SOL    HW224276   0.130   2.061  17.303  0.0656  0.5764 -0.0337
 4215SOL     OW24277   0.388   3.307   0.208 -0.1692  0.3479 -0.3986
 4215SOL    HW124278   0.404   3.396   0.175  1.7165 -0.2459 -1.0756
 4215SOL    HW224279   0.376   3.322   0.301 -2.1589  1.5590 -0.8585
 4216SOL     OW24280   0.349   1.547  16.451  0.8049 -0.0129  0.1644
 4216SOL    HW124281   0.377   1.561  16.542  0.1794 -0.3914  0.4171
 4216SOL    HW224282   0.268   1.498  16.462  0.6527 -0.2755 -2.1758
 4217SOL     OW24283   1.542   0.407   2.494  0.0176 -0.2281 -0.6975
 4217SOL    HW124284   1.638   0.408   2.492  0.0148  0.6374 -0.5349
 4217SOL    HW224285   1.531   0.350   2.569 -1.8667  1.1068  0.0371
 4218SOL     OW24286   1.403   0.611  15.857  0.4379 -0.3628 -0.1873
 4218SOL    HW124287   1.312   0.582  15.854  0.4994 -0.7977  2.3259
 4218SOL    HW224288   1.389   0.704  15.873  0.5038 -0.5519  0.9966
 4219SOL     OW24289   1.856   2.480   3.568 -0.1103  0.4599 -0.1076
 4219SOL    HW124290   1.761   2.481   3.554 -0.1140  0.2098 -0.0882
 4219SOL    HW224291   1.890   2.445   3.486  1.6133 -0.3286  0.9615
 4220SOL     OW24292   3.508   4.168   8.205 -0.1176  0.5346  0.1574
 4220SOL    HW124293   3.436   4.107   8.217  1.9410 -2.2800 -1.7033
 4220SOL    HW224294   3.585   4.116   8.180  0.5540  1.8156 -0.4420
 4221SOL     OW24295   3.747   1.481   7.768  0.1234  0.2507  0.0363
 4221SOL    HW124296   3.750   1.387   7.783 -0.9881 -0.2964 -3.1378
 4221SOL    HW224297   3.694   1.503   7.844  0.8729  0.2686  0.5603
 4222SOL     OW24298   0.932   4.350   2.846  0.1211  0.1780 -0.5637
 4222SOL    HW124299   0.849   4.370   2.890  0.4903 -0.6822  0.5103
 4222SOL    HW224300   0.896   4.317   2.764 -0.8736  2.6499 -1.1375
 4223SOL     OW24301   0.705   4.308  17.313  0.2487 -0.2368  0.2688
 4223SOL    HW124302   0.678   4.311  17.404 -0.6918 -1.0600  0.0208
 4223SOL    HW224303   0.788   4.355  17.319 -0.7919  1.3183  2.3127
 4224SOL     OW24304   4.719   0.037  14.681  0.5458  0.0852  0.3867
 4224SOL    HW124305   0.027   0.091  14.742  1.8569  1.4019 -1.8514
 4224SOL    HW224306   4.690   4.699  14.725  1.2448 -0.1137  0.4776
 4225SOL     OW24307   0.717   1.513   4.008  0.6473 -0.5323 -0.0932
 4225SOL    HW124308   0.643   1.555   4.051  1.1128 -0.8507  1.0125
 4225SOL    HW224309   0.663   1.455   3.953 -0.5131 -0.4340  0.9555
 4226SOL     OW24310   2.436   2.558  13.345 -1.1507  0.0027 -0.0091
 4226SOL    HW124311   2.430   2.469  13.382  1.1623 -1.1499 -2.4066
 4226SOL    HW224312   2.408   2.543  13.255  1.2274  0.9100 -0.9180
 4227SOL     OW24313   1.524   4.398   3.433 -0.2557 -0.1785  0.0648
 4227SOL    HW124314   1.452   4.436   3.484  1.3446  2.4238  0.3517
 4227SOL    HW224315   1.518   4.441   3.348 -0.3731  0.2408  0.2812
 4228SOL     OW24316   4.044   3.205   9.802  0.2957  0.5281 -0.3218
 4228SOL    HW124317   4.131   3.193   9.764 -0.2477  0.7334 -1.6144
 4228SOL    HW224318   3.999   3.225   9.720  0.5899 -1.1356 -0.8900
 4229SOL     OW24319   2.641   2.957   3.895  1.3211 -0.3367  0.2468
 4229SOL    HW124320   2.568   3.000   3.939  2.1662  3.1873 -1.8102
 4229SOL    HW224321   2.709   3.024   3.901  0.0093  0.9620  0.4140
 4230SOL     OW24322   2.466   4.429  17.214 -0.7470 -0.8607  0.4615
 4230SOL    HW124323   2.425   4.344  17.198 -1.5779 -0.4126  0.2339
 4230SOL    HW224324   2.439   4.464  17.130  1.1679 -0.4963 -0.0104
 4231SOL     OW24325   2.906   2.327   8.658  0.4162 -0.2381 -0.1090
 4231SOL    HW124326   3.001   2.334   8.655  0.1942  2.3715 -0.5064
 4231SOL    HW224327   2.894   2.232   8.657  1.6078 -0.3916  2.3068
 4232SOL     OW24328   3.723   1.106   6.834  0.0127 -0.1984  0.2728
 4232SOL    HW124329   3.761   1.193   6.833  0.6797 -0.4662  2.5197
 4232SOL    HW224330   3.796   1.045   6.821 -0.3391 -0.8126  1.1428
 4233SOL     OW24331   0.374   0.741   0.850 -0.2631  0.0936 -0.7590
 4233SOL    HW124332   0.328   0.660   0.826  1.5286 -1.3361  0.5800
 4233SOL    HW224333   0.348   0.800   0.779  0.7088 -0.7939 -1.8533
 4234SOL     OW24334   1.714   0.355   5.098  0.0083  0.4229  0.0655
 4234SOL    HW124335   1.629   0.359   5.141 -0.2159 -0.0069 -0.3444
 4234SOL    HW224336   1.696   0.350   5.005 -0.4256 -2.0250  0.2897
 4235SOL     OW24337   0.565   1.696   8.439 -0.8274  0.0941 -0.0959
 4235SOL    HW124338   0.494   1.679   8.377 -0.1788  0.3696 -0.9180
 4235SOL    HW224339   0.596   1.605   8.437  0.0661  0.3930 -0.1411
 4236SOL     OW24340   0.975   3.929   3.061  0.1760 -0.3078  0.2865
 4236SOL    HW124341   1.025   3.981   3.124  0.5362  0.9223 -1.0134
 4236SOL    HW224342   0.887   3.954   3.090 -0.0993  1.3875 -2.0228
 4237SOL     OW24343   1.306   1.618   3.936  0.1880  0.1330 -0.1423
 4237SOL    HW124344   1.215   1.616   3.907  1.3232 -1.3825 -3.6144
 4237SOL    HW224345   1.347   1.594   3.853  2.5819 -2.7870  1.8511
 4238SOL     OW24346   0.863   4.304  10.624  0.9577  0.2004  0.5827
 4238SOL    HW124347   0.769   4.316  10.637  0.7426  0.8785 -1.6270
 4238SOL    HW224348   0.873   4.339  10.535  1.1046  0.5399  0.7361
 4239SOL     OW24349   0.118   3.175   2.165  0.4225  0.3531 -0.2320
 4239SOL    HW124350   0.067   3.163   2.085  0.0015  1.3398 -0.1168
 4239SOL    HW224351   0.057   3.143   2.231  0.3031 -0.2800 -0.6536
 4240SOL     OW24352   1.698   4.702  10.525 -0.2200  0.6427  0.1231
 4240SOL    HW124353   1.706   0.032  10.588  0.1540  1.3354 -0.7246
 4240SOL    HW224354   1.702   0.006  10.442 -2.1521  0.0497 -0.3067
 4241SOL     OW24355   1.542   1.863   7.227  0.1274  0.0388 -0.4893
 4241SOL    HW124356   1.491   1.933   7.187 -0.3196  0.6892  1.2305
 4241SOL    HW224357   1.486   1.785   7.221 -0.6874  0.8489 -3.3901
 4242SOL     OW24358   3.939   0.674   2.364 -0.7058 -0.2200 -0.2037
 4242SOL    HW124359   3.874   0.735   2.330  0.6554  0.9739 -0.6857
 4242SOL    HW224360   4.002   0.726   2.415 -1.0237 -0.5895  0.5533
 4243SOL     OW24361   4.075   4.248   2.921 -0.3118  0.3659  0.1083
 4243SOL    HW124362   4.056   4.205   2.837 -3.3211  0.0235  0.9764
 4243SOL    HW224363   3.990   4.289   2.937 -1.1249 -1.1510 -0.2651
 4244SOL     OW24364   0.761   0.087   3.354 -0.2623 -0.0023 -0.2518
 4244SOL    HW124365   0.771   0.092   3.449  1.8497 -0.4650 -0.4509
 4244SOL    HW224366   0.686   0.146   3.352  0.5064  0.9124 -1.7062
 4245SOL     OW24367   0.608   3.722   1.133  0.5261 -0.1943  0.3362
 4245SOL    HW124368   0.594   3.734   1.039 -0.4713 -0.0359  0.4977
 4245SOL    HW224369   0.702   3.714   1.148 -0.0106 -2.6138  2.5957
 4246SOL     OW24370   0.582   1.226   3.608  0.3083 -0.9160 -0.4060
 4246SOL    HW124371   0.647   1.246   3.541  0.8460  0.9457  0.6647
 4246SOL    HW224372   0.527   1.164   3.561 -1.6775  1.2116 -0.8901
 4247SOL     OW24373   1.069   1.871   6.722  0.1309  0.2140  0.0257
 4247SOL    HW124374   1.001   1.878   6.789  0.4816 -3.5062  0.7443
 4247SOL    HW224375   1.075   1.965   6.703  1.4733 -0.5017 -3.0076
 4248SOL     OW24376   3.490   0.328  11.559 -0.6058  0.1333  0.2854
 4248SOL    HW124377   3.488   0.357  11.468 -1.2849 -2.7934 -0.6164
 4248SOL    HW224378   3.584   0.312  11.555 -0.5628  0.5569 -0.4731
 4249SOL     OW24379   1.387   4.659   8.780 -0.0281 -0.3174 -0.0100
 4249SOL    HW124380   1.368   4.608   8.702 -1.9274 -1.5105  1.2374
 4249SOL    HW224381   1.306   4.674   8.829 -0.2255  0.6690 -0.6414
 4250SOL     OW24382   1.510   4.199  11.775 -0.4851  0.4531  1.3561
 4250SOL    HW124383   1.475   4.113  11.796 -3.5346  1.1407 -0.8605
 4250SOL    HW224384   1.439   4.251  11.812 -0.8984  1.6800 -1.1068
 4251SOL     OW24385   4.482   0.654   2.050  0.0136 -0.8300 -0.4313
 4251SOL    HW124386   4.561   0.705   2.029  0.9451 -1.6956  1.0162
 4251SOL    HW224387   4.494   0.573   2.000 -1.0918 -1.5723  0.5163
 4252SOL     OW24388   2.853   0.056  12.056 -0.1721  0.6130  0.8079
 4252SOL    HW124389   2.789   0.115  12.016 -0.8044 -1.6006 -1.4221
 4252SOL    HW224390   2.897   0.113  12.119 -2.3256  1.0263  1.9339
 4253SOL     OW24391   1.413   2.961   3.220  0.1416 -0.4646 -0.1249
 4253SOL    HW124392   1.429   2.922   3.134 -0.4368  0.9990 -0.9017
 4253SOL    HW224393   1.321   2.986   3.218  0.4727  0.7184 -0.5991
 4254SOL     OW24394   1.236   1.806   7.674 -0.3705 -0.0258 -0.1204
 4254SOL    HW124395   1.150   1.776   7.705 -0.7723  1.1774 -0.0747
 4254SOL    HW224396   1.274   1.723   7.646 -0.0858  0.8667 -2.4267
 4255SOL     OW24397   4.414   1.100  12.237 -0.7683  0.6166  0.6317
 4255SOL    HW124398   4.507   1.106  12.215 -0.8978  0.8010  0.1399
 4255SOL    HW224399   4.408   1.105  12.333 -0.4466 -1.6898  0.7815
 4256SOL     OW24400   2.271   1.140   6.204  0.1006  0.1585 -0.1795
 4256SOL    HW124401   2.226   1.186   6.274 -1.3201  0.2667 -1.1537
 4256SOL    HW224402   2.236   1.052   6.219  0.1591  0.0926 -0.4316
 4257SOL     OW24403   0.846   3.111  16.876 -0.3278 -0.2964  0.5064
 4257SOL    HW124404   0.852   3.199  16.839 -0.1778 -0.8382 -0.7839
 4257SOL    HW224405   0.891   3.132  16.957 -2.3237  0.0170  1.5346
 4258SOL     OW24406   1.227   3.730  13.652 -0.2055  0.3444  0.0467
 4258SOL    HW124407   1.165   3.660  13.628 -0.4241  0.3253  0.6724
 4258SOL    HW224408   1.296   3.675  13.691  1.1632 -0.6385 -3.7433
 4259SOL     OW24409   1.437   1.326  13.045 -0.4765  0.1453 -0.1661
 4259SOL    HW124410   1.344   1.348  13.034 -0.6295  0.1262  1.0172
 4259SOL    HW224411   1.431   1.232  13.062 -1.8298  0.2117 -0.2402
 4260SOL     OW24412   2.922   3.434   8.956  0.0038 -0.1238 -0.3184
 4260SOL    HW124413   3.014   3.460   8.962 -0.3792  0.5000  2.9978
 4260SOL    HW224414   2.929   3.350   9.002  2.2995  0.1296 -0.1969
 4261SOL     OW24415   4.596   2.357   8.824 -0.4434  0.1016 -0.2485
 4261SOL    HW124416   4.539   2.434   8.824 -1.0573 -0.3569  0.7587
 4261SOL    HW224417   4.576   2.319   8.909  1.4510  1.7745  0.9779
 4262SOL     OW24418   2.953   0.623  14.115 -0.3256 -0.0025  0.0113
 4262SOL    HW124419   2.864   0.656  14.100 -1.0935 -2.2154 -0.3411
 4262SOL    HW224420   2.923   0.532  14.110  1.6613 -0.5844 -1.0157
 4263SOL     OW24421   1.799   1.945   2.285 -0.0030 -0.1409 -0.1783
 4263SOL    HW124422   1.788   2.025   2.233 -0.5699 -0.8846 -1.2133
 4263SOL    HW224423   1.707   1.919   2.287 -0.1956  0.6212  0.8427
 4264SOL     OW24424   2.397   0.987   3.030  0.3565  0.2019  0.5232
 4264SOL    HW124425   2.323   0.929   3.011  0.1669  0.5220  0.2872
 4264SOL    HW224426   2.427   1.004   2.941 -0.4602 -2.2524 -0.2401
 4265SOL     OW24427   3.342   2.057   3.313 -0.2469 -0.1292  0.5165
 4265SOL    HW124428   3.350   2.018   3.400 -1.7781 -1.3449  0.1118
 4265SOL    HW224429   3.289   1.985   3.280 -3.3024  1.4012  2.0233
 4266SOL     OW24430   3.196   2.965   7.785  0.3367 -0.4327  0.4162
 4266SOL    HW124431   3.197   2.935   7.876  1.8804  0.5790  0.7437
 4266SOL    HW224432   3.224   2.886   7.739 -1.5296 -1.5159  1.1286
 4267SOL     OW24433   1.091   0.090   1.871  0.2847 -0.4170 -0.0762
 4267SOL    HW124434   1.184   0.115   1.868  0.6430 -1.7916 -0.7760
 4267SOL    HW224435   1.087   0.060   1.962 -2.7224  1.0723  0.2533
 4268SOL     OW24436   0.133   2.104   2.780  0.0100  0.4846  0.3428
 4268SOL    HW124437   0.205   2.059   2.737 -3.3954 -3.5585 -1.1689
 4268SOL    HW224438   0.129   2.062   2.867  0.5906 -0.5464 -0.1200
 4269SOL     OW24439   3.619   4.199   6.790 -0.0918  0.7030 -0.0628
 4269SOL    HW124440   3.574   4.116   6.773  0.3803  0.1554  1.3747
 4269SOL    HW224441   3.690   4.169   6.846  0.3165  1.0682 -0.3875
 4270SOL     OW24442   1.631   1.655   4.432  0.2652  0.3605 -0.3026
 4270SOL    HW124443   1.723   1.669   4.409  0.1569  2.6974  0.6702
 4270SOL    HW224444   1.607   1.564   4.417  1.8694 -0.2300  0.8083
 4271SOL     OW24445   3.157   4.560   6.293  0.1503 -0.0572 -0.3673
 4271SOL    HW124446   3.250   4.578   6.307 -0.4626  2.0679  1.0571
 4271SOL    HW224447   3.122   4.633   6.344  1.4087  0.9559 -0.9707
 4272SOL     OW24448   4.637   0.353   3.573 -0.1294 -0.3832  0.0824
 4272SOL    HW124449   4.687   0.296   3.632 -0.7373 -1.1749 -0.1673
 4272SOL    HW224450   4.597   0.297   3.506 -0.3542  0.9511 -0.8974
 4273SOL     OW24451   1.449   2.848   4.039  0.0796  0.1721 -0.2486
 4273SOL    HW124452   1.358   2.852   4.066  0.4302 -0.0903  0.9836
 4273SOL    HW224453   1.445   2.779   3.972  2.3406 -0.3223  0.1180
 4274SOL     OW24454   3.573   3.091  15.829  0.2453 -0.4069  0.0951
 4274SOL    HW124455   3.569   3.184  15.852  2.8884  0.1186 -1.5913
 4274SOL    HW224456   3.660   3.073  15.864  0.6191  1.0187 -0.1107
 4275SOL     OW24457   3.178   2.102   4.406 -0.1062 -0.4883  0.1151
 4275SOL    HW124458   3.228   2.105   4.325  1.5357 -1.6208  1.0888
 4275SOL    HW224459   3.245   2.088   4.472 -0.6334 -0.2379  0.7056
 4276SOL     OW24460   4.113   1.477   5.416  0.0206  0.4254 -0.4873
 4276SOL    HW124461   4.069   1.532   5.351  1.3479  2.5310  0.3787
 4276SOL    HW224462   4.045   1.463   5.481  0.8627 -0.6219  0.1743
 4277SOL     OW24463   0.924   2.449  16.664 -0.1245 -0.3247 -0.0301
 4277SOL    HW124464   0.906   2.470  16.756  2.9980  1.5653  0.1538
 4277SOL    HW224465   0.950   2.358  16.652  2.9895  0.9049 -2.6077
 4278SOL     OW24466   2.294   4.319  13.219  0.0127 -0.4894  0.2505
 4278SOL    HW124467   2.324   4.407  13.241  0.6389  0.0664 -2.9659
 4278SOL    HW224468   2.372   4.268  13.244  0.3268 -0.0396  0.1832
 4279SOL     OW24469   1.974   2.844  16.996  0.1467  0.5818  0.6267
 4279SOL    HW124470   1.960   2.891  17.079  1.3899 -0.3823  1.3813
 4279SOL    HW224471   2.069   2.847  16.989  0.2605  1.6399  2.4970
 4280SOL     OW24472   3.094   3.497  16.169  0.2406 -0.2702  0.3440
 4280SOL    HW124473   3.066   3.589  16.162 -1.4987 -0.9422 -1.8195
 4280SOL    HW224474   3.009   3.456  16.154 -0.6593  0.9111  2.1812
 4281SOL     OW24475   2.888   1.819   4.596  0.1060 -0.3219  0.5806
 4281SOL    HW124476   2.798   1.791   4.614 -0.1514  2.0323  2.9736
 4281SOL    HW224477   2.900   1.898   4.648 -2.3146  0.7683 -0.5567
 4282SOL     OW24478   2.287   2.494   3.128 -0.3803  0.0148 -0.0716
 4282SOL    HW124479   2.269   2.442   3.050 -0.1811 -0.3711  0.1379
 4282SOL    HW224480   2.299   2.579   3.085 -2.5201 -0.3442 -1.3359
 4283SOL     OW24481   2.409   3.824   3.403  0.0505  0.0183 -0.4280
 4283SOL    HW124482   2.479   3.810   3.467 -1.6282  2.8434  2.0493
 4283SOL    HW224483   2.425   3.917   3.385  0.7812  0.1829  1.0601
 4284SOL     OW24484   1.697   2.193   2.169  0.2696  0.3214  0.4388
 4284SOL    HW124485   1.657   2.206   2.083 -1.0817  1.0220  1.1789
 4284SOL    HW224486   1.630   2.224   2.230 -0.9312  0.0500 -0.7706
 4285SOL     OW24487   4.121   1.804   7.441 -0.0129 -0.5926 -0.0464
 4285SOL    HW124488   4.089   1.767   7.358  1.1629  0.1623 -0.8354
 4285SOL    HW224489   4.046   1.849   7.479  0.5014  2.6833 -2.9277
 4286SOL     OW24490   0.825   1.008  12.620  0.1517  0.1736 -0.0631
 4286SOL    HW124491   0.869   0.924  12.632  1.7435  1.2094  1.2833
 4286SOL    HW224492   0.874   1.035  12.542  0.3406  1.7639  0.6011
 4287SOL     OW24493   0.287   2.773  11.226  0.4091  1.0073  0.0646
 4287SOL    HW124494   0.197   2.759  11.253  0.8085 -1.0448  0.3096
 4287SOL    HW224495   0.334   2.718  11.289 -0.5821  0.8413  0.6531
 4288SOL     OW24496   1.039   1.693   5.775 -0.3185 -0.3004 -0.2346
 4288SOL    HW124497   1.002   1.770   5.817  0.2204 -1.2276  1.9231
 4288SOL    HW224498   1.134   1.698   5.786 -0.4336  2.2876 -0.5636
 4289SOL     OW24499   3.362   4.538  11.340 -0.1407 -0.1021  0.4037
 4289SOL    HW124500   3.292   4.543  11.405  2.3018  0.6625  2.9786
 4289SOL    HW224501   3.406   4.622  11.328 -1.3216  0.7717  2.1156
 4290SOL     OW24502   2.620   2.953   1.756 -0.8795  0.3434 -0.3712
 4290SOL    HW124503   2.551   3.007   1.796 -0.4819  0.8939 -0.4377
 4290SOL    HW224504   2.601   2.979   1.666 -2.2087  1.2240  0.1631
 4291SOL     OW24505   0.210   1.687   5.407  0.3565 -0.5990 -0.0769
 4291SOL    HW124506   0.141   1.746   5.375  1.9375  0.8003 -0.8738
 4291SOL    HW224507   0.289   1.716   5.361  0.9358 -2.3840 -0.2036
 4292SOL     OW24508   0.004   1.971   3.092  0.4517  0.8603  0.5323
 4292SOL    HW124509   4.728   2.032   3.164 -2.9348  0.9107 -0.3502
 4292SOL    HW224510   0.077   1.920   3.126 -1.0091 -0.7202  1.3313
 4293SOL     OW24511   3.599   3.276   9.669 -0.0178 -0.4685 -0.0827
 4293SOL    HW124512   3.677   3.235   9.631 -0.0179  0.1750 -0.7779
 4293SOL    HW224513   3.540   3.236   9.605  0.8393 -3.0024  0.6980
 4294SOL     OW24514   0.253   2.647   7.153 -0.3173 -0.3189 -0.2298
 4294SOL    HW124515   0.196   2.606   7.088  1.7333 -1.8475 -1.0400
 4294SOL    HW224516   0.319   2.699   7.108 -0.7014 -0.3470 -0.8228
 4295SOL     OW24517   0.459   3.566   0.026 -0.6087 -0.1835 -0.0719
 4295SOL    HW124518   0.513   3.503  17.744 -0.9080  1.6443 -2.8586
 4295SOL    HW224519   0.435   3.613  17.711 -0.4076 -2.1100 -1.2711
 4296SOL     OW24520   4.596   2.203   2.737  0.6474  0.1282 -0.8208
 4296SOL    HW124521   4.585   2.242   2.824  4.1559 -1.1182  0.1863
 4296SOL    HW224522   4.670   2.148   2.766  0.1532 -0.2915 -0.3650
 4297SOL     OW24523   2.426   3.387   3.090  0.3407  0.3036  0.5553
 4297SOL    HW124524   2.386   3.403   3.005 -0.7388  0.0459  1.0089
 4297SOL    HW224525   2.513   3.392   3.052 -0.9268 -0.7279 -2.4261
 4298SOL     OW24526   4.176   2.382   0.336 -0.3654  0.0834 -0.0047
 4298SOL    HW124527   4.083   2.363   0.323 -0.1858  0.7778 -2.3359
 4298SOL    HW224528   4.206   2.298   0.301  0.6958  0.9860 -1.2898
 4299SOL     OW24529   0.610   0.261  15.230  0.2587  0.1044 -0.0862
 4299SOL    HW124530   0.681   0.212  15.273  1.1361  1.7093  0.3028
 4299SOL    HW224531   0.613   0.226  15.141 -2.6417 -3.7653  1.3016
 4300SOL     OW24532   4.347   4.040  15.719 -0.0298  0.2933 -0.3023
 4300SOL    HW124533   4.288   4.114  15.706 -1.5543 -0.6214  1.5007
 4300SOL    HW224534   4.327   4.009  15.807 -3.8183 -0.1957 -1.3232
 4301SOL     OW24535   4.172   3.038   7.730 -0.4360  0.0805  0.5300
 4301SOL    HW124536   4.155   2.944   7.727 -2.0284  0.3253  2.0632
 4301SOL    HW224537   4.080   3.065   7.736 -0.1177  1.1850  0.3271
 4302SOL     OW24538   1.803   2.057   7.442  0.1672  0.3121  0.3354
 4302SOL    HW124539   1.778   2.096   7.525  0.6142  0.5039  0.3773
 4302SOL    HW224540   1.800   1.964   7.461 -1.2161  0.6340  1.6326
 4303SOL     OW24541   2.173   2.158  11.841  0.0046  0.4752  0.3189
 4303SOL    HW124542   2.137   2.084  11.890 -1.9193 -0.6440 -2.8000
 4303SOL    HW224543   2.211   2.122  11.760 -1.2798  2.9079 -1.3442
 4304SOL     OW24544   3.195   1.189  14.564  0.2251  0.2143 -0.2592
 4304SOL    HW124545   3.208   1.110  14.511 -3.4115  0.2254 -1.1306
 4304SOL    HW224546   3.267   1.198  14.627 -0.3062  0.2801  0.3385
 4305SOL     OW24547   3.562   2.987   5.950 -0.2350 -0.2617 -0.0298
 4305SOL    HW124548   3.504   2.959   6.020 -0.4400 -0.2137 -0.1791
 4305SOL    HW224549   3.586   3.071   5.988 -0.8084  0.0536 -0.3636
 4306SOL     OW24550   3.152   3.118  15.997 -0.2361 -0.0526  0.2086
 4306SOL    HW124551   3.202   3.070  15.931 -0.5852  1.6322 -1.2780
 4306SOL    HW224552   3.206   3.130  16.075 -0.5375  0.4535  0.3445
 4307SOL     OW24553   0.035   2.050   3.509 -0.0875 -0.8902 -0.1855
 4307SOL    HW124554   0.013   2.109   3.436 -2.0983  1.1057  2.0188
 4307SOL    HW224555   0.005   2.109   3.579  0.5845 -1.2550  0.4033
 4308SOL     OW24556   1.198   3.708   1.849 -0.7117  0.3204 -0.3365
 4308SOL    HW124557   1.145   3.628   1.854  0.2409 -0.3080 -0.3509
 4308SOL    HW224558   1.135   3.774   1.878 -1.8932  0.2977 -2.8280
 4309SOL     OW24559   4.584   2.075   6.485  0.3542  0.3340  0.3008
 4309SOL    HW124560   4.600   2.169   6.495 -1.0438  0.4009  1.8629
 4309SOL    HW224561   4.561   2.079   6.392 -1.8997  0.4605  0.8639
 4310SOL     OW24562   1.531   1.132   6.751  0.6778 -0.0675 -0.1428
 4310SOL    HW124563   1.455   1.141   6.808  0.5318  0.6990 -0.4589
 4310SOL    HW224564   1.595   1.193   6.787  0.4224  0.6223 -0.8646
 4311SOL     OW24565   3.526   1.282  10.939  0.6287 -0.1643 -0.0949
 4311SOL    HW124566   3.607   1.317  10.902 -0.0734  1.7801  0.2125
 4311SOL    HW224567   3.529   1.330  11.022  0.2305  0.2547 -0.3227
 4312SOL     OW24568   0.908   0.176   5.108  0.1078  0.2512 -0.3287
 4312SOL    HW124569   0.984   0.233   5.096 -1.3905  2.3290  0.0128
 4312SOL    HW224570   0.886   0.153   5.018  0.6936  2.0941 -0.9390
 4313SOL     OW24571   1.701   0.211   6.964  0.1948  0.0177  0.2223
 4313SOL    HW124572   1.660   0.272   7.025  1.1558  1.9405 -1.0507
 4313SOL    HW224573   1.665   0.127   6.991  0.8736 -0.3711 -0.0971
 4314SOL     OW24574   0.886   1.861   7.509  0.3326  0.3530  0.1686
 4314SOL    HW124575   0.817   1.801   7.481 -1.0506  2.2017 -0.4101
 4314SOL    HW224576   0.925   1.811   7.580  0.8725 -1.5506 -1.4885
 4315SOL     OW24577   2.256   2.713  10.185 -0.1622  0.0003 -0.9293
 4315SOL    HW124578   2.183   2.768  10.212 -0.1096 -0.8930  1.0386
 4315SOL    HW224579   2.312   2.788  10.166 -0.7000  0.2676 -1.4621
 4316SOL     OW24580   1.133   4.545   5.985 -0.9020 -0.1567 -0.2936
 4316SOL    HW124581   1.204   4.483   5.968  1.0326  1.9922  0.0122
 4316SOL    HW224582   1.177   4.628   5.970  0.0551 -0.4674  0.8515
 4317SOL     OW24583   1.893   0.345   8.808 -0.4427  0.0934 -0.5097
 4317SOL    HW124584   1.966   0.302   8.852 -1.3016 -0.1703  0.6498
 4317SOL    HW224585   1.940   0.420   8.771  1.2631 -1.2033 -0.9404
 4318SOL     OW24586   1.536   3.749   4.843 -0.1544 -0.1322 -0.3342
 4318SOL    HW124587   1.546   3.658   4.817  1.1246  0.5287 -2.2282
 4318SOL    HW224588   1.611   3.792   4.801 -1.4116  1.1502 -1.2706
 4319SOL     OW24589   4.546   0.751  11.910 -0.3121 -0.2048 -0.2910
 4319SOL    HW124590   4.638   0.747  11.933 -1.0073  1.1237  2.7393
 4319SOL    HW224591   4.564   0.753  11.816  0.0017 -0.4845 -0.2350
 4320SOL     OW24592   1.348   0.714   7.560 -0.0902  0.0047 -0.4919
 4320SOL    HW124593   1.321   0.669   7.640 -0.5553 -2.4584 -2.0674
 4320SOL    HW224594   1.438   0.742   7.580 -0.8138  0.5181  2.0990
 4321SOL     OW24595   1.109   2.427  14.131  0.0305  0.4125 -0.2409
 4321SOL    HW124596   1.031   2.376  14.109 -0.2842  0.3752  0.9693
 4321SOL    HW224597   1.119   2.479  14.051  0.5726 -0.0764 -0.4919
 4322SOL     OW24598   2.386   0.295   8.182  0.1482 -0.0835  0.0343
 4322SOL    HW124599   2.371   0.309   8.276 -0.4083  1.7969 -0.3188
 4322SOL    HW224600   2.464   0.347   8.162 -0.5537  1.8029  2.1917
 4323SOL     OW24601   3.668   4.572   7.269  0.3530 -0.6657  0.6141
 4323SOL    HW124602   3.624   4.550   7.351  1.3324 -1.0914  1.0240
 4323SOL    HW224603   3.690   4.481   7.247  2.4403  0.4548 -1.9001
 4324SOL     OW24604   3.800   4.078  17.631 -0.3895  0.0096 -0.0598
 4324SOL    HW124605   3.711   4.108  17.615 -0.2953 -0.1557 -0.9142
 4324SOL    HW224606   3.824   4.024  17.555 -2.5263 -0.4272 -0.4284
 4325SOL     OW24607   4.004   3.971   7.836  0.1365  0.1010  0.1204
 4325SOL    HW124608   3.910   3.956   7.840  0.3702 -0.9291  1.7872
 4325SOL    HW224609   4.018   4.056   7.878 -2.6242  1.5606 -1.9576
 4326SOL     OW24610   2.866   4.022   5.707  0.4405 -0.4198  0.3118
 4326SOL    HW124611   2.884   3.932   5.735  1.1877 -0.6200 -0.7920
 4326SOL    HW224612   2.956   4.051   5.694 -0.4294  2.3591  0.6490
 4327SOL     OW24613   3.717   0.582   2.502  0.1405 -0.2569  0.7089
 4327SOL    HW124614   3.686   0.518   2.439  0.5043  2.6526 -2.4519
 4327SOL    HW224615   3.791   0.613   2.449  1.9570 -2.4488  1.9761
 4328SOL     OW24616   4.451   4.363   3.665  0.2741 -0.0763  0.2365
 4328SOL    HW124617   4.416   4.320   3.587  0.5138 -1.0638  0.6650
 4328SOL    HW224618   4.473   4.446   3.622  0.4414 -0.0056  0.4582
 4329SOL     OW24619   4.634   4.697  10.781  0.3778 -0.1834 -0.2465
 4329SOL    HW124620   4.573   4.708  10.854  2.2105  1.1909  1.0865
 4329SOL    HW224621   4.623   4.606  10.755 -0.6586  0.1309 -0.9140
 4330SOL     OW24622   0.168   0.407   6.703 -0.1998 -0.3709 -0.6170
 4330SOL    HW124623   0.085   0.391   6.748  0.9228  0.9988  1.9330
 4330SOL    HW224624   0.219   0.330   6.725 -0.9308 -0.7162 -0.1444
 4331SOL     OW24625   2.418   4.014   6.151 -0.4940  0.4174  0.9259
 4331SOL    HW124626   2.418   3.961   6.071 -0.1730 -1.3117  2.0517
 4331SOL    HW224627   2.505   4.055   6.147  0.3067 -1.3981 -0.5583
 4332SOL     OW24628   3.163   2.055   3.945 -0.1066 -0.3400 -0.0764
 4332SOL    HW124629   3.119   2.001   3.879 -0.9108  0.4052 -0.1566
 4332SOL    HW224630   3.107   2.132   3.958  3.0898  1.6260  1.9616
 4333SOL     OW24631   1.332   4.443  11.304  0.2553  0.4457  0.0701
 4333SOL    HW124632   1.287   4.396  11.374  1.1344 -0.9874 -0.3416
 4333SOL    HW224633   1.308   4.388  11.230 -0.0464  1.3911 -0.5393
 4334SOL     OW24634   2.404   2.936  14.751 -0.1239 -0.5323  0.0958
 4334SOL    HW124635   2.396   2.864  14.813  1.1420 -0.4692  0.3408
 4334SOL    HW224636   2.330   2.981  14.792  0.5567 -0.3064  1.0748
 4335SOL     OW24637   4.273   1.585   4.030 -0.1466 -0.0817  0.4207
 4335SOL    HW124638   4.341   1.534   3.987 -0.2730 -1.1932  1.5232
 4335SOL    HW224639   4.323   1.656   4.070  0.3085  0.2561 -0.7597
 4336SOL     OW24640   1.638   1.125  13.448 -0.1660 -0.5556  0.2527
 4336SOL    HW124641   1.589   1.172  13.515  1.3259  0.3315  0.7163
 4336SOL    HW224642   1.612   1.195  13.389  1.3141  0.3015  0.6036
 4337SOL     OW24643   2.953   2.092   5.067 -0.9101  0.1679  0.4232
 4337SOL    HW124644   2.858   2.079   5.071 -0.7825 -0.6264  0.9510
 4337SOL    HW224645   2.978   2.001   5.050 -0.8545  0.7833 -2.8972
 4338SOL     OW24646   3.533   0.896   6.709  0.5445  0.0820  0.2053
 4338SOL    HW124647   3.451   0.886   6.757 -0.7738  2.0899 -1.6654
 4338SOL    HW224648   3.575   0.974   6.745  0.2638 -1.4635  3.8435
 4339SOL     OW24649   2.244   1.209   1.943  0.6016  0.0914 -0.5864
 4339SOL    HW124650   2.202   1.224   1.859 -1.5537  0.3870  0.5446
 4339SOL    HW224651   2.176   1.232   2.006  0.1590  0.9995 -1.3932
 4340SOL     OW24652   2.120   1.993   9.889  0.6070  0.1217  0.2075
 4340SOL    HW124653   2.191   1.972   9.949 -0.1721 -1.9296  0.4044
 4340SOL    HW224654   2.095   2.083   9.912  1.0976  0.4688 -0.6040
 4341SOL     OW24655   1.555   2.614   8.780 -0.0099 -0.1991 -0.4491
 4341SOL    HW124656   1.649   2.597   8.771  0.3711  1.3021  0.5694
 4341SOL    HW224657   1.550   2.705   8.810  0.7186  0.0350 -1.0458
 4342SOL     OW24658   1.290   0.903   3.189  0.2206 -0.1991  0.4797
 4342SOL    HW124659   1.210   0.937   3.148  0.9684  2.4997  1.2685
 4342SOL    HW224660   1.325   0.991   3.204 -1.2864  0.8651 -2.1629
 4343SOL     OW24661   1.862   2.388  13.033 -0.1914 -0.0948 -0.2307
 4343SOL    HW124662   1.932   2.417  13.090 -0.7304 -1.0311  0.9169
 4343SOL    HW224663   1.835   2.474  12.999  0.2372  0.3127  0.4731
 4344SOL     OW24664   2.684   0.134  15.969  0.4956 -0.7079  0.6399
 4344SOL    HW124665   2.670   0.220  15.931  0.3084 -1.0118  0.0162
 4344SOL    HW224666   2.772   0.146  16.005  0.6221 -0.2884  0.1811
 4345SOL     OW24667   3.664   4.342  15.587 -0.0284 -0.2560  0.8077
 4345SOL    HW124668   3.610   4.353  15.509  1.7380  0.9986 -0.2341
 4345SOL    HW224669   3.740   4.396  15.565 -0.7855  0.1659 -0.7996
 4346SOL     OW24670   2.889   3.998   0.070 -0.2625 -0.1674 -0.2936
 4346SOL    HW124671   2.891   3.973   0.163 -4.8291 -0.4930 -0.2710
 4346SOL    HW224672   2.794   4.006   0.063 -0.0044  1.9642 -1.4034
 4347SOL     OW24673   2.939   0.307   3.095 -0.1931  0.3374  0.4000
 4347SOL    HW124674   3.001   0.274   3.160  0.1928 -0.0760 -0.1797
 4347SOL    HW224675   2.974   0.396   3.099  1.0530 -0.2299  2.0511
 4348SOL     OW24676   2.964   1.665   3.885 -0.1080  0.2175 -0.0430
 4348SOL    HW124677   2.919   1.604   3.827 -0.2006  1.4313 -1.2311
 4348SOL    HW224678   2.907   1.740   3.873  0.2455  0.6856  1.1425
 4349SOL     OW24679   3.334   1.147  16.756  0.0566  0.1143 -0.1708
 4349SOL    HW124680   3.337   1.202  16.678  1.3758  2.0622  1.2637
 4349SOL    HW224681   3.251   1.100  16.742 -0.0316 -0.5291  2.6863
 4350SOL     OW24682   4.008   1.173   8.380  0.4023 -0.0887 -0.3469
 4350SOL    HW124683   3.975   1.195   8.468  1.5987  2.5939 -0.5889
 4350SOL    HW224684   4.027   1.080   8.396 -1.2874 -0.4533 -0.4047
 4351SOL     OW24685   1.334   2.175   5.634 -0.2931 -0.0445 -0.6810
 4351SOL    HW124686   1.430   2.176   5.642 -0.4744  0.6908  1.3481
 4351SOL    HW224687   1.326   2.227   5.714 -0.8162 -1.1276 -0.0347
 4352SOL     OW24688   3.708   2.467  13.029 -0.0654 -0.1323 -0.0271
 4352SOL    HW124689   3.758   2.541  13.065 -1.3049  1.0661 -0.7386
 4352SOL    HW224690   3.674   2.416  13.103 -0.6373 -3.2169 -2.4605
 4353SOL     OW24691   2.633   4.334   5.696 -0.1173  0.6737  0.0660
 4353SOL    HW124692   2.571   4.266   5.668  1.7738 -1.6072  1.3576
 4353SOL    HW224693   2.712   4.320   5.642 -0.6982 -1.8486 -0.1370
 4354SOL     OW24694   3.931   4.511   8.980 -0.4110  0.4418  0.1816
 4354SOL    HW124695   4.020   4.530   9.009  0.6038 -0.3439 -2.5065
 4354SOL    HW224696   3.884   4.594   8.991 -0.5923  0.1672  1.4928
 4355SOL     OW24697   2.104   2.356   6.695 -0.1497  0.1802 -0.4535
 4355SOL    HW124698   2.062   2.288   6.642 -0.5302 -0.4242  0.6225
 4355SOL    HW224699   2.158   2.399   6.629  1.7052 -0.8108  0.3961
 4356SOL     OW24700   1.966   2.972   1.787 -0.4978  0.2858  0.3098
 4356SOL    HW124701   1.923   3.042   1.837 -0.5219  1.1755 -0.9509
 4356SOL    HW224702   2.031   2.936   1.846 -1.1726 -0.9975  0.2699
 4357SOL     OW24703   4.086   0.712  11.747 -0.2392  0.0307 -0.0770
 4357SOL    HW124704   4.099   0.768  11.670  1.3449 -2.3878 -1.5549
 4357SOL    HW224705   4.056   0.779  11.809 -0.9076  1.5395 -2.0212
 4358SOL     OW24706   4.423   3.980  10.124 -0.1213 -0.2202 -0.2162
 4358SOL    HW124707   4.383   3.922  10.059 -0.2860 -0.4886  0.1246
 4358SOL    HW224708   4.385   3.938  10.201  0.9807  1.9116  1.4718
 4359SOL     OW24709   3.960   0.401   3.274 -0.1932 -0.0725 -0.7601
 4359SOL    HW124710   3.997   0.472   3.221  0.3863 -0.7153 -1.2104
 4359SOL    HW224711   3.979   0.327   3.216  1.0030 -0.1823 -0.2252
 4360SOL     OW24712   4.530   4.386   4.734 -0.2153 -0.2087  0.3764
 4360SOL    HW124713   4.485   4.460   4.774  0.6311  0.9894 -0.9157
 4360SOL    HW224714   4.495   4.316   4.789  1.3991  0.7563  2.6025
 4361SOL     OW24715   1.631   2.432   5.540 -0.5347 -0.1811 -0.1628
 4361SOL    HW124716   1.634   2.378   5.618  1.6063 -0.6102 -0.5439
 4361SOL    HW224717   1.716   2.417   5.498 -0.6429  0.7850 -0.7425
 4362SOL     OW24718   2.172   0.574   6.992  0.1111  0.1377  0.0261
 4362SOL    HW124719   2.101   0.534   7.043 -0.7883  0.7329 -0.7462
 4362SOL    HW224720   2.209   0.621   7.066  1.6207  0.7224 -1.1100
 4363SOL     OW24721   2.120   0.725   5.430 -0.3526  0.3860 -0.1697
 4363SOL    HW124722   2.039   0.756   5.390  0.0706  0.9267 -0.6177
 4363SOL    HW224723   2.084   0.672   5.501  0.4941  0.3538  0.2413
 4364SOL     OW24724   0.055   2.858   4.140  0.6545 -0.0540  0.2507
 4364SOL    HW124725   4.720   2.819   4.097  1.1833 -0.9470  0.1083
 4364SOL    HW224726   0.038   2.831   4.230  0.6791  0.0884  0.2973
 4365SOL     OW24727   4.157   4.726   6.526  0.0193  0.5181  0.2139
 4365SOL    HW124728   4.161   0.015   6.435 -1.6291 -0.4204 -0.1831
 4365SOL    HW224729   4.078   4.672   6.525 -1.9752  3.4632 -1.3903
 4366SOL     OW24730   3.271   1.834   8.032  0.3061  0.1384 -0.6665
 4366SOL    HW124731   3.268   1.930   8.026 -0.2063  0.1898  0.3532
 4366SOL    HW224732   3.318   1.804   7.954  0.2481  1.1366 -1.0841
 4367SOL     OW24733   1.609   3.008   5.867  0.2334 -0.5928  0.5144
 4367SOL    HW124734   1.592   2.967   5.782  3.0784 -1.3247  0.2904
 4367SOL    HW224735   1.523   3.045   5.884  0.5836 -1.2129  3.5423
 4368SOL     OW24736   0.786   0.863   8.603 -0.2672 -0.5563 -0.7281
 4368SOL    HW124737   0.829   0.789   8.562  1.7193 -0.3021  0.9079
 4368SOL    HW224738   0.822   0.940   8.559  1.3804 -1.0110 -0.1473
 4369SOL     OW24739   0.792   0.096   3.093 -0.0228  0.6221 -0.3908
 4369SOL    HW124740   0.806   0.085   3.187  0.4478 -0.7454 -0.6279
 4369SOL    HW224741   0.725   0.031   3.077 -0.7511  1.0143  1.0661
 4370SOL     OW24742   2.173   4.739  17.104 -0.2971 -0.3987 -0.0807
 4370SOL    HW124743   2.161   4.646  17.126 -4.3238 -0.5187 -3.0519
 4370SOL    HW224744   2.172   0.004  17.009  0.6195  2.3782  0.1291
 4371SOL     OW24745   1.694   0.632  15.597 -0.5539 -0.1535 -0.1458
 4371SOL    HW124746   1.638   0.571  15.549 -0.6538  1.5626 -2.2243
 4371SOL    HW224747   1.648   0.716  15.596  1.8569  1.1884  0.1918
 4372SOL     OW24748   1.526   0.026   2.348 -0.5594 -0.1331 -0.0921
 4372SOL    HW124749   1.593   0.075   2.395  0.7657 -1.4095 -0.6952
 4372SOL    HW224750   1.451   0.086   2.344 -0.0204  0.4566 -1.6844
 4373SOL     OW24751   3.684   3.343   7.272 -0.0938  0.1558  0.4141
 4373SOL    HW124752   3.756   3.294   7.233 -1.6413 -1.0817 -0.8800
 4373SOL    HW224753   3.719   3.364   7.359 -2.0521  0.2449  1.1924
 4374SOL     OW24754   0.169   4.519  13.312  0.4598  0.1663  0.2578
 4374SOL    HW124755   0.148   4.457  13.383 -2.1033  1.7801  0.9424
 4374SOL    HW224756   0.240   4.567  13.354 -0.7586  0.0030  2.5454
 4375SOL     OW24757   2.574   0.054  15.668  0.4163  0.2761  0.2740
 4375SOL    HW124758   2.490   0.096  15.654  0.3501 -0.6067 -1.8952
 4375SOL    HW224759   2.635   0.122  15.641 -0.8836  1.4173  0.2261
 4376SOL     OW24760   0.087   2.383   8.296  0.0731 -0.5582  0.0803
 4376SOL    HW124761   0.153   2.362   8.361 -0.0138 -2.0971 -0.3270
 4376SOL    HW224762   0.093   2.302   8.244  1.4578 -0.5999  0.2972
 4377SOL     OW24763   3.674   1.111   8.369 -0.3122 -0.3400 -0.6940
 4377SOL    HW124764   3.712   1.198   8.370  1.4605 -1.1121 -1.4530
 4377SOL    HW224765   3.652   1.111   8.276 -1.0622  1.9869 -0.5209
 4378SOL     OW24766   3.285   1.304   2.426 -0.0172  0.1384 -0.0865
 4378SOL    HW124767   3.373   1.269   2.413  0.2606  1.0596 -0.7327
 4378SOL    HW224768   3.292   1.365   2.499 -0.2598  0.1441 -0.0695
 4379SOL     OW24769   4.547   1.832   6.600 -0.0210 -0.3346 -0.3797
 4379SOL    HW124770   4.519   1.922   6.587 -0.8351 -0.7463 -1.5085
 4379SOL    HW224771   4.603   1.817   6.524 -0.6858  0.3187 -1.0011
 4380SOL     OW24772   2.374   1.659   9.076 -0.0644 -0.2321 -0.0843
 4380SOL    HW124773   2.384   1.566   9.056 -0.8349 -0.3612  0.1657
 4380SOL    HW224774   2.334   1.688   8.993 -0.1968 -2.0500 -0.6576
 4381SOL     OW24775   1.692   0.586  11.287 -0.0837 -0.0526  0.3143
 4381SOL    HW124776   1.646   0.628  11.214 -0.6121 -1.6418 -0.2628
 4381SOL    HW224777   1.623   0.560  11.347 -0.2370 -0.8370 -0.1985
 4382SOL     OW24778   4.463   0.885  10.110  0.2262 -0.0325 -0.3962
 4382SOL    HW124779   4.486   0.978  10.107 -0.5515  0.2501  2.4768
 4382SOL    HW224780   4.511   0.853  10.034  1.9380  1.1150  0.2201
 4383SOL     OW24781   3.289   4.070  10.220  0.1716  0.1892 -0.0808
 4383SOL    HW124782   3.321   3.982  10.202 -2.3003 -0.7857  0.2354
 4383SOL    HW224783   3.293   4.117  10.137 -0.7844  0.1333 -0.1637
 4384SOL     OW24784   2.152   3.375   7.615  0.2793 -0.0135  0.4057
 4384SOL    HW124785   2.161   3.281   7.633 -1.2321 -0.3675 -0.7463
 4384SOL    HW224786   2.156   3.375   7.519 -1.1439  0.9469  0.3521
 4385SOL     OW24787   1.816   0.058  17.461  0.2565  0.3184 -0.3929
 4385SOL    HW124788   1.897   0.096  17.496  1.1226 -3.1522  1.3214
 4385SOL    HW224789   1.753   0.075  17.531 -0.1680 -0.8224 -0.5086
 4386SOL     OW24790   0.209   0.549   1.878 -0.8362 -0.0617  0.0954
 4386SOL    HW124791   0.211   0.501   1.961 -1.0067 -0.3544 -0.0678
 4386SOL    HW224792   0.138   0.612   1.887 -0.2105  0.6432  0.1298
 4387SOL     OW24793   3.467   0.414   4.099 -0.1615 -0.7215 -0.7828
 4387SOL    HW124794   3.488   0.416   4.193 -0.6217  0.2119 -0.6975
 4387SOL    HW224795   3.551   0.386   4.063 -0.1675  1.7421 -2.6987
 4388SOL     OW24796   1.048   2.406   8.180 -0.0145 -0.3852  0.2888
 4388SOL    HW124797   0.952   2.400   8.186 -0.0641  0.1060  0.0414
 4388SOL    HW224798   1.072   2.397   8.272 -0.9386  1.4379  0.7085
 4389SOL     OW24799   0.235   1.289  14.537 -0.7896  0.1347 -0.5556
 4389SOL    HW124800   0.195   1.222  14.481  0.3364 -0.1239 -1.0609
 4389SOL    HW224801   0.310   1.241  14.574 -0.0088  1.7586 -0.0339
 4390SOL     OW24802   3.202   2.812   9.466  0.6306 -0.2222 -0.7583
 4390SOL    HW124803   3.168   2.778   9.384  1.1307  2.2486 -1.9768
 4390SOL    HW224804   3.189   2.907   9.459  2.7761  0.1495  0.3395
 4391SOL     OW24805   3.235   3.352   6.669 -0.3057 -0.0694 -0.1769
 4391SOL    HW124806   3.312   3.300   6.646  0.0764  0.3483  0.1691
 4391SOL    HW224807   3.270   3.439   6.687 -1.5485 -0.2753  3.1954
 4392SOL     OW24808   0.133   1.795   1.936 -0.1357 -0.7067  0.1223
 4392SOL    HW124809   0.183   1.803   2.017 -0.8170  1.2896  0.3398
 4392SOL    HW224810   0.075   1.721   1.955 -0.2378 -0.6791 -0.0721
 4393SOL     OW24811   2.449   0.140  17.182  0.2086 -0.0237  0.1121
 4393SOL    HW124812   2.511   0.207  17.209  0.7488  0.0896 -1.4342
 4393SOL    HW224813   2.468   0.072  17.247  0.6263  1.5281  1.6076
 4394SOL     OW24814   4.347   3.633   7.171  0.1625 -0.0491  0.9597
 4394SOL    HW124815   4.428   3.674   7.140  0.9527 -1.2793  1.3814
 4394SOL    HW224816   4.326   3.700   7.236 -2.2750 -0.6319  0.7723
 4395SOL     OW24817   0.511   1.091   7.915  0.3926  0.2723 -0.3949
 4395SOL    HW124818   0.432   1.118   7.868 -0.0346 -0.4083 -0.0564
 4395SOL    HW224819   0.570   1.071   7.842  0.1165 -0.2846 -0.4684
 4396SOL     OW24820   3.982   0.744   3.402  0.0193 -0.0468  0.7274
 4396SOL    HW124821   4.052   0.678   3.406 -1.5943 -1.6696  1.8887
 4396SOL    HW224822   3.923   0.720   3.330 -0.0020  1.6044  0.1863
 4397SOL     OW24823   0.338   4.573   9.852  0.4949 -0.1911 -0.0210
 4397SOL    HW124824   0.317   4.587   9.944 -1.3240 -1.8324 -0.1973
 4397SOL    HW224825   0.424   4.531   9.853  1.6952  2.2905  2.0726
 4398SOL     OW24826   0.445   0.276   8.602 -0.5402 -0.2857  0.4418
 4398SOL    HW124827   0.359   0.258   8.564  0.6156 -0.9704 -1.8518
 4398SOL    HW224828   0.481   0.190   8.578  1.6351  0.5185  0.8251
 4399SOL     OW24829   4.125   2.647  14.859 -0.1470 -0.0943 -0.4570
 4399SOL    HW124830   4.119   2.553  14.874  0.1921  0.3167  2.2482
 4399SOL    HW224831   4.188   2.652  14.787 -0.7097  0.1515 -0.9280
 4400SOL     OW24832   4.639   1.315   7.351 -0.6181  0.4815  0.4872
 4400SOL    HW124833   4.652   1.228   7.314 -0.7355  0.3248  0.8064
 4400SOL    HW224834   4.553   1.330   7.312  0.0106  0.1168 -1.0207
 4401SOL     OW24835   3.384   2.843   6.393 -0.2838  0.8400 -0.2817
 4401SOL    HW124836   3.359   2.887   6.474 -2.6364  1.2109 -1.1987
 4401SOL    HW224837   3.426   2.762   6.422 -1.4901 -0.4982 -2.2569
 4402SOL     OW24838   3.418   0.870  12.219 -0.0098 -0.2709 -0.3588
 4402SOL    HW124839   3.405   0.789  12.268 -2.8900 -0.4005 -1.3393
 4402SOL    HW224840   3.418   0.839  12.128  1.2351  0.2988 -0.5569
 4403SOL     OW24841   2.054   2.254   0.377  0.0096  0.8401 -0.2006
 4403SOL    HW124842   2.121   2.294   0.321  0.1990  0.5692 -0.1721
 4403SOL    HW224843   2.096   2.169   0.391 -1.3933  0.4978  2.0309
 4404SOL     OW24844   2.912   1.414   0.797  0.1005  0.3384 -0.3495
 4404SOL    HW124845   2.981   1.480   0.784 -1.3288  1.4518 -2.3050
 4404SOL    HW224846   2.953   1.330   0.781 -0.4744 -0.0176  0.0548
 4405SOL     OW24847   1.307   0.816  13.185  0.0096 -0.1896  0.4797
 4405SOL    HW124848   1.262   0.739  13.151 -0.8647 -0.2978  1.9015
 4405SOL    HW224849   1.351   0.778  13.261 -0.2953 -2.6445 -0.5436
 4406SOL     OW24850   3.446   1.449   8.305 -0.1444 -0.1394  0.7310
 4406SOL    HW124851   3.448   1.540   8.276 -4.7674 -0.8886 -1.9747
 4406SOL    HW224852   3.529   1.451   8.351 -0.5852 -1.1225  1.5935
 4407SOL     OW24853   1.611   4.584   4.764  0.1540 -0.7108 -0.2502
 4407SOL    HW124854   1.706   4.580   4.773  0.0707 -0.0149  0.8803
 4407SOL    HW224855   1.607   4.619   4.675 -2.3791 -1.2410 -0.3664
 4408SOL     OW24856   4.011   0.354  13.118 -0.1388 -0.1310  0.1640
 4408SOL    HW124857   4.105   0.342  13.119 -0.1338  0.0456  1.5453
 4408SOL    HW224858   3.977   0.268  13.140 -2.2063 -0.0469 -2.6361
 4409SOL     OW24859   1.346   1.578   2.865 -0.1322  0.0921 -0.4698
 4409SOL    HW124860   1.321   1.517   2.796 -0.7335  2.2160 -2.1181
 4409SOL    HW224861   1.419   1.533   2.909  0.5141  0.2287 -1.4034
 4410SOL     OW24862   0.966   0.292   9.280 -0.5863  0.2065 -0.3570
 4410SOL    HW124863   0.927   0.320   9.197 -1.1692  0.6348  0.0617
 4410SOL    HW224864   1.059   0.300   9.259 -1.2805  0.0089 -3.5793
 4411SOL     OW24865   0.363   1.091  12.446  0.1886  0.2971 -0.1332
 4411SOL    HW124866   0.291   1.051  12.397  1.6284  1.2594 -3.0202
 4411SOL    HW224867   0.392   1.006  12.479 -2.2961 -0.4866  0.0328
 4412SOL     OW24868   4.390   3.458  14.314  0.1198  0.1302 -0.0657
 4412SOL    HW124869   4.463   3.401  14.291 -0.3595 -0.4157 -0.2416
 4412SOL    HW224870   4.415   3.539  14.269  1.0088  0.5532  1.2078
 4413SOL     OW24871   3.647   0.366  13.073 -0.4006 -0.0428  0.2304
 4413SOL    HW124872   3.730   0.360  13.026 -0.6864 -1.8798 -0.0369
 4413SOL    HW224873   3.610   0.284  13.043 -0.9524  0.5444 -0.6692
 4414SOL     OW24874   3.070   3.857  14.969  0.2448 -0.2534 -0.4247
 4414SOL    HW124875   3.096   3.924  15.032  0.1581  0.1712 -0.8379
 4414SOL    HW224876   3.111   3.891  14.889  1.6326 -0.2173  0.3055
 4415SOL     OW24877   3.832   3.056  15.910 -0.8926  0.0924  0.7852
 4415SOL    HW124878   3.859   3.095  15.992  0.0286  1.8000 -0.3395
 4415SOL    HW224879   3.917   3.032  15.873 -0.1255  1.5684  1.6309
 4416SOL     OW24880   2.112   3.123  10.330  0.2280 -0.2775  0.2310
 4416SOL    HW124881   2.114   3.029  10.315  3.4276 -0.3885  1.3379
 4416SOL    HW224882   2.019   3.145  10.337 -0.0533 -1.5158  0.3518
 4417SOL     OW24883   0.820   0.320   2.927  0.4332  0.2677 -0.3038
 4417SOL    HW124884   0.725   0.318   2.939  0.3880 -0.1899 -0.7713
 4417SOL    HW224885   0.837   0.245   2.983 -1.6643  0.1963  0.2239
 4418SOL     OW24886   3.130   0.115  13.099 -0.0945 -0.4012 -0.4651
 4418SOL    HW124887   3.107   0.114  13.192  0.3872 -1.8056 -0.3571
 4418SOL    HW224888   3.198   0.182  13.093 -0.2787 -0.5536 -4.0539
 4419SOL     OW24889   2.137   2.427  16.393 -0.1345  0.3421  0.1064
 4419SOL    HW124890   2.153   2.335  16.372 -1.0678 -0.4107  2.6104
 4419SOL    HW224891   2.042   2.421  16.387 -0.0576  0.2632 -0.9694
 4420SOL     OW24892   0.666   0.884   5.153  0.1685 -0.4596  0.4379
 4420SOL    HW124893   0.717   0.839   5.087  0.3123 -1.8030  1.4779
 4420SOL    HW224894   0.672   0.974   5.120  0.5632 -0.5111  0.3703
 4421SOL     OW24895   1.459   0.331   9.807 -0.1675  0.1701  0.3338
 4421SOL    HW124896   1.408   0.411   9.797 -3.2040 -1.7699  0.3390
 4421SOL    HW224897   1.440   0.293   9.893 -0.0301  1.8803  1.1109
 4422SOL     OW24898   4.659   0.735   5.432 -0.0274  0.7370 -0.4884
 4422SOL    HW124899   4.708   0.801   5.480  0.5109 -1.0487  1.4361
 4422SOL    HW224900   4.711   0.658   5.457  2.7329  3.1012  1.0213
 4423SOL     OW24901   0.386   2.768   3.020 -0.0840  0.0133  0.2883
 4423SOL    HW124902   0.443   2.691   3.013  1.5946  1.3205 -0.3474
 4423SOL    HW224903   0.422   2.837   2.965 -0.7377 -0.2312 -0.4385
 4424SOL     OW24904   1.941   0.522   7.931 -0.2463 -0.0579 -0.1345
 4424SOL    HW124905   1.921   0.465   7.857  0.8440  0.3855 -0.7827
 4424SOL    HW224906   1.852   0.534   7.961 -0.1878  0.1615 -0.0500
 4425SOL     OW24907   3.766   3.501   4.673  0.3297  0.1977  0.1830
 4425SOL    HW124908   3.838   3.495   4.610  0.9757 -1.6486  1.1119
 4425SOL    HW224909   3.812   3.521   4.755  0.5857  0.1257  0.0577
 4426SOL     OW24910   0.958   0.775  13.934 -0.0467  0.1154 -0.5177
 4426SOL    HW124911   1.039   0.804  13.893  1.4463 -1.9606  0.9529
 4426SOL    HW224912   0.937   0.692  13.890 -0.9567  1.9404 -3.5228
 4427SOL     OW24913   2.926   1.651  10.424 -0.1698  0.0154 -0.0722
 4427SOL    HW124914   2.982   1.728  10.425  0.9126 -0.7544 -4.0262
 4427SOL    HW224915   2.979   1.597  10.483  0.3753  0.1384 -0.4481
 4428SOL     OW24916   4.553   1.608   4.141  0.2199 -0.2427 -0.2652
 4428SOL    HW124917   4.609   1.644   4.209  0.6212 -0.8715 -0.2708
 4428SOL    HW224918   4.529   1.689   4.095  1.1718  1.1692  1.7294
 4429SOL     OW24919   3.630   1.047   8.857  0.1586  0.1082 -0.1691
 4429SOL    HW124920   3.709   0.994   8.862  0.4873  0.6295  0.1923
 4429SOL    HW224921   3.563   1.011   8.915  0.4280  0.2027  0.2037
 4430SOL     OW24922   1.250   1.510   8.663 -0.0415 -0.1771 -0.0471
 4430SOL    HW124923   1.328   1.530   8.715 -0.0331  1.1781 -0.5900
 4430SOL    HW224924   1.184   1.509   8.732  0.5259  0.4829  0.4925
 4431SOL     OW24925   0.128   0.452   8.313 -0.3116 -0.4795 -0.5658
 4431SOL    HW124926   0.149   0.415   8.227  0.2096 -2.0338  0.2363
 4431SOL    HW224927   0.169   0.539   8.315  0.4948 -0.7916 -2.9205
 4432SOL     OW24928   2.220   0.060   0.392  0.2295 -0.3338 -0.5764
 4432SOL    HW124929   2.174   0.115   0.329 -0.0914 -1.2274 -1.1278
 4432SOL    HW224930   2.298   0.111   0.413 -1.2498  1.4292  0.6090
 4433SOL     OW24931   3.880   3.875   7.056  0.2647  0.4768  0.0467
 4433SOL    HW124932   3.969   3.885   7.020  0.4880 -1.1707  0.1434
 4433SOL    HW224933   3.878   3.909   7.145 -0.2502  1.9744 -0.5185
 4434SOL     OW24934   4.556   0.048   2.523 -0.4949  0.3338  0.7371
 4434SOL    HW124935   4.569   0.116   2.590 -0.6582  0.8661  0.2280
 4434SOL    HW224936   4.534   0.108   2.452 -0.3633  2.3498  2.3952
 4435SOL     OW24937   0.524   2.213   2.869  0.3049 -0.7597 -0.4793
 4435SOL    HW124938   0.493   2.269   2.940  1.1594  1.3419 -1.7326
 4435SOL    HW224939   0.518   2.275   2.796 -0.1832 -0.8614 -0.5203
 4436SOL     OW24940   1.585   0.526   7.524  0.1106  0.5120  0.1271
 4436SOL    HW124941   1.530   0.448   7.520  1.1699 -0.0652 -3.6729
 4436SOL    HW224942   1.602   0.537   7.618 -1.6472  1.0490  0.3746
 4437SOL     OW24943   4.256   3.587   1.576  0.2125  0.3401 -0.4505
 4437SOL    HW124944   4.189   3.568   1.641  2.8651 -1.7216  1.7015
 4437SOL    HW224945   4.330   3.594   1.637 -1.9835 -0.3797  2.3249
 4438SOL     OW24946   2.927   4.674   4.168  0.5963 -0.3203  0.1249
 4438SOL    HW124947   3.021   4.654   4.165  0.4730 -0.7252 -1.0900
 4438SOL    HW224948   2.923   4.732   4.243 -0.8602 -2.5254  1.7563
 4439SOL     OW24949   0.715   3.215  13.316  0.5669  0.6689 -0.5687
 4439SOL    HW124950   0.651   3.158  13.360  0.3075 -0.0212 -1.8288
 4439SOL    HW224951   0.795   3.197  13.365  0.1592 -1.0422 -0.4941
 4440SOL     OW24952   3.682   0.185   5.172  0.4750  0.2699  0.2636
 4440SOL    HW124953   3.610   0.225   5.221  1.6251  3.1225 -0.3989
 4440SOL    HW224954   3.641   0.144   5.097  0.2673 -0.7810  0.9483
 4441SOL     OW24955   1.276   1.425   7.762 -0.3527  0.1806 -0.2711
 4441SOL    HW124956   1.281   1.499   7.702  1.0587 -0.2838 -0.7321
 4441SOL    HW224957   1.357   1.445   7.810  0.7516 -1.1408 -1.5653
 4442SOL     OW24958   1.541   3.165   7.828 -0.0397  0.2338 -0.1985
 4442SOL    HW124959   1.506   3.211   7.904  1.0459 -0.1114  0.5031
 4442SOL    HW224960   1.534   3.235   7.763 -0.0426  1.8089  1.5085
 4443SOL     OW24961   3.795   3.121   4.833 -0.3544 -0.8399 -0.0311
 4443SOL    HW124962   3.792   3.031   4.866  2.0973 -0.0006  2.5130
 4443SOL    HW224963   3.836   3.108   4.748  0.6006 -1.3477  0.5092
 4444SOL     OW24964   2.759   2.084   7.185 -0.6925  0.1977 -0.1526
 4444SOL    HW124965   2.746   2.004   7.234 -1.3021  0.9568  0.9215
 4444SOL    HW224966   2.845   2.075   7.143 -0.6919  1.0963 -0.3508
 4445SOL     OW24967   4.123   2.256   4.145 -0.8733 -0.3215  0.3038
 4445SOL    HW124968   4.074   2.224   4.069 -0.1926 -1.8293  0.5102
 4445SOL    HW224969   4.192   2.299   4.095 -0.8796 -0.9380 -0.2250
 4446SOL     OW24970   1.298   3.751   5.277 -0.1569 -0.4136  0.0372
 4446SOL    HW124971   1.376   3.782   5.231  1.0872 -0.3864  2.1538
 4446SOL    HW224972   1.271   3.676   5.224  1.3055  0.0555 -1.3438
 4447SOL     OW24973   0.394   1.422   4.238  0.9265 -0.0817  0.2653
 4447SOL    HW124974   0.370   1.346   4.185  0.5353 -0.1959  0.6039
 4447SOL    HW224975   0.437   1.376   4.310  1.2202 -0.7759 -0.3539
 4448SOL     OW24976   2.479   3.315  14.781  0.0915  0.1896  0.2422
 4448SOL    HW124977   2.452   3.262  14.706  2.0706 -0.2325 -0.1732
 4448SOL    HW224978   2.564   3.352  14.754  0.1196  1.1115  1.5957
 4449SOL     OW24979   1.521   3.248  14.422  1.2307  0.4723  0.1536
 4449SOL    HW124980   1.526   3.311  14.350  0.1114 -0.2089 -0.5319
 4449SOL    HW224981   1.550   3.177  14.364  2.5730  0.6206  0.6458
 4450SOL     OW24982   2.631   3.325   1.836 -0.0626 -0.0439 -0.2785
 4450SOL    HW124983   2.605   3.282   1.755  0.9149  1.1354 -1.2282
 4450SOL    HW224984   2.570   3.399   1.835  1.6941  1.4160  0.6804
 4451SOL     OW24985   3.480   3.810   4.065 -0.2674  0.0929  0.2498
 4451SOL    HW124986   3.436   3.803   4.149 -2.8203 -1.9047 -1.2227
 4451SOL    HW224987   3.556   3.753   4.076  0.1200  0.8735  1.5727
 4452SOL     OW24988   4.685   1.027   9.467  0.8721  0.3998 -0.3212
 4452SOL    HW124989   4.689   0.961   9.398 -0.7264 -1.0491  0.9632
 4452SOL    HW224990   4.590   1.037   9.476  0.9528  0.2213  0.7597
 4453SOL     OW24991   3.954   2.031   7.770  0.2667 -0.3195 -0.0400
 4453SOL    HW124992   3.969   1.977   7.848 -2.3246 -1.3680 -0.2691
 4453SOL    HW224993   3.984   2.119   7.790 -2.3965  0.5603  0.0197
 4454SOL     OW24994   2.172   4.462  12.355  0.1638 -0.5645  0.3679
 4454SOL    HW124995   2.237   4.532  12.356  0.1502 -0.5342 -0.6175
 4454SOL    HW224996   2.129   4.482  12.272  1.7608 -1.7808 -0.7450
 4455SOL     OW24997   1.379   1.822  10.399 -0.2850 -0.0189 -0.7303
 4455SOL    HW124998   1.311   1.863  10.452  3.1629  3.3889  1.0740
 4455SOL    HW224999   1.421   1.765  10.463 -1.9991 -0.0220  0.4030
 4456SOL     OW25000   3.568   1.605   0.324 -0.1665 -0.3051  0.1375
 4456SOL    HW125001   3.610   1.526   0.359 -0.1542 -0.5861 -0.5002
 4456SOL    HW225002   3.609   1.674   0.376  2.3424 -1.9273  0.3057
 4457SOL     OW25003   1.028   4.594   1.258 -0.0060 -0.8062  0.7058
 4457SOL    HW125004   1.113   4.560   1.228 -0.6400 -1.1403 -0.6938
 4457SOL    HW225005   0.988   4.516   1.297 -0.6387 -1.2690 -0.8951
 4458SOL     OW25006   0.625   0.454   1.950 -0.2689 -0.8607 -0.1791
 4458SOL    HW125007   0.586   0.379   1.905  0.2916 -0.7728 -0.8252
 4458SOL    HW225008   0.572   0.450   2.030  0.2074  0.1535  0.1809
 4459SOL     OW25009   4.538   3.176   5.191  0.0908  0.5985  0.2294
 4459SOL    HW125010   4.578   3.262   5.178  0.6390  0.4325  0.8535
 4459SOL    HW225011   4.535   3.137   5.103  0.0902 -1.8067  1.2905
 4460SOL     OW25012   4.238   1.226   4.512 -0.2418 -0.0524 -1.1164
 4460SOL    HW125013   4.218   1.204   4.603 -0.7945  2.7425 -0.5438
 4460SOL    HW225014   4.334   1.221   4.520 -0.4005 -0.1198  0.6404
 4461SOL     OW25015   2.718   2.173  13.035 -0.0289 -0.7527 -0.3606
 4461SOL    HW125016   2.801   2.134  13.008  1.9817  3.0297  0.2915
 4461SOL    HW225017   2.731   2.264  13.009 -0.1136 -1.2055 -1.9588
 4462SOL     OW25018   0.941   4.283   4.259 -0.2859 -0.4013 -0.3494
 4462SOL    HW125019   1.012   4.278   4.323  1.3741  1.1867 -2.0946
 4462SOL    HW225020   0.898   4.201   4.285 -1.8624  1.0999  1.8229
 4463SOL     OW25021   1.309   3.838   3.056 -0.1283  0.4661  0.4835
 4463SOL    HW125022   1.226   3.871   3.090 -0.1794  0.5403  0.2895
 4463SOL    HW225023   1.367   3.907   3.089  0.1141  0.6619 -0.3570
 4464SOL     OW25024   0.022   0.772   4.974 -0.0969 -0.4163 -0.0234
 4464SOL    HW125025   4.721   0.725   4.902  1.2596 -2.2692  0.3536
 4464SOL    HW225026   0.044   0.708   5.041  1.9268  1.2760  0.9127
 4465SOL     OW25027   4.227   1.870  11.499  0.2342 -0.0709 -0.4175
 4465SOL    HW125028   4.299   1.817  11.532 -0.9607  0.8368  3.6822
 4465SOL    HW225029   4.163   1.806  11.469 -0.1840  0.3167 -0.3628
 4466SOL     OW25030   2.825   0.910   5.588 -0.4320  0.3283 -0.2682
 4466SOL    HW125031   2.732   0.908   5.565 -0.0868 -0.9869 -1.5913
 4466SOL    HW225032   2.837   0.882   5.679 -0.4602 -0.7261 -0.5923
 4467SOL     OW25033   3.122   4.698   4.972 -0.2075 -0.0441 -0.5065
 4467SOL    HW125034   3.105   4.634   4.904  0.8565  0.1422 -0.9417
 4467SOL    HW225035   3.215   4.715   4.955  0.3499 -1.2400  1.3274
 4468SOL     OW25036   3.362   3.467   8.079 -0.4366 -0.1893 -0.2650
 4468SOL    HW125037   3.280   3.443   8.123  1.1305 -2.4304  1.4228
 4468SOL    HW225038   3.371   3.406   8.006  0.4264 -1.4112  0.8657
 4469SOL     OW25039   2.243   0.082   1.733 -0.2233 -0.4554 -0.4083
 4469SOL    HW125040   2.193   0.163   1.719  0.6406  0.7008  3.0363
 4469SOL    HW225041   2.202   0.039   1.808  0.0566  0.0478  0.0369
 4470SOL     OW25042   1.788   2.819   1.564  0.4732 -0.6792  0.4318
 4470SOL    HW125043   1.705   2.776   1.542 -1.0239  1.4872  1.9140
 4470SOL    HW225044   1.851   2.750   1.584  1.6344 -0.2009 -1.5531
 4471SOL     OW25045   0.994   4.150   4.685  0.0515 -0.6726 -0.3593
 4471SOL    HW125046   1.079   4.162   4.727 -1.4759 -0.2847  2.5850
 4471SOL    HW225047   0.969   4.066   4.723  2.0018 -0.7830  0.6330
 4472SOL     OW25048   2.260   2.242  15.610 -0.4294  0.4899  0.2125
 4472SOL    HW125049   2.255   2.309  15.543  2.8269  0.3831 -0.1316
 4472SOL    HW225050   2.355   2.245  15.625 -0.5648  3.0066  0.5508
 4473SOL     OW25051   2.258   3.393   6.964 -0.2669  0.1441  0.1570
 4473SOL    HW125052   2.242   3.472   7.016  0.3367  0.5157 -0.2273
 4473SOL    HW225053   2.280   3.437   6.882 -2.8439  2.0249  0.4929
 4474SOL     OW25054   1.579   0.885  13.986 -0.2065 -0.3141 -0.3593
 4474SOL    HW125055   1.625   0.968  13.971 -1.5382  0.0691 -2.2746
 4474SOL    HW225056   1.644   0.815  13.988 -3.5216 -3.4587 -0.9651
 4475SOL     OW25057   1.654   0.331   8.703 -0.2308  0.0000  0.2676
 4475SOL    HW125058   1.745   0.340   8.730 -1.1707  1.2614  3.0257
 4475SOL    HW225059   1.624   0.277   8.776  2.2366 -3.0658 -1.0483
 4476SOL     OW25060   3.029   0.445  17.536 -0.1585  0.7442 -0.3190
 4476SOL    HW125061   3.065   0.450  17.625  0.0103 -2.6882 -0.1773
 4476SOL    HW225062   2.975   0.523  17.533  0.8159  1.3882 -1.0601
 4477SOL     OW25063   0.077   2.282   4.947 -0.0702 -0.1795 -0.3386
 4477SOL    HW125064   0.081   2.239   5.032 -1.3058 -0.0020 -0.1894
 4477SOL    HW225065   0.070   2.205   4.892  1.0615  0.0848 -0.8459
 4478SOL     OW25066   3.033   2.039   7.462  0.4354  0.4237  0.3299
 4478SOL    HW125067   3.062   2.106   7.524 -2.2824  0.3431  1.6962
 4478SOL    HW225068   3.028   2.098   7.387 -0.3778 -0.3053 -0.1894
 4479SOL     OW25069   2.581   2.228   6.888  0.1421  0.2158  0.2397
 4479SOL    HW125070   2.648   2.273   6.940 -0.5387  3.7237 -1.8986
 4479SOL    HW225071   2.577   2.282   6.809  2.0523 -0.4597 -0.3071
 4480SOL     OW25072   4.559   1.954  16.146  0.2226 -0.1478 -0.2834
 4480SOL    HW125073   4.490   1.975  16.210  0.0426  0.1211 -0.5681
 4480SOL    HW225074   4.617   1.910  16.208  0.3896 -0.7405 -0.8594
 4481SOL     OW25075   0.906   0.576   2.828  0.0494 -0.3449 -0.0981
 4481SOL    HW125076   0.917   0.498   2.883 -2.0584  0.7952  1.9764
 4481SOL    HW225077   0.899   0.543   2.739  2.6857 -1.0273 -0.0354
 4482SOL     OW25078   0.983   1.732   5.517  0.0282 -0.1277  0.2801
 4482SOL    HW125079   1.053   1.793   5.492 -1.6113  1.8533  0.4379
 4482SOL    HW225080   1.006   1.722   5.609 -1.2692 -3.0838  0.2852
 4483SOL     OW25081   1.572   3.310   2.637  0.0647  0.6194 -0.0085
 4483SOL    HW125082   1.540   3.235   2.589 -3.4541  0.7410  2.1869
 4483SOL    HW225083   1.571   3.383   2.575  0.2754 -0.5087 -1.3215
 4484SOL     OW25084   0.715   3.820   4.191 -0.3635 -0.2478 -0.6212
 4484SOL    HW125085   0.754   3.749   4.241 -2.1704 -0.4749  0.4343
 4484SOL    HW225086   0.690   3.766   4.116  3.1861 -2.7475  0.0081
 4485SOL     OW25087   3.793   3.939  16.423  0.3199  0.2809 -0.8540
 4485SOL    HW125088   3.855   3.927  16.495 -2.4366  0.3085  1.5507
 4485SOL    HW225089   3.716   3.976  16.467  1.7522  0.5746  1.3849
 4486SOL     OW25090   3.863   3.194   8.709  0.3301 -0.6390  0.0779
 4486SOL    HW125091   3.790   3.243   8.748  0.2775 -0.9202  0.3309
 4486SOL    HW225092   3.813   3.139   8.649  1.3935 -1.0034 -0.4723
 4487SOL     OW25093   0.685   1.433  15.537 -0.0849  0.1339 -0.1414
 4487SOL    HW125094   0.602   1.457  15.578  0.3793 -2.5709  2.4086
 4487SOL    HW225095   0.722   1.511  15.494  1.4107 -0.6849 -0.3480
 4488SOL     OW25096   3.315   0.593   8.874 -1.0085  0.1391 -0.3812
 4488SOL    HW125097   3.362   0.640   8.805 -1.3006 -0.7838 -1.1998
 4488SOL    HW225098   3.259   0.661   8.912 -1.3286 -0.4603  0.2186
 4489SOL     OW25099   4.292   0.382  13.113 -0.0388  0.5410  0.0597
 4489SOL    HW125100   4.375   0.335  13.119 -0.3688 -0.0727 -0.2073
 4489SOL    HW225101   4.302   0.447  13.183 -1.2648  1.6667 -0.7986
 4490SOL     OW25102   2.435   0.196  16.828 -0.2114 -0.3689  0.5585
 4490SOL    HW125103   2.507   0.195  16.765 -0.9847 -1.4083 -0.3067
 4490SOL    HW225104   2.446   0.119  16.885  1.3115 -2.6465 -2.8039
 4491SOL     OW25105   0.623   1.087   6.013  0.2389  0.1960  0.6833
 4491SOL    HW125106   0.542   1.133   6.035 -0.2118  0.2055 -0.9954
 4491SOL    HW225107   0.599   0.995   6.024 -2.4161  1.0070  1.6112
 4492SOL     OW25108   2.042   4.594   0.277 -0.4048 -0.1983 -0.4398
 4492SOL    HW125109   2.109   4.640   0.328  1.1658 -0.3956 -2.3329
 4492SOL    HW225110   1.978   4.582   0.348 -1.6159  0.6852 -1.3816
 4493SOL     OW25111   0.183   1.716   5.128 -0.4370 -0.2159 -0.0669
 4493SOL    HW125112   0.252   1.650   5.140 -2.4986 -2.7121 -1.9055
 4493SOL    HW225113   0.184   1.720   5.032 -1.4831 -1.0937 -0.1142
 4494SOL     OW25114   0.867   2.385  15.015  0.0257  0.2870  0.1385
 4494SOL    HW125115   0.861   2.412  15.107 -1.0984  0.5428 -0.0071
 4494SOL    HW225116   0.783   2.342  14.998  0.1597  0.0873 -0.0277
 4495SOL     OW25117   3.592   3.750   8.271 -0.8051 -0.0934 -0.0535
 4495SOL    HW125118   3.504   3.750   8.309 -0.2308  0.8491  1.2740
 4495SOL    HW225119   3.628   3.826   8.316  0.1088  0.2544 -1.3866
 4496SOL     OW25120   0.789   2.372   8.933  0.1744  0.8471  0.2575
 4496SOL    HW125121   0.708   2.393   8.886  0.0172  1.1788  0.6846
 4496SOL    HW225122   0.747   2.321   9.002 -1.9253  1.3950 -0.6192
 4497SOL     OW25123   4.562   0.383   8.311 -0.1968 -0.0030  0.2725
 4497SOL    HW125124   4.619   0.307   8.299 -0.9673 -0.6402  0.6963
 4497SOL    HW225125   4.531   0.403   8.223  1.0820 -1.1412 -0.4477
 4498SOL     OW25126   0.687   3.904  15.042  0.0624 -0.2093  0.0960
 4498SOL    HW125127   0.750   3.833  15.031 -1.6613 -1.2541 -2.7245
 4498SOL    HW225128   0.609   3.854  15.065  0.1817 -0.3176  0.2674
 4499SOL     OW25129   0.676   2.518   6.742  0.3390 -0.0579 -0.2790
 4499SOL    HW125130   0.695   2.604   6.704 -0.1397  0.2918  0.2896
 4499SOL    HW225131   0.695   2.522   6.835 -3.1423  1.0627  0.3895
 4500SOL     OW25132   3.755   1.352   9.180 -0.4385 -0.2154  0.0702
 4500SOL    HW125133   3.660   1.351   9.171 -0.2483 -0.7134 -1.8589
 4500SOL    HW225134   3.760   1.447   9.189 -0.0837 -0.2107 -0.1836
 4501SOL     OW25135   3.921   0.153   5.282 -0.2582  0.0008 -0.3811
 4501SOL    HW125136   3.834   0.175   5.248  0.2515  1.4684 -0.7072
 4501SOL    HW225137   3.963   0.238   5.287  0.8437 -0.6522  1.3377
 4502SOL     OW25138   2.084   0.128   3.932 -0.3267 -0.2981 -0.6561
 4502SOL    HW125139   2.051   0.089   4.013  2.8004  0.6741  1.0850
 4502SOL    HW225140   2.099   0.052   3.877 -0.4321  0.9339 -2.3695
 4503SOL     OW25141   0.221   2.190  10.744 -0.4023 -0.3214  0.3332
 4503SOL    HW125142   0.233   2.246  10.821 -0.0337  0.1010 -0.0330
 4503SOL    HW225143   0.263   2.106  10.763  2.8880  1.4597  0.9415
 4504SOL     OW25144   1.591   2.830   4.565  0.3378 -0.6075 -0.1232
 4504SOL    HW125145   1.535   2.794   4.633  1.9798  0.8377  2.0140
 4504SOL    HW225146   1.552   2.787   4.490  0.3116  0.2346 -0.5969
 4505SOL     OW25147   4.694   2.533   6.681 -0.3777  0.1882  0.0341
 4505SOL    HW125148   4.616   2.550   6.733 -0.3593  0.3775 -0.0023
 4505SOL    HW225149   0.002   2.614   6.677 -0.0563  0.1276  2.6227
 4506SOL     OW25150   0.120   0.610   5.563  0.3182 -0.0353  0.1613
 4506SOL    HW125151   0.123   0.669   5.639 -0.1959  0.1158  0.0646
 4506SOL    HW225152   0.158   0.657   5.490  1.3316 -0.3209  0.5115
 4507SOL     OW25153   1.076   0.347   5.728 -0.0419 -0.3861 -0.1962
 4507SOL    HW125154   1.015   0.414   5.697 -0.1734  1.1339  3.3367
 4507SOL    HW225155   1.049   0.332   5.818  0.8479  2.0142  0.4645
 4508SOL     OW25156   2.216   4.137   7.478 -0.2392  0.1071  0.0867
 4508SOL    HW125157   2.283   4.181   7.531 -2.5562  2.0234  1.4441
 4508SOL    HW225158   2.283   4.086   7.431 -0.7394 -1.1748  0.7555
 4509SOL     OW25159   0.267   0.380   8.078 -0.6746 -0.0645 -0.2943
 4509SOL    HW125160   0.297   0.333   8.156 -0.4826  1.8028  0.7568
 4509SOL    HW225161   0.321   0.331   8.016  0.9423  1.2140  0.1032
 4510SOL     OW25162   4.234   1.392  10.855 -0.0470 -0.2918  0.6858
 4510SOL    HW125163   4.220   1.348  10.939 -1.2793  0.9827  1.1579
 4510SOL    HW225164   4.146   1.423  10.831  0.9201 -0.7206 -3.4510
 4511SOL     OW25165   2.761   0.136   5.227 -1.0693  0.6099  0.0502
 4511SOL    HW125166   2.751   0.056   5.279  0.0057  0.6531  0.3142
 4511SOL    HW225167   2.849   0.156   5.258  0.1063  0.1436 -2.9949
 4512SOL     OW25168   3.579   2.153   9.683  0.0549  0.0895 -0.0110
 4512SOL    HW125169   3.644   2.158   9.754  0.3019  0.9383 -0.3008
 4512SOL    HW225170   3.543   2.241   9.684  0.6171  0.3255 -0.7189
 4513SOL     OW25171   0.798   0.721   3.780  0.0429 -0.2744  0.7380
 4513SOL    HW125172   0.751   0.664   3.718  0.2324  1.1857 -0.7508
 4513SOL    HW225173   0.775   0.796   3.724  2.5826  1.4299  2.0100
 4514SOL     OW25174   2.459   0.260   6.167 -0.0232 -0.0914 -0.2975
 4514SOL    HW125175   2.388   0.241   6.105 -0.6235  1.0926  0.0187
 4514SOL    HW225176   2.421   0.319   6.233 -2.0721 -0.7275 -0.8961
 4515SOL     OW25177   4.198   0.092   7.390 -0.3133 -0.1096  1.0535
 4515SOL    HW125178   4.130   0.146   7.430 -0.4646  0.1409  0.4498
 4515SOL    HW225179   4.148   0.027   7.341  1.4209  0.9317 -2.0643
 4516SOL     OW25180   3.129   0.854  17.654  0.6891 -0.4575  0.1293
 4516SOL    HW125181   3.100   0.940  17.684  1.9523 -0.4189  1.2176
 4516SOL    HW225182   3.049   0.829  17.608  1.6221  1.4233 -2.5206
 4517SOL     OW25183   1.009   3.308   6.636 -0.1661 -0.4300 -0.2860
 4517SOL    HW125184   0.954   3.346   6.705  2.5215 -0.0087  1.6267
 4517SOL    HW225185   1.011   3.381   6.574  0.5557 -1.2424 -1.2006
 4518SOL     OW25186   3.375   3.508  10.234  0.5592 -0.8212 -0.6741
 4518SOL    HW125187   3.431   3.509  10.157  3.3652  1.3822  1.4083
 4518SOL    HW225188   3.353   3.415  10.228 -1.2048 -0.4970  0.6458
 4519SOL     OW25189   1.041   4.463   7.382  0.2924  0.2942  0.2583
 4519SOL    HW125190   1.131   4.479   7.353  0.1578  0.2869 -0.1656
 4519SOL    HW225191   0.991   4.534   7.342  2.6264  0.9341 -1.4738
 4520SOL     OW25192   0.448   0.031   4.122 -0.3594 -0.3576  0.4627
 4520SOL    HW125193   0.440   0.117   4.081 -1.6025 -0.1771  1.0839
 4520SOL    HW225194   0.542   0.027   4.139 -0.9924 -2.2468  3.4286
 4521SOL     OW25195   4.527   3.600   7.582  0.5697  0.4357  0.4040
 4521SOL    HW125196   4.455   3.542   7.556  0.5594 -0.6456  2.9148
 4521SOL    HW225197   4.496   3.687   7.557 -1.2706  0.4363  2.7705
 4522SOL     OW25198   3.970   2.694   7.075  0.1681 -0.4742  0.3584
 4522SOL    HW125199   3.880   2.676   7.103  0.3329 -0.4089  0.9401
 4522SOL    HW225200   3.959   2.762   7.008 -0.5351  1.2161  2.1873
 4523SOL     OW25201   2.713   1.970   5.058 -0.5734 -0.6273  0.4570
 4523SOL    HW125202   2.657   1.959   5.136 -0.5233 -0.1307  0.5612
 4523SOL    HW225203   2.701   1.883   5.019  1.1312 -0.5384 -0.2437
 4524SOL     OW25204   0.148   2.488   4.166  0.3181 -0.0602 -0.4098
 4524SOL    HW125205   0.203   2.545   4.219 -0.3502  0.4717 -0.2733
 4524SOL    HW225206   0.072   2.543   4.142 -0.7666 -0.4038  2.2502
 4525SOL     OW25207   2.355   0.149  11.879  0.3859  0.0707  0.8740
 4525SOL    HW125208   2.367   0.084  11.809  1.2586  0.3954  0.7154
 4525SOL    HW225209   2.263   0.172  11.866 -0.0317 -1.7851  0.5623
 4526SOL     OW25210   0.680   3.031   0.722 -0.5082  0.6113 -0.1244
 4526SOL    HW125211   0.721   2.950   0.752 -2.0092  1.0840  3.2359
 4526SOL    HW225212   0.587   3.014   0.706 -1.1577  3.0233  0.9722
 4527SOL     OW25213   4.134   2.933   8.372  0.1718  0.2228  0.4873
 4527SOL    HW125214   4.213   2.936   8.317  1.3368 -1.1073  2.0761
 4527SOL    HW225215   4.095   3.018   8.351  0.0387 -0.3590 -1.6610
 4528SOL     OW25216   2.345   2.156   7.418 -0.2269  0.5661  0.0190
 4528SOL    HW125217   2.398   2.202   7.483 -2.2326  0.3489  1.8115
 4528SOL    HW225218   2.269   2.215   7.414 -1.1464 -0.7125 -1.5371
 4529SOL     OW25219   0.700   4.526   6.573  0.2936  0.0710 -0.1751
 4529SOL    HW125220   0.611   4.489   6.575  0.9030 -1.3597  1.0528
 4529SOL    HW225221   0.732   4.476   6.498  1.6152  0.0662  0.3959
 4530SOL     OW25222   0.921   3.073   7.009  0.1589  0.1171 -0.1429
 4530SOL    HW125223   0.938   3.162   7.041 -0.6417  0.7011 -1.3416
 4530SOL    HW225224   0.983   3.023   7.062  0.9785  0.8976 -0.3622
 4531SOL     OW25225   0.336   4.663   6.853 -0.3933  0.4443 -0.2494
 4531SOL    HW125226   0.265   4.606   6.824  1.3349 -1.5921 -0.4398
 4531SOL    HW225227   0.400   4.659   6.782 -1.6726 -0.2834 -1.3554
 4532SOL     OW25228   2.201   1.105  13.972 -0.3144 -0.3523 -0.0966
 4532SOL    HW125229   2.212   1.012  13.993  0.8458 -0.8456 -2.8168
 4532SOL    HW225230   2.291   1.135  13.976 -0.3229 -0.3862  0.2978
 4533SOL     OW25231   0.722   0.344   3.880  0.2742 -0.4127  0.1361
 4533SOL    HW125232   0.797   0.292   3.911 -0.8995 -2.0811  0.2161
 4533SOL    HW225233   0.743   0.426   3.924  1.1679 -0.4876 -0.1489
 4534SOL     OW25234   4.440   0.175   2.099  0.3993 -0.4125  0.4875
 4534SOL    HW125235   4.372   0.164   2.033 -1.8339 -1.2747  2.9831
 4534SOL    HW225236   4.451   0.086   2.133  1.3127  0.0837  1.5002
 4535SOL     OW25237   4.313   3.883  15.482 -0.1130  0.1591  0.6909
 4535SOL    HW125238   4.326   3.943  15.555  0.8360  0.4817  0.2596
 4535SOL    HW225239   4.220   3.890  15.460 -0.1105 -0.1095  0.5873
 4536SOL     OW25240   2.804   1.153   2.053  0.4142  0.3635  0.1042
 4536SOL    HW125241   2.776   1.201   2.131  1.3598  1.2748 -0.1245
 4536SOL    HW225242   2.718   1.158   2.012  0.4243 -0.0894  0.0273
 4537SOL     OW25243   1.045   4.611   7.036  0.2401  0.7410  0.0640
 4537SOL    HW125244   0.973   4.664   7.001  0.0772  2.0347  2.4313
 4537SOL    HW225245   1.027   4.524   7.000  0.3487  1.3602 -1.4853
 4538SOL     OW25246   0.846   0.576  16.993 -0.3898 -0.1743  0.1478
 4538SOL    HW125247   0.752   0.585  16.981 -0.3809  0.1107  0.2818
 4538SOL    HW225248   0.870   0.659  16.952 -0.4199 -1.0007 -1.5526
 4539SOL     OW25249   0.555   3.755   5.759  0.2872  0.3587  0.2693
 4539SOL    HW125250   0.633   3.702   5.776 -2.3791 -2.6464  3.1323
 4539SOL    HW225251   0.555   3.765   5.664 -0.6521  2.5094  0.4891
 4540SOL     OW25252   1.347   4.158   2.378  0.4058 -0.3242 -0.5723
 4540SOL    HW125253   1.320   4.083   2.431 -0.0444  0.3684  0.1703
 4540SOL    HW225254   1.356   4.223   2.448  1.7129  1.1629 -2.1208
 4541SOL     OW25255   1.838   0.363   1.903  0.3113  0.3634 -0.6250
 4541SOL    HW125256   1.837   0.395   1.812 -1.0144 -0.4565 -0.8934
 4541SOL    HW225257   1.882   0.437   1.944  2.9487 -0.4309 -1.9933
 4542SOL     OW25258   1.190   1.076   5.247 -0.0971  0.3453  0.9763
 4542SOL    HW125259   1.121   1.121   5.197  0.6356 -1.1459 -1.3910
 4542SOL    HW225260   1.193   1.135   5.322 -1.7511  1.7915 -0.0988
 4543SOL     OW25261   1.856   1.941  14.911 -0.2178 -0.1632  0.3058
 4543SOL    HW125262   1.824   1.861  14.953  0.6959 -1.0612 -0.7148
 4543SOL    HW225263   1.949   1.924  14.896 -0.3617 -0.0412 -0.7389
 4544SOL     OW25264   2.479   4.488  12.146  0.0520 -0.1252 -0.0347
 4544SOL    HW125265   2.486   4.405  12.193  0.1996 -0.5370 -0.7854
 4544SOL    HW225266   2.424   4.451  12.076  2.1040 -0.4448 -1.4743
 4545SOL     OW25267   2.229   1.281   7.206 -0.1709  0.4398 -0.0595
 4545SOL    HW125268   2.225   1.193   7.242 -0.0951  0.8879  1.0495
 4545SOL    HW225269   2.140   1.316   7.207 -0.2466  0.2502 -0.2642
 4546SOL     OW25270   4.006   3.739  13.788  0.5550  0.1161 -0.8263
 4546SOL    HW125271   3.955   3.794  13.848  1.8218 -0.2334  0.5800
 4546SOL    HW225272   4.040   3.807  13.730  1.7883  0.7310  0.6112
 4547SOL     OW25273   4.692   2.606   7.926  0.2972  0.0644  0.1181
 4547SOL    HW125274   4.643   2.679   7.887  0.3844  0.0930  0.0635
 4547SOL    HW225275   4.643   2.532   7.890  0.3944 -0.0620  0.2488
 4548SOL     OW25276   1.674   1.141   3.477 -0.4135  0.3292 -0.5376
 4548SOL    HW125277   1.765   1.146   3.506 -0.4430  0.5427 -0.4809
 4548SOL    HW225278   1.632   1.179   3.554  1.5687 -0.1362  0.7628
 4549SOL     OW25279   3.488   2.974   8.800 -0.1520  0.7505  0.2217
 4549SOL    HW125280   3.559   2.910   8.795 -1.7073 -0.6805 -3.3964
 4549SOL    HW225281   3.415   2.918   8.776  0.2460  1.6714 -3.1532
 4550SOL     OW25282   1.229   4.290  15.018  0.0491 -0.6029 -0.2581
 4550SOL    HW125283   1.220   4.383  15.035  0.1085 -0.8420  1.0468
 4550SOL    HW225284   1.296   4.261  15.079 -1.3446 -1.9491  0.6522
 4551SOL     OW25285   2.169   0.228   1.169  0.0200  0.3682 -0.0982
 4551SOL    HW125286   2.196   0.149   1.216 -0.5575 -0.9446 -1.9722
 4551SOL    HW225287   2.083   0.241   1.210  0.6356  2.8709  0.3774
 4552SOL     OW25288   4.629   0.917   3.888 -0.2661 -0.5637  0.4520
 4552SOL    HW125289   4.557   0.864   3.853  0.1931 -0.5656 -0.4850
 4552SOL    HW225290   4.592   1.003   3.902  1.0710  0.0295  0.3751
 4553SOL     OW25291   2.272   0.585   5.662 -0.2408 -0.1487  0.3085
 4553SOL    HW125292   2.204   0.641   5.699  0.5979  2.6410 -2.3689
 4553SOL    HW225293   2.358   0.611   5.694  0.3324  1.7999 -2.8348
 4554SOL     OW25294   2.057   2.472   2.662 -0.2491  0.2884  0.3327
 4554SOL    HW125295   1.969   2.451   2.629 -0.2157 -0.8641  0.9813
 4554SOL    HW225296   2.107   2.472   2.580 -0.4669  0.8668  0.1980
 4555SOL     OW25297   2.781   0.849   8.916 -0.5167  0.2522  0.2071
 4555SOL    HW125298   2.752   0.910   8.985 -1.3482  0.0659  0.0281
 4555SOL    HW225299   2.733   0.770   8.941  0.7425 -0.3347  0.7419
 4556SOL     OW25300   3.754   4.146   5.080  0.0968 -0.1853 -0.0912
 4556SOL    HW125301   3.758   4.123   4.987 -0.6500 -0.9461  0.0619
 4556SOL    HW225302   3.847   4.155   5.104 -0.2231 -0.6631  1.3117
 4557SOL     OW25303   1.443   4.632  16.327  0.7465  0.0232 -0.3669
 4557SOL    HW125304   1.381   4.616  16.399 -0.7856 -1.7273 -2.0845
 4557SOL    HW225305   1.487   4.710  16.362  1.4617 -1.4495  1.9774
 4558SOL     OW25306   4.633   3.853   1.695 -0.3576 -0.2227  0.5809
 4558SOL    HW125307   4.669   3.865   1.783 -1.6862  3.5230  0.5998
 4558SOL    HW225308   4.701   3.893   1.642 -0.4062 -0.5276  0.2856
 4559SOL     OW25309   0.438   2.937   6.576 -0.1332 -0.0211 -0.5855
 4559SOL    HW125310   0.510   2.989   6.540  1.7410 -0.8709  1.9460
 4559SOL    HW225311   0.387   2.924   6.496 -1.4510  0.2881  0.2050
 4560SOL     OW25312   1.027   2.534   0.328  0.0083  0.1354  0.1457
 4560SOL    HW125313   1.109   2.506   0.366  0.0714 -1.2946 -1.0284
 4560SOL    HW225314   1.047   2.628   0.321 -0.7917  0.1696 -1.7685
 4561SOL     OW25315   2.508   4.688  17.352 -0.1823  0.1393 -0.2174
 4561SOL    HW125316   2.517   4.599  17.320  1.1225  0.2297 -0.1088
 4561SOL    HW225317   2.543   4.679  17.441 -1.7168 -0.5406  0.3222
 4562SOL     OW25318   4.418   3.042   7.133 -0.0476  0.4384 -0.4575
 4562SOL    HW125319   4.500   2.997   7.152 -0.5084  0.4147  1.4719
 4562SOL    HW225320   4.347   2.981   7.150  0.1889 -0.3469 -2.2532
 4563SOL     OW25321   3.326   3.074   9.107 -0.5698  0.1170 -0.4862
 4563SOL    HW125322   3.314   3.067   9.201  1.0297  3.7377  0.0157
 4563SOL    HW225323   3.410   3.030   9.098  0.3876  1.9959 -0.7861
 4564SOL     OW25324   0.845   2.084  16.396  0.1263 -0.5110  0.5696
 4564SOL    HW125325   0.774   2.134  16.436 -0.6158 -0.7756 -0.4099
 4564SOL    HW225326   0.863   2.144  16.323 -2.4862 -0.4094 -0.0098
 4565SOL     OW25327   2.754   1.693   5.940  0.1658 -0.6835  0.0772
 4565SOL    HW125328   2.666   1.720   5.966 -0.1775 -0.1215 -1.7336
 4565SOL    HW225329   2.748   1.605   5.978  1.9976 -0.1464  1.6270
 4566SOL     OW25330   1.718   1.094   1.938  0.1086 -0.4906  0.0258
 4566SOL    HW125331   1.762   1.111   2.021  2.5680 -1.9930 -1.0057
 4566SOL    HW225332   1.637   1.144   1.953 -0.2119 -0.6856 -1.0715
 4567SOL     OW25333   2.345   1.254   4.310 -0.0457 -0.1719  0.3197
 4567SOL    HW125334   2.414   1.315   4.282  0.6096 -1.2808 -0.4977
 4567SOL    HW225335   2.307   1.282   4.393 -1.0370 -0.1726 -0.1343
 4568SOL     OW25336   0.814   3.562   4.254 -0.1531  0.5390  0.2515
 4568SOL    HW125337   0.876   3.584   4.184 -2.3153 -1.5975 -2.3046
 4568SOL    HW225338   0.742   3.514   4.213  0.8944 -0.7502 -0.0726
 4569SOL     OW25339   0.253   1.471   7.835  0.4808 -0.0743  0.1539
 4569SOL    HW125340   0.206   1.551   7.857  2.1035  0.4730  1.7145
 4569SOL    HW225341   0.335   1.484   7.883  1.6396 -1.4566 -1.4152
 4570SOL     OW25342   1.467   3.844   1.548 -0.1683  0.2320  0.2962
 4570SOL    HW125343   1.411   3.770   1.573 -0.4178 -0.0727 -1.1755
 4570SOL    HW225344   1.543   3.827   1.604  0.6122  1.3299 -0.4389
 4571SOL     OW25345   0.707   1.533   7.870  0.4167  0.2822 -0.2608
 4571SOL    HW125346   0.770   1.476   7.825  3.7376  3.2559  0.5243
 4571SOL    HW225347   0.756   1.563   7.947 -2.5175 -0.9302  2.0371
 4572SOL     OW25348   0.407   3.720   3.087 -0.1812 -0.0903 -0.5307
 4572SOL    HW125349   0.345   3.718   3.015 -2.0895  4.2009  1.0352
 4572SOL    HW225350   0.368   3.660   3.151  3.0688 -2.0992 -0.4240
 4573SOL     OW25351   4.524   1.656   0.320  0.6943  0.4888 -0.7476
 4573SOL    HW125352   4.593   1.645   0.386 -0.9650 -3.1811  0.4222
 4573SOL    HW225353   4.554   1.736   0.278  0.5550  1.7381  1.5068
 4574SOL     OW25354   1.056   0.143   7.135 -0.4021  0.1205  0.8169
 4574SOL    HW125355   1.137   0.122   7.090 -0.2775  1.0439  0.6079
 4574SOL    HW225356   1.100   0.144   7.221 -0.3822  0.8661  0.7992
 4575SOL     OW25357   2.726   0.666   2.163  0.1388 -0.7223  0.4354
 4575SOL    HW125358   2.644   0.630   2.129  1.7139 -3.5544 -0.3305
 4575SOL    HW225359   2.699   0.758   2.165  0.8810 -0.4904 -0.3321
 4576SOL     OW25360   0.918   4.192  14.724 -0.3812 -0.2033  0.0603
 4576SOL    HW125361   0.861   4.188  14.801  0.1212  0.6828  0.4855
 4576SOL    HW225362   0.996   4.148  14.759  3.2176  3.9971 -2.7629
 4577SOL     OW25363   0.704   2.337   2.306 -0.1694 -0.5286  0.1447
 4577SOL    HW125364   0.783   2.341   2.359  0.5933  1.9037 -1.1417
 4577SOL    HW225365   0.736   2.286   2.232  2.5770 -0.3796  1.2277
 4578SOL     OW25366   4.685   0.330   5.704  0.1096 -0.2796  0.4058
 4578SOL    HW125367   4.667   0.414   5.746  1.1762  1.0033 -1.6884
 4578SOL    HW225368   4.688   0.353   5.611 -3.4186  1.1281  0.6558
 4579SOL     OW25369   2.470   1.303   3.427  0.6891  0.2441 -0.0980
 4579SOL    HW125370   2.400   1.343   3.374  0.3332  0.8341  0.8276
 4579SOL    HW225371   2.493   1.227   3.373 -0.3979 -0.4177  0.3839
 4580SOL     OW25372   3.018   0.563   4.261  0.7521 -0.3382 -0.0017
 4580SOL    HW125373   2.926   0.586   4.277  1.5024  0.1521  3.6432
 4580SOL    HW225374   3.044   0.514   4.339  1.6201  0.6714  0.3342
 4581SOL     OW25375   3.412   0.770   7.753 -0.2002 -0.0246 -0.1810
 4581SOL    HW125376   3.384   0.861   7.745 -0.1299  0.0112 -0.0146
 4581SOL    HW225377   3.327   0.736   7.783  1.0029 -2.5268  0.3714
 4582SOL     OW25378   4.285   4.496   4.959 -0.0804 -0.2642  0.2895
 4582SOL    HW125379   4.254   4.529   5.044  1.1100 -1.3449  1.1449
 4582SOL    HW225380   4.268   4.402   4.962  0.8791 -0.3901  1.6405
 4583SOL     OW25381   2.217   3.676  11.915  0.2505  0.0394 -0.0681
 4583SOL    HW125382   2.133   3.649  11.952  0.6023 -0.5281  0.3141
 4583SOL    HW225383   2.242   3.754  11.964  0.1321  0.9641 -1.4721
 4584SOL     OW25384   1.623   0.495   3.490  0.2792 -0.1643  0.1190
 4584SOL    HW125385   1.565   0.517   3.563  1.7929  1.9895  0.6373
 4584SOL    HW225386   1.689   0.447   3.541 -0.3850 -0.7016  0.4800
 4585SOL     OW25387   3.085   0.864  16.133 -0.1089 -0.0202  0.5145
 4585SOL    HW125388   3.059   0.773  16.120  1.2122 -0.1516 -1.1501
 4585SOL    HW225389   3.033   0.918  16.074 -1.4041 -0.4077  1.3132
 4586SOL     OW25390   0.698   2.508  12.615 -0.5495  0.0473  0.1973
 4586SOL    HW125391   0.751   2.440  12.573  1.6958  1.7588  0.2719
 4586SOL    HW225392   0.667   2.467  12.696 -1.4344  1.9283  0.8234
 4587SOL     OW25393   0.282   3.568   5.491  0.4918  0.3868 -0.2618
 4587SOL    HW125394   0.188   3.582   5.481  0.9873  3.3189 -0.8355
 4587SOL    HW225395   0.327   3.650   5.469 -1.5276  1.3339 -0.7837
 4588SOL     OW25396   0.627   0.767   6.224  0.1757  0.2309  0.1435
 4588SOL    HW125397   0.647   0.859   6.244  1.9074 -0.5296  1.8885
 4588SOL    HW225398   0.544   0.753   6.271  0.0083 -0.5325 -0.3834
 4589SOL     OW25399   0.810   4.125   6.546  0.0900  0.2576  0.1894
 4589SOL    HW125400   0.753   4.199   6.524 -2.3395 -0.7570  3.0797
 4589SOL    HW225401   0.776   4.065   6.479  0.3372  0.8897 -0.4998
 4590SOL     OW25402   0.693   4.741   7.635 -0.4287  0.3557  0.1870
 4590SOL    HW125403   0.697   0.077   7.579 -1.5596 -0.2465 -0.7154
 4590SOL    HW225404   0.754   0.029   7.703  0.1902  0.2658 -0.3254
 4591SOL     OW25405   2.850   1.215   7.856  0.6111 -1.0685 -0.3198
 4591SOL    HW125406   2.931   1.262   7.835  0.0236  0.2125  0.3107
 4591SOL    HW225407   2.817   1.277   7.921  2.5680  1.7847 -2.0489
 4592SOL     OW25408   0.178   0.918   6.149 -0.4116  0.0283 -0.6723
 4592SOL    HW125409   0.162   0.826   6.169 -1.6504  0.0368 -1.6805
 4592SOL    HW225410   0.200   0.965   6.230 -2.1608  0.5055 -0.4941
 4593SOL     OW25411   2.601   0.913  17.668 -0.1801 -0.7932  0.2986
 4593SOL    HW125412   2.524   0.947  17.622  0.2858 -1.2873 -0.8312
 4593SOL    HW225413   2.572   0.910  17.759 -1.3037 -0.5802 -0.0507
 4594SOL     OW25414   3.526   2.414   3.068 -0.3818 -0.2037  0.7139
 4594SOL    HW125415   3.488   2.338   3.112  1.7209 -1.8433 -0.3284
 4594SOL    HW225416   3.589   2.438   3.136 -0.3611 -0.0869  0.6526
 4595SOL     OW25417   0.063   3.321   4.909 -0.3320 -0.1668 -0.0387
 4595SOL    HW125418   0.075   3.231   4.939 -1.3269 -0.6476 -1.1199
 4595SOL    HW225419   4.733   3.348   4.966 -1.3713 -0.4111 -1.2600
 4596SOL     OW25420   2.263   2.059  12.945 -0.2264  0.7030  0.0581
 4596SOL    HW125421   2.338   2.083  13.000 -0.7544  2.5817 -0.0282
 4596SOL    HW225422   2.225   1.983  12.989  1.5258 -0.7042 -0.8871
 4597SOL     OW25423   0.421   3.235  13.283 -0.2023  0.3003  0.0545
 4597SOL    HW125424   0.443   3.176  13.355  0.5487  1.0458  0.4319
 4597SOL    HW225425   0.484   3.305  13.297 -0.5963  0.8227 -0.7956
 4598SOL     OW25426   2.327   1.048  12.789 -0.2769 -0.2097 -0.2468
 4598SOL    HW125427   2.286   1.103  12.856  0.9780  0.2700  0.1393
 4598SOL    HW225428   2.360   0.981  12.848 -1.2907  0.9644  1.6857
 4599SOL     OW25429   0.748   0.825   1.796  0.2674  0.1995  0.1604
 4599SOL    HW125430   0.758   0.841   1.702 -2.7935 -1.2008 -0.4015
 4599SOL    HW225431   0.769   0.913   1.828 -0.8715  0.7031 -0.4697
 4600SOL     OW25432   0.439   0.621   5.927  0.0889 -0.3870 -0.5811
 4600SOL    HW125433   0.385   0.548   5.897 -1.9437  1.1899 -0.7925
 4600SOL    HW225434   0.473   0.586   6.010  1.2598  0.3222 -0.7670
 4601SOL     OW25435   3.828   4.379   3.859  0.0777  0.2405  0.3905
 4601SOL    HW125436   3.904   4.393   3.803  0.5815 -0.5222  0.8783
 4601SOL    HW225437   3.834   4.457   3.914  0.1023 -0.3657  1.2457
 4602SOL     OW25438   0.167   4.342   7.109  0.3266  0.4066 -0.0597
 4602SOL    HW125439   0.176   4.264   7.054  1.5589 -0.1268  0.8942
 4602SOL    HW225440   0.089   4.380   7.070  0.7676  1.7929  0.4284
 4603SOL     OW25441   3.030   1.567   2.137  0.2872  0.3421  0.0798
 4603SOL    HW125442   3.092   1.496   2.122  0.5143  0.3274  1.1421
 4603SOL    HW225443   2.968   1.560   2.064  0.6272 -0.3148 -0.1440
 4604SOL     OW25444   0.915   1.896  15.913  0.4273  0.1086  0.2831
 4604SOL    HW125445   0.838   1.945  15.940 -0.2785  0.7111 -2.8014
 4604SOL    HW225446   0.956   1.876  15.997 -0.8377 -0.5375  0.7544
 4605SOL     OW25447   2.379   2.287   5.113 -0.2557  0.0453 -0.1839
 4605SOL    HW125448   2.450   2.312   5.053  1.2792 -2.6337  0.5188
 4605SOL    HW225449   2.426   2.218   5.159 -0.9723 -1.4835 -1.7463
 4606SOL     OW25450   2.405   0.614   1.882  0.2072  0.6208  0.2799
 4606SOL    HW125451   2.484   0.569   1.853 -0.7579  0.2975 -1.8282
 4606SOL    HW225452   2.436   0.627   1.972  0.0946 -1.0030  0.5509
 4607SOL     OW25453   3.843   3.448   1.892  0.4840  0.1532  0.2213
 4607SOL    HW125454   3.866   3.423   1.982 -2.2244 -0.5246  0.7224
 4607SOL    HW225455   3.782   3.383   1.859 -0.8289  2.1413 -1.2562
 4608SOL     OW25456   0.324   0.274  15.170 -0.2071  0.1339  0.2895
 4608SOL    HW125457   0.313   0.260  15.264  1.0152  0.6116  0.4994
 4608SOL    HW225458   0.238   0.305  15.143 -0.4038  0.3744  1.2212
 4609SOL     OW25459   3.016   2.056  10.679 -0.0746  0.2499  0.4672
 4609SOL    HW125460   2.988   2.146  10.691  0.0736  0.1121  1.7688
 4609SOL    HW225461   2.933   2.010  10.663  1.0776 -1.7971  0.3758
 4610SOL     OW25462   1.305   1.024   4.514 -0.2153 -0.3839 -0.2357
 4610SOL    HW125463   1.379   1.039   4.455  1.7702 -0.1317  2.3304
 4610SOL    HW225464   1.244   0.990   4.449 -0.5796  0.0480 -0.1220
 4611SOL     OW25465   0.652   4.514   7.073 -0.3837 -0.2900 -0.4016
 4611SOL    HW125466   0.736   4.535   7.031  0.7736 -0.1749  2.0206
 4611SOL    HW225467   0.632   4.602   7.104  3.1303 -0.3174  1.9433
 4612SOL     OW25468   4.357   2.236   7.313  0.3337  0.1187 -0.7635
 4612SOL    HW125469   4.446   2.271   7.306 -0.0766  0.9674 -1.6591
 4612SOL    HW225470   4.375   2.178   7.388 -2.1569 -1.1053 -1.1086
 4613SOL     OW25471   3.765   2.166   1.219 -0.0577  0.2179 -0.9987
 4613SOL    HW125472   3.856   2.193   1.232  0.6177 -1.9465 -1.2122
 4613SOL    HW225473   3.718   2.249   1.227 -0.4850 -0.0700 -0.4541
 4614SOL     OW25474   3.608   3.827   7.020 -0.1260  0.2797 -0.3591
 4614SOL    HW125475   3.699   3.855   7.018  0.5507 -2.0093 -2.5626
 4614SOL    HW225476   3.627   3.734   7.002  2.7564  0.8122 -0.1224
 4615SOL     OW25477   4.012   1.913   6.770 -0.2981  0.0320 -0.2801
 4615SOL    HW125478   3.928   1.873   6.793  1.3514 -1.1689  3.5537
 4615SOL    HW225479   3.999   1.907   6.675 -1.2333  2.2430 -0.2971
 4616SOL     OW25480   4.531   1.914   5.412 -0.5441 -0.1861  0.4271
 4616SOL    HW125481   4.442   1.883   5.396 -0.9890  0.6693  1.2793
 4616SOL    HW225482   4.584   1.874   5.343  0.1384  3.5177 -1.1635
 4617SOL     OW25483   1.940   2.122   1.812  0.4418  0.2089 -0.0632
 4617SOL    HW125484   1.994   2.048   1.837 -0.3253 -0.5368 -0.6107
 4617SOL    HW225485   1.868   2.074   1.771  0.5394 -0.7180  0.8479
 4618SOL     OW25486   3.932   2.851   5.307  0.2437  0.0474  0.3068
 4618SOL    HW125487   4.026   2.852   5.290  0.1612 -0.7803 -0.1574
 4618SOL    HW225488   3.922   2.769   5.355  0.0964 -0.4891 -0.6490
 4619SOL     OW25489   2.165   0.061   7.967 -0.2223 -0.0516 -0.0239
 4619SOL    HW125490   2.133   0.143   8.004 -2.9595 -1.3795  0.5928
 4619SOL    HW225491   2.141   0.005   8.042  1.1245 -0.6369 -0.0378
 4620SOL     OW25492   0.888   2.050   8.718  0.2291 -0.2076  0.4870
 4620SOL    HW125493   0.879   1.966   8.672  0.1496 -1.1543  2.2367
 4620SOL    HW225494   0.820   2.037   8.783 -0.6241 -0.6331 -0.4986
 4621SOL     OW25495   1.269   1.277  16.116  0.7201  0.2134  0.1604
 4621SOL    HW125496   1.351   1.295  16.071  0.6521  2.0066  0.7609
 4621SOL    HW225497   1.249   1.188  16.088  2.8556 -0.2093 -0.0338
 4622SOL     OW25498   4.349   1.875   7.306  0.8156 -0.0355  1.4135
 4622SOL    HW125499   4.274   1.865   7.365  0.2084 -1.3769  0.4118
 4622SOL    HW225500   4.408   1.930   7.358 -0.5600  0.4258  2.4948
 4623SOL     OW25501   4.704   1.311   9.238  0.4918  0.1995  0.6286
 4623SOL    HW125502   4.721   1.375   9.307  1.6001  0.5421  0.0397
 4623SOL    HW225503   4.692   1.242   9.303  0.4808 -1.5836 -1.2665
 4624SOL     OW25504   1.815   1.695   7.184 -0.1737 -0.1340 -0.3437
 4624SOL    HW125505   1.890   1.754   7.188 -0.9389  0.9003 -0.9871
 4624SOL    HW225506   1.740   1.755   7.174 -0.2154  0.3154  2.6741
 4625SOL     OW25507   0.848   1.899   4.520 -0.1602 -0.7277 -0.2326
 4625SOL    HW125508   0.934   1.880   4.482 -0.3335  0.0959 -1.0167
 4625SOL    HW225509   0.842   1.833   4.589  3.0247 -1.2104 -0.4158
 4626SOL     OW25510   3.562   3.807  13.794  0.0669  0.0021  1.0095
 4626SOL    HW125511   3.600   3.759  13.720  0.5824 -0.2627  1.4502
 4626SOL    HW225512   3.640   3.857  13.817  1.1514 -1.5030  0.5413
 4627SOL     OW25513   3.951   0.614  15.814 -0.0211 -0.6187 -0.5428
 4627SOL    HW125514   4.028   0.660  15.780 -1.2410  0.3289 -2.0089
 4627SOL    HW225515   3.936   0.658  15.898  0.3252 -0.2215 -0.6888
 4628SOL     OW25516   3.554   4.242   2.701 -0.3161 -0.9620  0.4472
 4628SOL    HW125517   3.483   4.267   2.643  0.5828  1.0509  0.1921
 4628SOL    HW225518   3.544   4.148   2.718  0.0140 -1.0578  0.1220
 4629SOL     OW25519   4.162   0.522   7.290 -0.3143 -0.5483 -0.2213
 4629SOL    HW125520   4.220   0.560   7.224  1.1897 -1.0213  0.8311
 4629SOL    HW225521   4.197   0.433   7.283  0.1237 -0.2945 -1.2861
 4630SOL     OW25522   3.125   0.827   3.321  0.2930 -0.2101 -0.1759
 4630SOL    HW125523   3.200   0.875   3.284 -0.1389  0.9709  0.4855
 4630SOL    HW225524   3.113   0.868   3.406  1.8419  0.4272 -0.2594
 4631SOL     OW25525   2.698   4.119   7.906  0.5845  0.2451  0.5943
 4631SOL    HW125526   2.629   4.135   7.842  0.1177 -0.8922  0.8164
 4631SOL    HW225527   2.765   4.115   7.838 -0.2782 -0.7751 -0.1973
 4632SOL     OW25528   3.632   3.968   5.885  0.8630  0.6846 -0.2905
 4632SOL    HW125529   3.629   3.874   5.905  0.4970  1.0111  1.2408
 4632SOL    HW225530   3.551   3.995   5.929  1.2714 -2.5032  2.5057
 4633SOL     OW25531   0.641   2.522   7.096  0.3786 -0.1483 -0.1529
 4633SOL    HW125532   0.559   2.478   7.118  1.3013 -1.4248  0.7529
 4633SOL    HW225533   0.696   2.445   7.086 -0.6324 -0.5697 -2.3412
 4634SOL     OW25534   4.343   3.172  12.729 -0.2011  0.0779 -0.0256
 4634SOL    HW125535   4.352   3.117  12.652  0.4897  0.1678 -0.0020
 4634SOL    HW225536   4.434   3.197  12.745 -0.1202 -0.1462 -0.1409
 4635SOL     OW25537   1.208   0.905   0.812  0.2061  0.1839  0.2895
 4635SOL    HW125538   1.242   0.862   0.733 -1.0278  1.1740 -0.7784
 4635SOL    HW225539   1.286   0.958   0.830  1.3427 -1.5461  0.4126
 4636SOL     OW25540   3.663   1.530   3.196  0.0920 -0.1985 -0.1070
 4636SOL    HW125541   3.639   1.501   3.108  1.4854  0.6102 -0.7378
 4636SOL    HW225542   3.572   1.534   3.227  0.2340 -0.5359  0.3516
 4637SOL     OW25543   1.840   0.991  16.901  0.2271 -0.3197 -0.0664
 4637SOL    HW125544   1.754   0.956  16.876 -0.4185  2.0213 -1.0978
 4637SOL    HW225545   1.834   1.011  16.994 -1.7173 -1.0271 -0.0367
 4638SOL     OW25546   3.696   3.782   1.082 -0.3331  0.1981  0.1248
 4638SOL    HW125547   3.751   3.861   1.084 -1.7489  1.1721  0.9407
 4638SOL    HW225548   3.705   3.752   0.992  2.1961 -1.1232  0.8213
 4639SOL     OW25549   0.357   3.057  17.529 -0.2964 -0.1540  0.2501
 4639SOL    HW125550   0.331   3.051  17.621  0.6201 -0.5437  0.4910
 4639SOL    HW225551   0.367   3.151  17.515  0.4385 -0.4530 -1.1946
 4640SOL     OW25552   3.116   3.645   4.598  0.0999 -0.1252 -0.5652
 4640SOL    HW125553   3.082   3.685   4.678  0.4760  0.4758 -0.7072
 4640SOL    HW225554   3.089   3.553   4.606  0.2320 -0.0271  0.9841
 4641SOL     OW25555   0.009   1.905  17.718 -0.2152  0.1264 -0.2185
 4641SOL    HW125556   0.044   1.933   0.038 -0.2251 -0.9560  0.1463
 4641SOL    HW225557   0.051   1.969  17.660  2.0377 -1.8301 -0.7398
 4642SOL     OW25558   2.781   0.381   7.970  0.2344  0.1083 -0.1011
 4642SOL    HW125559   2.786   0.308   7.908  0.2048  1.3755 -1.5970
 4642SOL    HW225560   2.869   0.418   7.970  0.9060 -1.4858 -0.4287
 4643SOL     OW25561   2.794   2.793   5.202 -0.0057 -0.0440 -0.9789
 4643SOL    HW125562   2.879   2.813   5.163  1.7121 -2.3049  1.6985
 4643SOL    HW225563   2.749   2.767   5.121 -0.0452  0.9378 -1.2839
 4644SOL     OW25564   0.109   3.115   9.655  0.5790  0.4513 -0.8994
 4644SOL    HW125565   0.154   3.064   9.586 -1.4009 -0.5516 -1.4591
 4644SOL    HW225566   0.134   3.203   9.628  3.9030 -0.5188 -1.0808
 4645SOL     OW25567   0.997   3.418   2.484  0.1228  0.0519 -0.5602
 4645SOL    HW125568   1.083   3.377   2.482  0.2046  0.1873 -0.0049
 4645SOL    HW225569   1.013   3.509   2.507 -2.3845  0.6198 -1.0041
 4646SOL     OW25570   1.499   0.093  12.148  0.1214 -0.3587 -0.1502
 4646SOL    HW125571   1.535   0.118  12.234  1.9756 -1.2344 -0.6794
 4646SOL    HW225572   1.482   0.177  12.106  0.3857  0.5294  1.5143
 4647SOL     OW25573   1.783   3.494  12.151  0.0205 -0.0500 -0.0526
 4647SOL    HW125574   1.778   3.539  12.235  0.5605 -1.9054  0.9639
 4647SOL    HW225575   1.691   3.482  12.126  0.7439 -2.1095 -1.6736
 4648SOL     OW25576   3.613   3.285   1.694  0.4859 -0.0388  0.2999
 4648SOL    HW125577   3.521   3.260   1.709  0.2601  1.2557  1.0739
 4648SOL    HW225578   3.642   3.253   1.780  1.5392 -1.0683 -0.4372
 4649SOL     OW25579   4.460   0.115  10.366  0.2984 -0.5573 -0.0305
 4649SOL    HW125580   4.434   0.193  10.414 -0.7688 -0.8956 -0.0510
 4649SOL    HW225581   4.550   0.108  10.398  0.2856  1.6835  0.4760
 4650SOL     OW25582   3.197   2.987   6.995 -0.8480  0.2198 -0.7838
 4650SOL    HW125583   3.164   3.071   6.964 -0.2595  0.4709 -0.7343
 4650SOL    HW225584   3.113   2.955   7.028 -0.2169 -0.1791  0.4190
 4651SOL     OW25585   0.877   2.804  16.174  0.2341  0.0711  0.1610
 4651SOL    HW125586   0.916   2.762  16.251 -0.2721 -1.3997 -0.3801
 4651SOL    HW225587   0.878   2.736  16.107 -0.2387 -0.1029  0.3296
 4652SOL     OW25588   3.682   0.879   2.004 -0.1648 -0.3064  0.2443
 4652SOL    HW125589   3.717   0.832   1.928  2.3150 -1.1626  1.9177
 4652SOL    HW225590   3.621   0.809   2.027  1.6832 -2.0577 -0.1550
 4653SOL     OW25591   4.342   0.179   8.332 -0.0855 -0.4715 -0.0887
 4653SOL    HW125592   4.409   0.247   8.337 -1.9836  1.4343 -0.3893
 4653SOL    HW225593   4.354   0.156   8.240  3.0555 -0.6110  0.3774
 4654SOL     OW25594   3.803   2.429  11.651  0.1551  0.1141  0.1528
 4654SOL    HW125595   3.711   2.415  11.670  0.5341 -2.8967 -0.2207
 4654SOL    HW225596   3.803   2.387  11.565  0.8752  0.6103 -0.1007
 4655SOL     OW25597   2.643   2.062  15.603 -0.1192  0.5425  0.1133
 4655SOL    HW125598   2.600   2.092  15.523 -0.2615  0.1682  0.0502
 4655SOL    HW225599   2.681   1.977  15.583 -0.3363  0.7176 -1.0478
 4656SOL     OW25600   1.408   1.258  17.351  0.1391  0.2121  0.3452
 4656SOL    HW125601   1.358   1.256  17.270 -0.2816  1.8437  0.5606
 4656SOL    HW225602   1.488   1.300  17.320 -0.2279  0.0360 -0.8459
 4657SOL     OW25603   3.755   2.481   0.000 -0.7415 -0.0570 -0.5357
 4657SOL    HW125604   3.722   2.553   0.054  1.0211 -0.0272  0.5084
 4657SOL    HW225605   3.695   2.411   0.024 -1.4909  0.9349  0.5017
 4658SOL     OW25606   1.756   3.261  15.429  0.0194 -0.1300  0.4992
 4658SOL    HW125607   1.752   3.227  15.340  0.2714 -0.5778  0.6603
 4658SOL    HW225608   1.809   3.199  15.480 -0.0039  0.8510  1.7128
 4659SOL     OW25609   0.875   0.766  13.602  0.3195 -0.2087  0.1674
 4659SOL    HW125610   0.823   0.716  13.539  0.1456  0.7354 -0.4337
 4659SOL    HW225611   0.896   0.698  13.666  0.5638 -0.6768 -0.4088
 4660SOL     OW25612   0.618   0.628   4.486  0.3482  0.1828  0.5861
 4660SOL    HW125613   0.676   0.558   4.516  0.9528 -0.7243 -2.6464
 4660SOL    HW225614   0.646   0.631   4.394 -1.7763 -0.0194 -0.0760
 4661SOL     OW25615   3.368   3.224   7.920 -0.3542  0.2920 -0.0280
 4661SOL    HW125616   3.366   3.132   7.894  0.2957  0.5979 -1.1528
 4661SOL    HW225617   3.295   3.237   7.980 -0.7482  3.3085 -1.1708
 4662SOL     OW25618   0.235   2.535   9.237  0.4262  0.6705 -0.0184
 4662SOL    HW125619   0.320   2.539   9.192  1.3419 -0.7099  1.5819
 4662SOL    HW225620   0.232   2.442   9.261  1.2704  0.8281  0.6752
 4663SOL     OW25621   2.098   2.135   2.509 -0.0587 -0.1506 -0.2761
 4663SOL    HW125622   2.153   2.059   2.490 -2.2592 -1.7255 -0.4159
 4663SOL    HW225623   2.127   2.195   2.441  1.6081  0.2415  0.7761
 4664SOL     OW25624   2.200   0.115   2.503 -0.2435 -0.2554 -0.2673
 4664SOL    HW125625   2.221   0.162   2.584 -0.1751  1.6067 -1.3606
 4664SOL    HW225626   2.171   0.187   2.446 -0.7044 -0.1341  0.1224
 4665SOL     OW25627   3.688   0.292   9.602  0.1800  0.0350 -0.3703
 4665SOL    HW125628   3.722   0.374   9.566 -2.4374 -0.1171 -3.0970
 4665SOL    HW225629   3.769   0.249   9.628  0.5375  0.6365 -0.4880
 4666SOL     OW25630   3.600   0.476  12.778 -0.2659 -0.6298  0.5323
 4666SOL    HW125631   3.682   0.436  12.809  0.3301  0.8377  0.8303
 4666SOL    HW225632   3.547   0.480  12.857 -0.3825 -0.8552  0.4650
 4667SOL     OW25633   2.446   4.314  15.102  0.1333 -0.5763 -0.5517
 4667SOL    HW125634   2.366   4.361  15.126 -1.0543 -2.5107 -0.6585
 4667SOL    HW225635   2.509   4.382  15.124 -0.2926  0.4863 -2.5950
 4668SOL     OW25636   3.790   3.557   8.339 -0.6398  0.2339 -0.0394
 4668SOL    HW125637   3.721   3.492   8.332 -0.9422  0.2772  2.7653
 4668SOL    HW225638   3.735   3.634   8.324  0.1291  0.3679 -2.2702
 4669SOL     OW25639   3.720   4.458   4.705 -0.3730  0.3519 -0.0666
 4669SOL    HW125640   3.672   4.510   4.640  1.9192  1.2034 -1.0495
 4669SOL    HW225641   3.806   4.484   4.673  0.3554 -0.1400  1.4975
 4670SOL     OW25642   1.603   1.827   7.809 -0.5299 -0.8809  0.5430
 4670SOL    HW125643   1.613   1.781   7.892 -3.3177 -1.0068  0.8132
 4670SOL    HW225644   1.631   1.754   7.753  0.6172  0.5805 -0.7737
 4671SOL     OW25645   0.313   0.968  13.957  0.2953 -0.1863  0.0768
 4671SOL    HW125646   0.328   0.991  14.049  1.5997 -0.7885  0.0040
 4671SOL    HW225647   0.235   1.018  13.934  0.1542 -0.6199 -0.3957
 4672SOL     OW25648   1.147   4.094   6.930 -0.5499  0.2977  0.5725
 4672SOL    HW125649   1.157   3.999   6.932 -0.3705  0.3082  0.0617
 4672SOL    HW225650   1.082   4.106   6.861 -1.4879 -1.2952  1.1947
 4673SOL     OW25651   2.716   3.944   6.488 -0.0855  0.5980 -0.7625
 4673SOL    HW125652   2.736   4.024   6.439  0.1297  0.9384 -0.1177
 4673SOL    HW225653   2.729   3.874   6.423  1.7480 -1.6253  1.9952
 4674SOL     OW25654   2.167   1.775   9.751 -0.2301  0.0542  0.2110
 4674SOL    HW125655   2.176   1.824   9.833  0.1602 -0.9930  0.7975
 4674SOL    HW225656   2.149   1.846   9.690 -0.9804 -0.3914 -0.0788
 4675SOL     OW25657   4.016   3.361  15.406  0.2678 -0.3803  0.1214
 4675SOL    HW125658   4.099   3.385  15.364 -1.5052  0.3159 -3.0316
 4675SOL    HW225659   3.981   3.290  15.351 -0.1139 -1.6584  2.0231
 4676SOL     OW25660   1.004   1.975   5.864 -0.0338 -0.3247  0.4278
 4676SOL    HW125661   1.034   2.053   5.910 -0.6910  0.2281 -0.0718
 4676SOL    HW225662   0.926   2.009   5.819  0.9860  0.7223 -0.5333
 4677SOL     OW25663   1.369   1.675  13.205  0.3274 -0.3231 -0.5696
 4677SOL    HW125664   1.324   1.729  13.141 -0.0152  1.1490  0.8989
 4677SOL    HW225665   1.293   1.618  13.214 -0.8008  0.8327 -2.9639
 4678SOL     OW25666   0.337   3.361   9.391 -0.1555  0.0147  0.3901
 4678SOL    HW125667   0.264   3.322   9.341  1.2368 -0.5892 -1.1811
 4678SOL    HW225668   0.381   3.414   9.325 -1.0984  2.6720  1.9102
 4679SOL     OW25669   4.009   2.096   9.379 -0.1752  0.3358 -0.3238
 4679SOL    HW125670   4.040   2.118   9.291 -0.2792 -0.1255 -0.4731
 4679SOL    HW225671   3.919   2.126   9.365  0.5448  2.9377  0.6035
 4680SOL     OW25672   3.560   0.400   6.842 -0.2150 -0.2428  0.0848
 4680SOL    HW125673   3.648   0.373   6.817 -0.7677  1.1962 -3.4151
 4680SOL    HW225674   3.528   0.312   6.861  0.7980 -0.9393 -1.3664
 4681SOL     OW25675   3.851   4.597  14.681 -0.2322  0.3384  0.2093
 4681SOL    HW125676   3.778   4.562  14.630  0.3851  0.3877 -0.6962
 4681SOL    HW225677   3.892   4.661  14.623  1.6377 -1.5638 -0.5515
 4682SOL     OW25678   0.839   1.723   4.712 -0.3791 -0.1701  0.5083
 4682SOL    HW125679   0.857   1.755   4.801  0.2999 -1.1439  0.7116
 4682SOL    HW225680   0.844   1.629   4.729 -0.0898 -0.2134  0.1676
 4683SOL     OW25681   1.141   1.206  16.739  0.1117 -0.0004  0.6773
 4683SOL    HW125682   1.165   1.116  16.758 -0.7787 -0.4071 -0.1071
 4683SOL    HW225683   1.217   1.239  16.691  0.8190 -0.5168  1.4388
 4684SOL     OW25684   0.806   4.644   5.770  0.5694  0.3567 -0.0931
 4684SOL    HW125685   0.873   4.703   5.806  0.5342  1.2206 -1.4334
 4684SOL    HW225686   0.865   4.574   5.741  0.4153 -0.6641  2.0669
 4685SOL     OW25687   3.653   1.978   3.805  0.1757 -0.5171 -0.2575
 4685SOL    HW125688   3.700   2.039   3.747  0.9064 -0.9583 -0.1302
 4685SOL    HW225689   3.562   1.983   3.775 -0.3327 -1.2336  1.1988
 4686SOL     OW25690   4.368   1.551   5.486 -0.9275 -0.4207  0.6568
 4686SOL    HW125691   4.287   1.504   5.466 -1.4141  0.7858 -0.2046
 4686SOL    HW225692   4.352   1.627   5.431 -3.2644 -0.6360  1.0300
 4687SOL     OW25693   3.001   4.506   3.085  0.0031 -0.6373 -0.3388
 4687SOL    HW125694   2.972   4.467   3.167  1.1166 -0.9064 -0.0704
 4687SOL    HW225695   2.968   4.591   3.111  0.9162 -0.2607 -0.4061
 4688SOL     OW25696   0.058   4.022   4.173  0.0899  0.0651 -0.3802
 4688SOL    HW125697   0.013   4.014   4.257  1.1353  1.7806  0.3517
 4688SOL    HW225698   0.086   4.114   4.175 -0.0101  0.0598  2.1886
 4689SOL     OW25699   1.737   1.328   2.414 -0.1714  0.2778  0.0318
 4689SOL    HW125700   1.803   1.348   2.480  2.7920 -1.0692 -2.5285
 4689SOL    HW225701   1.658   1.308   2.464  0.6246  0.2555  1.2616
 4690SOL     OW25702   2.750   2.610   8.402  0.1322  0.2285  0.6550
 4690SOL    HW125703   2.702   2.555   8.339  0.8820  0.7469 -0.3763
 4690SOL    HW225704   2.707   2.572   8.478 -0.4302  0.6133  0.5273
 4691SOL     OW25705   0.918   2.336   8.671  0.3737 -0.0872 -0.1465
 4691SOL    HW125706   0.913   2.242   8.684  3.9012 -0.3310 -0.6302
 4691SOL    HW225707   0.896   2.364   8.759  0.9231 -0.4156  0.0895
 4692SOL     OW25708   1.194   4.162  10.997  0.6028 -0.3942  0.0380
 4692SOL    HW125709   1.146   4.162  10.914 -1.3788 -1.5286  1.1906
 4692SOL    HW225710   1.196   4.257  11.009  0.0732 -0.5195  1.1137
 4693SOL     OW25711   3.891   4.052   5.406 -0.2000 -0.1941  0.1384
 4693SOL    HW125712   3.837   4.087   5.477  0.7452  0.3741  0.5777
 4693SOL    HW225713   3.936   3.977   5.444 -0.6408 -2.0896 -3.0594
 4694SOL     OW25714   1.149   0.237   4.329 -0.4696 -0.2039  0.3959
 4694SOL    HW125715   1.174   0.148   4.354  0.7059 -0.5171 -1.8541
 4694SOL    HW225716   1.112   0.223   4.242  0.8615 -0.8478 -0.0670
 4695SOL     OW25717   0.593   4.667   3.047  1.0125  0.2098  0.0170
 4695SOL    HW125718   0.569   4.619   3.126  3.2290  1.2251  1.2883
 4695SOL    HW225719   0.548   4.624   2.974  0.2004 -0.1573  0.7376
 4696SOL     OW25720   1.397   1.818   2.752  0.0342 -0.7574 -0.1187
 4696SOL    HW125721   1.441   1.853   2.829  2.8648 -0.1655 -2.0269
 4696SOL    HW225722   1.374   1.734   2.793 -0.3495 -0.1778  0.8461
 4697SOL     OW25723   1.488   2.301   9.934  0.4300  0.3247 -0.1733
 4697SOL    HW125724   1.560   2.296   9.996 -0.9545 -0.0873  1.3856
 4697SOL    HW225725   1.535   2.310   9.851  1.3273  0.1494  0.3163
 4698SOL     OW25726   4.578   1.111   4.285  0.9093  0.1968 -0.3578
 4698SOL    HW125727   4.625   1.042   4.239 -1.5840 -0.7047 -1.5959
 4698SOL    HW225728   4.551   1.175   4.220 -0.3405  0.9387  0.8908
 4699SOL     OW25729   2.272   4.281   5.721 -0.4198  0.0824  0.2473
 4699SOL    HW125730   2.254   4.331   5.642 -1.5115  0.2277  0.5943
 4699SOL    HW225731   2.347   4.226   5.698 -0.2768 -0.2936  1.5820
 4700SOL     OW25732   2.729   2.075   8.994  0.7434  0.6874  0.5409
 4700SOL    HW125733   2.737   2.058   8.900  0.7031 -0.6499  0.7770
 4700SOL    HW225734   2.666   2.008   9.021 -0.6749  0.8545 -2.3330
 4701SOL     OW25735   4.679   3.425   8.281 -0.2147  0.3878  0.2285
 4701SOL    HW125736   4.664   3.413   8.375 -0.0168  2.1056  0.4892
 4701SOL    HW225737   4.629   3.506   8.272  0.7228  1.0415  0.8333
 4702SOL     OW25738   1.979   4.575  13.222 -0.1794  0.3743 -0.4206
 4702SOL    HW125739   1.932   4.609  13.298 -0.4695 -2.3332  0.6048
 4702SOL    HW225740   1.909   4.545  13.164  0.5532 -0.3863 -0.9127
 4703SOL     OW25741   1.637   3.238   0.608 -0.4810 -0.1205 -0.1487
 4703SOL    HW125742   1.569   3.252   0.674  1.4805  1.5549  1.5082
 4703SOL    HW225743   1.715   3.245   0.663 -0.1659  4.0467 -1.1024
 4704SOL     OW25744   0.586   1.175  11.350  0.3288 -0.0584  0.4525
 4704SOL    HW125745   0.664   1.175  11.295  0.0990 -1.4384  0.1238
 4704SOL    HW225746   0.613   1.127  11.428  1.9247  0.7842  0.4071
 4705SOL     OW25747   0.369   0.729   1.660 -0.4760  0.0014 -0.2222
 4705SOL    HW125748   0.351   0.659   1.723  3.7426  0.0238  0.9992
 4705SOL    HW225749   0.283   0.730   1.619 -0.3958  1.9132 -0.3538
 4706SOL     OW25750   1.155   1.219   2.842  0.1329 -0.2529 -0.2023
 4706SOL    HW125751   1.155   1.279   2.768 -1.8530  0.2994  0.2417
 4706SOL    HW225752   1.156   1.132   2.802  2.6271 -0.6756  0.7987
 4707SOL     OW25753   2.613   4.376   3.811 -0.0584  0.3523  0.1674
 4707SOL    HW125754   2.665   4.456   3.816 -1.2181  1.1738 -1.1053
 4707SOL    HW225755   2.663   4.327   3.745  1.7375  1.6521  0.5665
 4708SOL     OW25756   3.111   0.321   4.772 -0.3187 -0.2792  0.1834
 4708SOL    HW125757   3.098   0.391   4.836  0.0963  0.5092 -0.6007
 4708SOL    HW225758   3.164   0.261   4.825 -3.8047 -2.8402  0.7713
 4709SOL     OW25759   3.418   0.981   7.992  0.3246 -0.0751  0.4586
 4709SOL    HW125760   3.443   1.017   8.077 -1.0012 -2.9273  2.0633
 4709SOL    HW225761   3.325   0.962   8.001  0.2305  0.5534  0.8228
 4710SOL     OW25762   0.235   3.058   4.379 -0.9175 -0.0036  0.0945
 4710SOL    HW125763   0.150   3.101   4.366 -0.9939 -0.4058 -0.7847
 4710SOL    HW225764   0.211   2.983   4.433 -0.9031 -0.8847 -1.1008
 4711SOL     OW25765   1.137   2.987   2.298 -0.1836 -0.0724 -0.3442
 4711SOL    HW125766   1.052   2.954   2.269  0.0483  0.8169 -2.0485
 4711SOL    HW225767   1.173   3.008   2.211  1.1972  1.5295  0.6199
 4712SOL     OW25768   1.881   3.180   4.473  0.2417 -0.4471 -0.6783
 4712SOL    HW125769   1.798   3.162   4.430 -0.3459 -2.2434  1.1967
 4712SOL    HW225770   1.929   3.207   4.395  1.6954 -1.0099  0.0218
 4713SOL     OW25771   4.397   2.933  14.041  0.7672  0.1374  0.0558
 4713SOL    HW125772   4.327   2.868  14.033 -0.8381  1.5412  2.7457
 4713SOL    HW225773   4.415   2.934  14.135  0.1840 -0.6517  0.1744
 4714SOL     OW25774   2.450   1.913   7.455  0.3201 -0.1453  0.2920
 4714SOL    HW125775   2.404   1.996   7.439  0.0595 -0.4018 -0.3094
 4714SOL    HW225776   2.539   1.939   7.434  0.4179 -0.5455  0.2193
 4715SOL     OW25777   2.828   2.366   7.268 -0.1970 -0.3110  0.1250
 4715SOL    HW125778   2.914   2.325   7.279 -0.5397 -0.4396  2.3897
 4715SOL    HW225779   2.807   2.317   7.189 -1.7551  1.6654 -0.6893
 4716SOL     OW25780   3.833   2.229   9.238  0.5595 -0.0298  0.2188
 4716SOL    HW125781   3.785   2.247   9.319  0.5887  2.1785 -0.2446
 4716SOL    HW225782   3.878   2.313   9.223  0.1918  0.0705 -0.3189
 4717SOL     OW25783   0.921   4.083  12.583 -0.4866 -0.1236 -0.3012
 4717SOL    HW125784   0.892   3.999  12.618  0.8218 -0.5816 -0.3307
 4717SOL    HW225785   0.989   4.050  12.525  2.7660  0.4029  3.1984
 4718SOL     OW25786   1.300   0.893   1.382 -0.2070  0.1177 -0.1485
 4718SOL    HW125787   1.381   0.850   1.409  0.1010  0.0355 -1.2143
 4718SOL    HW225788   1.297   0.875   1.288 -1.0607  2.2363 -0.5262
 4719SOL     OW25789   3.949   3.367  17.627  0.3519  0.0954 -0.1498
 4719SOL    HW125790   3.916   3.457  17.624  0.1587  0.0448  0.4991
 4719SOL    HW225791   3.907   3.341  17.545  1.5161  1.0638 -1.0608
 4720SOL     OW25792   2.916   2.028   8.604  0.3049  0.8136 -0.1769
 4720SOL    HW125793   2.988   1.973   8.573 -0.2871  0.1956 -0.4506
 4720SOL    HW225794   2.875   1.978   8.674 -0.5566  2.2029  0.3090
 4721SOL     OW25795   2.149   3.994  14.581 -0.6019 -0.6608 -0.1310
 4721SOL    HW125796   2.163   3.929  14.512 -0.7233  1.5884 -2.2682
 4721SOL    HW225797   2.063   4.033  14.560  0.4451  0.4834 -2.2880
 4722SOL     OW25798   1.736   0.678   5.990  0.0005  0.2903  0.3294
 4722SOL    HW125799   1.777   0.762   5.974 -1.9127  0.9775 -0.9621
 4722SOL    HW225800   1.709   0.649   5.903  4.2512 -0.5275 -0.7425
 4723SOL     OW25801   0.420   1.577  16.202  0.0778  0.2401 -0.5422
 4723SOL    HW125802   0.411   1.559  16.295  1.5274  0.0257 -0.4445
 4723SOL    HW225803   0.334   1.556  16.166 -0.1998  2.4957 -1.1724
 4724SOL     OW25804   4.059   4.026   2.358 -0.0962 -0.1371  0.4249
 4724SOL    HW125805   4.060   3.961   2.428  1.5726  0.7175  1.2094
 4724SOL    HW225806   4.085   3.969   2.286 -2.9720 -1.1745  0.2250
 4725SOL     OW25807   3.886   1.326   2.842 -0.2610 -0.7071 -0.0117
 4725SOL    HW125808   3.941   1.304   2.918 -0.6836 -0.4902  0.3592
 4725SOL    HW225809   3.906   1.257   2.779  1.8671  0.4037 -0.5378
 4726SOL     OW25810   0.383   0.803   2.666  0.0471  0.2239 -0.1550
 4726SOL    HW125811   0.347   0.838   2.747  0.3705 -0.5301  0.3183
 4726SOL    HW225812   0.464   0.854   2.659 -0.5336  1.1352 -0.2288
 4727SOL     OW25813   3.046   2.576   7.209  0.6654 -0.0496  0.0150
 4727SOL    HW125814   3.001   2.497   7.180 -0.5205  1.2305 -1.6570
 4727SOL    HW225815   3.137   2.552   7.225  0.9080  0.9855  0.2068
 4728SOL     OW25816   1.237   4.740   5.007 -0.2783 -0.1707  0.0255
 4728SOL    HW125817   1.210   4.683   5.080 -2.4613 -0.9194 -1.3655
 4728SOL    HW225818   1.247   4.676   4.937 -0.7987  1.2370 -1.3225
 4729SOL     OW25819   4.277   2.253   8.589 -0.3858 -0.2237  0.1621
 4729SOL    HW125820   4.259   2.315   8.660 -1.6819  0.8597 -1.0895
 4729SOL    HW225821   4.251   2.171   8.630 -0.2013  0.3040  1.3477
 4730SOL     OW25822   1.970   0.432   3.410  0.0232  0.3830 -0.0657
 4730SOL    HW125823   2.031   0.505   3.415 -0.0538  0.4209  0.3622
 4730SOL    HW225824   1.924   0.433   3.494  3.5229  1.0290  1.8448
 4731SOL     OW25825   0.951   0.765   8.139 -0.2248  0.0710  0.2467
 4731SOL    HW125826   0.987   0.796   8.221 -0.0488 -1.1873  0.6467
 4731SOL    HW225827   0.861   0.799   8.141 -0.4027 -0.3867  0.0690
 4732SOL     OW25828   3.723   3.305   5.352 -0.3119 -0.1029  0.1490
 4732SOL    HW125829   3.725   3.229   5.294 -3.0081  1.3951 -1.8874
 4732SOL    HW225830   3.629   3.317   5.366 -0.4672  0.6613 -1.5883
 4733SOL     OW25831   1.429   4.720   8.142 -0.1853 -0.2881 -0.0963
 4733SOL    HW125832   1.461   4.648   8.087 -1.5617 -0.5851 -0.5066
 4733SOL    HW225833   1.477   4.702   8.223  0.0437 -1.7527 -0.5588
 4734SOL     OW25834   0.786   3.989   1.484  0.3581  0.2068  0.2380
 4734SOL    HW125835   0.698   3.953   1.490 -0.0105  1.1582  0.5160
 4734SOL    HW225836   0.833   3.915   1.522  2.7063  1.4355 -0.2762
 4735SOL     OW25837   1.306   3.695   5.548 -0.3734  0.3367 -0.2012
 4735SOL    HW125838   1.364   3.768   5.572  1.1945 -0.5650 -1.2673
 4735SOL    HW225839   1.301   3.699   5.453 -0.9026 -1.7520 -0.2423
 4736SOL     OW25840   0.618   2.664  15.313 -0.3882  0.7154 -0.0769
 4736SOL    HW125841   0.578   2.733  15.367 -0.4346  1.0705 -0.5665
 4736SOL    HW225842   0.654   2.722  15.246 -1.4762 -1.9872 -2.9974
 4737SOL     OW25843   0.081   0.656  12.228  0.3335  0.1234 -0.0855
 4737SOL    HW125844   4.730   0.653  12.204  0.3218  0.4767 -0.0855
 4737SOL    HW225845   0.098   0.568  12.195 -0.9794 -0.2153  0.1378
 4738SOL     OW25846   4.636   2.899   7.288 -0.2435 -0.4389 -0.3892
 4738SOL    HW125847   4.731   2.883   7.284 -0.5452 -2.1314 -0.8969
 4738SOL    HW225848   4.622   2.916   7.381  0.7114 -1.6187 -0.0273
 4739SOL     OW25849   2.680   1.225   3.783 -0.4343  0.1265 -0.3748
 4739SOL    HW125850   2.749   1.171   3.744 -1.3103 -1.2843  0.0157
 4739SOL    HW225851   2.697   1.232   3.877 -0.2993 -1.4725 -0.2750
 4740SOL     OW25852   4.383   2.248   3.139 -0.0786 -0.3110  0.1451
 4740SOL    HW125853   4.367   2.157   3.167 -1.2227  0.4203  1.8570
 4740SOL    HW225854   4.460   2.243   3.081 -0.2108  0.6633 -0.0987
 4741SOL     OW25855   2.487   3.958  12.365  0.5903  0.2840 -0.1774
 4741SOL    HW125856   2.422   3.998  12.424  1.4894  2.4127 -0.6363
 4741SOL    HW225857   2.557   4.023  12.374 -0.4756  1.8041 -2.8186
 4742SOL     OW25858   0.111   0.446   5.987  0.3757  0.4920 -0.1416
 4742SOL    HW125859   0.177   0.424   5.921  0.7150  0.7177  0.1271
 4742SOL    HW225860   0.032   0.404   5.953 -1.1503  1.3437  2.3986
 4743SOL     OW25861   3.155   1.883   5.860 -0.3826 -0.3428  0.0996
 4743SOL    HW125862   3.066   1.917   5.860  0.1131  0.9387  0.2931
 4743SOL    HW225863   3.139   1.796   5.897  0.3008 -0.4330  0.2008
 4744SOL     OW25864   2.444   0.994  11.836  0.0781 -0.0648  0.0393
 4744SOL    HW125865   2.468   1.065  11.896 -0.7174  0.1915  0.0647
 4744SOL    HW225866   2.349   1.007  11.829 -0.4711 -3.1039  1.9600
 4745SOL     OW25867   0.482   0.520   5.352  0.1888  0.1394 -0.1210
 4745SOL    HW125868   0.396   0.561   5.345 -0.4672 -1.3789 -0.9224
 4745SOL    HW225869   0.496   0.544   5.444 -1.1147 -0.7112  0.2981
 4746SOL     OW25870   0.215   3.487   9.912 -0.0115 -0.4511 -0.3101
 4746SOL    HW125871   0.132   3.523   9.945 -0.8396  0.2741 -3.2138
 4746SOL    HW225872   0.233   3.418   9.976 -0.1101  0.9791  1.2670
 4747SOL     OW25873   3.419   1.931   5.816  0.3965  0.1816  0.2976
 4747SOL    HW125874   3.326   1.931   5.795  1.2672 -2.5981 -3.6629
 4747SOL    HW225875   3.422   1.968   5.904  2.8142  3.3143 -1.0872
 4748SOL     OW25876   4.457   3.341   8.449 -0.2219 -0.3817 -0.2426
 4748SOL    HW125877   4.431   3.307   8.363  1.8626 -0.2857 -0.9300
 4748SOL    HW225878   4.434   3.433   8.439 -0.5229 -0.6285 -1.8744
 4749SOL     OW25879   0.312   0.799   6.776  0.2298 -0.1666 -0.0351
 4749SOL    HW125880   0.254   0.864   6.736  2.5509  1.7224 -0.2758
 4749SOL    HW225881   0.272   0.777   6.861  0.3789  0.7140  0.2616
 4750SOL     OW25882   4.377   0.938   4.497  0.2414 -0.7954 -0.3847
 4750SOL    HW125883   4.445   1.003   4.515 -1.3965  0.4107  1.4020
 4750SOL    HW225884   4.381   0.884   4.576  1.1256 -0.3314 -0.1067
 4751SOL     OW25885   0.116   4.634   2.622  0.0539  0.3288 -0.8160
 4751SOL    HW125886   0.046   4.603   2.565  0.1896 -2.0403  0.3043
 4751SOL    HW225887   0.116   4.727   2.597 -1.8561  0.9257  1.4208
 4752SOL     OW25888   2.335   3.251   3.345  0.6002 -0.1666  0.4687
 4752SOL    HW125889   2.348   3.316   3.414 -1.4062  0.2085  0.4993
 4752SOL    HW225890   2.391   3.293   3.280  0.7351 -1.1946 -0.0848
 4753SOL     OW25891   4.270   3.707  15.812  0.3250  0.3760 -0.1323
 4753SOL    HW125892   4.305   3.623  15.841 -1.1906 -0.5349 -0.9342
 4753SOL    HW225893   4.230   3.691  15.726  1.1105  0.0538 -0.4423
 4754SOL     OW25894   3.226   2.697   5.265  0.0739  0.7226 -0.3951
 4754SOL    HW125895   3.266   2.650   5.192  0.9707 -0.8521  1.1236
 4754SOL    HW225896   3.289   2.679   5.334  1.5000 -0.6209 -2.0491
 4755SOL     OW25897   0.323   3.029   8.803 -0.0259  0.0419 -0.2461
 4755SOL    HW125898   0.299   3.006   8.714 -3.2428 -1.0898  0.9040
 4755SOL    HW225899   0.243   3.073   8.833 -0.7182 -1.7604  0.6071
 4756SOL     OW25900   4.082   4.030  12.439 -0.6123 -0.8512  0.5489
 4756SOL    HW125901   4.111   4.104  12.385  0.8640 -3.2781 -1.9227
 4756SOL    HW225902   4.128   4.046  12.522  2.3935 -1.5887 -0.9816
 4757SOL     OW25903   2.378   3.327  12.256 -0.6646  0.1595  0.0845
 4757SOL    HW125904   2.427   3.301  12.334  0.2328  1.3475 -0.0709
 4757SOL    HW225905   2.421   3.410  12.233  0.4909  0.0228  1.7605
 4758SOL     OW25906   0.982   2.434  17.669  0.0508  0.0251 -0.8358
 4758SOL    HW125907   0.985   2.529  17.659  2.0725  0.2749  2.1491
 4758SOL    HW225908   1.070   2.408  17.696  0.2313  1.7072  0.2075
 4759SOL     OW25909   4.317   1.359  17.414  0.3681  0.1104  0.3986
 4759SOL    HW125910   4.321   1.352  17.318  0.5290  2.0318  0.2780
 4759SOL    HW225911   4.344   1.271  17.440  0.4915  0.2924  0.8832
 4760SOL     OW25912   2.059   4.135  16.032  0.3014  0.3246 -0.2560
 4760SOL    HW125913   1.980   4.083  16.016  0.6788 -0.5810  0.7490
 4760SOL    HW225914   2.028   4.184  16.108  1.9387  1.4675 -0.3311
 4761SOL     OW25915   4.598   2.744  11.109 -0.0039 -0.2713 -0.5682
 4761SOL    HW125916   4.622   2.821  11.161  0.2389 -0.4524 -0.4069
 4761SOL    HW225917   4.570   2.786  11.028 -0.3240  2.1633  0.8075
 4762SOL     OW25918   4.292   1.364   5.150  0.6008  0.3956  0.3137
 4762SOL    HW125919   4.299   1.325   5.237  2.4100 -0.8657 -0.3859
 4762SOL    HW225920   4.355   1.317   5.095  0.9910  0.7446  0.4618
 4763SOL     OW25921   3.212   4.235  14.851  0.0999  0.1026  0.0239
 4763SOL    HW125922   3.263   4.197  14.923  0.3433  0.6625  0.1469
 4763SOL    HW225923   3.230   4.329  14.854  2.2487 -0.3926  2.2786
 4764SOL     OW25924   4.687   1.955   7.586  0.0312  0.4530 -0.4289
 4764SOL    HW125925   4.638   1.895   7.643 -1.0812 -0.9013 -2.8370
 4764SOL    HW225926   4.718   1.900   7.514  1.3672  1.0233 -0.3011
 4765SOL     OW25927   3.316   1.219   5.776 -0.3431 -0.3986  0.2459
 4765SOL    HW125928   3.359   1.237   5.693 -1.4377  2.0795  0.1980
 4765SOL    HW225929   3.335   1.126   5.787  2.3541 -0.0987 -2.1224
 4766SOL     OW25930   2.399   4.040   2.162 -0.5360 -0.1298 -0.1997
 4766SOL    HW125931   2.310   4.074   2.152 -1.4159 -3.3382 -3.1519
 4766SOL    HW225932   2.402   4.042   2.257 -0.5079 -0.8682 -0.1913
 4767SOL     OW25933   2.224   4.359   5.459 -0.3058  0.9286  0.2313
 4767SOL    HW125934   2.132   4.377   5.438 -0.4612  0.3614  0.4344
 4767SOL    HW225935   2.257   4.418   5.391 -2.9259 -1.1469 -2.8514
 4768SOL     OW25936   3.781   3.733  12.373 -0.1650 -0.1728 -0.0260
 4768SOL    HW125937   3.729   3.810  12.399 -0.0876 -0.4896  1.0233
 4768SOL    HW225938   3.826   3.715  12.455 -1.1287 -2.4098 -0.0008
 4769SOL     OW25939   1.578   2.309   4.932 -0.3072 -0.1843  0.1081
 4769SOL    HW125940   1.631   2.310   5.012  0.7117  0.3018 -0.5627
 4769SOL    HW225941   1.567   2.404   4.924 -1.1110 -0.3144 -0.3040
 4770SOL     OW25942   1.459   3.486   9.880  0.2474 -0.2728 -0.1676
 4770SOL    HW125943   1.509   3.562   9.910 -1.4840  0.6287  0.4257
 4770SOL    HW225944   1.407   3.467   9.958  1.2623 -1.0204  0.3235
 4771SOL     OW25945   2.854   2.277   6.673  0.1466  0.0838 -0.1138
 4771SOL    HW125946   2.766   2.300   6.642 -0.5338  0.5883  2.1998
 4771SOL    HW225947   2.866   2.187   6.644  0.7452 -0.5071  1.9731
 4772SOL     OW25948   3.705   3.831   4.372 -0.7983 -0.4502  0.2992
 4772SOL    HW125949   3.715   3.896   4.441 -2.8326 -0.5386  0.6537
 4772SOL    HW225950   3.618   3.841   4.335 -0.2934 -2.1143 -1.3885
 4773SOL     OW25951   2.945   1.807   9.160  0.0370 -0.0609  0.5072
 4773SOL    HW125952   2.967   1.899   9.178  2.6623 -1.2074  3.1913
 4773SOL    HW225953   2.933   1.815   9.066  0.4731 -2.0286  0.2780
 4774SOL     OW25954   3.848   0.952  15.712 -0.0528 -0.1975 -0.5725
 4774SOL    HW125955   3.830   0.858  15.722 -0.9018 -0.1632 -1.8479
 4774SOL    HW225956   3.805   0.988  15.790 -2.3843 -0.5773 -1.6882
 4775SOL     OW25957   4.660   4.099   3.429  0.0470 -0.2224 -0.4383
 4775SOL    HW125958   4.571   4.074   3.405  0.2807 -1.4690 -0.0014
 4775SOL    HW225959   4.674   4.032   3.495 -1.7088  1.2143  1.4106
 4776SOL     OW25960   2.334   3.401  15.009 -0.3665 -1.0046 -0.4011
 4776SOL    HW125961   2.377   3.481  15.040  0.1312 -1.4277  0.0125
 4776SOL    HW225962   2.393   3.375  14.938 -0.0018  0.3034 -0.5778
 4777SOL     OW25963   3.298   3.862   6.923 -0.0618  0.1202 -0.3649
 4777SOL    HW125964   3.219   3.909   6.950  1.7197  2.3262  1.0494
 4777SOL    HW225965   3.300   3.790   6.986 -1.7050  0.3398 -0.0620
 4778SOL     OW25966   0.189   4.247   8.548 -0.2023  0.4632 -0.1024
 4778SOL    HW125967   0.248   4.224   8.477 -0.9199 -1.8258  0.0291
 4778SOL    HW225968   0.248   4.228   8.621 -2.3270 -1.2023  1.1808
 4779SOL     OW25969   0.713   1.958  10.555  0.0220 -0.8580  0.1932
 4779SOL    HW125970   0.804   1.965  10.583 -0.4386  4.3692  0.3835
 4779SOL    HW225971   0.697   1.868  10.583 -1.3436  0.2429  2.9280
 4780SOL     OW25972   4.226   0.085   6.277  0.0572 -0.5025  0.0970
 4780SOL    HW125973   4.155   0.039   6.232 -0.6056  0.6592 -0.0485
 4780SOL    HW225974   4.205   0.177   6.260  1.4722 -0.2052  0.0251
 4781SOL     OW25975   2.381   4.715   3.729  0.7723  0.1126 -0.8193
 4781SOL    HW125976   2.406   4.647   3.666 -0.0384 -0.0773 -0.9339
 4781SOL    HW225977   2.294   4.694   3.761  0.5945 -0.4785 -1.6833
 4782SOL     OW25978   1.243   1.743  12.614 -0.3227 -0.1346  0.3111
 4782SOL    HW125979   1.316   1.733  12.554 -0.3049 -0.6336  0.4139
 4782SOL    HW225980   1.278   1.679  12.676  0.9594  1.3879  1.1605
 4783SOL     OW25981   1.862   3.965   1.708  0.7710 -0.3699 -0.3706
 4783SOL    HW125982   1.821   3.886   1.673  0.9472  0.0231 -1.4599
 4783SOL    HW225983   1.818   4.037   1.663  0.7477 -0.7994 -1.0230
 4784SOL     OW25984   1.693   0.121  10.761  0.2251  0.0747  0.0990
 4784SOL    HW125985   1.657   0.037  10.791 -1.0550  0.7604  0.5287
 4784SOL    HW225986   1.629   0.182  10.800 -1.8168 -1.3105 -1.1390
 4785SOL     OW25987   4.328   0.606   7.067  0.0871  0.5422 -0.1493
 4785SOL    HW125988   4.259   0.588   7.003 -0.3529 -0.7514  0.6976
 4785SOL    HW225989   4.411   0.606   7.019 -0.1882  1.4923 -0.6231
 4786SOL     OW25990   0.056   0.091   5.461  0.3049  0.1571  0.0255
 4786SOL    HW125991   0.092   0.170   5.503 -0.7633 -0.2635  1.7285
 4786SOL    HW225992   0.135   0.070   5.412 -0.1107 -4.4375  1.3090
 4787SOL     OW25993   1.143   3.054   4.408  1.0763  0.2864  0.6838
 4787SOL    HW125994   1.059   3.088   4.437  0.6097 -1.6445  1.6254
 4787SOL    HW225995   1.144   2.980   4.469 -0.8301  1.0059  1.5785
 4788SOL     OW25996   1.930   3.287  14.963 -0.7343  0.0873  0.3618
 4788SOL    HW125997   1.993   3.358  14.955 -0.8767  0.1574 -0.1334
 4788SOL    HW225998   1.918   3.275  14.868  0.2600 -1.3125  0.4051
 4789SOL     OW25999   4.090   1.105   2.363  0.1864  0.8379 -0.3273
 4789SOL    HW126000   4.093   1.187   2.314 -0.4953 -0.5263 -2.6463
 4789SOL    HW226001   4.114   1.135   2.451 -3.3851  0.7475  0.6788
 4790SOL     OW26002   2.933   0.251   5.753 -0.5031 -0.0702 -0.5861
 4790SOL    HW126003   2.998   0.204   5.701  0.0971  0.4406 -0.2973
 4790SOL    HW226004   2.875   0.267   5.678 -1.9874  0.1298  0.6021
 4791SOL     OW26005   1.766   0.482   1.017  0.1394  0.0312 -0.3207
 4791SOL    HW126006   1.777   0.461   1.110 -0.5573 -1.5043 -0.5854
 4791SOL    HW226007   1.738   0.402   0.974  1.9182 -0.8185  0.0905
 4792SOL     OW26008   1.109   3.351  16.219 -0.4398 -0.3829 -0.1918
 4792SOL    HW126009   1.044   3.405  16.174  1.4756  1.8445 -0.2887
 4792SOL    HW226010   1.072   3.339  16.306  2.8467 -1.5790  1.0588
 4793SOL     OW26011   3.875   3.713   6.227  0.1961 -0.3518  0.0824
 4793SOL    HW126012   3.845   3.693   6.316 -1.7807  2.1135 -0.0085
 4793SOL    HW226013   3.939   3.644   6.210  0.9113  0.1228  0.8467
 4794SOL     OW26014   0.717   1.328   5.839  0.1020 -0.2948  0.0566
 4794SOL    HW126015   0.808   1.317   5.864  0.5201  0.3348 -1.1916
 4794SOL    HW226016   0.668   1.258   5.882 -1.6939  1.4210  0.8203
 4795SOL     OW26017   2.449   0.242   9.454  0.4409  0.6601 -0.2174
 4795SOL    HW126018   2.424   0.248   9.546  0.0196  1.1000 -0.3598
 4795SOL    HW226019   2.510   0.315   9.447  0.3399  0.5726 -2.0455
 4796SOL     OW26020   4.034   0.157  10.919 -0.6454 -0.6458  0.6833
 4796SOL    HW126021   3.988   0.223  10.866 -2.8481  0.0732  3.5106
 4796SOL    HW226022   4.099   0.111  10.866  1.8079  0.3384  2.8588
 4797SOL     OW26023   2.741   2.954   2.111 -0.4310  0.7325  0.1845
 4797SOL    HW126024   2.664   2.994   2.070 -0.5359  0.3381 -0.0034
 4797SOL    HW226025   2.690   2.895   2.166 -0.6433 -0.8686 -1.7306
 4798SOL     OW26026   3.059   3.020   6.179  0.6194 -0.0203 -0.7140
 4798SOL    HW126027   3.066   3.080   6.104 -1.5598 -1.5661 -2.1662
 4798SOL    HW226028   2.974   3.055   6.207  1.3495  1.5980 -0.5252
 4799SOL     OW26029   0.197   0.028  10.835  0.0962 -0.6471 -0.1142
 4799SOL    HW126030   0.107   4.736  10.835  0.5919 -1.9039  4.2699
 4799SOL    HW226031   0.190   0.098  10.901 -0.9077  0.4310 -1.3421
 4800SOL     OW26032   4.340   4.422   7.823 -0.2822 -0.0840 -0.0684
 4800SOL    HW126033   4.373   4.406   7.735 -2.3078 -2.2327 -0.4237
 4800SOL    HW226034   4.377   4.344   7.866  1.7094 -0.1129 -1.8499
 4801SOL     OW26035   0.530   2.252  14.157 -0.6999  0.2271 -0.1444
 4801SOL    HW126036   0.528   2.346  14.178  1.2725 -0.1175  1.5143
 4801SOL    HW226037   0.528   2.206  14.240 -3.6829  0.1398 -0.2591
 4802SOL     OW26038   3.763   1.950   5.761  0.5452 -0.2059 -0.0022
 4802SOL    HW126039   3.683   1.987   5.723 -0.3549 -1.7312  0.4513
 4802SOL    HW226040   3.821   2.026   5.751  1.1156 -0.6242  0.1699
 4803SOL     OW26041   4.321   2.447   2.175 -0.1817 -0.0694 -0.4182
 4803SOL    HW126042   4.406   2.454   2.218  0.5201  1.1192 -2.0161
 4803SOL    HW226043   4.304   2.538   2.151 -0.3178 -0.6504 -2.5023
 4804SOL     OW26044   4.587   2.289   5.134 -0.4144  0.3017  0.0745
 4804SOL    HW126045   4.603   2.198   5.107  0.2791  0.3539  0.3089
 4804SOL    HW226046   4.591   2.330   5.047 -3.9075  0.6628  0.0767
 4805SOL     OW26047   1.935   2.259   5.620 -0.2327  0.2355  0.3462
 4805SOL    HW126048   1.949   2.247   5.527  0.1857  0.8304  0.3334
 4805SOL    HW226049   1.955   2.352   5.631  2.3177 -0.5007  1.9603
 4806SOL     OW26050   1.961   1.203  12.195  0.4672  0.0072 -0.3029
 4806SOL    HW126051   1.988   1.293  12.215  1.8191 -0.1708 -1.3203
 4806SOL    HW226052   2.021   1.153  12.251  1.1996  2.1359  0.8353
 4807SOL     OW26053   4.082   2.165   3.390  0.4473  0.0734 -0.2330
 4807SOL    HW126054   4.052   2.074   3.383 -3.0187  1.2804 -1.1079
 4807SOL    HW226055   3.998   2.211   3.394  0.1319 -0.5752  0.5298
 4808SOL     OW26056   1.245   3.988   5.775 -0.2307 -0.3583  0.0465
 4808SOL    HW126057   1.240   4.027   5.862  0.6315  0.3814 -0.2313
 4808SOL    HW226058   1.177   4.040   5.732 -0.8852  0.5359  2.1640
 4809SOL     OW26059   2.881   1.111  11.014 -0.2937  0.3085  0.7788
 4809SOL    HW126060   2.895   1.202  10.991  0.3748  0.4687  1.8179
 4809SOL    HW226061   2.816   1.122  11.084 -1.0364  1.5910 -0.1195
 4810SOL     OW26062   3.861   4.303  15.997 -0.4995  0.2789 -0.1567
 4810SOL    HW126063   3.871   4.383  15.945 -0.3847  0.3190 -0.0731
 4810SOL    HW226064   3.862   4.237  15.927 -3.2223  0.9981 -0.8781
 4811SOL     OW26065   4.547   0.388   5.012 -0.2767  0.2557  0.1145
 4811SOL    HW126066   4.570   0.300   5.043  2.7194  0.8674 -0.3482
 4811SOL    HW226067   4.455   0.380   4.988 -0.0127 -0.3564 -0.7313
 4812SOL     OW26068   4.558   2.226   9.075 -0.2817  0.3582 -0.0690
 4812SOL    HW126069   4.472   2.229   9.116 -0.6645 -2.2708 -0.6901
 4812SOL    HW226070   4.611   2.228   9.155  1.1063 -1.1764 -0.9450
 4813SOL     OW26071   1.718   1.403   3.948  0.2234 -0.4282  0.0143
 4813SOL    HW126072   1.644   1.464   3.950  1.8459  1.5601  0.1496
 4813SOL    HW226073   1.757   1.424   4.033  1.7581 -1.5484 -0.4141
 4814SOL     OW26074   2.626   2.894  13.660 -0.2078  0.3575  0.4877
 4814SOL    HW126075   2.657   2.902  13.570  0.8383  0.2993  0.8366
 4814SOL    HW226076   2.677   2.959  13.709  0.0793  0.0575  0.5957
 4815SOL     OW26077   4.623   0.016   8.821  0.1740 -0.0903  0.6715
 4815SOL    HW126078   4.615   4.715   8.906  0.5102  0.3303  0.9162
 4815SOL    HW226079   4.531   0.038   8.803  0.6662  0.0293 -1.7239
 4816SOL     OW26080   0.528   2.554   0.396 -0.1707 -0.0525 -0.3883
 4816SOL    HW126081   0.574   2.472   0.380  1.0973  0.8175 -1.3004
 4816SOL    HW226082   0.600   2.617   0.388  0.2368 -0.3986  0.5518
 4817SOL     OW26083   0.292   0.815   7.441  0.1865 -0.3059 -0.0726
 4817SOL    HW126084   0.204   0.803   7.478  0.5841 -0.1777  0.9407
 4817SOL    HW226085   0.280   0.889   7.381 -4.2005 -0.6001  0.4518
 4818SOL     OW26086   0.281   3.113   3.118 -0.3637  0.7871 -0.3214
 4818SOL    HW126087   0.210   3.132   3.180  0.8368 -0.1249  1.3398
 4818SOL    HW226088   0.246   3.144   3.035  0.2009  1.7007 -0.2260
 4819SOL     OW26089   1.330   2.283   0.163 -0.4901  0.0145  0.1751
 4819SOL    HW126090   1.420   2.316   0.171 -0.3741 -0.8426  2.3166
 4819SOL    HW226091   1.286   2.349   0.215  0.4838  1.4130 -0.7529
 4820SOL     OW26092   0.577   3.201   8.652 -0.0247 -0.2593 -0.6539
 4820SOL    HW126093   0.663   3.163   8.633  0.2862  0.1764 -0.1239
 4820SOL    HW226094   0.537   3.158   8.728 -1.0212 -0.3745 -1.2440
 4821SOL     OW26095   1.760   0.178   4.373 -0.0530 -0.0323  0.2936
 4821SOL    HW126096   1.713   0.096   4.387 -1.1858  0.2929 -1.6050
 4821SOL    HW226097   1.831   0.172   4.438  0.0314  2.0761  0.4085
 4822SOL     OW26098   4.229   2.836   7.229  0.1600  0.0974 -0.0840
 4822SOL    HW126099   4.155   2.794   7.184  0.4987 -0.5679 -0.0225
 4822SOL    HW226100   4.260   2.756   7.270  2.4044  1.2664  0.4582
 4823SOL     OW26101   2.220   2.167   3.199 -0.2813 -0.3502  0.0155
 4823SOL    HW126102   2.182   2.205   3.120 -0.2016  1.4638  0.8309
 4823SOL    HW226103   2.139   2.119   3.218  0.3016 -1.2075  0.3342
 4824SOL     OW26104   1.311   0.446  13.093  0.1412 -0.6134  0.0898
 4824SOL    HW126105   1.379   0.512  13.081  0.0901 -0.1500  2.2605
 4824SOL    HW226106   1.231   0.494  13.118 -0.3250 -1.2299 -0.2302
 4825SOL     OW26107   2.636   3.578   6.042 -0.5999  0.3229  0.6847
 4825SOL    HW126108   2.600   3.648   5.988 -1.4142 -0.3417  0.3617
 4825SOL    HW226109   2.555   3.534   6.070  0.2016  0.1623  2.7244
 4826SOL     OW26110   1.526   1.920  11.575  0.1387 -0.1283 -0.1457
 4826SOL    HW126111   1.523   1.966  11.659 -0.2930 -0.0573 -0.2014
 4826SOL    HW226112   1.540   1.832  11.609 -1.4395  0.3009  1.6163
 4827SOL     OW26113   2.637   3.805  10.562 -0.5137  0.0903  0.8210
 4827SOL    HW126114   2.659   3.825  10.471  1.4149  1.6708  1.6344
 4827SOL    HW226115   2.714   3.755  10.587 -0.3076 -0.1781 -0.3813
 4828SOL     OW26116   0.080   4.301   4.138 -0.2329 -0.2939 -0.4674
 4828SOL    HW126117   0.026   4.326   4.064 -2.7502  1.4681  1.9985
 4828SOL    HW226118   0.102   4.385   4.179  0.8253  0.8792 -3.4724
 4829SOL     OW26119   1.932   3.141  12.161  0.4253 -0.5508  0.5942
 4829SOL    HW126120   2.009   3.182  12.201  0.3371  0.9720 -0.8151
 4829SOL    HW226121   1.874   3.217  12.170  0.8797 -0.3911  2.1844
 4830SOL     OW26122   0.899   4.544  14.092 -0.1652 -0.0376 -0.3331
 4830SOL    HW126123   0.970   4.543  14.156 -0.2298 -0.0367 -0.2628
 4830SOL    HW226124   0.944   4.516  14.012 -1.9442 -1.6392 -0.7598
 4831SOL     OW26125   3.195   2.854  15.018 -0.4013  0.0859 -0.1159
 4831SOL    HW126126   3.127   2.921  15.024 -0.9025 -0.4139 -0.1761
 4831SOL    HW226127   3.198   2.834  15.111 -3.1340 -0.8973 -0.2473
 4832SOL     OW26128   1.631   3.373  15.765  0.3655  0.0193 -0.3162
 4832SOL    HW126129   1.604   3.364  15.856 -2.0950  0.9679 -0.9262
 4832SOL    HW226130   1.635   3.467  15.750 -0.5159 -0.1518 -1.7069
 4833SOL     OW26131   1.899   3.088   7.711 -0.3493  0.0096 -0.0971
 4833SOL    HW126132   1.989   3.096   7.680 -0.7388 -1.1659 -1.5262
 4833SOL    HW226133   1.846   3.152   7.665 -1.6342 -0.7078  0.3870
 4834SOL     OW26134   4.384   3.795   4.940  0.8023  0.0089 -0.4032
 4834SOL    HW126135   4.347   3.868   4.891 -0.3260  0.2086  0.7343
 4834SOL    HW226136   4.315   3.771   5.003  2.3412 -1.5794  0.6666
 4835SOL     OW26137   1.778   0.813   2.666 -0.1080  0.1101  0.4177
 4835SOL    HW126138   1.806   0.873   2.735 -0.4011  0.0427  0.5969
 4835SOL    HW226139   1.737   0.739   2.711  1.3500 -0.0067  1.5138
 4836SOL     OW26140   2.620   1.226   4.722 -0.4023  0.0693 -0.0863
 4836SOL    HW126141   2.561   1.291   4.683 -0.3186 -0.1780 -0.6148
 4836SOL    HW226142   2.571   1.145   4.705  2.4706 -1.4314 -1.0348
 4837SOL     OW26143   3.986   4.666   1.691  0.7564  0.3532  0.2214
 4837SOL    HW126144   4.015   4.722   1.763 -0.1937 -0.2935  1.0873
 4837SOL    HW226145   3.932   4.733   1.648  0.6080 -1.1117 -1.9046
 4838SOL     OW26146   3.468   4.084   4.203 -0.4198 -0.0882  0.0964
 4838SOL    HW126147   3.511   4.040   4.131  0.3050 -1.0376  1.1125
 4838SOL    HW226148   3.531   4.100   4.273 -1.7206 -0.4156  1.3539
 4839SOL     OW26149   3.889   2.065   4.544 -0.0539 -0.2894  0.0068
 4839SOL    HW126150   3.971   2.016   4.551  0.0180  0.1065  1.7984
 4839SOL    HW226151   3.827   2.000   4.510 -0.4777 -0.8545  1.9053
 4840SOL     OW26152   2.565   2.087   6.123  0.1244 -0.4933  0.2044
 4840SOL    HW126153   2.648   2.043   6.145  1.1078  2.3168  2.0821
 4840SOL    HW226154   2.592   2.178   6.133 -2.0824  0.0595  1.0237
 4841SOL     OW26155   0.223   0.191   1.909 -0.3010  0.8760 -0.2555
 4841SOL    HW126156   0.174   0.246   1.970 -0.8804 -0.8477  0.8495
 4841SOL    HW226157   0.250   0.253   1.842  1.0861  2.0591  1.3993
 4842SOL     OW26158   0.022   1.022  11.606 -0.0707 -0.0030  0.2223
 4842SOL    HW126159   4.712   1.090  11.563 -0.7131 -0.4221  0.3309
 4842SOL    HW226160   0.069   0.989  11.529  0.2833 -0.3206  0.5775
 4843SOL     OW26161   3.809   2.435   4.518 -0.4849  0.0296  0.9625
 4843SOL    HW126162   3.777   2.503   4.459 -1.8153 -0.9495  0.5566
 4843SOL    HW226163   3.894   2.418   4.477  0.0637  0.9930  1.7050
 4844SOL     OW26164   2.914   0.087   2.853  0.7192 -0.2351 -0.1578
 4844SOL    HW126165   2.894   0.088   2.946  3.5875  1.3389  0.4247
 4844SOL    HW226166   3.003   0.121   2.860  0.5121  0.6298 -1.5577
 4845SOL     OW26167   1.779   0.970   9.343 -0.0221 -0.5692  0.2647
 4845SOL    HW126168   1.805   0.900   9.402  0.2357 -0.6978  0.0011
 4845SOL    HW226169   1.733   0.930   9.270  0.0436  1.7365 -1.0444
 4846SOL     OW26170   0.869   2.721   6.793  0.1643  0.9946  1.0771
 4846SOL    HW126171   0.795   2.779   6.773 -0.1812  0.6116  1.2625
 4846SOL    HW226172   0.922   2.779   6.847  2.7943 -0.4574  0.0463
 4847SOL     OW26173   1.452   3.321   1.727 -0.0937  0.2625 -0.0654
 4847SOL    HW126174   1.413   3.300   1.642  2.7827  0.1284 -1.3518
 4847SOL    HW226175   1.545   3.314   1.703  0.5639 -0.5006  2.6785
 4848SOL     OW26176   1.731   0.586   8.354 -0.1477  0.0758 -0.3537
 4848SOL    HW126177   1.712   0.628   8.270  0.0894  0.7026 -0.0885
 4848SOL    HW226178   1.734   0.657   8.418  2.6048  1.1996 -1.7216
 4849SOL     OW26179   3.204   0.664   6.345 -0.1167  0.2750 -0.3521
 4849SOL    HW126180   3.243   0.583   6.311 -0.1342  0.2485 -0.3083
 4849SOL    HW226181   3.119   0.647   6.386  0.2990 -1.1245 -0.0784
 4850SOL     OW26182   0.257   3.935   5.953  0.6810 -0.3737 -0.0391
 4850SOL    HW126183   0.312   3.883   5.894  0.0087  0.4349 -1.3636
 4850SOL    HW226184   0.315   3.927   6.029 -2.3237  0.4529  2.3441
 4851SOL     OW26185   4.620   2.417   1.781 -0.0878 -0.1124  0.1354
 4851SOL    HW126186   4.653   2.506   1.780  1.2749 -0.6343 -0.7867
 4851SOL    HW226187   4.526   2.423   1.799 -0.0169  0.9230  0.1100
 4852SOL     OW26188   0.976   1.751   9.138  0.1401  0.3394 -0.1134
 4852SOL    HW126189   0.886   1.728   9.113  0.0623  1.9888 -1.3132
 4852SOL    HW226190   1.005   1.666   9.170  0.6757  0.9110  0.9092
 4853SOL     OW26191   2.775   0.238   9.379 -0.2134 -0.0215  0.3059
 4853SOL    HW126192   2.814   0.321   9.352  0.6798  0.0231  1.7358
 4853SOL    HW226193   2.704   0.268   9.436 -0.1039 -0.7599  0.8421
 4854SOL     OW26194   2.642   1.493   9.921  0.2174  0.7770 -0.3281
 4854SOL    HW126195   2.581   1.475   9.993  0.1607 -1.7052 -0.9950
 4854SOL    HW226196   2.720   1.522   9.967  0.1719  1.6151 -0.7830
 4855SOL     OW26197   3.832   4.367   2.972 -0.2932 -0.2614  0.1295
 4855SOL    HW126198   3.744   4.335   2.992 -0.8037  0.6850 -0.6048
 4855SOL    HW226199   3.832   4.393   2.880 -0.4846  0.7970  0.4361
 4856SOL     OW26200   3.934   4.597   4.576 -0.1092  0.1586  0.1342
 4856SOL    HW126201   3.921   4.651   4.653  0.9007  1.5715 -0.6838
 4856SOL    HW226202   4.025   4.614   4.550 -0.0338 -0.3413  0.0781
 4857SOL     OW26203   2.990   3.337   2.717 -0.1853 -0.0283 -0.3875
 4857SOL    HW126204   2.983   3.400   2.646 -2.1332  0.9183  0.6420
 4857SOL    HW226205   2.895   3.335   2.733  0.1519  1.1592  1.8597
 4858SOL     OW26206   1.808   1.417  15.880 -0.2083  0.4609 -0.1119
 4858SOL    HW126207   1.872   1.346  15.884 -0.7955 -0.0528  0.4035
 4858SOL    HW226208   1.855   1.485  15.929  1.5704  0.6584 -2.1340
 4859SOL     OW26209   0.880   0.231   7.544 -0.0164 -0.2099 -0.0785
 4859SOL    HW126210   0.966   0.210   7.509  0.6687 -1.1153  2.1024
 4859SOL    HW226211   0.840   0.306   7.500  1.6811  0.3389 -0.6891
 4860SOL     OW26212   4.130   1.453   0.727  0.2811  0.3573  0.0090
 4860SOL    HW126213   4.198   1.412   0.674 -0.5287 -0.9870  0.0253
 4860SOL    HW226214   4.060   1.465   0.662  1.3590  1.7157 -0.9121
 4861SOL     OW26215   4.096   0.832   6.518 -0.3827  0.1303 -0.4111
 4861SOL    HW126216   4.127   0.884   6.444  1.1017  3.3173  2.4860
 4861SOL    HW226217   4.015   0.875   6.544 -0.7297 -1.5025  1.2283
 4862SOL     OW26218   1.407   2.923  14.188 -0.7521  0.1926 -0.6307
 4862SOL    HW126219   1.313   2.905  14.180 -1.0110  0.4008  2.1121
 4862SOL    HW226220   1.440   2.870  14.115  0.3838  3.4397 -2.4961
 4863SOL     OW26221   3.560   1.908   7.899  0.4207  0.2489  0.0242
 4863SOL    HW126222   3.591   1.981   7.846 -1.0682  0.7376 -0.1679
 4863SOL    HW226223   3.500   1.853   7.847  1.4887  0.3361 -1.3089
 4864SOL     OW26224   1.145   0.539   5.287  0.7746 -0.0931 -0.0360
 4864SOL    HW126225   1.166   0.629   5.313  1.3935 -0.9402  2.4497
 4864SOL    HW226226   1.231   0.498   5.293  1.4117  1.1152 -1.0551
 4865SOL     OW26227   0.891   3.289   5.959  0.9384 -0.4384 -0.3591
 4865SOL    HW126228   0.969   3.287   6.015  0.3499  0.8565  0.4936
 4865SOL    HW226229   0.829   3.329   6.021  0.7830 -0.9326 -0.1853
 4866SOL     OW26230   1.979   0.323   4.942  0.3775  0.4104  0.1860
 4866SOL    HW126231   2.053   0.349   4.996  0.0863 -0.6164  1.0802
 4866SOL    HW226232   1.910   0.347   5.005 -1.7187 -0.5480 -1.7196
 4867SOL     OW26233   1.504   1.503   7.895  0.0644 -0.1574  0.0461
 4867SOL    HW126234   1.573   1.524   7.832  1.0979 -3.6205  0.0149
 4867SOL    HW226235   1.522   1.563   7.967  2.7278  0.8555 -1.4656
 4868SOL     OW26236   1.358   0.353   2.820 -0.2120 -0.2535 -0.2280
 4868SOL    HW126237   1.431   0.328   2.763 -0.9167  2.0754 -2.1452
 4868SOL    HW226238   1.319   0.271   2.849  3.2504 -1.5230  0.8254
 4869SOL     OW26239   4.294   4.686   5.540 -0.0599  0.1586 -0.0104
 4869SOL    HW126240   4.358   0.015   5.549 -0.6105  0.4770  1.3130
 4869SOL    HW226241   4.206   4.723   5.545 -0.1014 -0.8370  5.9907
 4870SOL     OW26242   2.797   0.193   9.688 -0.1951 -0.1462 -0.2155
 4870SOL    HW126243   2.754   0.273   9.659 -0.2495 -0.9133 -2.2044
 4870SOL    HW226244   2.882   0.223   9.721 -1.4301  2.6499  0.4773
 4871SOL     OW26245   4.595   3.453   5.088 -0.2297  0.0454 -0.0817
 4871SOL    HW126246   4.645   3.532   5.108 -0.5739  0.8542 -2.3845
 4871SOL    HW226247   4.513   3.498   5.109 -0.1229  0.1133  0.1924
 4872SOL     OW26248   3.210   3.939   2.158  0.3030  0.2491  0.2048
 4872SOL    HW126249   3.226   3.951   2.064 -2.0986 -2.0642 -0.5103
 4872SOL    HW226250   3.147   3.867   2.154  1.2394 -0.6456  1.9979
 4873SOL     OW26251   1.572   4.720   7.412  0.5881 -0.2226  0.0787
 4873SOL    HW126252   1.533   4.633   7.414 -0.9437  0.4291 -1.8417
 4873SOL    HW226253   1.660   4.695   7.442 -0.4909 -0.7001  2.8201
 4874SOL     OW26254   3.186   1.255  14.302  0.3313  0.0277  0.2873
 4874SOL    HW126255   3.245   1.183  14.279  1.6154  0.9742  0.6259
 4874SOL    HW226256   3.184   1.260  14.397  3.0245  1.7999  0.2687
 4875SOL     OW26257   0.554   2.653   2.568 -0.3618 -0.5589  0.6493
 4875SOL    HW126258   0.543   2.709   2.491  2.7240 -1.0307 -0.1178
 4875SOL    HW226259   0.582   2.718   2.632  1.0127  0.7293 -1.2510
 4876SOL     OW26260   0.939   3.714   7.843 -0.3381 -0.7841  0.0043
 4876SOL    HW126261   0.986   3.648   7.793  0.4868  0.5133 -0.9241
 4876SOL    HW226262   1.014   3.770   7.863 -0.3286 -0.3973 -1.1369
 4877SOL     OW26263   0.750   0.817  11.859 -0.6673  0.4415  0.0214
 4877SOL    HW126264   0.763   0.726  11.832 -0.2423  0.2143  0.9776
 4877SOL    HW226265   0.660   0.836  11.834 -0.6956  1.9164  1.2840
 4878SOL     OW26266   2.385   1.292   9.859  0.5217 -0.8195 -0.2316
 4878SOL    HW126267   2.367   1.382   9.831 -1.4188 -0.3862  2.3761
 4878SOL    HW226268   2.306   1.254   9.821  0.7472  0.5220 -2.0846
 4879SOL     OW26269   2.194   4.436   8.224  0.5291 -0.0748 -0.2971
 4879SOL    HW126270   2.205   4.402   8.313  1.8589  0.4951 -0.2400
 4879SOL    HW226271   2.230   4.361   8.177 -1.1951 -1.0366 -0.0833
 4880SOL     OW26272   2.774   3.853   9.470  0.2348 -0.0200 -0.5453
 4880SOL    HW126273   2.692   3.870   9.516  1.5127 -2.2603  2.5840
 4880SOL    HW226274   2.772   3.761   9.443  2.1181 -0.0025 -0.7802
 4881SOL     OW26275   1.941   3.017  11.334 -0.1386  0.2485 -0.0074
 4881SOL    HW126276   2.031   3.007  11.304  0.3227  1.2460  1.0482
 4881SOL    HW226277   1.928   3.111  11.322 -0.9699 -0.1897 -2.6358
 4882SOL     OW26278   1.151   2.867   3.988  0.3502  0.3069  0.7058
 4882SOL    HW126279   1.099   2.786   3.990 -1.5323  1.5308  1.2833
 4882SOL    HW226280   1.093   2.917   4.046 -1.6336 -0.6873 -0.4132
 4883SOL     OW26281   1.362   3.919  11.792  0.3830  0.0994 -0.7751
 4883SOL    HW126282   1.368   3.841  11.737  0.3235  1.1002 -2.1772
 4883SOL    HW226283   1.452   3.918  11.826  0.9740  0.8452 -2.2974
 4884SOL     OW26284   0.393   2.933   4.603 -0.2348 -0.6355  0.1024
 4884SOL    HW126285   0.438   2.869   4.548 -0.6307 -1.9383  1.3166
 4884SOL    HW226286   0.409   2.912   4.695  2.1708  0.3231 -0.0951
 4885SOL     OW26287   4.422   0.189   3.476 -0.3936  0.5872 -0.1177
 4885SOL    HW126288   4.450   0.117   3.419 -0.7708 -2.0530  2.9829
 4885SOL    HW226289   4.389   0.247   3.408  0.0543  2.2351  1.0760
 4886SOL     OW26290   3.311   0.473  14.830  0.6802 -0.0345  1.0386
 4886SOL    HW126291   3.309   0.407  14.899  4.5989 -1.0627  0.1422
 4886SOL    HW226292   3.326   0.425  14.749 -2.0746  1.4914 -0.3942
 4887SOL     OW26293   3.577   2.775   8.516 -0.0373  0.2504  0.5867
 4887SOL    HW126294   3.563   2.689   8.475  1.7670 -0.3522  1.2844
 4887SOL    HW226295   3.590   2.750   8.607  0.5305 -0.0866  0.4092
 4888SOL     OW26296   3.570   2.486   4.097 -0.2906 -0.0469 -0.0221
 4888SOL    HW126297   3.562   2.421   4.166 -1.9041  0.3979  0.2210
 4888SOL    HW226298   3.605   2.563   4.143  0.6148 -1.1757  1.1573
 4889SOL     OW26299   1.320   0.173  11.491  0.7894 -0.2825  0.0168
 4889SOL    HW126300   1.323   0.161  11.586 -2.1447  0.9818  0.2625
 4889SOL    HW226301   1.312   0.268  11.487 -1.8181 -0.4792  0.3241
 4890SOL     OW26302   3.862   4.183  17.103  0.3124  0.1405 -0.4864
 4890SOL    HW126303   3.802   4.234  17.158  1.0520  0.8601 -0.3445
 4890SOL    HW226304   3.820   4.202  17.019 -0.0852  1.8341  0.0755
 4891SOL     OW26305   0.030   3.466   3.542  0.3952  0.6806  0.0585
 4891SOL    HW126306   0.038   3.543   3.485  2.1619  0.9837  0.7202
 4891SOL    HW226307   4.710   3.504   3.604 -1.2602  0.4107 -1.4318
 4892SOL     OW26308   0.990   2.433  12.505  0.4309 -0.3568  0.2359
 4892SOL    HW126309   1.086   2.438  12.508  0.5082  0.1148 -2.4175
 4892SOL    HW226310   0.976   2.355  12.558  0.3678 -0.2204  0.4187
 4893SOL     OW26311   3.177   0.631  14.544 -0.6957 -0.2497 -1.2306
 4893SOL    HW126312   3.111   0.610  14.611 -0.7078 -0.1330 -1.2055
 4893SOL    HW226313   3.116   0.648  14.472 -1.3792  0.0502 -0.5820
 4894SOL     OW26314   4.555   1.606   2.540  0.8880  0.3775  0.5373
 4894SOL    HW126315   4.633   1.660   2.543 -0.2401  2.0698 -0.2137
 4894SOL    HW226316   4.532   1.583   2.449  1.2539 -1.5827  0.9352
 4895SOL     OW26317   4.396   3.624   8.445 -0.1741  0.1738 -0.2109
 4895SOL    HW126318   4.419   3.714   8.420 -1.4131  0.3581 -0.7157
 4895SOL    HW226319   4.325   3.637   8.508 -1.1343 -0.1092 -1.2302
 4896SOL     OW26320   0.321   4.145   2.136  0.2143  0.2409  0.1615
 4896SOL    HW126321   0.272   4.066   2.157 -0.8917  0.2753 -2.2788
 4896SOL    HW226322   0.298   4.192   2.216 -1.2591  3.0651 -1.9280
 4897SOL     OW26323   3.886   2.701   8.558 -0.0368 -0.0340 -1.0688
 4897SOL    HW126324   3.905   2.792   8.582 -0.8479 -0.7846  2.2805
 4897SOL    HW226325   3.970   2.659   8.574 -1.0202 -0.7330  2.1123
 4898SOL     OW26326   2.470   4.498   9.088  0.3176 -0.5880 -0.0019
 4898SOL    HW126327   2.543   4.555   9.063  0.7792 -0.9524  0.4993
 4898SOL    HW226328   2.484   4.423   9.030  1.2003 -0.0100 -0.5416
 4899SOL     OW26329   3.206   0.090  11.217 -0.0768 -0.0674 -0.4152
 4899SOL    HW126330   3.301   0.101  11.218 -0.0779 -0.5775  3.1866
 4899SOL    HW226331   3.189   0.184  11.215  2.9465  0.4998  0.4167
 4900SOL     OW26332   4.124   3.007   2.784  0.1722  0.3816 -0.1559
 4900SOL    HW126333   4.081   3.075   2.732  2.2611  1.0740 -0.9533
 4900SOL    HW226334   4.150   3.054   2.863 -0.5587 -0.8412  0.8113
 4901SOL     OW26335   2.402   2.855   5.796 -0.7528 -0.1781  0.1327
 4901SOL    HW126336   2.356   2.862   5.712  1.6032 -0.2817 -1.1790
 4901SOL    HW226337   2.478   2.805   5.765 -0.7542  0.1790 -0.4572
 4902SOL     OW26338   2.463   1.836   9.426 -0.3356  0.1633  0.4928
 4902SOL    HW126339   2.443   1.743   9.414  0.8404  0.2493 -2.0712
 4902SOL    HW226340   2.552   1.846   9.394 -0.5856 -4.6221 -1.7353
 4903SOL     OW26341   0.477   3.270   0.586  0.0373  0.3220  0.4339
 4903SOL    HW126342   0.395   3.221   0.575  0.2802  0.2749 -1.1390
 4903SOL    HW226343   0.532   3.201   0.624 -0.4684 -0.3491 -0.0491
 4904SOL     OW26344   2.863   1.525   4.120  0.3115 -0.3552 -0.0617
 4904SOL    HW126345   2.913   1.563   4.048 -0.9838 -0.6676 -1.1102
 4904SOL    HW226346   2.859   1.604   4.175 -0.3130 -0.4878  0.0795
 4905SOL     OW26347   4.141   2.831  13.993  0.0652  0.5505  0.2469
 4905SOL    HW126348   4.098   2.801  13.913  2.8508 -0.4533 -0.8809
 4905SOL    HW226349   4.070   2.869  14.044 -1.3644  0.2609 -1.5399
 4906SOL     OW26350   0.691   3.720  13.026 -0.6292 -0.6630 -0.0375
 4906SOL    HW126351   0.662   3.709  12.936 -0.4278 -0.9159 -0.0712
 4906SOL    HW226352   0.707   3.627  13.045 -0.4776 -0.6210  0.0377
 4907SOL     OW26353   0.811   3.361  16.789  0.0645  0.2472  0.5923
 4907SOL    HW126354   0.796   3.444  16.834 -1.1095  1.1494 -1.4744
 4907SOL    HW226355   0.786   3.390  16.701  1.3681 -0.5133 -0.0283
 4908SOL     OW26356   3.400   2.876   3.903 -0.3038  0.2202 -0.0040
 4908SOL    HW126357   3.381   2.788   3.936 -0.3901  0.6898  1.1896
 4908SOL    HW226358   3.310   2.907   3.891 -0.0369  0.3972 -1.5240
 4909SOL     OW26359   2.456   1.108   8.242  0.0867 -0.6312 -0.1095
 4909SOL    HW126360   2.499   1.082   8.323  0.7684  0.3978 -0.1436
 4909SOL    HW226361   2.370   1.066   8.249 -0.7083  1.1930  1.1166
 4910SOL     OW26362   2.670   2.739  11.297  0.1565  0.3017 -0.0208
 4910SOL    HW126363   2.676   2.797  11.221  2.3913  1.0346  0.7222
 4910SOL    HW226364   2.606   2.681  11.255  0.3821  1.1997 -1.6094
 4911SOL     OW26365   3.223   2.133  13.247  0.5542 -0.1544 -0.0238
 4911SOL    HW126366   3.310   2.093  13.248  0.8774  0.4908 -1.7934
 4911SOL    HW226367   3.246   2.192  13.175 -1.2272  0.7068  0.1275
 4912SOL     OW26368   4.483   3.056   6.855  0.0265 -0.4609  0.1082
 4912SOL    HW126369   4.505   2.987   6.917  1.4363  1.7050  2.0179
 4912SOL    HW226370   4.436   3.106   6.922  1.4596  1.9971 -0.7127
 4913SOL     OW26371   0.927   0.237   2.326  0.4995 -0.4438  0.5221
 4913SOL    HW126372   0.854   0.289   2.359  0.5164  0.4200 -0.8103
 4913SOL    HW226373   0.979   0.296   2.271 -0.4757  0.4683  0.5842
 4914SOL     OW26374   2.104   0.166   8.888  0.2096  0.2178 -0.1423
 4914SOL    HW126375   2.093   0.079   8.850 -0.5038  0.5676 -0.7472
 4914SOL    HW226376   2.173   0.142   8.950  0.1108 -0.6717 -0.3788
 4915SOL     OW26377   2.606   1.289   9.543 -0.7253 -1.0153 -0.4552
 4915SOL    HW126378   2.617   1.222   9.611 -0.9576  0.1555  0.7223
 4915SOL    HW226379   2.651   1.355   9.597 -2.2443 -0.0952 -0.3293
 4916SOL     OW26380   2.071   3.974   4.230  0.2821  0.2732  0.2400
 4916SOL    HW126381   2.013   4.041   4.193 -2.6810 -1.9332  0.8431
 4916SOL    HW226382   2.052   3.974   4.324 -2.7610 -0.8912 -0.3730
 4917SOL     OW26383   1.593   1.259   5.347  0.1600  0.4309  0.2029
 4917SOL    HW126384   1.517   1.314   5.328 -0.4307 -0.2234  0.6598
 4917SOL    HW226385   1.609   1.219   5.262 -2.4633  0.1365 -0.1572
 4918SOL     OW26386   1.614   0.892   3.707  0.3223  0.8728  0.2412
 4918SOL    HW126387   1.651   0.838   3.637 -0.7754  0.3660  0.0556
 4918SOL    HW226388   1.589   0.976   3.669 -0.0812  0.1582 -1.0881
 4919SOL     OW26389   2.133   3.281   0.793 -0.0172 -0.1235  0.7149
 4919SOL    HW126390   2.211   3.231   0.817  0.0419 -1.0658 -1.4163
 4919SOL    HW226391   2.155   3.320   0.709  0.2316 -2.7293 -0.4311
 4920SOL     OW26392   1.901   0.405   4.671 -0.2610  0.2695  0.3027
 4920SOL    HW126393   1.809   0.409   4.694 -0.6989 -0.4237 -1.3067
 4920SOL    HW226394   1.942   0.405   4.757 -1.1567 -2.0963  0.7395
 4921SOL     OW26395   1.999   2.023   7.760 -0.1150 -0.5240  0.1133
 4921SOL    HW126396   1.908   2.024   7.791  0.3471 -0.1941  1.4616
 4921SOL    HW226397   2.026   2.110   7.786 -0.1110 -0.8564  1.2131
 4922SOL     OW26398   0.071   2.718   9.285  0.0625  0.4937 -0.2443
 4922SOL    HW126399   0.136   2.649   9.277 -0.2258  0.3989 -1.7812
 4922SOL    HW226400   0.066   2.763   9.201 -2.4963  2.8775  1.1660
 4923SOL     OW26401   3.151   4.305  12.446 -0.5923  0.3243 -0.0336
 4923SOL    HW126402   3.178   4.315  12.355 -0.4243  0.3755  0.0216
 4923SOL    HW226403   3.111   4.392  12.448  0.0690  0.6130  0.4191
 4924SOL     OW26404   0.796   3.213   3.925  0.1978 -0.0342  0.3054
 4924SOL    HW126405   0.860   3.233   3.856  0.7470 -0.0752  0.7995
 4924SOL    HW226406   0.846   3.197   4.006  0.8131  2.2156  0.3823
 4925SOL     OW26407   4.463   0.813   2.570  0.5103 -0.2949 -0.6373
 4925SOL    HW126408   4.547   0.859   2.566 -0.3749  1.5005  1.2588
 4925SOL    HW226409   4.417   0.877   2.516  1.6547 -0.0324 -1.3070
 4926SOL     OW26410   1.021   4.685   0.795 -0.3444 -0.3249  0.7397
 4926SOL    HW126411   0.958   4.613   0.800 -0.4851 -0.3307 -1.1084
 4926SOL    HW226412   1.089   4.627   0.762 -0.6277 -1.6453  2.4764
 4927SOL     OW26413   4.530   1.818   6.232 -0.5338  0.1299 -0.3855
 4927SOL    HW126414   4.452   1.845   6.281 -1.5990 -0.0496 -1.9851
 4927SOL    HW226415   4.596   1.808   6.300  0.1911  1.9629 -0.8165
 4928SOL     OW26416   1.828   3.688   3.066 -0.0223 -0.7574 -0.0666
 4928SOL    HW126417   1.910   3.728   3.038 -0.3995  0.7101  0.9153
 4928SOL    HW226418   1.757   3.747   3.038 -0.2949 -0.7873  0.5803
 4929SOL     OW26419   0.132   1.342   3.074  0.1895 -0.5995  0.2704
 4929SOL    HW126420   0.167   1.401   3.141  1.9330  4.3120 -4.9993
 4929SOL    HW226421   0.117   1.255   3.111 -2.0986  0.1022  1.0007
 4930SOL     OW26422   3.412   2.389   9.642 -0.5826 -0.2114 -0.3880
 4930SOL    HW126423   3.337   2.340   9.675 -0.7685  0.9228  0.8821
 4930SOL    HW226424   3.385   2.481   9.635  1.2630 -0.0359 -5.3938
 4931SOL     OW26425   0.043   1.085  11.892 -0.3435  0.1174 -0.0860
 4931SOL    HW126426   0.136   1.104  11.903  0.2485 -3.1106  0.5856
 4931SOL    HW226427   0.034   1.036  11.810  2.1211 -0.0621 -0.2499
 4932SOL     OW26428   2.070   3.827   6.044  0.3829 -0.1694 -0.4164
 4932SOL    HW126429   2.038   3.828   5.953  0.3987  1.4460 -0.3990
 4932SOL    HW226430   1.983   3.840   6.083  0.3673  0.8678 -0.8019
 4933SOL     OW26431   0.309   0.361   5.834 -0.6254 -0.2478  0.3497
 4933SOL    HW126432   0.295   0.276   5.792  1.9001 -0.4107 -0.1306
 4933SOL    HW226433   0.356   0.335   5.913 -1.2432 -0.1413  0.7569
 4934SOL     OW26434   2.855   1.261   5.467  0.2160 -0.1585 -0.2103
 4934SOL    HW126435   2.931   1.206   5.487  0.6464  1.1966  1.9100
 4934SOL    HW226436   2.877   1.350   5.493 -1.4864  0.1984  0.0253
 4935SOL     OW26437   3.384   0.396   4.453  0.1748  0.0874 -0.2079
 4935SOL    HW126438   3.467   0.402   4.407  0.2635 -0.1764 -0.0831
 4935SOL    HW226439   3.413   0.346   4.530  0.2680 -0.1858 -0.4208
 4936SOL     OW26440   0.523   0.853  15.997 -0.5731  0.1873  0.3141
 4936SOL    HW126441   0.586   0.912  15.956  0.1120 -1.7792 -1.4534
 4936SOL    HW226442   0.492   0.805  15.920  2.0496  0.7038 -1.0897
 4937SOL     OW26443   2.286   0.254   9.692  0.5044  0.4849 -0.3106
 4937SOL    HW126444   2.334   0.177   9.723 -2.4301 -0.6766  1.3941
 4937SOL    HW226445   2.319   0.318   9.755  1.4881  1.1628 -1.5279
 4938SOL     OW26446   3.001   4.279   4.605  0.7682 -0.0394 -0.3772
 4938SOL    HW126447   3.068   4.231   4.654  1.2255  0.0025 -0.9707
 4938SOL    HW226448   3.051   4.290   4.524  0.4083  0.3804 -0.5428
 4939SOL     OW26449   1.786   2.429  12.373 -0.1288 -0.1738  0.4172
 4939SOL    HW126450   1.800   2.431  12.468 -1.2747  1.5209  0.5447
 4939SOL    HW226451   1.782   2.521  12.348  2.0656 -0.3712 -0.6605
 4940SOL     OW26452   3.030   1.280  13.749  0.7712  0.2070  0.1043
 4940SOL    HW126453   3.026   1.371  13.778 -1.3823 -0.1092  0.7780
 4940SOL    HW226454   3.047   1.234  13.832  1.2029 -0.4823 -0.3630
 4941SOL     OW26455   3.886   2.739   4.057  0.2091 -0.2215 -0.0532
 4941SOL    HW126456   3.941   2.812   4.028  0.8174 -0.3721  0.7087
 4941SOL    HW226457   3.794   2.763   4.045 -0.2045 -1.2449  1.0577
 4942SOL     OW26458   4.644   4.341   7.004  0.9065 -0.0628  0.2871
 4942SOL    HW126459   4.621   4.305   6.918  3.9979 -2.7956  0.6028
 4942SOL    HW226460   4.558   4.361   7.042  1.1371 -2.4884  2.0503
 4943SOL     OW26461   2.661   0.324  14.853 -0.4860  0.0412 -0.1923
 4943SOL    HW126462   2.640   0.237  14.887  3.6278 -0.2686  1.5965
 4943SOL    HW226463   2.584   0.354  14.805 -1.0810 -2.6447 -0.8732
 4944SOL     OW26464   3.820   3.297   5.024  0.6197  0.2308 -0.6457
 4944SOL    HW126465   3.865   3.236   5.083  0.5171 -0.3208 -1.1374
 4944SOL    HW226466   3.789   3.234   4.959  2.6940 -0.6565 -0.7674
 4945SOL     OW26467   1.267   4.097   6.011  0.2822 -0.0202 -0.6375
 4945SOL    HW126468   1.314   4.053   6.081 -2.6669 -0.6633  0.8995
 4945SOL    HW226469   1.296   4.188   6.016 -0.8516  0.2163  1.2350
 4946SOL     OW26470   3.986   1.335   5.164 -0.5060  0.0445  0.5903
 4946SOL    HW126471   4.078   1.319   5.186 -0.5666  1.7410  2.0326
 4946SOL    HW226472   3.965   1.401   5.229 -0.7427 -0.6773  1.2474
 4947SOL     OW26473   1.013   3.368   4.890  0.0386  0.6390 -0.6047
 4947SOL    HW126474   1.087   3.420   4.859  2.2489 -1.2960  1.4233
 4947SOL    HW226475   1.028   3.281   4.853  0.3049  1.3274 -2.1188
 4948SOL     OW26476   3.939   3.219   3.746 -0.4879 -0.2966  0.0259
 4948SOL    HW126477   3.913   3.273   3.672  1.5650 -0.7961 -1.0603
 4948SOL    HW226478   4.033   3.230   3.732 -0.7496  0.7226 -0.8944
 4949SOL     OW26479   2.694   4.217   1.544 -0.1354 -0.7504  0.7467
 4949SOL    HW126480   2.788   4.221   1.560 -0.2244 -0.6182  1.2454
 4949SOL    HW226481   2.658   4.223   1.632 -1.3895 -0.4763  0.2169
 4950SOL     OW26482   0.611   2.633  11.576  0.0205 -0.5866 -0.3310
 4950SOL    HW126483   0.575   2.545  11.572 -1.4867  0.0240 -0.1896
 4950SOL    HW226484   0.550   2.674  11.637  2.4165 -0.0025  1.6664
 4951SOL     OW26485   3.526   1.394   5.901  0.4480 -0.7914 -0.4265
 4951SOL    HW126486   3.519   1.366   5.993 -0.2164 -0.8228 -0.4864
 4951SOL    HW226487   3.438   1.379   5.868 -0.4990  0.6957  1.3760
 4952SOL     OW26488   1.199   4.308  10.582 -0.0540  0.7325  0.4369
 4952SOL    HW126489   1.232   4.392  10.615 -0.3693  0.7508  0.7048
 4952SOL    HW226490   1.238   4.323  10.496 -0.8250  3.9131  0.6273
 4953SOL     OW26491   1.612   4.662   2.975 -0.1659  0.1712  0.0028
 4953SOL    HW126492   1.666   4.739   2.988  2.1728 -1.4036 -0.4034
 4953SOL    HW226493   1.572   4.677   2.890  0.4332 -1.6367 -0.6023
 4954SOL     OW26494   3.981   1.028   1.806 -0.1936  0.3420 -0.1753
 4954SOL    HW126495   3.994   1.049   1.899 -4.3829 -2.0040  0.9716
 4954SOL    HW226496   3.922   0.953   1.811  1.2859 -0.9999 -2.8005
 4955SOL     OW26497   3.843   0.944  17.049 -0.3196 -0.0117 -0.3894
 4955SOL    HW126498   3.826   0.999  16.972  1.4273  2.0484  0.6878
 4955SOL    HW226499   3.910   0.885  17.014 -1.3422 -0.0104 -2.3279
 4956SOL     OW26500   4.392   3.946   2.541 -0.6472 -0.4249 -0.1497
 4956SOL    HW126501   4.413   3.907   2.626 -0.1356  1.3539  0.5520
 4956SOL    HW226502   4.317   3.891   2.516 -0.1254 -0.8691 -0.7255
 4957SOL     OW26503   2.354   0.039  11.611 -0.1181  0.5415 -0.8514
 4957SOL    HW126504   2.437   0.080  11.586  0.2877 -0.7112 -1.5836
 4957SOL    HW226505   2.352   4.717  11.540  1.5993 -0.1759 -0.2615
 4958SOL     OW26506   2.927   0.729   1.557  0.3550 -0.6708 -0.3605
 4958SOL    HW126507   2.869   0.803   1.577  0.1766 -0.7199 -0.6980
 4958SOL    HW226508   2.989   0.742   1.628 -1.2793  1.0789  0.7539
 4959SOL     OW26509   4.201   3.437   8.930  0.0176 -0.1280 -0.1691
 4959SOL    HW126510   4.169   3.475   9.012 -1.1523 -2.8355  0.6294
 4959SOL    HW226511   4.259   3.369   8.963  1.4408  1.6345  0.9487
 4960SOL     OW26512   0.678   0.530   3.148 -0.2329 -0.0988 -0.2698
 4960SOL    HW126513   0.650   0.470   3.079 -0.0976  0.0536 -0.4533
 4960SOL    HW226514   0.747   0.476   3.186 -0.5369 -0.1324  0.2378
 4961SOL     OW26515   1.993   2.814   6.904 -0.0626 -0.0810 -0.4906
 4961SOL    HW126516   2.052   2.749   6.866  0.1831  0.0212 -0.2904
 4961SOL    HW226517   1.963   2.866   6.830  2.5108  2.5966  0.3193
 4962SOL     OW26518   2.384   0.680   3.621 -0.4590 -0.1021  0.0125
 4962SOL    HW126519   2.444   0.622   3.669 -0.1548 -0.4467 -0.7842
 4962SOL    HW226520   2.434   0.762   3.628 -0.0855 -0.3915  0.7970
 4963SOL     OW26521   2.606   3.534   9.726  0.0747 -0.4755 -0.3521
 4963SOL    HW126522   2.513   3.550   9.745 -0.0681  0.8713 -2.1774
 4963SOL    HW226523   2.590   3.470   9.656 -1.7693 -2.4061  1.8235
 4964SOL     OW26524   3.569   1.123   6.098  0.2794 -0.2810 -0.2101
 4964SOL    HW126525   3.572   1.038   6.141 -1.4453  0.1611  0.8088
 4964SOL    HW226526   3.564   1.182   6.174  1.8194  2.1174 -1.9990
 4965SOL     OW26527   1.804   1.979   4.637  0.2371  0.8100 -0.1542
 4965SOL    HW126528   1.796   2.062   4.686  0.5071  0.5925  0.2605
 4965SOL    HW226529   1.715   1.951   4.660  0.8466 -0.4842  0.5957
 4966SOL     OW26530   3.453   0.831   8.938  0.6075 -0.0556  0.1350
 4966SOL    HW126531   3.455   0.754   8.995 -0.7830  1.2111  1.8766
 4966SOL    HW226532   3.480   0.790   8.856 -0.6087  0.5162 -0.5407
 4967SOL     OW26533   2.020   0.987   3.372  0.7721  0.1269 -0.4728
 4967SOL    HW126534   2.113   0.972   3.384  0.1139 -0.9325  3.2454
 4967SOL    HW226535   1.991   1.061   3.426  0.6431 -0.2745  0.0056
 4968SOL     OW26536   1.188   2.704   7.406  1.1672  0.3552 -0.2408
 4968SOL    HW126537   1.113   2.756   7.436  0.3524  0.2695 -2.0993
 4968SOL    HW226538   1.215   2.669   7.490 -1.6529  1.0613  0.9422
 4969SOL     OW26539   2.325   1.216   9.510  0.3000  0.2425  0.2546
 4969SOL    HW126540   2.418   1.229   9.492  0.3479  0.9172  1.0092
 4969SOL    HW226541   2.322   1.137   9.562  0.0324  0.2781  0.2916
 4970SOL     OW26542   2.873   4.045   8.475  0.2077 -0.1414  0.0724
 4970SOL    HW126543   2.923   4.049   8.556 -2.1420  2.5513  1.4175
 4970SOL    HW226544   2.848   3.953   8.473 -0.0095 -0.0722 -0.6008
 4971SOL     OW26545   3.835   2.277   3.364  0.2235 -0.1413 -0.4533
 4971SOL    HW126546   3.768   2.235   3.310  0.7525 -2.8454  1.0073
 4971SOL    HW226547   3.805   2.368   3.359  2.3174  0.4019 -2.9375
 4972SOL     OW26548   1.244   0.871   5.989 -0.0995 -0.0680 -0.0297
 4972SOL    HW126549   1.259   0.898   6.080 -0.4521  0.5468 -0.1584
 4972SOL    HW226550   1.156   0.836   6.006 -0.5785  0.5189 -1.2914
 4973SOL     OW26551   0.344   3.711   6.394 -0.2648  0.9244 -0.1672
 4973SOL    HW126552   0.376   3.721   6.483 -2.1172  0.7467  0.5268
 4973SOL    HW226553   0.328   3.803   6.372 -0.6300  1.0384  0.5606
 4974SOL     OW26554   1.917   0.498   5.249 -0.1672 -0.2392  0.0886
 4974SOL    HW126555   1.975   0.436   5.294 -0.6789 -0.5341  0.3387
 4974SOL    HW226556   1.842   0.445   5.223  1.3380 -1.5869 -1.5817
 4975SOL     OW26557   0.012   1.443   9.458  0.1459  0.0699 -0.0152
 4975SOL    HW126558   0.094   1.449   9.507 -0.9998  0.7454  1.8179
 4975SOL    HW226559   4.693   1.421   9.528  2.7016 -2.1633  1.4911
 4976SOL     OW26560   1.240   3.172  15.359 -0.0062 -0.1900  0.0744
 4976SOL    HW126561   1.321   3.129  15.333  0.3802  0.9443 -0.6213
 4976SOL    HW226562   1.198   3.107  15.416  1.0806  0.0095  1.0955
 4977SOL     OW26563   2.544   2.571   1.085  0.0944  0.2813 -0.4243
 4977SOL    HW126564   2.559   2.562   0.991  2.2225 -1.3106  0.0873
 4977SOL    HW226565   2.635   2.578   1.113  0.0074 -2.3210  0.4412
 4978SOL     OW26566   1.921   0.632   1.935 -0.3272  0.1708  0.5419
 4978SOL    HW126567   1.905   0.706   1.877  1.6109  1.8652  2.1843
 4978SOL    HW226568   2.011   0.613   1.907 -0.2101  0.6294  0.6006
 4979SOL     OW26569   2.800   2.255  15.736 -0.4704  0.0543  0.6984
 4979SOL    HW126570   2.724   2.207  15.705 -0.9974  1.6270 -0.4485
 4979SOL    HW226571   2.781   2.349  15.729  1.4201  0.5215  1.8199
 4980SOL     OW26572   0.950   4.544  15.127 -0.1328 -0.2497  0.3589
 4980SOL    HW126573   0.965   4.544  15.033 -1.7348  2.2712  0.1070
 4980SOL    HW226574   1.042   4.541  15.153 -0.1123 -1.6676  0.1470
 4981SOL     OW26575   3.673   0.277   3.962  0.1656  0.2269 -0.1016
 4981SOL    HW126576   3.708   0.290   3.874  0.1306  1.3790  0.0476
 4981SOL    HW226577   3.587   0.246   3.937  0.3026 -0.6765  0.5450
 4982SOL     OW26578   4.353   3.083   2.000  0.4631  0.1324 -0.0824
 4982SOL    HW126579   4.371   3.172   2.031  1.7585  1.6044 -5.0309
 4982SOL    HW226580   4.263   3.073   2.031  0.3647  0.4046 -0.2795
 4983SOL     OW26581   0.809   2.562   5.366 -0.2517  0.3206  0.9465
 4983SOL    HW126582   0.723   2.601   5.351 -0.1895  0.4267  0.8638
 4983SOL    HW226583   0.808   2.545   5.460 -0.7693 -3.7832  0.1880
 4984SOL     OW26584   4.672   2.166  11.714  0.3059  0.2322 -0.2181
 4984SOL    HW126585   4.585   2.200  11.737  1.3379  1.0650  2.4913
 4984SOL    HW226586   4.659   2.167  11.619  2.5110  0.1356 -0.5269
 4985SOL     OW26587   0.230   3.846   4.039 -0.0899 -0.4754  0.3382
 4985SOL    HW126588   0.191   3.917   4.089 -1.1897  0.4470 -1.8395
 4985SOL    HW226589   0.314   3.834   4.084  0.7808 -0.9934 -1.4374
 4986SOL     OW26590   3.950   2.338  12.247 -0.3395  0.0873  0.1798
 4986SOL    HW126591   4.008   2.370  12.316 -1.6859  1.7619  0.5536
 4986SOL    HW226592   4.002   2.351  12.168 -0.0130 -1.2691  0.1821
 4987SOL     OW26593   1.716   3.069  15.656  0.2277  0.4830 -0.2202
 4987SOL    HW126594   1.685   3.074  15.746 -0.9861  2.1632 -0.7187
 4987SOL    HW226595   1.750   2.979  15.650 -0.8998 -0.0597  1.7379
 4988SOL     OW26596   2.092   4.559   9.434 -0.4342  0.6011 -0.2791
 4988SOL    HW126597   2.177   4.529   9.400 -1.1872 -1.3118 -0.5061
 4988SOL    HW226598   2.079   4.490   9.499  1.9448  1.1076  0.7315
 4989SOL     OW26599   0.672   0.886   8.077 -0.0835 -0.3639  0.4968
 4989SOL    HW126600   0.632   0.863   8.161  1.5931  0.3105  1.4747
 4989SOL    HW226601   0.598   0.865   8.019  0.2118 -0.7774  0.2615
 4990SOL     OW26602   3.679   1.619   7.054 -0.3516 -0.0586 -0.1474
 4990SOL    HW126603   3.680   1.532   7.012  1.8284  1.1789 -2.6785
 4990SOL    HW226604   3.689   1.594   7.146 -0.2748  1.2548  0.1882
 4991SOL     OW26605   2.095   1.880  12.425 -0.8210 -0.1824  0.5015
 4991SOL    HW126606   2.052   1.962  12.403 -0.4130  0.2834  1.4393
 4991SOL    HW226607   2.186   1.893  12.398 -0.3216  0.5881  2.5749
 4992SOL     OW26608   3.074   1.602   9.259 -0.4365 -0.0113  0.3524
 4992SOL    HW126609   3.017   1.592   9.336 -0.1519  0.1487  0.5841
 4992SOL    HW226610   3.020   1.675   9.229  0.3399 -0.8691 -3.0794
 4993SOL     OW26611   3.286   4.113   5.076 -0.2491 -0.2443 -0.0034
 4993SOL    HW126612   3.334   4.122   5.158 -1.3466  0.1561  0.5944
 4993SOL    HW226613   3.199   4.082   5.100 -0.0833 -3.8095 -4.0671
 4994SOL     OW26614   2.563   4.153   9.218 -0.1817 -0.0451 -0.1776
 4994SOL    HW126615   2.495   4.117   9.161  1.1372 -0.5618 -1.4424
 4994SOL    HW226616   2.509   4.172   9.294  0.3411 -0.4986  0.3114
 4995SOL     OW26617   0.467   1.345   6.847 -0.1521 -0.2625  0.0564
 4995SOL    HW126618   0.556   1.380   6.855 -0.0070 -0.7345  0.4749
 4995SOL    HW226619   0.420   1.373   6.925  0.1739 -1.9365  0.8461
 4996SOL     OW26620   0.320   2.071   7.614 -0.3719  0.3138  0.2493
 4996SOL    HW126621   0.328   2.121   7.533 -1.0265 -0.1884 -0.1239
 4996SOL    HW226622   0.302   1.988   7.572  1.2357  0.0986  0.0154
 4997SOL     OW26623   2.416   0.345   6.455 -0.0255 -0.1604  0.0066
 4997SOL    HW126624   2.432   0.256   6.485 -0.3447  0.0842  0.9229
 4997SOL    HW226625   2.322   0.359   6.472  0.1427  0.4522  0.4339
 4998SOL     OW26626   0.685   2.038   5.804  0.4611  0.6782 -0.0804
 4998SOL    HW126627   0.682   2.033   5.708 -1.2820 -0.7505  0.0288
 4998SOL    HW226628   0.641   2.121   5.822 -0.8425  0.2587 -1.2849
 4999SOL     OW26629   0.816   1.036   3.886 -0.1521  0.3979  0.7718
 4999SOL    HW126630   0.775   1.006   3.804 -0.1500  0.6978  0.6637
 4999SOL    HW226631   0.740   1.045   3.943  0.5267 -0.1323  1.7692
 5000SOL     OW26632   0.163   1.549   4.183  0.2541  0.4511  0.1388
 5000SOL    HW126633   0.249   1.517   4.210 -0.6993 -1.4401  0.9018
 5000SOL    HW226634   0.148   1.486   4.112  1.0168 -1.9441  2.1326
 5001SOL     OW26635   3.417   3.429   3.281  0.4712  0.3971  0.3889
 5001SOL    HW126636   3.326   3.412   3.257  0.7151 -1.2273  0.6140
 5001SOL    HW226637   3.416   3.518   3.315  4.2286 -0.0853  1.7793
 5002SOL     OW26638   1.167   3.829  13.411 -0.0943  0.2557  0.3036
 5002SOL    HW126639   1.077   3.809  13.383 -0.5540 -0.0420  2.0400
 5002SOL    HW226640   1.181   3.778  13.491 -0.2408 -1.7337 -0.9296
 5003SOL     OW26641   2.411   0.758   3.990  0.0072 -0.4015 -0.3041
 5003SOL    HW126642   2.431   0.682   3.936  2.0390 -0.8168  1.0584
 5003SOL    HW226643   2.325   0.766   3.949 -0.3460 -1.0813  0.2997
 5004SOL     OW26644   2.260   2.857   2.758 -0.0990 -0.1041  0.7198
 5004SOL    HW126645   2.310   2.803   2.697  1.0550  1.6283  0.1526
 5004SOL    HW226646   2.300   2.944   2.760 -1.0252  0.3115  1.5301
 5005SOL     OW26647   4.401   0.848   8.096  0.2929  0.3645  0.3622
 5005SOL    HW126648   4.322   0.899   8.116 -0.9425 -1.0574 -0.9101
 5005SOL    HW226649   4.475   0.909   8.090  1.4713 -1.3066 -1.8931
 5006SOL     OW26650   2.278   2.932   2.289  0.0421 -0.5075  0.2509
 5006SOL    HW126651   2.213   3.001   2.277 -0.5638 -0.6312  2.8071
 5006SOL    HW226652   2.251   2.869   2.356 -0.9518  0.5065  0.7963
 5007SOL     OW26653   4.657   2.170   1.439  0.2162  0.1299  0.4463
 5007SOL    HW126654   4.604   2.167   1.519 -1.4695  1.9138 -0.6019
 5007SOL    HW226655   4.670   2.075   1.430  1.2263  0.2843  0.2414
 5008SOL     OW26656   2.868   4.674  11.767 -0.2769  0.6688  0.2949
 5008SOL    HW126657   2.907   4.676  11.854 -1.5799  2.2059  0.8479
 5008SOL    HW226658   2.778   4.674  11.799 -1.4100 -1.3659 -2.8627
 5009SOL     OW26659   3.743   2.851   6.131  0.0556  0.2486  0.1318
 5009SOL    HW126660   3.694   2.878   6.053 -0.0367  1.1333  0.4973
 5009SOL    HW226661   3.791   2.780   6.089  0.2899 -0.5223  1.7261
 5010SOL     OW26662   1.260   3.331   1.909 -0.7575 -0.6238  0.1477
 5010SOL    HW126663   1.260   3.241   1.943 -1.6480 -0.6528  0.0866
 5010SOL    HW226664   1.337   3.331   1.853 -1.3623  1.1402 -0.6886
 5011SOL     OW26665   0.731   1.882   3.750  0.2848 -0.2072 -0.3140
 5011SOL    HW126666   0.730   1.976   3.730 -0.9110  0.0420  0.8627
 5011SOL    HW226667   0.659   1.883   3.813 -0.3599  0.6663 -1.0457
 5012SOL     OW26668   1.810   4.411   8.748  0.1723  0.0015  0.4162
 5012SOL    HW126669   1.850   4.487   8.790 -0.9626  2.0829 -2.2822
 5012SOL    HW226670   1.786   4.362   8.826 -0.2104 -0.0397  0.2714
 5013SOL     OW26671   3.823   4.543  15.861  0.4943  0.4447  0.2516
 5013SOL    HW126672   3.874   4.579  15.789 -1.0205  0.5615 -0.7459
 5013SOL    HW226673   3.737   4.570  15.830  1.4218  0.3385 -2.3924
 5014SOL     OW26674   2.851   2.520   0.819 -0.0872  0.5331  0.1580
 5014SOL    HW126675   2.829   2.458   0.889 -0.5010  1.0440  0.4744
 5014SOL    HW226676   2.759   2.540   0.803  0.2698 -0.0380 -2.7556
 5015SOL     OW26677   1.831   4.290  17.218  0.0284 -0.1225 -0.0762
 5015SOL    HW126678   1.756   4.304  17.276 -0.5700 -0.4985 -0.7614
 5015SOL    HW226679   1.893   4.317  17.285 -0.6319 -0.0409  0.4997
 5016SOL     OW26680   2.585   4.175   2.811 -0.6816 -0.4425  0.1211
 5016SOL    HW126681   2.505   4.124   2.811 -0.4236 -0.8531 -0.0692
 5016SOL    HW226682   2.652   4.117   2.773 -0.8453 -0.9480  0.6129
 5017SOL     OW26683   3.645   1.431   9.446  0.4383  0.3647  0.3342
 5017SOL    HW126684   3.698   1.352   9.434  1.9402  1.5952 -1.0445
 5017SOL    HW226685   3.638   1.437   9.541  1.3752 -1.0470  0.4908
 5018SOL     OW26686   2.157   2.924   3.421 -0.1545  0.1115  0.3929
 5018SOL    HW126687   2.168   2.910   3.514  0.9247  1.4939  0.4700
 5018SOL    HW226688   2.069   2.891   3.404  0.4618 -1.0133 -0.6096
 5019SOL     OW26689   0.397   0.595   4.105 -0.0592 -0.1761  0.1862
 5019SOL    HW126690   0.434   0.527   4.161 -0.2987 -0.4144  0.0566
 5019SOL    HW226691   0.356   0.656   4.166 -0.5964 -0.1746 -0.1785
 5020SOL     OW26692   1.679   3.760   2.084 -0.1132 -0.4255  0.2365
 5020SOL    HW126693   1.614   3.767   2.014 -0.1012 -0.0017  0.2627
 5020SOL    HW226694   1.742   3.830   2.065 -0.9728  0.1861 -0.4067
 5021SOL     OW26695   0.282   1.120   7.797 -0.2775  0.8321  0.0789
 5021SOL    HW126696   0.243   1.156   7.718 -0.3467 -0.5750 -0.5313
 5021SOL    HW226697   0.251   1.184   7.861 -0.5066  2.4115 -1.6373
 5022SOL     OW26698   2.465   4.142  12.105 -0.3823  0.2318 -0.6475
 5022SOL    HW126699   2.400   4.192  12.056 -0.7888 -0.5853 -0.9486
 5022SOL    HW226700   2.415   4.062  12.122 -1.6602  1.3648  0.8656
 5023SOL     OW26701   2.596   3.639   0.157  0.0023 -0.4404  0.3321
 5023SOL    HW126702   2.635   3.690   0.228  0.6561 -0.2530 -0.1545
 5023SOL    HW226703   2.661   3.652   0.088 -1.3905 -0.9498 -1.0790
 5024SOL     OW26704   1.015   0.043  14.259  0.6202 -0.1247 -0.2986
 5024SOL    HW126705   1.077   0.097  14.210 -0.6031  1.2307 -0.3585
 5024SOL    HW226706   1.063   0.036  14.341 -0.6393 -1.6748  0.3117
 5025SOL     OW26707   4.058   0.114   1.432 -0.2738  0.2912  0.4003
 5025SOL    HW126708   3.974   0.123   1.477 -0.0786 -0.2843  0.8882
 5025SOL    HW226709   4.069   0.019   1.436 -0.1842  0.2889  0.0575
 5026SOL     OW26710   0.044   4.260   0.576  0.1861 -0.0764  0.4875
 5026SOL    HW126711   0.006   4.286   0.660  1.2955  1.4675  0.5048
 5026SOL    HW226712   4.712   4.205   0.551 -1.3985  2.1255  0.3572
 5027SOL     OW26713   2.727   1.241  11.239  0.6227 -0.8859 -0.3466
 5027SOL    HW126714   2.755   1.215  11.326  0.6024 -1.1141 -0.4070
 5027SOL    HW226715   2.714   1.335  11.248  0.8262 -0.7307 -1.7040
 5028SOL     OW26716   2.970   0.372   8.648  0.6811  0.2988 -0.2514
 5028SOL    HW126717   3.002   0.380   8.738  0.7695 -1.9280 -0.0913
 5028SOL    HW226718   3.026   0.434   8.601  0.0114  0.9711 -0.1778
 5029SOL     OW26719   1.101   2.634   2.059  0.1183  0.4866 -0.2175
 5029SOL    HW126720   1.031   2.570   2.041  0.8601  0.2177 -2.0427
 5029SOL    HW226721   1.096   2.689   1.982 -2.2278 -0.0275 -0.4477
 5030SOL     OW26722   0.358   0.048   4.742  0.3338 -0.1393 -0.1671
 5030SOL    HW126723   0.344   4.740   4.662 -3.4772  0.4322  0.1489
 5030SOL    HW226724   0.429   0.102   4.707 -0.4363  1.4417  0.7112
 5031SOL     OW26725   0.060   1.454   5.230 -0.2695  0.4934  0.0228
 5031SOL    HW126726   0.090   1.531   5.181  0.8185 -0.5087 -0.8977
 5031SOL    HW226727   4.713   1.476   5.256 -0.6780 -0.1658 -0.8126
 5032SOL     OW26728   3.368   3.846   8.427  0.1381  0.6166 -0.4783
 5032SOL    HW126729   3.404   3.930   8.458  1.9189 -0.3071 -0.0626
 5032SOL    HW226730   3.362   3.803   8.513  0.9055 -2.6328 -2.0533
 5033SOL     OW26731   0.831   3.662   8.779  0.5665  0.0376 -0.2311
 5033SOL    HW126732   0.816   3.612   8.860  0.2621  1.3746  0.5350
 5033SOL    HW226733   0.818   3.587   8.721 -1.4181 -1.1991  1.7937
 5034SOL     OW26734   1.179   4.568   5.589 -0.1063 -0.2740 -0.7577
 5034SOL    HW126735   1.161   4.659   5.563  0.3541 -0.5584 -2.0818
 5034SOL    HW226736   1.106   4.536   5.536  0.0825 -3.4715  0.9426
 5035SOL     OW26737   1.885   0.054   6.507 -0.0834 -0.5598  0.5089
 5035SOL    HW126738   1.804   0.090   6.541 -0.4858  0.0776 -1.1178
 5035SOL    HW226739   1.908   0.118   6.440  1.0475  0.8734  2.2487
 5036SOL     OW26740   0.179   2.858   6.382  0.2595  0.4075 -0.3326
 5036SOL    HW126741   0.097   2.863   6.432 -0.2947  3.7656 -1.5631
 5036SOL    HW226742   0.164   2.776   6.336  0.7495  0.8514 -1.2842
 5037SOL     OW26743   0.024   0.867   8.432  0.0574 -0.0570 -0.6743
 5037SOL    HW126744   0.054   0.932   8.368  1.5701  0.7973  0.9014
 5037SOL    HW226745   4.714   0.802   8.385  0.8632  0.4760 -2.2937
 5038SOL     OW26746   3.244   2.210   5.741 -0.7422  0.5820  0.4668
 5038SOL    HW126747   3.325   2.222   5.790 -1.2733 -4.4091  2.5886
 5038SOL    HW226748   3.212   2.300   5.731 -1.9156 -0.1040 -1.9167
 5039SOL     OW26749   1.064   3.232   6.195  0.3592 -0.2800 -0.7952
 5039SOL    HW126750   1.085   3.151   6.150  1.9671 -0.2239 -0.1583
 5039SOL    HW226751   1.140   3.249   6.252  0.0671 -1.7436  0.0324
 5040SOL     OW26752   3.324   2.451   2.490  0.1691 -0.2870  0.1255
 5040SOL    HW126753   3.411   2.413   2.477 -0.5312 -1.4245 -1.1464
 5040SOL    HW226754   3.304   2.433   2.582 -0.3919  2.2917  0.4999
 5041SOL     OW26755   2.917   1.309  17.565  0.0433 -0.5106 -0.2121
 5041SOL    HW126756   2.845   1.274  17.513  0.5438 -1.8936  0.0081
 5041SOL    HW226757   2.899   1.403  17.567  0.0635 -0.5325  1.2650
 5042SOL     OW26758   0.080   2.694   3.007  0.3600  0.0562  0.1275
 5042SOL    HW126759   0.176   2.696   3.011  0.4538 -1.7733 -1.0971
 5042SOL    HW226760   0.055   2.780   3.042 -1.9476 -0.6786  0.2746
 5043SOL     OW26761   4.215   4.394   4.587 -0.0480  0.2191 -0.0432
 5043SOL    HW126762   4.243   4.415   4.498  0.3774  2.5157  0.6466
 5043SOL    HW226763   4.246   4.472   4.633 -1.0797  0.0356  0.9617
 5044SOL     OW26764   1.536   0.613   2.292  0.3759  0.4003  0.0947
 5044SOL    HW126765   1.532   0.633   2.385 -2.9972  2.4948 -0.5347
 5044SOL    HW226766   1.510   0.521   2.285 -1.3767  0.8963  0.1856
 5045SOL     OW26767   4.735   4.562   6.201  0.1661  0.1703  0.2390
 5045SOL    HW126768   0.050   4.622   6.153  1.0814  0.2047  1.3638
 5045SOL    HW226769   4.728   4.601   6.288  1.2740  0.7461  0.0713
 5046SOL     OW26770   1.418   2.575  14.091  0.3147 -0.1284 -0.3217
 5046SOL    HW126771   1.470   2.612  14.020  0.8667  1.9714  1.2005
 5046SOL    HW226772   1.335   2.604  14.053 -0.4844  1.2872  2.5508
 5047SOL     OW26773   3.353   0.731   0.422 -0.3281 -0.2786  0.1577
 5047SOL    HW126774   3.391   0.795   0.362  0.5378 -0.6493  0.3280
 5047SOL    HW226775   3.272   0.695   0.386 -0.5754 -0.2603  0.6770
 5048SOL     OW26776   1.851   3.606   5.561  0.0007  0.0484 -0.1592
 5048SOL    HW126777   1.833   3.632   5.651 -0.5163 -1.1488  0.0781
 5048SOL    HW226778   1.819   3.683   5.514 -2.5970  0.7608  2.7847
 5049SOL     OW26779   0.023   3.176   5.805 -0.0116 -0.4240  0.1639
 5049SOL    HW126780   0.030   3.184   5.900  0.6068  1.7675 -0.0796
 5049SOL    HW226781   0.108   3.136   5.783  1.2026  1.9044  0.6390
 5050SOL     OW26782   3.281   0.453   5.465  0.1312  0.2155  0.2857
 5050SOL    HW126783   3.198   0.446   5.419 -0.7009 -1.6956  2.0806
 5050SOL    HW226784   3.302   0.544   5.446  2.5016 -0.7163 -1.6340
 5051SOL     OW26785   1.534   0.535   4.474  0.3313 -0.2089 -0.1036
 5051SOL    HW126786   1.616   0.577   4.499  2.2363 -3.2119 -1.3966
 5051SOL    HW226787   1.491   0.508   4.555 -0.5892 -1.3753 -0.9668
 5052SOL     OW26788   4.544   4.698   3.319 -0.2001  0.3433  0.3400
 5052SOL    HW126789   4.541   4.605   3.299  2.1641  0.4800 -0.5595
 5052SOL    HW226790   4.590   4.734   3.244 -2.1401 -0.7376 -1.3445
 5053SOL     OW26791   2.659   1.447  16.090  0.2101  0.4900 -0.2967
 5053SOL    HW126792   2.728   1.467  16.154 -1.9372  1.8542  1.5699
 5053SOL    HW226793   2.602   1.523  16.079  0.9830  1.3843  1.8416
 5054SOL     OW26794   1.810   2.124  13.076  0.0644  0.0094 -0.1360
 5054SOL    HW126795   1.857   2.205  13.055  1.0268  0.0275  2.1017
 5054SOL    HW226796   1.731   2.161  13.115  0.7539  0.8522  0.4682
 5055SOL     OW26797   2.938   4.402   1.253  0.2983 -0.0947 -0.5524
 5055SOL    HW126798   3.029   4.380   1.234 -0.1479 -1.1697 -1.4030
 5055SOL    HW226799   2.895   4.321   1.228  1.1986 -0.8460  0.3455
 5056SOL     OW26800   1.970   2.369  10.783  0.3244 -0.7541 -0.5459
 5056SOL    HW126801   2.020   2.389  10.704  0.0978 -1.9040 -0.9927
 5056SOL    HW226802   1.882   2.357  10.746  0.0408  1.4124 -0.5561
 5057SOL     OW26803   2.140   2.551   2.158  0.1695 -0.0613 -0.4145
 5057SOL    HW126804   2.225   2.526   2.122  0.7678  0.5230  0.5975
 5057SOL    HW226805   2.089   2.502   2.093 -0.8225  1.3796 -0.7128
 5058SOL     OW26806   1.002   3.506  11.197 -0.0606  0.0194 -0.5217
 5058SOL    HW126807   1.064   3.579  11.189 -0.6341  0.6245  0.6079
 5058SOL    HW226808   0.942   3.534  11.128 -0.5854  1.3663  0.4927
 5059SOL     OW26809   2.757   1.849   9.613 -0.2311 -0.0015  0.7643
 5059SOL    HW126810   2.825   1.887   9.669 -0.5453 -0.4232  1.4315
 5059SOL    HW226811   2.811   1.815   9.542 -3.0392  1.2248 -1.9412
 5060SOL     OW26812   4.725   0.297   7.407 -0.4291  0.0826 -0.9657
 5060SOL    HW126813   0.025   0.281   7.492  1.2656 -0.5782 -1.9259
 5060SOL    HW226814   0.056   0.344   7.366 -1.0231 -0.0059 -2.1282
 5061SOL     OW26815   0.035   1.513   1.608 -0.2219 -0.1224  0.0858
 5061SOL    HW126816   0.122   1.509   1.647 -0.7364 -0.6938  1.1653
 5061SOL    HW226817   0.068   1.499   1.519  1.6865  0.6676  0.6634
 5062SOL     OW26818   0.891   0.838   6.051 -0.1962 -0.3418  0.0482
 5062SOL    HW126819   0.815   0.795   6.012 -0.1188 -0.6694  0.2603
 5062SOL    HW226820   0.884   0.916   5.994 -3.0880  0.5326  1.6363
 5063SOL     OW26821   4.032   4.172  14.527 -0.0309  0.5026 -0.1314
 5063SOL    HW126822   4.011   4.107  14.595 -0.2519  1.2417  0.5018
 5063SOL    HW226823   3.953   4.225  14.526 -1.1243 -1.0620  2.7963
 5064SOL     OW26824   1.862   1.002   4.108  0.7843  0.0929 -0.7068
 5064SOL    HW126825   1.909   0.928   4.069 -1.5204 -0.9461 -1.5203
 5064SOL    HW226826   1.839   1.056   4.032 -1.1297  0.2799  0.0210
 5065SOL     OW26827   1.722   4.354   6.246 -0.2787  0.0276 -0.3263
 5065SOL    HW126828   1.796   4.308   6.204 -0.7951 -1.3670  0.2999
 5065SOL    HW226829   1.736   4.336   6.339  1.3587  0.5724 -0.4639
 5066SOL     OW26830   3.226   4.454   8.226 -0.0060  0.4492 -0.2445
 5066SOL    HW126831   3.251   4.416   8.310 -0.1564 -1.5876 -1.1293
 5066SOL    HW226832   3.131   4.446   8.221  0.0795 -0.0751 -1.0080
 5067SOL     OW26833   3.316   0.415   3.577 -0.0368 -0.1967 -0.2196
 5067SOL    HW126834   3.269   0.422   3.660 -0.1176  0.0446 -0.2860
 5067SOL    HW226835   3.243   0.397   3.518  0.5120  1.1296 -1.3017
 5068SOL     OW26836   2.744   4.612   3.799  0.3920 -0.3606  0.1043
 5068SOL    HW126837   2.805   4.608   3.725  1.7206  2.4940  1.0510
 5068SOL    HW226838   2.694   4.692   3.783 -0.5440 -1.3769 -2.0936
 5069SOL     OW26839   2.650   0.349  16.960  0.0408  0.7467 -0.0566
 5069SOL    HW126840   2.561   0.331  16.928 -1.2219  1.0456  3.2429
 5069SOL    HW226841   2.649   0.334  17.055 -0.2998 -0.1401 -0.1947
 5070SOL     OW26842   4.452   0.947  17.311  0.6618  0.1250 -0.4827
 5070SOL    HW126843   4.393   0.984  17.376  2.2254  1.8171 -0.0109
 5070SOL    HW226844   4.440   0.856  17.337 -1.1677  0.7842  0.9739
 5071SOL     OW26845   1.589   1.121   9.470 -0.2668  0.1947  0.6933
 5071SOL    HW126846   1.519   1.172   9.429  0.9444  0.9792 -0.3914
 5071SOL    HW226847   1.627   1.064   9.403  0.8042  0.0523  1.4257
 5072SOL     OW26848   1.666   4.473   1.511 -0.2075 -0.0553 -0.3169
 5072SOL    HW126849   1.658   4.417   1.433  0.5882  1.7739 -1.7087
 5072SOL    HW226850   1.734   4.535   1.486 -0.5684 -0.0626 -1.3165
 5073SOL     OW26851   4.639   3.422  14.912  0.3227 -0.5320 -0.3172
 5073SOL    HW126852   4.579   3.348  14.911 -1.9606  1.3062  0.8597
 5073SOL    HW226853   4.657   3.459  14.825 -0.0449 -0.0999 -0.2128
 5074SOL     OW26854   3.929   0.860   6.849 -0.5281 -0.0320 -0.0438
 5074SOL    HW126855   4.011   0.809   6.852 -0.6871 -0.1795  1.6765
 5074SOL    HW226856   3.860   0.794   6.854  0.0744 -1.0265 -5.0779
 5075SOL     OW26857   3.032   2.813   5.038  0.6906 -0.0450 -0.0947
 5075SOL    HW126858   3.096   2.755   5.078  1.1756  0.9191  0.5217
 5075SOL    HW226859   3.067   2.831   4.950  0.2087  2.2016  0.1844
 5076SOL     OW26860   1.783   0.699  13.959 -0.7266  0.4687  0.1564
 5076SOL    HW126861   1.802   0.753  13.884  3.2251  1.3844  1.8384
 5076SOL    HW226862   1.795   0.609  13.928 -0.6074  1.2315 -1.9520
 5077SOL     OW26863   1.933   3.209   8.778  0.0049  0.0774  0.0369
 5077SOL    HW126864   2.003   3.270   8.804  2.0081 -2.2166 -0.0332
 5077SOL    HW226865   1.934   3.212   8.683  0.8607  2.4343  0.1027
 5078SOL     OW26866   3.361   1.487  10.070 -0.5950 -0.1832  0.7073
 5078SOL    HW126867   3.362   1.581  10.053  0.4667  0.1199  2.3869
 5078SOL    HW226868   3.343   1.483  10.164 -0.7791 -0.0385  0.6770
 5079SOL     OW26869   2.093   3.872  16.828  0.0976  0.4222  0.2668
 5079SOL    HW126870   2.011   3.844  16.788 -0.4743 -0.5032  2.0779
 5079SOL    HW226871   2.072   3.875  16.922  1.4672 -1.1150  0.6220
 5080SOL     OW26872   1.029   2.014   4.832  0.2281  0.4441  0.2885
 5080SOL    HW126873   1.044   2.035   4.740 -2.8252  0.6362 -0.1503
 5080SOL    HW226874   1.014   2.100   4.872  1.2697 -0.2469  2.2118
 5081SOL     OW26875   3.603   4.490   2.792 -0.1650 -0.8103  0.8180
 5081SOL    HW126876   3.529   4.518   2.738  1.0096  0.6938 -0.0061
 5081SOL    HW226877   3.594   4.397   2.774 -2.4065  0.0014 -2.2748
 5082SOL     OW26878   2.564   3.699   4.065 -0.2045  0.1613  0.2110
 5082SOL    HW126879   2.488   3.750   4.092  0.3147  1.6952 -1.2559
 5082SOL    HW226880   2.614   3.720   4.144  0.3707 -2.6288  0.5985
 5083SOL     OW26881   2.846   0.627   6.904 -0.0363 -0.2751  0.6008
 5083SOL    HW126882   2.762   0.583   6.891 -0.4606  0.7487 -0.1226
 5083SOL    HW226883   2.853   0.679   6.824  2.4922 -0.5863  0.6043
 5084SOL     OW26884   3.054   1.700   8.382 -0.5581  0.5867 -0.5569
 5084SOL    HW126885   3.040   1.642   8.456  0.1349 -0.1068 -0.9698
 5084SOL    HW226886   3.058   1.632   8.315  1.1169  1.8480 -1.7307
 5085SOL     OW26887   0.233   3.317   8.479 -0.7884 -0.3095 -0.8502
 5085SOL    HW126888   0.322   3.331   8.448 -1.1282  1.1440 -1.1573
 5085SOL    HW226889   0.212   3.393   8.532  2.8557 -0.0697  0.2392
 5086SOL     OW26890   4.576   3.154   2.928  0.0785  0.2120 -0.1224
 5086SOL    HW126891   4.658   3.116   2.962 -0.4985 -0.6346  0.3267
 5086SOL    HW226892   4.562   3.085   2.864  0.7851  1.0070 -1.1301
 5087SOL     OW26893   0.115   2.084   1.718  0.4904 -0.0607  0.4514
 5087SOL    HW126894   0.200   2.040   1.713  0.8474  0.6419  0.2526
 5087SOL    HW226895   0.122   2.162   1.662 -0.0833  1.8527  3.0757
 5088SOL     OW26896   1.445   3.234   1.092 -0.1203 -0.3359 -0.3731
 5088SOL    HW126897   1.386   3.290   1.143 -0.3953  0.7066 -1.8521
 5088SOL    HW226898   1.471   3.166   1.154  1.4186  1.7352  1.2384
 5089SOL     OW26899   3.918   4.558   5.914 -0.2748  0.1628 -0.1860
 5089SOL    HW126900   3.955   4.472   5.893  0.1152  0.4639 -0.7207
 5089SOL    HW226901   3.846   4.565   5.851 -1.1212 -0.0644  0.7465
 5090SOL     OW26902   0.514   2.251   0.513 -0.1234  0.6118  0.3638
 5090SOL    HW126903   0.426   2.284   0.494 -0.0797  0.5445  0.0443
 5090SOL    HW226904   0.510   2.168   0.464  3.1016  0.5829  0.1863
 5091SOL     OW26905   3.626   1.543   7.506  0.1738  0.2789 -0.2151
 5091SOL    HW126906   3.689   1.517   7.574  0.5981 -0.8457 -1.0479
 5091SOL    HW226907   3.573   1.611   7.548  0.1405 -0.3299  0.7367
 5092SOL     OW26908   2.122   2.667   6.352 -0.3160 -0.6617  0.5681
 5092SOL    HW126909   2.052   2.677   6.416  1.7283 -0.7045  2.8029
 5092SOL    HW226910   2.109   2.750   6.306 -1.8160 -1.7138 -0.9400
 5093SOL     OW26911   1.205   0.754   2.461 -0.5568  0.2340  0.4110
 5093SOL    HW126912   1.293   0.765   2.497  0.1475 -0.4188 -1.0872
 5093SOL    HW226913   1.144   0.745   2.534  0.3250  0.0087  1.1180
 5094SOL     OW26914   3.171   3.317  14.656  0.1172 -0.4037 -0.0017
 5094SOL    HW126915   3.087   3.351  14.624  0.8242 -0.4230 -1.9027
 5094SOL    HW226916   3.228   3.373  14.603 -1.1177 -0.3079 -1.2414
 5095SOL     OW26917   0.463   3.414   6.560 -0.1790  0.6881 -1.3327
 5095SOL    HW126918   0.462   3.445   6.650  1.2090 -2.0595 -0.3502
 5095SOL    HW226919   0.383   3.362   6.554  0.2080 -0.0947  0.2346
 5096SOL     OW26920   1.386   3.805  13.972  0.1097  0.4672 -0.0183
 5096SOL    HW126921   1.371   3.731  13.913 -2.4802  0.7886  0.2244
 5096SOL    HW226922   1.308   3.815  14.026 -0.1066  1.3770 -0.5038
 5097SOL     OW26923   0.525   0.614   0.580 -0.1201 -0.7063  0.6603
 5097SOL    HW126924   0.585   0.544   0.553  0.0958  0.2001 -1.1711
 5097SOL    HW226925   0.565   0.630   0.665 -1.2217  3.7510  0.3286
 5098SOL     OW26926   4.259   1.515   4.467 -0.4915  0.5783 -0.0899
 5098SOL    HW126927   4.264   1.420   4.460 -0.8196  0.5769 -0.2945
 5098SOL    HW226928   4.347   1.550   4.486 -0.5496 -0.1849  1.6017
 5099SOL     OW26929   4.140   2.962   4.952  0.1800 -0.0770 -0.3274
 5099SOL    HW126930   4.154   2.920   4.867 -2.9478 -0.9042 -0.4042
 5099SOL    HW226931   4.197   3.040   4.946  1.0188 -0.6725 -0.0425
 5100SOL     OW26932   2.322   0.220   4.249 -0.0974  0.0992  0.3833
 5100SOL    HW126933   2.265   0.149   4.281  0.8981 -1.6911 -1.8443
 5100SOL    HW226934   2.266   0.251   4.178  2.7820  0.2141 -1.8022
 5101SOL     OW26935   0.450   0.201  16.214 -0.2943  0.7417  0.7281
 5101SOL    HW126936   0.526   0.193  16.273 -1.7506 -0.3620  2.4697
 5101SOL    HW226937   0.415   0.113  16.198  1.0957  0.4852 -0.8525
 5102SOL     OW26938   0.991   3.897   6.093 -0.1456  0.0521 -0.2688
 5102SOL    HW126939   1.069   3.948   6.073  0.4448 -0.7694 -0.1019
 5102SOL    HW226940   1.026   3.829   6.150 -0.2737  0.1363 -0.0919
 5103SOL     OW26941   2.264   0.862   6.082  0.1613  0.0585  0.5571
 5103SOL    HW126942   2.342   0.830   6.127  0.0732 -0.0676  0.6204
 5103SOL    HW226943   2.193   0.863   6.146 -0.2099  1.2676  0.1173
 5104SOL     OW26944   4.655   4.461  13.200 -0.0934  0.0500  0.3386
 5104SOL    HW126945   4.662   4.372  13.236  1.3735 -0.8049 -2.0719
 5104SOL    HW226946   0.000   4.488  13.230  1.0831 -1.2148 -1.9848
 5105SOL     OW26947   4.093   2.142  13.768  0.1269 -0.2012  0.3689
 5105SOL    HW126948   4.074   2.065  13.823 -1.5214  0.0019  0.0906
 5105SOL    HW226949   4.175   2.175  13.805  0.3978  1.3362 -1.6209
 5106SOL     OW26950   0.281   0.511   4.831  0.3672 -0.4876  0.0858
 5106SOL    HW126951   0.365   0.550   4.857 -0.1312  1.4777 -1.1714
 5106SOL    HW226952   0.280   0.538   4.739  0.5409 -1.3578 -0.1665
 5107SOL     OW26953   0.535   3.636   8.992 -0.2560  0.8078 -0.5813
 5107SOL    HW126954   0.518   3.730   8.982 -1.2518  0.7919  0.9035
 5107SOL    HW226955   0.529   3.601   8.903 -0.9362  2.3032 -1.1320
 5108SOL     OW26956   3.267   1.313  13.139 -0.2912 -0.3483 -0.3462
 5108SOL    HW126957   3.329   1.346  13.204 -0.2562  1.5687 -1.3684
 5108SOL    HW226958   3.326   1.269  13.077 -2.6755 -0.6230 -2.4209
 5109SOL     OW26959   2.324   2.210   3.965 -0.2765 -0.1214 -1.2412
 5109SOL    HW126960   2.328   2.119   3.934  0.4460 -0.7122  0.6061
 5109SOL    HW226961   2.337   2.256   3.882 -2.2180  0.9856 -0.9334
 5110SOL     OW26962   0.411   0.976   1.551  0.0180 -0.3229 -0.4459
 5110SOL    HW126963   0.395   0.885   1.577  0.8031 -0.2990  0.1204
 5110SOL    HW226964   0.321   1.007   1.539 -0.8118 -2.4604  0.2701
 5111SOL     OW26965   2.753   2.348   1.019 -0.3937 -0.2364 -0.1681
 5111SOL    HW126966   2.658   2.343   1.011 -0.4637 -0.2951  0.7645
 5111SOL    HW226967   2.770   2.254   1.031  0.6102  0.0840  0.8615
 5112SOL     OW26968   3.100   1.904  11.581 -0.1063  0.2650 -0.2595
 5112SOL    HW126969   3.049   1.841  11.632 -0.0342  0.8266  0.5180
 5112SOL    HW226970   3.166   1.850  11.537  0.5684  0.2721  0.7338
 5113SOL     OW26971   2.186   3.678  11.645  0.3481  0.3461  0.2209
 5113SOL    HW126972   2.107   3.729  11.664 -0.5617 -0.5670 -1.1269
 5113SOL    HW226973   2.227   3.680  11.732  0.6828 -1.8062  0.1251
 5114SOL     OW26974   2.488   1.884  15.277 -0.1622  0.5158 -0.4572
 5114SOL    HW126975   2.575   1.924  15.271  0.0625  0.2485  1.0372
 5114SOL    HW226976   2.437   1.965  15.282 -3.2995 -1.3993 -1.5049
 5115SOL     OW26977   1.961   2.814   7.407  0.1475  0.2289  0.0885
 5115SOL    HW126978   1.946   2.765   7.489 -1.3212 -1.1284 -0.9772
 5115SOL    HW226979   1.882   2.867   7.390 -0.1885  0.4535  2.2738
 5116SOL     OW26980   2.814   2.378   0.241 -0.0935 -0.0041 -0.4297
 5116SOL    HW126981   2.814   2.412   0.330 -1.6154  0.9500 -0.7987
 5116SOL    HW226982   2.832   2.458   0.191 -1.4520 -0.0225 -0.9549
 5117SOL     OW26983   3.426   0.192   1.244 -0.4423  0.3209 -0.3628
 5117SOL    HW126984   3.354   0.252   1.224  0.9169  1.2987 -2.3508
 5117SOL    HW226985   3.491   0.251   1.283  1.1701 -0.6292 -1.5756
 5118SOL     OW26986   3.002   1.942   2.135  0.2188 -0.2011  0.3754
 5118SOL    HW126987   2.982   2.035   2.121 -3.0626 -1.1944 -1.5048
 5118SOL    HW226988   3.003   1.904   2.047 -0.4170 -1.5534  0.9722
 5119SOL     OW26989   2.039   3.582   2.840  0.0372 -0.6498 -0.2951
 5119SOL    HW126990   1.964   3.524   2.830 -0.6820  0.5690 -1.8815
 5119SOL    HW226991   2.106   3.517   2.863  0.3242  0.2968  1.5752
 5120SOL     OW26992   3.628   1.830   9.224 -0.1928  0.0162 -0.0505
 5120SOL    HW126993   3.622   1.903   9.286  0.5310 -1.3050  1.5629
 5120SOL    HW226994   3.537   1.831   9.193 -0.2638 -0.7149  0.1354
 5121SOL     OW26995   0.874   1.890  16.192  0.1296 -0.1550 -0.2937
 5121SOL    HW126996   0.857   1.950  16.265  1.5611  0.5644 -0.5548
 5121SOL    HW226997   0.967   1.873  16.206  0.1709 -0.2269 -0.6684
 5122SOL     OW26998   1.471   0.780   2.991 -0.0396 -0.0181  0.1918
 5122SOL    HW126999   1.451   0.849   3.055  1.2469 -0.3545  0.9513
 5122SOL    HW227000   1.399   0.717   2.997 -0.7819  0.9240  1.3543
 5123SOL     OW27001   4.015   1.864   5.471 -0.3878 -0.1590  0.1467
 5123SOL    HW127002   3.939   1.809   5.491  1.5852 -2.7624  0.5813
 5123SOL    HW227003   3.973   1.950   5.472  1.3208  0.6876 -2.1573
 5124SOL     OW27004   1.051   0.487   0.973 -0.3750 -0.2243  0.1568
 5124SOL    HW127005   1.016   0.565   1.015 -0.9053 -0.1125 -0.4952
 5124SOL    HW227006   1.112   0.451   1.038 -0.8214  1.0129  1.2573
 5125SOL     OW27007   4.614   1.470   0.952  0.8222  0.1986 -0.4229
 5125SOL    HW127008   4.649   1.542   1.004  1.9351 -1.1504  0.6984
 5125SOL    HW227009   4.575   1.514   0.877  1.0680 -0.7722 -1.1343
 5126SOL     OW27010   4.024   0.014   3.583  0.3966 -0.0477  0.3753
 5126SOL    HW127011   4.070   4.735   3.664  1.3486  1.8595  0.3444
 5126SOL    HW227012   3.962   4.683   3.590  0.7225  0.0709  4.1544
 5127SOL     OW27013   4.271   1.910   6.876  0.2489  0.0685 -0.0930
 5127SOL    HW127014   4.285   1.816   6.890  0.3312 -0.0156 -0.7322
 5127SOL    HW227015   4.176   1.918   6.882  0.2338 -0.2845  0.1934
 5128SOL     OW27016   1.226   2.910   1.535 -0.4740 -0.1810  0.1697
 5128SOL    HW127017   1.152   2.920   1.475  0.6873  0.7775 -1.1110
 5128SOL    HW227018   1.187   2.874   1.615  2.2558 -2.0513  0.6652
 5129SOL     OW27019   3.984   0.168  11.428  0.3761  0.0216  0.2265
 5129SOL    HW127020   3.990   0.135  11.338  0.8495 -0.2330  0.3544
 5129SOL    HW227021   4.044   0.242  11.437 -1.6534  1.5553  1.2081
 5130SOL     OW27022   0.494   0.248   5.371 -0.6006 -0.2369 -0.3791
 5130SOL    HW127023   0.572   0.255   5.427  0.1964 -0.5697 -1.4330
 5130SOL    HW227024   0.459   0.337   5.362 -1.5082 -0.6479 -0.8249
 5131SOL     OW27025   3.089   3.976   6.183 -0.2952 -0.1037  0.2593
 5131SOL    HW127026   3.019   4.030   6.221 -0.5632 -0.5044  0.3306
 5131SOL    HW227027   3.145   3.964   6.260 -0.4640  1.3636  0.6072
 5132SOL     OW27028   3.616   0.032   1.265  0.0602 -0.1675 -0.2729
 5132SOL    HW127029   3.539   0.086   1.247 -0.7243 -1.0137  0.5579
 5132SOL    HW227030   3.606   4.687   1.225  1.6771  0.4422 -2.0272
 5133SOL     OW27031   4.060   0.476   1.995 -0.3577  0.2077  0.1958
 5133SOL    HW127032   4.140   0.523   1.975 -0.8498 -0.0513 -2.3464
 5133SOL    HW227033   4.075   0.464   2.089 -0.2646 -0.7156  0.0645
 5134SOL     OW27034   1.200   2.007   8.672 -0.1654  0.5536 -0.0398
 5134SOL    HW127035   1.108   2.018   8.698  0.9013  0.2136  3.9397
 5134SOL    HW227036   1.238   2.018   8.759  0.6227 -1.8417 -0.0861
 5135SOL     OW27037   3.147   4.485   4.807  0.3192 -0.3131 -0.0260
 5135SOL    HW127038   3.235   4.449   4.800  0.3193 -0.3232  0.0272
 5135SOL    HW227039   3.117   4.495   4.716 -1.8185  0.2416  0.7453
 5136SOL     OW27040   1.200   4.430  17.689 -0.4200 -0.7267 -0.1278
 5136SOL    HW127041   1.192   4.477  17.606  0.0533 -1.2239 -0.4583
 5136SOL    HW227042   1.106   4.418  17.704 -0.1702 -2.7645 -0.1824
 5137SOL     OW27043   1.468   1.668   0.583  0.8700 -0.5372  0.4948
 5137SOL    HW127044   1.465   1.745   0.640  2.9610 -1.2022  1.4986
 5137SOL    HW227045   1.507   1.710   0.507  1.8632 -3.6944 -0.7221
 5138SOL     OW27046   3.909   2.344   5.559  0.4225 -0.0713 -0.2452
 5138SOL    HW127047   3.958   2.407   5.506  0.1024  1.4470  1.2682
 5138SOL    HW227048   3.887   2.407   5.628 -0.5505 -0.4985 -0.1578
 5139SOL     OW27049   4.516   3.621   3.439 -0.0235  0.3088 -0.1395
 5139SOL    HW127050   4.495   3.528   3.432 -2.8379  0.7890  1.7206
 5139SOL    HW227051   4.460   3.634   3.516  1.6299  0.3323  1.0433
 5140SOL     OW27052   0.347   4.643  15.475  0.1374  0.2734 -0.2757
 5140SOL    HW127053   0.342   4.550  15.500  2.7068 -0.2475 -1.7107
 5140SOL    HW227054   0.441   4.641  15.458  0.3379 -2.1964  1.0627
 5141SOL     OW27055   4.137   3.322  15.660  0.2446 -0.3968 -0.1095
 5141SOL    HW127056   4.094   3.345  15.578 -0.0374  0.1548  0.1915
 5141SOL    HW227057   4.101   3.234  15.671  2.1245 -1.1052  0.3202
 5142SOL     OW27058   4.516   2.425   6.855 -0.0611 -0.0886  0.0112
 5142SOL    HW127059   4.506   2.484   6.930  0.6973  0.9481 -0.6993
 5142SOL    HW227060   4.605   2.393   6.872  0.3143  1.2699  0.6076
 5143SOL     OW27061   2.697   4.299  10.099 -0.5593  0.5597  0.9240
 5143SOL    HW127062   2.780   4.317  10.056 -1.3461  1.0205 -0.4242
 5143SOL    HW227063   2.715   4.252  10.180 -2.2205 -0.7887  0.5056
 5144SOL     OW27064   4.543   4.264  10.870  0.2433  0.0614 -0.2544
 5144SOL    HW127065   4.463   4.301  10.907 -1.6338 -0.3706 -3.9070
 5144SOL    HW227066   4.576   4.338  10.818 -1.3641  0.8231 -0.1979
 5145SOL     OW27067   0.885   0.041   3.702  0.1647 -0.5751  0.0358
 5145SOL    HW127068   0.848   0.128   3.685  0.0475 -0.5518  0.4077
 5145SOL    HW227069   0.897   0.053   3.796 -0.5448 -1.0790  0.1881
 5146SOL     OW27070   1.898   0.451   1.638 -0.4809  0.1865 -0.1927
 5146SOL    HW127071   1.936   0.538   1.631 -0.7909  0.3459  0.1101
 5146SOL    HW227072   1.807   0.459   1.608 -0.4892  1.0965  0.0962
 5147SOL     OW27073   1.915   2.779  13.476  0.6814  0.2421  0.5170
 5147SOL    HW127074   1.866   2.847  13.522  1.3090  0.4979  0.8106
 5147SOL    HW227075   1.978   2.840  13.437 -1.8713  0.8501 -2.6049
 5148SOL     OW27076   3.411   1.028   7.341 -0.1768 -0.2607 -0.1108
 5148SOL    HW127077   3.504   1.042   7.324 -0.5973  2.5084 -0.2019
 5148SOL    HW227078   3.386   0.974   7.266 -0.6248 -1.8860  1.2089
 5149SOL     OW27079   4.682   0.292  17.501 -0.0345  0.4424  0.1405
 5149SOL    HW127080   4.719   0.306  17.588 -0.0360  1.2327  0.0117
 5149SOL    HW227081   4.640   0.209  17.525 -0.9005  0.5101 -1.1262
 5150SOL     OW27082   4.116   0.217   3.935  0.3411 -0.1610 -0.0831
 5150SOL    HW127083   4.095   0.301   3.893 -1.7001 -0.2479  0.7525
 5150SOL    HW227084   4.117   0.153   3.864 -1.0464  0.4455 -0.6450
 5151SOL     OW27085   2.123   4.691   5.521 -0.0520 -0.4729 -0.0333
 5151SOL    HW127086   2.174   4.662   5.597 -0.5369  0.1129  0.5122
 5151SOL    HW227087   2.071   4.612   5.504 -0.3640 -0.0427 -1.0154
 5152SOL     OW27088   1.563   1.507  10.403 -0.1599 -0.9118  0.1401
 5152SOL    HW127089   1.527   1.496  10.315  0.0592  0.7232 -0.1620
 5152SOL    HW227090   1.644   1.458  10.392 -0.1394 -0.2956 -2.5009
 5153SOL     OW27091   0.670   1.308   8.054 -0.1486  0.1063 -0.2723
 5153SOL    HW127092   0.747   1.281   8.005  0.0892 -0.5113  0.4316
 5153SOL    HW227093   0.616   1.229   8.051  1.1998 -0.9163  1.8921
 5154SOL     OW27094   4.206   3.786   6.838 -0.2295  0.3077 -0.2618
 5154SOL    HW127095   4.223   3.794   6.744 -1.9313 -0.4877 -0.6596
 5154SOL    HW227096   4.289   3.809   6.879  0.3043 -4.1936  1.2121
 5155SOL     OW27097   3.525   4.384   4.127  0.2133 -0.6498 -0.2226
 5155SOL    HW127098   3.502   4.303   4.173  0.8961 -0.6847  0.0594
 5155SOL    HW227099   3.563   4.360   4.042 -1.0879 -1.7861 -0.4908
 5156SOL     OW27100   2.253   2.492  15.165  0.1473 -0.3786  0.4994
 5156SOL    HW127101   2.208   2.519  15.245  0.1503 -1.7901  0.9928
 5156SOL    HW227102   2.208   2.554  15.109  3.2743  0.8381 -0.6294
 5157SOL     OW27103   3.848   4.377  12.280 -0.4395 -0.3517  0.2821
 5157SOL    HW127104   3.903   4.440  12.326 -0.2773  0.1322 -0.5820
 5157SOL    HW227105   3.817   4.319  12.350  0.1906 -0.3375  0.5780
 5158SOL     OW27106   3.557   3.877   2.716  0.5772 -0.1941 -0.3119
 5158SOL    HW127107   3.598   3.813   2.774  0.5311 -0.0400 -0.1069
 5158SOL    HW227108   3.462   3.870   2.728  0.4515  0.2994 -0.9907
 5159SOL     OW27109   3.113   0.935   7.209  0.1557 -0.1675  0.3961
 5159SOL    HW127110   3.202   0.961   7.186 -0.2651 -0.3244 -1.3554
 5159SOL    HW227111   3.080   0.891   7.131 -1.0283  0.0299  0.7871
 5160SOL     OW27112   4.467   3.335   3.434 -0.2368  0.5829  1.0159
 5160SOL    HW127113   4.542   3.281   3.459 -1.4099 -0.9798  1.1154
 5160SOL    HW227114   4.410   3.270   3.394  0.3508  0.5697  0.2126
 5161SOL     OW27115   3.599   3.859  14.979 -0.1172 -0.0741 -0.2179
 5161SOL    HW127116   3.638   3.776  15.005 -1.9009 -0.5485  0.9931
 5161SOL    HW227117   3.507   3.833  14.984  0.1742 -1.1295 -0.3570
 5162SOL     OW27118   2.812   3.420   6.167  0.2210 -0.1770 -0.6116
 5162SOL    HW127119   2.741   3.478   6.138 -0.9692 -1.7080 -0.7021
 5162SOL    HW227120   2.893   3.472   6.163  1.1116 -1.5462 -0.3818
 5163SOL     OW27121   4.006   4.544   7.028 -0.5831  0.1150 -0.8053
 5163SOL    HW127122   4.061   4.470   7.001  1.7058  1.0009  1.4751
 5163SOL    HW227123   3.921   4.523   6.988 -0.9672 -1.7343  0.9624
 5164SOL     OW27124   4.358   3.714   9.211 -0.0449 -0.1587 -0.3850
 5164SOL    HW127125   4.443   3.758   9.216  0.5631 -1.4367  0.4687
 5164SOL    HW227126   4.308   3.781   9.164 -0.2379 -0.0881 -0.0772
 5165SOL     OW27127   2.644   1.698  14.988 -0.0344  0.2893  0.2575
 5165SOL    HW127128   2.552   1.720  14.996  0.1976  1.5053 -0.4997
 5165SOL    HW227129   2.676   1.785  14.966  1.7877  0.1890  2.4929
 5166SOL     OW27130   2.443   1.381  10.398 -0.9002  0.7642  0.4942
 5166SOL    HW127131   2.439   1.392  10.303  0.4715  1.8786  0.5642
 5166SOL    HW227132   2.518   1.432  10.429 -0.4203  1.2041 -1.3869
 5167SOL     OW27133   1.168   0.945   8.000  0.3636  0.1607  0.2079
 5167SOL    HW127134   1.229   1.015   7.976  0.2342  0.3677  0.4802
 5167SOL    HW227135   1.210   0.863   7.973  3.5342  0.4595  4.1407
 5168SOL     OW27136   1.713   2.362   4.632 -0.1931 -0.2334 -0.3488
 5168SOL    HW127137   1.758   2.407   4.704  0.0546 -1.0504  0.0112
 5168SOL    HW227138   1.720   2.273   4.667 -0.8831 -0.7688 -1.5863
 5169SOL     OW27139   1.875   1.979  15.256 -0.5669  0.0974  0.1851
 5169SOL    HW127140   1.827   2.044  15.205 -0.3052  0.6708  0.6772
 5169SOL    HW227141   1.966   2.008  15.252 -1.1114  2.2195  2.8916
 5170SOL     OW27142   0.139   0.955   6.628  0.1997  0.3678 -0.0453
 5170SOL    HW127143   0.063   0.898   6.613  0.3450 -0.6685  3.2835
 5170SOL    HW227144   0.086   1.030   6.654  0.6107  0.3960  0.7015
 5171SOL     OW27145   1.339   3.273   6.303 -0.4119 -0.1588 -0.1569
 5171SOL    HW127146   1.374   3.199   6.353  0.1300 -1.3456 -2.2854
 5171SOL    HW227147   1.420   3.300   6.259 -0.7170 -0.9759 -1.2149
 5172SOL     OW27148   4.039   2.489  10.762 -0.0924 -0.6543  0.4873
 5172SOL    HW127149   4.077   2.484  10.674 -0.4008 -1.6874  0.4229
 5172SOL    HW227150   4.042   2.397  10.785  2.7944 -1.4592 -3.1107
 5173SOL     OW27151   0.840   2.665  10.137 -0.1908  0.4150  0.6755
 5173SOL    HW127152   0.851   2.586  10.190 -0.2847  0.6882  1.0942
 5173SOL    HW227153   0.766   2.642  10.081  0.3938 -0.8898  0.4324
 5174SOL     OW27154   0.348   0.596   6.612 -0.1407  0.0464  0.0880
 5174SOL    HW127155   0.278   0.545   6.652 -1.4680  0.7021 -1.4299
 5174SOL    HW227156   0.346   0.671   6.671  0.7675 -0.5355  0.8554
 5175SOL     OW27157   1.441   4.724   4.575 -0.5997  0.4809  0.1965
 5175SOL    HW127158   1.456   0.076   4.583 -1.7495  0.4898  2.3709
 5175SOL    HW227159   1.490   4.706   4.495  3.5841 -0.6532  3.0536
 5176SOL     OW27160   4.342   3.420  15.805 -0.5905 -0.1051  0.0005
 5176SOL    HW127161   4.404   3.399  15.735 -0.4206 -1.0990  0.4592
 5176SOL    HW227162   4.259   3.399  15.761 -1.1359 -2.1438  2.0329
 5177SOL     OW27163   2.837   3.259   3.132  0.8521  0.2164 -0.4213
 5177SOL    HW127164   2.838   3.263   3.227  1.1749  0.4741 -0.4377
 5177SOL    HW227165   2.919   3.217   3.105  1.0027 -1.3161  2.4849
 5178SOL     OW27166   2.387   2.272   2.526 -0.5415 -0.0445 -0.5127
 5178SOL    HW127167   2.396   2.256   2.620 -0.9001  1.9151 -0.1372
 5178SOL    HW227168   2.438   2.197   2.496  1.9699  0.8553  1.4362
 5179SOL     OW27169   2.229   2.191   4.727 -0.5157 -0.3106 -0.0673
 5179SOL    HW127170   2.219   2.129   4.655 -0.2928 -1.4405  0.8771
 5179SOL    HW227171   2.183   2.273   4.706 -1.0756  0.5298  4.3828
 5180SOL     OW27172   1.943   3.614   5.122  0.1738  0.7740 -0.6892
 5180SOL    HW127173   1.955   3.706   5.099  0.5474  1.5363  2.5110
 5180SOL    HW227174   1.856   3.623   5.160  0.7243  2.0685  0.2385
 5181SOL     OW27175   2.994   3.775   2.126 -0.2200 -0.0081 -0.1842
 5181SOL    HW127176   2.921   3.835   2.112 -0.3317 -0.1726 -0.3026
 5181SOL    HW227177   2.994   3.734   2.039  1.0715 -0.9054  0.2406
 5182SOL     OW27178   1.329   2.330   5.373 -0.4334 -0.0620 -0.9271
 5182SOL    HW127179   1.297   2.240   5.384  1.3737 -0.6488 -0.6006
 5182SOL    HW227180   1.360   2.354   5.460 -0.6706 -3.5173  0.0962
 5183SOL     OW27181   4.007   1.265   8.694  0.3651 -0.0488  0.1857
 5183SOL    HW127182   3.974   1.177   8.713  0.5849  0.0989  1.2584
 5183SOL    HW227183   4.091   1.257   8.740 -0.0940 -0.8511  0.9000
 5184SOL     OW27184   2.999   1.069   1.435  0.8395 -0.0032  0.8596
 5184SOL    HW127185   2.999   1.163   1.452  1.8102  0.3174 -0.9595
 5184SOL    HW227186   2.903   1.059   1.437  0.9479 -0.9547  1.2168
 5185SOL     OW27187   1.227   1.141  14.329  0.4143  0.4809 -0.2328
 5185SOL    HW127188   1.278   1.092  14.265 -0.0901  1.4847 -1.4156
 5185SOL    HW227189   1.257   1.110  14.414 -0.3678  0.4946  0.0481
 5186SOL     OW27190   1.530   4.032   8.287 -0.1950 -0.5844 -0.2232
 5186SOL    HW127191   1.497   4.107   8.336  2.9659  1.5203 -1.3331
 5186SOL    HW227192   1.625   4.035   8.297 -0.3223 -1.0722  1.0600
 5187SOL     OW27193   2.163   2.045   8.983  0.6412  0.9191 -0.6777
 5187SOL    HW127194   2.221   2.111   8.946  2.3196  0.9015  1.8473
 5187SOL    HW227195   2.219   2.001   9.048  0.0701  0.6783 -0.3520
 5188SOL     OW27196   1.699   2.019  13.517  0.1284  0.6572 -0.1659
 5188SOL    HW127197   1.774   2.019  13.457  3.3309  1.8410  3.8712
 5188SOL    HW227198   1.623   2.005  13.459  0.8404 -1.6097 -0.5312
 5189SOL     OW27199   2.397   4.104   0.180 -0.0474 -0.1174  0.0204
 5189SOL    HW127200   2.310   4.067   0.195 -0.4186  1.4697  1.8266
 5189SOL    HW227201   2.390   4.183   0.233 -1.0690  0.1087 -0.4451
 5190SOL     OW27202   1.845   0.117   0.699  0.4298 -0.1357 -0.4659
 5190SOL    HW127203   1.779   0.160   0.644 -0.6904 -0.1652  0.8412
 5190SOL    HW227204   1.920   0.173   0.683  0.4349  0.1351  0.5279
 5191SOL     OW27205   2.287   0.499   1.222 -0.0755 -0.1423  0.0839
 5191SOL    HW127206   2.267   0.406   1.209 -1.0938 -0.2004  1.9949
 5191SOL    HW227207   2.285   0.534   1.133 -0.7018 -0.5313 -0.0545
 5192SOL     OW27208   4.538   4.293   1.095 -0.9107  0.3446 -0.0980
 5192SOL    HW127209   4.503   4.205   1.110 -1.5770  0.5805 -0.3102
 5192SOL    HW227210   4.463   4.350   1.108  0.6097  2.3729 -0.1655
 5193SOL     OW27211   2.903   2.280   6.116 -0.3978  0.6712 -0.5108
 5193SOL    HW127212   2.848   2.287   6.194  0.8313 -1.2318  0.5368
 5193SOL    HW227213   2.942   2.367   6.114 -0.8013  0.9019  1.6187
 5194SOL     OW27214   2.210   2.712   8.448 -0.4168 -0.3603  0.3747
 5194SOL    HW127215   2.245   2.694   8.536 -1.9052 -0.7561  0.8910
 5194SOL    HW227216   2.275   2.679   8.386 -1.5215 -4.6168  1.5085
 5195SOL     OW27217   3.330   2.976   7.289  0.3020 -0.2817  0.2601
 5195SOL    HW127218   3.243   2.946   7.315  0.6799 -0.4392  1.3548
 5195SOL    HW227219   3.307   3.065   7.265 -0.2261  0.3473  3.1372
 5196SOL     OW27220   2.889   2.437   2.382  0.0432 -0.2674  0.2921
 5196SOL    HW127221   2.962   2.380   2.402  1.7504  2.1141  0.7903
 5196SOL    HW227222   2.927   2.525   2.393 -0.4516  0.1067 -1.0145
 5197SOL     OW27223   3.546   0.576   4.765 -0.2189  0.0247  0.7804
 5197SOL    HW127224   3.479   0.642   4.748  0.7059  0.6081 -0.5677
 5197SOL    HW227225   3.522   0.555   4.856 -0.8839  0.9204  0.8155
 5198SOL     OW27226   1.617   3.436   1.402  0.2426  0.1257  0.0056
 5198SOL    HW127227   1.693   3.394   1.363  0.3620  0.9810 -0.6888
 5198SOL    HW227228   1.603   3.515   1.349 -0.0837  1.1739  1.6637
 5199SOL     OW27229   1.594   1.785   8.753  0.5727 -0.4247 -0.6620
 5199SOL    HW127230   1.632   1.859   8.801  0.4608 -0.2202 -0.8871
 5199SOL    HW227231   1.539   1.825   8.685  0.9786  0.0534 -0.7080
 5200SOL     OW27232   0.458   1.070   8.437 -0.6324 -0.2027  0.4748
 5200SOL    HW127233   0.404   1.083   8.515  3.2534  3.2386  2.6309
 5200SOL    HW227234   0.391   1.080   8.369 -1.4309 -1.3333  1.1052
 5201SOL     OW27235   0.268   1.855   8.857  0.3810 -0.3385  0.2913
 5201SOL    HW127236   0.310   1.859   8.771 -0.7445  0.2685 -0.2379
 5201SOL    HW227237   0.182   1.827   8.826  0.6416 -0.8473  0.0284
 5202SOL     OW27238   3.774   0.070   4.902  0.2733 -0.2970  0.1940
 5202SOL    HW127239   3.851   0.102   4.856  0.0045  1.0754  0.6731
 5202SOL    HW227240   3.816   0.011   4.964 -0.8020  0.4650  1.6497
 5203SOL     OW27241   2.305   4.630   1.258  0.8074  0.1525 -0.0178
 5203SOL    HW127242   2.348   4.577   1.191  0.6793 -0.0130  0.0311
 5203SOL    HW227243   2.366   4.704   1.261  0.7557  0.2652 -1.7242
 5204SOL     OW27244   4.483   3.573   2.831 -0.0022  0.1403  0.0050
 5204SOL    HW127245   4.511   3.637   2.765  1.0242 -1.4978 -1.1800
 5204SOL    HW227246   4.560   3.517   2.826 -1.6888 -2.2714  1.2521
 5205SOL     OW27247   0.525   1.636   4.186  0.3697  0.3770 -1.0449
 5205SOL    HW127248   0.441   1.670   4.155  0.3479  2.7545  1.6001
 5205SOL    HW227249   0.493   1.555   4.226  0.0437  2.2207  2.4482
 5206SOL     OW27250   1.750   3.668  12.354 -0.2510  0.1625 -0.7338
 5206SOL    HW127251   1.782   3.671  12.445  2.5542  0.8071 -1.7302
 5206SOL    HW227252   1.658   3.644  12.366 -0.4683  1.2317 -0.2490
 5207SOL     OW27253   1.003   1.231   1.468  0.1853  0.4261  0.0672
 5207SOL    HW127254   0.994   1.245   1.563 -2.1749  1.1232 -0.2565
 5207SOL    HW227255   1.077   1.171   1.475  0.0005 -0.0099 -1.8188
 5208SOL     OW27256   2.246   0.772   7.210  0.3510 -0.0561 -0.3617
 5208SOL    HW127257   2.212   0.749   7.296 -1.1216  0.8039 -0.7158
 5208SOL    HW227258   2.284   0.859   7.227  0.1952 -0.3118  1.2763
 5209SOL     OW27259   2.468   3.126  10.290 -0.5255  0.5683  0.1221
 5209SOL    HW127260   2.450   3.108  10.382  0.8803 -1.2161  0.0296
 5209SOL    HW227261   2.494   3.218  10.289  1.7638 -0.0846  1.8042
 5210SOL     OW27262   3.566   3.045  17.103 -0.1962  0.2469  0.1538
 5210SOL    HW127263   3.502   3.101  17.059 -2.2544  0.2538  3.1386
 5210SOL    HW227264   3.603   3.008  17.023  0.4455  0.6343  0.2663
 5211SOL     OW27265   2.045   4.329   7.562 -0.5152 -0.2737 -0.3690
 5211SOL    HW127266   2.081   4.384   7.491 -0.4575  0.8490  0.5281
 5211SOL    HW227267   2.090   4.245   7.560 -0.4133 -0.2892  2.7273
 5212SOL     OW27268   1.997   2.434   8.386 -0.0201 -0.7214  0.3307
 5212SOL    HW127269   1.914   2.419   8.431 -0.8354  0.0880 -0.8842
 5212SOL    HW227270   1.984   2.528   8.370  0.8706 -0.3061  2.0379
 5213SOL     OW27271   2.958   2.698   3.826 -0.6351 -0.1754  0.0781
 5213SOL    HW127272   2.920   2.641   3.893  0.9019 -0.3850  0.7729
 5213SOL    HW227273   2.879   2.724   3.779 -2.4440 -1.0617  2.6383
 5214SOL     OW27274   1.307   1.205   3.500 -0.4422 -0.2596 -0.1950
 5214SOL    HW127275   1.325   1.171   3.588 -1.0779  0.3605  0.1720
 5214SOL    HW227276   1.325   1.133   3.439 -1.7585 -1.2035  0.5307
 5215SOL     OW27277   4.545   3.668   7.894 -0.1423  0.2850 -0.3221
 5215SOL    HW127278   4.515   3.682   7.804  0.4114  0.0542 -0.5418
 5215SOL    HW227279   4.608   3.597   7.882 -2.1993 -1.8887  1.7594
 5216SOL     OW27280   3.046   3.125   6.572 -0.2047 -0.0570  0.5111
 5216SOL    HW127281   2.956   3.132   6.540  0.4849 -0.2279 -1.4793
 5216SOL    HW227282   3.065   3.204   6.622  2.6677  0.6189 -1.6694
 5217SOL     OW27283   3.160   1.547   6.966  0.3228  0.2021  0.4504
 5217SOL    HW127284   3.173   1.592   7.050  0.8042  0.6808  0.1234
 5217SOL    HW227285   3.067   1.559   6.947  0.8015  1.3392 -1.1177
 5218SOL     OW27286   3.595   3.208   4.537 -0.3714  0.4219 -0.7248
 5218SOL    HW127287   3.548   3.290   4.547  1.6144  1.6719 -1.6584
 5218SOL    HW227288   3.637   3.200   4.622 -0.5013  1.4104 -0.5769
 5219SOL     OW27289   3.985   1.599   4.668  0.1821 -0.6652 -0.2380
 5219SOL    HW127290   3.935   1.594   4.586 -1.9921 -0.3097  1.0647
 5219SOL    HW227291   3.918   1.570   4.730  0.0247  2.0034  0.8310
 5220SOL     OW27292   1.364   3.714   4.436 -0.1361 -0.0098  0.1707
 5220SOL    HW127293   1.355   3.687   4.345 -0.8079 -0.4242  0.3595
 5220SOL    HW227294   1.276   3.746   4.450  0.5701  1.4687  1.2200
 5221SOL     OW27295   3.307   2.336   2.135 -0.0034 -0.0720  0.3509
 5221SOL    HW127296   3.220   2.332   2.095  0.9492 -0.4076 -1.7099
 5221SOL    HW227297   3.294   2.268   2.200 -3.9124  0.0377 -0.3167
 5222SOL     OW27298   2.908   0.249   6.841  0.3924 -0.1677 -0.1452
 5222SOL    HW127299   2.978   0.308   6.870 -0.2695  0.0045  1.1318
 5222SOL    HW227300   2.910   0.247   6.746 -0.4950 -0.2245 -0.1591
 5223SOL     OW27301   1.713   1.244   9.180 -0.0393  0.5909 -0.4414
 5223SOL    HW127302   1.627   1.283   9.195 -0.0101  0.5672 -0.2067
 5223SOL    HW227303   1.693   1.151   9.172  1.7396  0.2263 -0.6566
 5224SOL     OW27304   4.127   0.432   7.705  0.2345  0.5360  0.1616
 5224SOL    HW127305   4.195   0.475   7.653 -2.8278  2.3734 -2.3046
 5224SOL    HW227306   4.158   0.434   7.796 -0.5871  2.4876  0.3941
 5225SOL     OW27307   1.341   1.309   9.438 -0.3515  0.1527 -0.7093
 5225SOL    HW127308   1.274   1.264   9.489  0.0442 -2.1980 -2.2702
 5225SOL    HW227309   1.337   1.265   9.353  0.9178 -1.3459 -0.0009
 5226SOL     OW27310   1.588   3.290   8.542  0.1768  0.7727 -0.5221
 5226SOL    HW127311   1.517   3.332   8.590 -0.3656 -0.0200 -0.6297
 5226SOL    HW227312   1.669   3.332   8.571  1.1788 -1.1414 -0.5332
 5227SOL     OW27313   2.778   1.330   7.415  0.2151  1.1198 -0.6091
 5227SOL    HW127314   2.862   1.365   7.384  0.2282  1.1355 -0.5551
 5227SOL    HW227315   2.710   1.391   7.384 -1.2256 -0.2714 -0.1879
 5228SOL     OW27316   3.917   2.389   2.607 -0.0521 -0.1204  0.1709
 5228SOL    HW127317   3.937   2.441   2.684 -4.9363 -0.6752  1.7878
 5228SOL    HW227318   3.988   2.425   2.554 -0.3530 -1.1988 -0.9669
 5229SOL     OW27319   1.682   2.782   9.506  0.2335  0.3134 -0.1206
 5229SOL    HW127320   1.642   2.776   9.592  0.0134 -0.1420 -0.2572
 5229SOL    HW227321   1.601   2.788   9.457  0.6962  0.8249 -0.8220
 5230SOL     OW27322   3.654   1.556  15.145  0.0693 -0.4921 -0.1649
 5230SOL    HW127323   3.683   1.516  15.226  1.3667 -0.2754 -0.5184
 5230SOL    HW227324   3.640   1.481  15.087  0.8076 -0.2405 -0.6637
 5231SOL     OW27325   4.273   0.970   6.859  0.3004 -0.3346 -0.2778
 5231SOL    HW127326   4.178   0.982   6.863  0.5065  1.8065 -1.9433
 5231SOL    HW227327   4.277   0.877   6.881 -0.2825 -0.6121 -1.3607
 5232SOL     OW27328   1.975   0.260  14.928  0.3763 -0.0566  0.8337
 5232SOL    HW127329   1.962   0.335  14.870 -0.4634 -2.1210 -1.6944
 5232SOL    HW227330   2.008   0.204  14.857 -1.8458 -0.5975  0.2231
 5233SOL     OW27331   1.727   2.707   8.530 -0.3040  0.2167 -0.1910
 5233SOL    HW127332   1.773   2.728   8.448 -0.3772 -1.1318 -0.5723
 5233SOL    HW227333   1.682   2.789   8.549 -1.2482  0.2158 -2.4574
 5234SOL     OW27334   2.500   2.325   8.649 -0.2980  0.1989 -0.0532
 5234SOL    HW127335   2.537   2.251   8.601 -1.8071  1.7163 -3.5401
 5234SOL    HW227336   2.567   2.394   8.651  0.3102 -0.3583 -1.2799
 5235SOL     OW27337   3.938   3.462   5.398  0.2101 -0.2669  0.5391
 5235SOL    HW127338   3.867   3.403   5.371 -0.8236  1.4448 -0.4680
 5235SOL    HW227339   3.891   3.536   5.435 -3.7062 -1.4626 -2.0153
 5236SOL     OW27340   3.520   0.845   3.434  0.3393  0.2940  0.2615
 5236SOL    HW127341   3.613   0.833   3.457  0.0626 -2.5379 -0.0191
 5236SOL    HW227342   3.495   0.753   3.427  2.3263 -0.2527  0.1318
 5237SOL     OW27343   3.288   3.249   6.349  0.1682 -0.1544 -0.1328
 5237SOL    HW127344   3.371   3.234   6.394  1.4418 -0.8226 -2.7089
 5237SOL    HW227345   3.232   3.195   6.405 -2.0159  1.4473 -0.7702
 5238SOL     OW27346   3.515   0.137  15.235  0.5292  0.1291 -0.3331
 5238SOL    HW127347   3.601   0.102  15.255  0.7683  1.5978  1.1816
 5238SOL    HW227348   3.458   0.095  15.299 -2.5131  1.8608 -1.8819
 5239SOL     OW27349   0.094   4.645   8.652 -0.7895  0.0575 -0.1581
 5239SOL    HW127350   0.049   4.564   8.628 -2.8457  1.6994 -1.8644
 5239SOL    HW227351   0.026   4.705   8.684  0.3105  1.1919  0.0515
 5240SOL     OW27352   3.785   0.522   3.974  0.3118  0.2601  0.0823
 5240SOL    HW127353   3.832   0.501   4.055 -0.4489 -1.5947  0.0267
 5240SOL    HW227354   3.753   0.436   3.949 -0.3829  0.8405 -1.0086
 5241SOL     OW27355   1.237   0.034  14.875 -0.4514 -0.1451 -0.2661
 5241SOL    HW127356   1.324   0.070  14.858 -1.1840  1.8417  0.2122
 5241SOL    HW227357   1.272   4.687  14.876  0.2253  0.1173 -0.5026
 5242SOL     OW27358   0.274   1.319   9.037  0.0284 -0.1591 -0.0162
 5242SOL    HW127359   0.329   1.289   8.965 -0.2110  0.5272 -0.4854
 5242SOL    HW227360   0.243   1.407   9.016  1.8682  0.5933  0.4291
 5243SOL     OW27361   2.483   1.490   7.576  0.1644  0.0317  0.4471
 5243SOL    HW127362   2.424   1.425   7.537 -1.2802  1.6969 -0.1668
 5243SOL    HW227363   2.528   1.443   7.646  1.3593  2.4470  1.2884
 5244SOL     OW27364   0.106   0.158   1.283  0.0279 -0.4224  0.1200
 5244SOL    HW127365   0.093   0.187   1.373  2.6538 -0.5755  0.5397
 5244SOL    HW227366   0.156   0.078   1.298  0.7214 -0.4378 -2.2245
 5245SOL     OW27367   2.014   2.548   9.528 -0.2185 -0.0838 -0.4521
 5245SOL    HW127368   2.109   2.544   9.521 -0.1169 -0.4616  1.2720
 5245SOL    HW227369   2.004   2.643   9.530  0.7373  0.0181 -0.8720
 5246SOL     OW27370   0.040   1.794   3.410  0.0153 -0.5787  1.1693
 5246SOL    HW127371   0.110   1.807   3.345 -1.7552  3.5573  0.0481
 5246SOL    HW227372   0.037   1.875   3.461 -0.6998  0.9298 -1.2159
 5247SOL     OW27373   0.777   2.231   3.640  0.3590  0.5795  0.0481
 5247SOL    HW127374   0.833   2.307   3.655  0.6184  0.4700 -0.3638
 5247SOL    HW227375   0.800   2.182   3.719  2.0761  2.6756  0.8579
 5248SOL     OW27376   0.151   0.835   3.818  0.1730  0.2693 -0.1268
 5248SOL    HW127377   0.177   0.752   3.858 -3.3111 -0.7307  0.0745
 5248SOL    HW227378   0.056   0.830   3.827  0.1258 -1.3097 -1.4868
 5249SOL     OW27379   4.014   4.740  11.676 -0.2028 -0.0817  0.2190
 5249SOL    HW127380   3.944   0.050  11.716 -0.6549 -1.3460  1.1027
 5249SOL    HW227381   3.998   0.012  11.583  1.5824  2.5046  0.3184
 5250SOL     OW27382   1.262   0.037  13.851 -0.4521  0.1341  0.4359
 5250SOL    HW127383   1.333   0.054  13.790 -0.4115  0.5796  0.6038
 5250SOL    HW227384   1.294   4.712  13.912  1.6809 -0.0587 -0.9190
 5251SOL     OW27385   3.900   0.146   7.289  0.0276 -0.1916 -0.5694
 5251SOL    HW127386   3.828   0.135   7.226 -1.6098 -0.3239  1.3033
 5251SOL    HW227387   3.961   0.074   7.273  1.2896  1.1943 -1.9479
 5252SOL     OW27388   1.415   3.186   7.343 -0.2124 -0.8916  0.3385
 5252SOL    HW127389   1.347   3.253   7.346  1.0949  0.3821  1.4118
 5252SOL    HW227390   1.373   3.101   7.330 -0.5572 -0.5845 -0.5889
 5253SOL     OW27391   4.640   1.493   6.544 -0.0665 -0.0462 -0.2526
 5253SOL    HW127392   4.600   1.510   6.630  1.7312 -0.2717  0.6269
 5253SOL    HW227393   4.732   1.484   6.567 -0.4219 -2.3309  0.3152
 5254SOL     OW27394   2.386   4.615  11.408 -0.4381  0.8860  0.0178
 5254SOL    HW127395   2.335   4.542  11.371  0.3928  0.2888  0.0663
 5254SOL    HW227396   2.419   4.656  11.328  1.8022  1.1149  1.0832
 5255SOL     OW27397   2.641   0.997   9.093 -0.1851  0.6424  0.0796
 5255SOL    HW127398   2.662   1.043   9.175 -4.3786  0.8994  1.0088
 5255SOL    HW227399   2.548   0.989   9.116  0.0002  2.7136  1.6641
 5256SOL     OW27400   0.927   2.012   7.927  0.2041 -0.2999  0.2263
 5256SOL    HW127401   0.849   2.033   7.875  2.2499  1.9208 -1.9801
 5256SOL    HW227402   0.899   1.983   8.013 -1.0645 -2.6933 -0.9901
 5257SOL     OW27403   3.389   3.650   3.689 -0.5233 -0.3818 -0.3298
 5257SOL    HW127404   3.364   3.721   3.749 -0.2735  0.5421 -1.3144
 5257SOL    HW227405   3.362   3.572   3.737  0.7795  0.3272  1.5651
 5258SOL     OW27406   2.483   3.917   1.774 -0.4750  0.0122 -0.5132
 5258SOL    HW127407   2.480   4.006   1.738 -2.2844  0.6691  1.2685
 5258SOL    HW227408   2.398   3.919   1.819 -0.3845  2.2678 -0.4241
 5259SOL     OW27409   2.213   4.513   3.334 -0.1309 -0.3197  0.0248
 5259SOL    HW127410   2.141   4.527   3.272 -0.1700 -0.5369  0.0227
 5259SOL    HW227411   2.270   4.466   3.274 -0.8033  1.2036 -1.8278
 5260SOL     OW27412   3.755   1.354   8.407  0.1589 -0.0636  0.0504
 5260SOL    HW127413   3.799   1.413   8.345 -1.2873 -0.1086 -1.0033
 5260SOL    HW227414   3.760   1.406   8.487 -1.6678 -0.0751  0.1677
 5261SOL     OW27415   0.075   0.024   2.257 -0.7195  0.0214  0.3577
 5261SOL    HW127416   0.040   4.682   2.228  0.4909  0.2313 -1.6908
 5261SOL    HW227417   0.050   0.075   2.180  1.6599 -0.5240 -0.7566
 5262SOL     OW27418   0.693   3.158   4.879  0.0258 -0.0475 -0.6973
 5262SOL    HW127419   0.724   3.106   4.953 -0.0047 -0.3971 -0.9326
 5262SOL    HW227420   0.618   3.193   4.926 -0.0910 -0.5310 -0.5277
 5263SOL     OW27421   4.229   0.481   3.492 -0.0706  0.5666  0.0041
 5263SOL    HW127422   4.255   0.417   3.425 -1.0678  1.0817 -0.8628
 5263SOL    HW227423   4.185   0.418   3.549 -1.7877  0.8251 -1.0381
 5264SOL     OW27424   0.164   2.281   1.047 -0.3737 -0.2693  0.1736
 5264SOL    HW127425   0.180   2.205   1.103 -1.6777 -0.6972 -0.0440
 5264SOL    HW227426   0.081   2.302   1.090 -1.8001  0.5646 -2.9670
 5265SOL     OW27427   3.157   0.343   1.303  0.8206  0.0948 -0.2159
 5265SOL    HW127428   3.093   0.414   1.306  0.7339 -0.0300  0.7470
 5265SOL    HW227429   3.186   0.357   1.393  1.9050 -1.1840 -0.3687
 5266SOL     OW27430   3.066   2.997  13.335  0.6095  0.3624  0.0884
 5266SOL    HW127431   2.990   2.954  13.374  2.4062 -1.3587  1.7071
 5266SOL    HW227432   3.045   3.088  13.354 -0.8593  0.0589 -0.0854
 5267SOL     OW27433   0.758   4.722   2.764  0.1567 -0.3387  0.3373
 5267SOL    HW127434   0.837   4.694   2.719  0.6385  0.7265  0.5281
 5267SOL    HW227435   0.787   0.062   2.803  1.6559 -0.7925  0.1503
 5268SOL     OW27436   0.542   0.382   2.950 -0.3751 -0.6169  0.5405
 5268SOL    HW127437   0.539   0.443   2.876 -0.1306 -0.6029  0.5422
 5268SOL    HW227438   0.486   0.312   2.915  0.6934 -0.1660 -2.0451
 5269SOL     OW27439   1.049   3.021   8.439 -0.2884 -0.6484  0.2414
 5269SOL    HW127440   1.044   2.979   8.525 -0.2337  3.0601  2.0429
 5269SOL    HW227441   1.141   3.048   8.449 -0.6458  0.1576  1.4134
 5270SOL     OW27442   2.415   4.194  12.508  0.4121 -0.2748  0.1999
 5270SOL    HW127443   2.510   4.192  12.494  0.2020 -0.8665 -1.2294
 5270SOL    HW227444   2.411   4.269  12.567  0.9740  0.6278 -0.9074
 5271SOL     OW27445   0.615   4.546   5.492  0.1821  0.2197 -0.5592
 5271SOL    HW127446   0.696   4.551   5.440  0.4113  0.8607 -0.1526
 5271SOL    HW227447   0.561   4.620   5.466 -0.4312 -0.9981 -2.7079
 5272SOL     OW27448   3.028   2.795   8.821 -0.4123 -0.7016 -0.1194
 5272SOL    HW127449   2.971   2.854   8.871  0.4467 -1.3446  1.6312
 5272SOL    HW227450   3.002   2.798   8.729  0.5079 -2.8668 -0.4502
 5273SOL     OW27451   3.765   1.135   2.457  0.4989  0.0729 -0.2186
 5273SOL    HW127452   3.816   1.215   2.443 -3.2490  2.3308 -0.9665
 5273SOL    HW227453   3.820   1.086   2.518  0.7451 -0.3207 -0.7561
 5274SOL     OW27454   0.395   2.081  14.344  0.5629 -0.1499 -0.6621
 5274SOL    HW127455   0.304   2.103  14.325  0.9213  1.0471 -1.0369
 5274SOL    HW227456   0.401   1.987  14.327  0.5073  0.1481 -2.3495
 5275SOL     OW27457   1.084   2.210   5.969  0.3108  0.6207 -0.7619
 5275SOL    HW127458   1.092   2.263   5.890 -0.1960  1.7094 -0.0877
 5275SOL    HW227459   1.088   2.279   6.036  1.9623 -1.2648  1.0688
 5276SOL     OW27460   1.257   3.512   4.844 -0.4618 -0.0361 -0.0736
 5276SOL    HW127461   1.238   3.597   4.804  2.7345  1.1034  0.7733
 5276SOL    HW227462   1.346   3.505   4.808  0.6314 -2.4511  3.1600
 5277SOL     OW27463   1.196   3.243   2.519 -0.3764 -0.4862  0.1087
 5277SOL    HW127464   1.158   3.157   2.504 -0.7270 -0.2479 -0.3972
 5277SOL    HW227465   1.179   3.257   2.612  0.2924  1.0591  0.0065
 5278SOL     OW27466   2.718   1.127  16.730 -0.0362 -0.1711 -0.0647
 5278SOL    HW127467   2.716   1.223  16.730 -0.0806 -0.1804 -1.1828
 5278SOL    HW227468   2.685   1.102  16.817 -1.0834  1.4263  0.0070
 5279SOL     OW27469   0.446   3.671   8.152  0.2035 -0.0068 -0.1153
 5279SOL    HW127470   0.396   3.618   8.091  1.2646  0.2075 -1.1740
 5279SOL    HW227471   0.509   3.606   8.184 -2.1209 -2.6452 -0.9704
 5280SOL     OW27472   2.061   0.066   4.784  0.3938 -0.5801 -0.2692
 5280SOL    HW127473   2.061   0.131   4.855 -1.9999  0.4874 -1.2469
 5280SOL    HW227474   2.131   0.094   4.726  0.9492 -1.6607 -0.1319
 5281SOL     OW27475   2.722   2.757   3.744  0.0920 -0.0471  0.0143
 5281SOL    HW127476   2.692   2.839   3.782  0.6909 -0.5651  1.5991
 5281SOL    HW227477   2.643   2.732   3.696 -1.6769  0.3078  2.7962
 5282SOL     OW27478   1.241   4.157  14.250 -0.1125  0.1007  0.2836
 5282SOL    HW127479   1.248   4.118  14.163 -1.1873  2.4268 -0.8206
 5282SOL    HW227480   1.298   4.233  14.252 -2.0003  1.4990  0.3165
 5283SOL     OW27481   2.749   4.387  12.283 -0.2346  0.2372  0.5357
 5283SOL    HW127482   2.815   4.454  12.267  2.0042 -1.6366  1.9078
 5283SOL    HW227483   2.734   4.360  12.192 -0.0950 -0.8644  0.8393
 5284SOL     OW27484   0.606   2.463   8.483  0.2256 -0.2559  0.0564
 5284SOL    HW127485   0.686   2.411   8.486  0.4980  0.1874  0.3606
 5284SOL    HW227486   0.619   2.525   8.554 -0.9140 -0.7722  0.7223
 5285SOL     OW27487   4.722   3.971   2.736 -0.1680 -0.3934  0.2100
 5285SOL    HW127488   4.649   4.031   2.718  1.0357  0.3798 -2.1387
 5285SOL    HW227489   0.020   4.008   2.814 -1.1768  0.8335  0.1494
 5286SOL     OW27490   0.579   1.137   7.548  0.4344  0.0237 -0.5384
 5286SOL    HW127491   0.489   1.121   7.519 -0.9634  1.5458  3.0043
 5286SOL    HW227492   0.592   1.058   7.601  1.8043 -0.0744 -1.0166
 5287SOL     OW27493   2.240   1.394  13.758  0.2675  0.1333 -0.5361
 5287SOL    HW127494   2.146   1.390  13.775  0.3870  1.4250  0.3880
 5287SOL    HW227495   2.257   1.360  13.670 -2.0047 -0.6805 -0.6488
 5288SOL     OW27496   2.553   4.595  16.683  0.0200  0.6442  0.0142
 5288SOL    HW127497   2.564   4.522  16.743  1.1307  0.8293  0.0374
 5288SOL    HW227498   2.576   4.669  16.739  3.3247 -1.3179  1.2152
 5289SOL     OW27499   4.092   1.149   7.987  0.0829 -0.0418 -0.5755
 5289SOL    HW127500   4.128   1.088   8.051 -3.7963 -1.0329  0.6229
 5289SOL    HW227501   4.008   1.116   7.956  1.1309 -2.0015 -1.3430
 5290SOL     OW27502   1.827   1.180   2.740  0.1358  0.5432  1.0510
 5290SOL    HW127503   1.744   1.219   2.715 -0.9159 -2.4257 -0.0755
 5290SOL    HW227504   1.831   1.193   2.835  3.6983  0.1211  0.9840
 5291SOL     OW27505   0.513   2.269  14.490  0.4295  0.0879 -0.4411
 5291SOL    HW127506   0.468   2.199  14.444  1.5339 -0.1512 -1.1620
 5291SOL    HW227507   0.476   2.256  14.578  2.1613  0.7649  0.3981
 5292SOL     OW27508   4.158   1.305   6.755 -0.5564  0.4035  0.2370
 5292SOL    HW127509   4.233   1.334   6.704 -0.1655 -0.1330  0.5129
 5292SOL    HW227510   4.176   1.211   6.763  3.1429  1.0019 -0.9824
 5293SOL     OW27511   0.102   2.688   4.379  0.1149 -0.5374  0.7177
 5293SOL    HW127512   0.084   2.743   4.456 -0.3625 -0.0692  0.2738
 5293SOL    HW227513   0.064   2.608   4.416 -1.7479 -1.4814 -3.2215
 5294SOL     OW27514   0.112   1.309   7.652 -0.1777  0.3358  0.4276
 5294SOL    HW127515   0.149   1.371   7.715 -2.3407  0.4890  1.5419
 5294SOL    HW227516   0.093   1.359   7.573  0.9747  0.0793 -0.0117
 5295SOL     OW27517   0.133   1.282   2.076  0.1570 -0.3171 -0.1425
 5295SOL    HW127518   0.116   1.366   2.119 -0.2637 -0.6505  0.3423
 5295SOL    HW227519   0.204   1.294   2.014  0.8734  1.3083  0.9941
 5296SOL     OW27520   2.647   3.182   7.640  0.2316 -0.2388  0.5210
 5296SOL    HW127521   2.696   3.100   7.649  0.1621 -0.3469 -0.0604
 5296SOL    HW227522   2.613   3.180   7.551 -0.4986 -1.2472  0.8147
 5297SOL     OW27523   1.490   3.534  12.980  0.3438  0.0512 -0.4324
 5297SOL    HW127524   1.557   3.562  12.918  0.1906  2.9548  0.6741
 5297SOL    HW227525   1.536   3.514  13.062  0.2043  3.0322  0.3750
 5298SOL     OW27526   4.098   1.137  12.882 -0.7934  0.0368  0.0914
 5298SOL    HW127527   4.093   1.094  12.797  0.7774 -1.1070  0.5834
 5298SOL    HW227528   4.126   1.224  12.854 -1.5854  0.2931  0.0865
 5299SOL     OW27529   2.872   4.510  17.533 -0.5447 -0.1568  0.1851
 5299SOL    HW127530   2.790   4.556  17.551 -0.0679  0.8288 -0.1747
 5299SOL    HW227531   2.854   4.420  17.560 -1.4505 -0.0649 -0.1408
 5300SOL     OW27532   0.930   4.298  16.168 -0.2783  0.2837  0.0116
 5300SOL    HW127533   0.838   4.276  16.179  0.7553 -3.0210  1.8701
 5300SOL    HW227534   0.940   4.281  16.074  0.6755 -0.1758  0.1961
 5301SOL     OW27535   3.290   4.299   3.250  0.0840 -0.2736  0.5623
 5301SOL    HW127536   3.294   4.305   3.154 -1.6261  1.9500  0.6299
 5301SOL    HW227537   3.357   4.231   3.257  0.7561  0.5015  1.5265
 5302SOL     OW27538   0.202   1.240   6.329  0.4562  0.6233  0.1469
 5302SOL    HW127539   0.184   1.234   6.422  3.0039 -1.4044  0.5196
 5302SOL    HW227540   0.116   1.249   6.288 -0.2541 -2.1713  1.0575
 5303SOL     OW27541   2.210   1.068   3.744 -0.5166 -0.7653  0.2558
 5303SOL    HW127542   2.293   1.025   3.727 -1.3702 -1.8870 -1.0145
 5303SOL    HW227543   2.143   1.007   3.714 -1.1660 -0.5795  1.3065
 5304SOL     OW27544   0.258   3.669   3.357 -0.6286 -0.6542 -0.3905
 5304SOL    HW127545   0.332   3.727   3.375 -2.1182  0.8586  0.7746
 5304SOL    HW227546   0.187   3.699   3.413 -0.7617 -1.9047  0.1192
 5305SOL     OW27547   2.756   2.703   6.878 -0.1645  0.5208 -0.2211
 5305SOL    HW127548   2.783   2.612   6.891 -0.7586  0.0221 -2.4795
 5305SOL    HW227549   2.666   2.694   6.909  0.7289 -3.4942  1.2768
 5306SOL     OW27550   3.228   2.739  17.393  0.5900 -0.0512  0.2523
 5306SOL    HW127551   3.255   2.752  17.302  1.7522 -0.0441  0.5940
 5306SOL    HW227552   3.270   2.818  17.426  0.2635  1.0569 -1.9290
 5307SOL     OW27553   2.177   0.697   7.467 -0.2603 -0.1211  0.0102
 5307SOL    HW127554   2.193   0.733   7.554  2.2090  0.4923 -0.6957
 5307SOL    HW227555   2.177   0.603   7.484  1.9970  0.0426  1.0334
 5308SOL     OW27556   4.307   0.559   2.391  0.5385 -0.0025  0.2714
 5308SOL    HW127557   4.326   0.645   2.353  0.2041 -1.3118 -2.8193
 5308SOL    HW227558   4.227   0.531   2.347  0.7852 -0.7178  0.2827
 5309SOL     OW27559   4.391   3.977   2.103 -0.4935 -0.0575  0.1628
 5309SOL    HW127560   4.462   4.029   2.141  1.3375 -1.0614 -1.8567
 5309SOL    HW227561   4.432   3.916   2.041 -1.5735 -0.7464  0.1320
 5310SOL     OW27562   1.764   2.424   6.949 -0.3496  0.2468  0.8439
 5310SOL    HW127563   1.765   2.514   6.983 -0.0718  1.5783 -2.7065
 5310SOL    HW227564   1.851   2.399   6.982 -1.0625 -1.6156  1.3280
 5311SOL     OW27565   0.707   3.641   1.812 -0.2582 -0.2106  0.3353
 5311SOL    HW127566   0.792   3.670   1.779 -0.7142 -0.3179 -0.9312
 5311SOL    HW227567   0.731   3.563   1.862  0.5317  0.5523  1.1755
 5312SOL     OW27568   2.847   2.979   8.999  0.3898  0.3110  0.0580
 5312SOL    HW127569   2.782   2.970   8.929  0.3956 -1.7689  0.3226
 5312SOL    HW227570   2.790   2.974   9.075 -0.9036 -1.0491 -1.0123
 5313SOL     OW27571   2.707   4.381   6.343 -0.6251  0.1613 -0.5839
 5313SOL    HW127572   2.748   4.459   6.381 -0.0701  0.0270 -0.9150
 5313SOL    HW227573   2.617   4.416   6.346 -0.9989 -0.7469 -1.2960
 5314SOL     OW27574   4.436   4.009   7.251  0.0414 -0.3079 -0.1994
 5314SOL    HW127575   4.388   3.927   7.264  1.9278 -1.3758  0.0401
 5314SOL    HW227576   4.517   3.975   7.288  0.2132 -1.1626 -1.3438
 5315SOL     OW27577   4.079   2.778   5.593  0.1254  0.5416  0.6161
 5315SOL    HW127578   4.139   2.847   5.563  1.8243 -0.3583  1.9496
 5315SOL    HW227579   4.110   2.772   5.683 -2.0138  4.5207  1.6601
 5316SOL     OW27580   3.979   1.347   6.340 -0.1371 -0.3705  0.3450
 5316SOL    HW127581   3.957   1.260   6.374 -1.5219 -0.7868 -1.5968
 5316SOL    HW227582   4.034   1.334   6.262 -1.4190  0.7397 -0.7291
 5317SOL     OW27583   4.470   2.992  14.280 -0.3978  0.6272  0.1979
 5317SOL    HW127584   4.534   2.950  14.338  0.7784 -0.3468 -1.8063
 5317SOL    HW227585   4.400   3.019  14.338  0.8253  1.4373  1.2982
 5318SOL     OW27586   2.441   2.057   5.877 -0.5452 -0.3395  0.0123
 5318SOL    HW127587   2.508   2.061   5.945 -0.5903  1.3470 -0.0193
 5318SOL    HW227588   2.459   2.142   5.837 -0.8588  0.5859  1.8430
 5319SOL     OW27589   4.252   2.037   6.052  0.4800  0.7244 -0.4099
 5319SOL    HW127590   4.240   2.096   6.126  0.7072 -1.1128  1.0592
 5319SOL    HW227591   4.321   2.081   6.001  0.8599  0.8481  0.2140
 5320SOL     OW27592   3.984   0.305  10.691 -0.3073 -0.1650 -0.1780
 5320SOL    HW127593   3.946   0.380  10.737 -0.6129 -0.5175  0.1481
 5320SOL    HW227594   4.027   0.331  10.609 -1.2837  1.0231 -0.3199
 5321SOL     OW27595   2.187   0.301   3.283  0.7661  0.1726  0.1162
 5321SOL    HW127596   2.108   0.344   3.316  0.1768 -0.9461  0.1752
 5321SOL    HW227597   2.241   0.306   3.362  1.0507  0.1574 -0.0774
 5322SOL     OW27598   2.044   0.321  14.551 -0.3867 -0.2721 -0.1039
 5322SOL    HW127599   2.090   0.263  14.611  1.0745  1.3349  0.3209
 5322SOL    HW227600   2.116   0.376  14.519 -1.3033  0.1541 -1.4712
 5323SOL     OW27601   2.253   3.192  17.539  0.7162 -0.5587 -0.0192
 5323SOL    HW127602   2.241   3.267  17.481  1.0100  0.3554  1.1304
 5323SOL    HW227603   2.181   3.131  17.520 -0.0909 -0.1397  1.7470
 5324SOL     OW27604   2.135   4.028   0.256 -0.0864 -0.2644  0.0344
 5324SOL    HW127605   2.122   3.953   0.199 -0.0467 -0.7204  0.6322
 5324SOL    HW227606   2.096   4.003   0.340 -0.2746 -0.4176 -0.0995
 5325SOL     OW27607   0.088   1.655   4.462 -0.1094 -0.2430 -0.4361
 5325SOL    HW127608   0.113   1.609   4.382  0.6149  0.0007 -0.3512
 5325SOL    HW227609   0.128   1.593   4.523 -1.2594  0.4023  1.0030
 5326SOL     OW27610   3.394   1.283   1.473 -0.4399  0.0312 -0.0979
 5326SOL    HW127611   3.392   1.257   1.381  1.9068 -0.0379 -0.1374
 5326SOL    HW227612   3.433   1.201   1.502 -2.0427 -2.2016 -4.2928
 5327SOL     OW27613   0.382   3.361   4.266  0.8590 -0.4379  0.0991
 5327SOL    HW127614   0.315   3.393   4.327  1.3779 -1.8500  1.4029
 5327SOL    HW227615   0.323   3.376   4.191 -0.1012  2.4535  1.4079
 5328SOL     OW27616   0.924   4.119   5.284 -0.3623 -0.1703 -0.2267
 5328SOL    HW127617   0.868   4.094   5.357 -0.6011 -2.1888 -1.1019
 5328SOL    HW227618   0.873   4.189   5.245  0.1912  0.5481  0.3470
 5329SOL     OW27619   3.123   0.906   5.507 -0.0216 -0.4307  0.2722
 5329SOL    HW127620   3.145   0.991   5.469 -0.1250  0.4027  2.0913
 5329SOL    HW227621   3.035   0.919   5.544 -1.1151 -1.8104 -1.8705
 5330SOL     OW27622   1.165   1.746   6.946 -0.2181 -0.9298  0.0796
 5330SOL    HW127623   1.254   1.716   6.925  1.1202  0.5538  3.5881
 5330SOL    HW227624   1.129   1.780   6.864 -1.3387 -0.0786  0.9172
 5331SOL     OW27625   1.636   1.514  16.872  0.2625 -0.1969  0.3965
 5331SOL    HW127626   1.665   1.605  16.867  1.7442 -0.6750  0.3940
 5331SOL    HW227627   1.724   1.476  16.872  0.2497 -0.2290 -0.6407
 5332SOL     OW27628   3.941   4.513   8.701  0.0222 -0.6529 -0.0181
 5332SOL    HW127629   3.941   4.515   8.797  1.9260 -0.6216 -0.0137
 5332SOL    HW227630   3.890   4.435   8.678  0.4910 -1.8782  3.0735
 5333SOL     OW27631   4.041   4.340   5.488 -0.2360 -0.3432 -0.0117
 5333SOL    HW127632   4.047   4.374   5.578  2.4092  2.1978 -1.1541
 5333SOL    HW227633   4.075   4.252   5.506  0.7352  0.3612  1.6472
 5334SOL     OW27634   1.503   0.081   5.080  0.4111  0.4684 -0.2762
 5334SOL    HW127635   1.415   0.047   5.063  1.0422 -0.4986 -1.5665
 5334SOL    HW227636   1.489   0.124   5.164 -0.5378 -2.7085  1.1765
 5335SOL     OW27637   2.571   1.995  14.901 -0.4136  0.8031  0.1067
 5335SOL    HW127638   2.563   2.060  14.971  1.5532 -0.5116  1.5278
 5335SOL    HW227639   2.497   2.016  14.843 -1.2299 -0.6870  0.6083
 5336SOL     OW27640   3.991   2.540   8.902 -0.4498 -0.1212  0.1729
 5336SOL    HW127641   4.019   2.510   8.988  1.2266 -0.5185 -0.5108
 5336SOL    HW227642   3.896   2.525   8.894 -0.7617  2.6134 -1.3276
 5337SOL     OW27643   0.418   1.069   4.327 -0.4755  0.2226 -0.3731
 5337SOL    HW127644   0.494   1.030   4.284 -0.3802  1.3449 -1.2384
 5337SOL    HW227645   0.448   1.057   4.417  1.3537  0.6885 -0.9000
 5338SOL     OW27646   4.654   2.812  16.741 -0.6968 -0.0729 -0.2224
 5338SOL    HW127647   4.653   2.815  16.836 -1.5779 -0.4975 -0.2215
 5338SOL    HW227648   4.562   2.799  16.718 -0.8954 -0.0988  0.6072
 5339SOL     OW27649   2.395   3.454   8.016 -0.0545  0.2865 -0.5164
 5339SOL    HW127650   2.301   3.465   7.999  0.0872  0.5719 -1.1043
 5339SOL    HW227651   2.409   3.533   8.068 -1.1464  0.1652 -0.0288
 5340SOL     OW27652   0.521   4.603   3.507  0.1004 -0.0096  0.3457
 5340SOL    HW127653   0.429   4.610   3.532 -0.1367 -2.7549  0.2400
 5340SOL    HW227654   0.562   4.646   3.582 -1.1120 -2.0144  2.1666
 5341SOL     OW27655   4.182   2.080   7.147 -0.1900  0.3552  0.1664
 5341SOL    HW127656   4.218   1.993   7.169 -1.4031 -0.4061 -0.8657
 5341SOL    HW227657   4.247   2.143   7.177  0.4081 -0.3575  0.3840
 5342SOL     OW27658   2.969   2.983   2.580  0.0543 -0.5250 -0.0347
 5342SOL    HW127659   3.043   3.023   2.626 -0.8778 -0.0552  1.0353
 5342SOL    HW227660   2.950   3.051   2.516 -2.9329 -0.3002  1.1134
 5343SOL     OW27661   1.209   2.265   1.928  0.4076  0.7188 -0.3380
 5343SOL    HW127662   1.137   2.232   1.874 -0.2069  1.6375 -0.0975
 5343SOL    HW227663   1.161   2.328   1.982 -2.0813  0.7704 -2.5709
 5344SOL     OW27664   1.626   0.440   3.209  0.3452 -0.4509 -0.8832
 5344SOL    HW127665   1.623   0.434   3.304 -1.9008  3.2358 -0.7289
 5344SOL    HW227666   1.552   0.499   3.199  1.9862  1.6803 -0.6183
 5345SOL     OW27667   0.199   1.198   1.295  0.5086  0.5022  0.3826
 5345SOL    HW127668   0.108   1.202   1.265  0.0525  1.7202  1.9435
 5345SOL    HW227669   0.242   1.186   1.210  0.1672  1.6805  0.0453
 5346SOL     OW27670   1.227   2.935   7.967 -0.2789  0.1509  0.5930
 5346SOL    HW127671   1.270   2.940   8.052  0.4592  1.4348  0.1396
 5346SOL    HW227672   1.296   2.890   7.920  0.2651  1.9686 -0.3609
 5347SOL     OW27673   3.404   1.349   1.856 -0.0990 -0.0575  0.0241
 5347SOL    HW127674   3.402   1.254   1.841 -1.4257  0.0428 -0.3814
 5347SOL    HW227675   3.462   1.382   1.787  0.0715 -1.0627 -0.3225
 5348SOL     OW27676   2.557   1.569   2.296  0.2962  0.7731  0.2405
 5348SOL    HW127677   2.600   1.544   2.378  0.5980  1.3931  0.2717
 5348SOL    HW227678   2.615   1.636   2.260  0.6391  0.3779  0.0609
 5349SOL     OW27679   2.856   0.388  14.149 -0.0436  0.1222 -1.0121
 5349SOL    HW127680   2.836   0.326  14.080 -1.2424  0.4423 -0.9514
 5349SOL    HW227681   2.769   0.392  14.189  0.9809 -1.6853  1.3941
 5350SOL     OW27682   4.720   3.150  15.356 -0.2798  0.4573  0.4698
 5350SOL    HW127683   0.012   3.061  15.362 -0.1207  0.4749 -0.2006
 5350SOL    HW227684   4.648   3.154  15.294 -0.3324  0.1069  0.5110
 5351SOL     OW27685   3.034   4.268   4.938  0.2030 -0.2421  0.2562
 5351SOL    HW127686   3.097   4.281   5.008  1.0838  0.2466 -0.6298
 5351SOL    HW227687   3.042   4.355   4.899  1.7020 -1.0979 -1.3255
 5352SOL     OW27688   3.551   1.635   2.814  0.3436  0.3056 -0.7397
 5352SOL    HW127689   3.537   1.622   2.720 -0.4058  3.3570 -1.0353
 5352SOL    HW227690   3.577   1.727   2.807  0.6668 -0.0014 -3.6279
 5353SOL     OW27691   2.630   1.803   5.648  0.0079  0.0173 -0.2813
 5353SOL    HW127692   2.609   1.787   5.740 -0.0372  0.0400 -0.2878
 5353SOL    HW227693   2.640   1.898   5.640 -0.0628 -0.0220 -0.8463
 5354SOL     OW27694   0.995   3.925  17.708  0.0797  0.2278  0.0511
 5354SOL    HW127695   1.050   3.923   0.021  2.1429  0.2469 -1.4053
 5354SOL    HW227696   0.915   3.899  17.755  1.8341 -1.5347  2.0595
 5355SOL     OW27697   2.768   0.300   5.566  0.2073 -0.0132  0.4194
 5355SOL    HW127698   2.719   0.244   5.505  1.0969 -0.3991  0.0498
 5355SOL    HW227699   2.734   0.386   5.543 -1.4089 -1.3308 -2.2121
 5356SOL     OW27700   2.511   1.756   2.548  0.3274 -0.3670 -0.2381
 5356SOL    HW127701   2.456   1.697   2.600 -0.8372 -0.9046 -2.0701
 5356SOL    HW227702   2.582   1.695   2.532 -0.8546 -1.1806 -2.4267
 5357SOL     OW27703   1.338   1.875   7.924 -0.2818  0.1375  0.3465
 5357SOL    HW127704   1.291   1.911   7.848  1.7418  0.7478 -0.6024
 5357SOL    HW227705   1.424   1.868   7.882 -0.2684  0.7242  0.2754
 5358SOL     OW27706   3.715   1.507   6.198 -0.2468  0.3056 -0.3945
 5358SOL    HW127707   3.727   1.562   6.120  0.1005  0.5312 -0.1787
 5358SOL    HW227708   3.776   1.435   6.186 -1.3485 -0.9951  1.8648
 5359SOL     OW27709   2.613   2.352   6.238 -0.6911  0.3701 -0.0440
 5359SOL    HW127710   2.585   2.428   6.187 -1.0601 -0.5909 -1.2496
 5359SOL    HW227711   2.668   2.407   6.295  2.7551 -0.5928 -2.4392
 5360SOL     OW27712   4.227   1.996   5.585 -0.3030 -0.5603  0.0275
 5360SOL    HW127713   4.151   1.962   5.539 -0.7735  0.6860 -0.1065
 5360SOL    HW227714   4.219   2.090   5.567  1.3785 -0.0956  1.6558
 5361SOL     OW27715   1.193   2.221  17.687  0.2218 -0.2748 -0.2434
 5361SOL    HW127716   1.242   2.237   0.003 -0.1521  0.0632 -0.0870
 5361SOL    HW227717   1.162   2.132  17.703 -0.0717 -0.2907 -0.8923
 5362SOL     OW27718   1.141   2.755   3.177  0.1158 -0.6722  0.1058
 5362SOL    HW127719   1.213   2.734   3.118 -0.9871  0.4339 -1.6512
 5362SOL    HW227720   1.140   2.851   3.173 -0.4171 -0.6282  1.1531
 5363SOL     OW27721   1.170   2.963   9.992  0.1315  0.0452  0.2010
 5363SOL    HW127722   1.158   3.016  10.071 -2.5013  0.5746 -0.5363
 5363SOL    HW227723   1.169   2.874  10.026  1.0612  0.0814  0.3168
 5364SOL     OW27724   3.251   3.162  12.288  0.2343  0.0829 -0.1758
 5364SOL    HW127725   3.289   3.139  12.373 -0.4300 -0.5712 -0.0628
 5364SOL    HW227726   3.163   3.128  12.299 -0.5206  2.6080  1.7297
 5365SOL     OW27727   1.736   3.772   7.713 -0.3547 -0.2541 -0.1647
 5365SOL    HW127728   1.821   3.778   7.756 -0.9305  1.4833  0.7099
 5365SOL    HW227729   1.692   3.849   7.749  1.0181  0.7914 -0.7100
 5366SOL     OW27730   0.957   2.115   8.405 -0.2509  0.3118  0.0853
 5366SOL    HW127731   0.863   2.100   8.413 -0.2038 -0.2059 -0.3721
 5366SOL    HW227732   0.988   2.026   8.422 -1.8748  0.2811  2.9262
 5367SOL     OW27733   3.215   1.464   3.889  0.1623  0.7687 -0.2096
 5367SOL    HW127734   3.129   1.486   3.852 -0.1462  0.7450  0.4885
 5367SOL    HW227735   3.220   1.493   3.980 -0.4635 -0.0899  0.0921
 5368SOL     OW27736   3.426   1.430  13.407  0.1433 -0.0689 -0.3197
 5368SOL    HW127737   3.384   1.508  13.372 -0.6071  0.5338  1.9099
 5368SOL    HW227738   3.514   1.449  13.374  0.0118 -0.3573 -0.8293
 5369SOL     OW27739   1.815   4.331   1.165  0.0101  1.0010  0.2363
 5369SOL    HW127740   1.731   4.288   1.184 -0.4167  1.0475 -1.5404
 5369SOL    HW227741   1.847   4.293   1.083 -0.5272 -0.8048  0.8613
 5370SOL     OW27742   0.460   2.748   5.560  0.4152  0.3662  0.0296
 5370SOL    HW127743   0.397   2.755   5.631  1.3699  0.8791  0.8175
 5370SOL    HW227744   0.523   2.810   5.596 -1.3386  0.7546  2.4220
 5371SOL     OW27745   0.148   0.575   5.135 -0.1757 -0.0636  0.2433
 5371SOL    HW127746   0.203   0.537   5.067  3.9325  1.4102  2.6988
 5371SOL    HW227747   0.127   0.498   5.187  2.6232 -0.6306  0.5605
 5372SOL     OW27748   4.581   2.265   2.026 -0.5862  0.0731 -0.0776
 5372SOL    HW127749   4.650   2.198   2.034 -0.9930 -0.5069 -1.3829
 5372SOL    HW227750   4.623   2.327   1.966  0.2819 -0.9452 -0.5387
 5373SOL     OW27751   1.408   1.169   5.039 -0.7040 -0.3474  0.0047
 5373SOL    HW127752   1.500   1.158   5.062 -0.9768 -0.2242  1.1559
 5373SOL    HW227753   1.391   1.109   4.966 -0.2981 -1.9360  1.2178
 5374SOL     OW27754   3.529   4.392   1.707 -0.7736  0.5258 -0.0410
 5374SOL    HW127755   3.525   4.300   1.682 -0.3836  0.8645 -1.3568
 5374SOL    HW227756   3.621   4.409   1.688 -0.9571 -0.9525 -2.3112
 5375SOL     OW27757   2.244   0.881  10.083  0.3271  0.1791 -0.6058
 5375SOL    HW127758   2.292   0.917  10.157  1.3906 -0.1777 -1.1169
 5375SOL    HW227759   2.157   0.921  10.086  1.4861  2.6994 -0.1737
 5376SOL     OW27760   3.409   4.488   0.655  0.0955 -0.0469 -0.7690
 5376SOL    HW127761   3.420   4.526   0.568  0.7449 -0.4630 -0.8699
 5376SOL    HW227762   3.384   4.563   0.709  0.9896 -0.2988  0.0098
 5377SOL     OW27763   2.423   1.857   0.042 -0.4614 -0.1612  0.4593
 5377SOL    HW127764   2.340   1.808   0.036 -0.5514  0.1649 -0.8433
 5377SOL    HW227765   2.471   1.810  17.739 -0.0861  3.0724 -1.4750
 5378SOL     OW27766   3.046   2.834   0.540  0.1892 -0.2343  0.1422
 5378SOL    HW127767   2.955   2.817   0.515  0.9679 -0.9538 -2.1765
 5378SOL    HW227768   3.035   2.921   0.580  2.0960 -0.2970  0.7651
 5379SOL     OW27769   0.962   0.810  16.873 -0.5130 -0.7721 -0.2136
 5379SOL    HW127770   1.003   0.780  16.792  0.1690  0.2585 -0.2426
 5379SOL    HW227771   0.913   0.884  16.836  0.3454 -1.2225 -2.2542
 5380SOL     OW27772   4.032   3.242   2.639 -0.0740  0.5821  0.4879
 5380SOL    HW127773   3.962   3.284   2.590  1.1037  1.6062 -0.3337
 5380SOL    HW227774   4.063   3.178   2.574  1.2703  1.4932  0.2287
 5381SOL     OW27775   3.010   3.993  12.878  0.0501 -0.3692  0.1581
 5381SOL    HW127776   3.079   3.927  12.874 -0.7516 -1.2313  0.5030
 5381SOL    HW227777   3.016   4.035  12.793 -0.1756 -0.8449 -0.0924
 5382SOL     OW27778   3.127   0.594  16.419  0.2528  0.4379  0.1595
 5382SOL    HW127779   3.204   0.597  16.475  0.5206  0.2609 -0.2045
 5382SOL    HW227780   3.084   0.667  16.463  0.3534  1.2897 -1.1489
 5383SOL     OW27781   0.778   2.631   4.097 -0.3443 -0.4240 -0.2841
 5383SOL    HW127782   0.734   2.663   4.176  1.4716 -0.6398  0.8115
 5383SOL    HW227783   0.757   2.537   4.093 -1.4737 -0.2814  2.2832
 5384SOL     OW27784   2.635   1.494   8.493  0.0789 -0.7076  0.0416
 5384SOL    HW127785   2.655   1.504   8.400 -2.9323  0.2362 -0.4865
 5384SOL    HW227786   2.548   1.534   8.499  0.0341 -0.9851  1.1420
 5385SOL     OW27787   4.158   4.594  10.029  0.2391 -0.7179  0.1876
 5385SOL    HW127788   4.240   4.577   9.983  0.8620  2.2557  0.2336
 5385SOL    HW227789   4.131   4.504  10.047  1.2386 -1.2508 -0.9610
 5386SOL     OW27790   3.673   3.708   6.026 -0.5240  0.0250 -0.8667
 5386SOL    HW127791   3.617   3.673   6.095 -1.0526  1.7129 -0.4469
 5386SOL    HW227792   3.744   3.747   6.077 -1.3325  0.7465 -0.2943
 5387SOL     OW27793   4.641   0.845   6.826  0.0797 -0.1390  0.4229
 5387SOL    HW127794   4.725   0.846   6.873  2.1859  0.3035 -3.3252
 5387SOL    HW227795   4.613   0.936   6.817 -0.9929 -0.1363  3.9324
 5388SOL     OW27796   2.958   4.235   1.636  1.0998 -0.0331 -0.3366
 5388SOL    HW127797   2.939   4.280   1.718 -0.0558 -2.8075  0.9185
 5388SOL    HW227798   3.046   4.271   1.622  0.8289  0.4304 -0.7985
 5389SOL     OW27799   4.048   1.451   9.665 -0.0526 -0.1532 -0.3567
 5389SOL    HW127800   4.058   1.441   9.760  1.4129  1.7040 -0.3301
 5389SOL    HW227801   3.977   1.514   9.654 -1.9151 -2.2886 -0.7955
 5390SOL     OW27802   0.035   2.600  14.741  0.6324  0.0259 -0.1445
 5390SOL    HW127803   0.103   2.539  14.772  0.2485 -0.9523 -1.2139
 5390SOL    HW227804   0.092   2.674  14.723  0.1831  0.3727 -0.1474
 5391SOL     OW27805   1.804   4.134   6.773  0.1845  0.0825  0.7776
 5391SOL    HW127806   1.872   4.068   6.765  1.0550  1.1701 -0.8488
 5391SOL    HW227807   1.853   4.217   6.766  0.1111 -0.0655 -1.3165
 5392SOL     OW27808   1.457   3.679   2.770  0.1164 -0.2689 -0.4680
 5392SOL    HW127809   1.517   3.630   2.827  0.8642 -1.8656 -2.6227
 5392SOL    HW227810   1.516   3.753   2.754 -0.4861  0.9039  2.7543
 5393SOL     OW27811   0.434   1.891   8.637 -0.3619 -0.4562  0.6190
 5393SOL    HW127812   0.467   1.833   8.569  2.1494  1.3730  0.2904
 5393SOL    HW227813   0.414   1.968   8.584 -0.7442 -1.5680 -0.8518
 5394SOL     OW27814   1.261   3.750   1.197 -0.9379 -0.4868 -0.0842
 5394SOL    HW127815   1.229   3.823   1.249 -0.2980  0.7386 -1.4012
 5394SOL    HW227816   1.199   3.686   1.231  0.7273 -1.4030  1.2865
 5395SOL     OW27817   0.288   4.141   8.287 -0.3211  0.1931  0.5025
 5395SOL    HW127818   0.274   4.047   8.283 -2.5489  0.6289 -1.8731
 5395SOL    HW227819   0.220   4.161   8.222  0.1112  0.8891  0.2639
 5396SOL     OW27820   1.918   3.821   9.087 -0.0911  0.0607  0.6675
 5396SOL    HW127821   1.829   3.786   9.093  0.8098 -2.2710  0.5666
 5396SOL    HW227822   1.963   3.794   9.168 -1.5197  2.0358  2.1300
 5397SOL     OW27823   2.642   3.431  13.525  0.0646  0.1577  0.2119
 5397SOL    HW127824   2.660   3.524  13.510  2.4591 -0.5508 -1.3472
 5397SOL    HW227825   2.626   3.423  13.430  0.1635  0.9393  0.1347
 5398SOL     OW27826   2.982   0.653   4.580  0.5012 -0.3358  0.8453
 5398SOL    HW127827   3.002   0.739   4.542 -0.2983 -1.1478 -1.4231
 5398SOL    HW227828   2.890   0.646   4.553  1.1281 -1.4952 -1.0221
 5399SOL     OW27829   1.923   2.172   8.916 -0.2877  0.0895 -0.1188
 5399SOL    HW127830   2.001   2.129   8.953 -0.0414  0.2678 -0.4239
 5399SOL    HW227831   1.964   2.237   8.859  1.1679 -0.2877  0.5016
 5400SOL     OW27832   1.291   1.160   8.862 -0.5333  0.4399  0.4258
 5400SOL    HW127833   1.337   1.205   8.792 -0.4685 -0.7260 -0.2921
 5400SOL    HW227834   1.362   1.099   8.883 -0.4330  0.1638 -0.6935
 5401SOL     OW27835   1.919   0.375  17.417  0.0833  0.4161 -0.0315
 5401SOL    HW127836   1.963   0.327  17.487  1.7148  1.0640 -0.6004
 5401SOL    HW227837   1.854   0.312  17.388  1.4604 -0.7215 -0.6111
 5402SOL     OW27838   3.635   3.230   8.865 -0.0567 -0.1234  0.3185
 5402SOL    HW127839   3.583   3.150   8.856  0.8058 -0.6429  0.0262
 5402SOL    HW227840   3.567   3.298   8.869  0.5734  0.4744  0.8028
 5403SOL     OW27841   0.211   3.561   6.019 -0.0759 -0.2503 -0.1366
 5403SOL    HW127842   0.297   3.594   5.992  0.0008  1.0222  1.6316
 5403SOL    HW227843   0.167   3.541   5.937 -0.2672 -1.8547  0.3498
 5404SOL     OW27844   2.716   3.755  17.690  0.4178  0.1018 -0.0495
 5404SOL    HW127845   2.667   3.823  17.737 -0.1219  0.3236 -0.9418
 5404SOL    HW227846   2.797   3.797  17.665  0.6355  0.5547  1.4178
 5405SOL     OW27847   4.276   3.493  15.361 -0.6942  0.4531  0.0415
 5405SOL    HW127848   4.361   3.537  15.367 -1.3401  1.4097  2.1366
 5405SOL    HW227849   4.268   3.475  15.267  2.2280 -2.6149  0.3918
 5406SOL     OW27850   1.714   1.117  14.011 -0.4145 -0.4353  0.0487
 5406SOL    HW127851   1.802   1.134  14.044 -0.0906  1.5636 -1.8487
 5406SOL    HW227852   1.674   1.199  14.040  0.6976 -0.6012  2.0461
 5407SOL     OW27853   1.523   2.020   3.457 -0.5344  0.3734  0.0668
 5407SOL    HW127854   1.497   2.097   3.407  1.3928  0.8242 -0.2473
 5407SOL    HW227855   1.457   2.023   3.526 -1.8158 -1.2023 -1.1014
 5408SOL     OW27856   3.227   3.816  12.890  0.2376  0.5116  0.3682
 5408SOL    HW127857   3.255   3.818  12.982 -0.8622 -0.2878  0.7255
 5408SOL    HW227858   3.310   3.796  12.847  0.0058 -0.5091  0.4058
 5409SOL     OW27859   0.824   1.982   5.139 -0.0364  0.3663 -0.6367
 5409SOL    HW127860   0.861   2.018   5.219  0.2746 -1.4557  0.0250
 5409SOL    HW227861   0.731   2.002   5.149 -0.3376 -1.5386  0.4006
 5410SOL     OW27862   1.710   4.700   3.768 -0.0986 -0.1034 -0.1570
 5410SOL    HW127863   1.765   0.036   3.766 -0.0485 -0.1266  0.5741
 5410SOL    HW227864   1.736   4.672   3.680  0.8035 -0.8671  0.3546
 5411SOL     OW27865   3.647   3.909   3.197  0.0563  0.1094 -0.0505
 5411SOL    HW127866   3.663   3.857   3.276  0.2298  0.0743 -0.1097
 5411SOL    HW227867   3.735   3.936   3.170  1.2605 -3.8108 -0.0234
 5412SOL     OW27868   2.103   1.415   6.686  0.3732 -0.2735 -0.3666
 5412SOL    HW127869   2.177   1.458   6.729  0.1027  0.6236 -0.8086
 5412SOL    HW227870   2.048   1.406   6.763 -2.1031 -0.2403 -2.1447
 5413SOL     OW27871   3.491   3.066   7.050  0.1072  0.1497 -0.6020
 5413SOL    HW127872   3.432   2.995   7.024 -0.4402 -0.0202  1.1356
 5413SOL    HW227873   3.479   3.058   7.144  2.2468  0.7696 -0.2906
 5414SOL     OW27874   1.044   4.590   6.300 -0.0254  0.3495  0.0636
 5414SOL    HW127875   1.130   4.599   6.259  1.3758  1.5183  3.3199
 5414SOL    HW227876   1.042   4.498   6.325 -1.4459  0.9688  2.1857
 5415SOL     OW27877   1.225   3.109   5.252  0.2687 -0.3040 -0.0150
 5415SOL    HW127878   1.138   3.141   5.274  0.5211  1.5259 -1.7126
 5415SOL    HW227879   1.263   3.190   5.218  0.7491 -0.9729 -1.0919
 5416SOL     OW27880   4.225   1.709   1.992 -0.5284  0.4301  0.0496
 5416SOL    HW127881   4.231   1.801   2.016  2.4164  0.2109  0.1529
 5416SOL    HW227882   4.265   1.721   1.906  0.2771  1.5803  0.5915
 5417SOL     OW27883   3.554   1.991   1.263  0.0027  0.4289  0.3248
 5417SOL    HW127884   3.602   1.915   1.297  0.4571  0.1858 -0.8628
 5417SOL    HW227885   3.626   2.053   1.252  0.4915 -0.3004 -0.6213
 5418SOL     OW27886   1.993   2.409   7.112 -0.8236  0.1393 -0.0488
 5418SOL    HW127887   2.027   2.490   7.152  0.6502  0.6523 -2.3464
 5418SOL    HW227888   1.943   2.371   7.185  1.3382 -0.2319  1.2498
 5419SOL     OW27889   4.116   4.150  17.540 -0.1594 -0.0760 -0.0494
 5419SOL    HW127890   4.079   4.063  17.530 -0.4695  0.0538 -0.0115
 5419SOL    HW227891   4.089   4.190  17.457  1.5447  0.1024 -0.5376
 5420SOL     OW27892   2.741   3.658   2.693 -0.2029  0.0546 -0.4631
 5420SOL    HW127893   2.700   3.713   2.761  0.8276  3.9014 -2.9472
 5420SOL    HW227894   2.833   3.665   2.717 -0.4348  0.7992  0.2460
 5421SOL     OW27895   0.059   0.180   1.566  0.3416 -0.2835 -0.1955
 5421SOL    HW127896   0.037   0.253   1.623  3.2252 -0.4544  1.1577
 5421SOL    HW227897   4.739   0.115   1.596 -0.4007  0.8384  0.6895
 5422SOL     OW27898   0.047   0.950   1.131  0.1955  0.4617 -0.6578
 5422SOL    HW127899   0.124   0.914   1.176 -0.4898  0.5877  0.6143
 5422SOL    HW227900   0.026   0.872   1.081 -1.6751  1.0721 -0.8167
 5423SOL     OW27901   4.624   3.578  12.383  0.2483  0.3411  0.3679
 5423SOL    HW127902   4.692   3.629  12.426 -1.6106  0.9694  2.5351
 5423SOL    HW227903   4.671   3.500  12.355 -1.4796 -0.1121 -1.3154
 5424SOL     OW27904   2.751   0.605   4.319 -0.1525 -0.7741  0.6168
 5424SOL    HW127905   2.744   0.695   4.285  1.3628 -0.6901  0.5177
 5424SOL    HW227906   2.661   0.596   4.351  0.3214  1.0232  2.4555
 5425SOL     OW27907   1.522   3.448   4.777  0.0505 -0.0479 -1.0889
 5425SOL    HW127908   1.581   3.411   4.843 -1.5105 -1.6101 -0.5685
 5425SOL    HW227909   1.575   3.431   4.699  0.2105 -1.2967 -0.7056
 5426SOL     OW27910   3.719   2.907   6.902  0.3930  0.1669 -0.4344
 5426SOL    HW127911   3.808   2.941   6.890  0.3358  0.9100  1.1656
 5426SOL    HW227912   3.698   2.938   6.990 -0.3999 -0.7578 -0.2953
 5427SOL     OW27913   2.559   1.363   4.159 -0.1821 -0.1942 -0.1647
 5427SOL    HW127914   2.547   1.366   4.064  0.9737 -0.7081 -0.3300
 5427SOL    HW227915   2.570   1.457   4.174  1.7667 -0.3335 -0.7374
 5428SOL     OW27916   3.202   1.163  16.492 -0.0019  0.1104  0.3079
 5428SOL    HW127917   3.207   1.068  16.500  1.0845  0.4432  3.4799
 5428SOL    HW227918   3.278   1.186  16.438 -1.2608  0.7361 -1.2001
 5429SOL     OW27919   3.606   4.000   3.624 -0.0635  0.1209 -0.5519
 5429SOL    HW127920   3.662   4.077   3.621  1.6318 -1.1074 -0.4895
 5429SOL    HW227921   3.532   4.025   3.678  1.2457  1.4932  0.5920
 5430SOL     OW27922   4.576   0.103   6.730 -0.2836 -0.0744  0.6849
 5430SOL    HW127923   4.603   0.195   6.733 -0.3839 -0.0011 -0.5300
 5430SOL    HW227924   4.571   0.102   6.634 -0.1391  2.7207  0.6544
 5431SOL     OW27925   2.159   0.869  16.905 -0.2499 -0.2476 -0.2008
 5431SOL    HW127926   2.090   0.806  16.928  0.5209 -1.5952 -1.6264
 5431SOL    HW227927   2.209   0.822  16.839  0.2173  0.4914 -0.3676
 5432SOL     OW27928   4.492   0.702   7.341 -0.3905 -0.3872  0.4927
 5432SOL    HW127929   4.507   0.609   7.324  0.2908 -0.5881  2.1895
 5432SOL    HW227930   4.445   0.727   7.262  1.4346 -2.0056 -1.1030
 5433SOL     OW27931   3.482   4.325  17.082  0.4694  0.6315 -0.0853
 5433SOL    HW127932   3.557   4.346  17.137  0.8447 -0.2848 -0.2491
 5433SOL    HW227933   3.409   4.355  17.136  1.3103  0.3255  1.2063
 5434SOL     OW27934   0.299   3.387   8.030 -0.1619  0.3054 -0.2855
 5434SOL    HW127935   0.327   3.309   7.982  0.8450 -1.0667  2.4908
 5434SOL    HW227936   0.346   3.380   8.114  1.6907 -2.5169 -1.5478
 5435SOL     OW27937   0.255   1.977   8.187  0.2945  0.2445 -0.0515
 5435SOL    HW127938   0.197   2.041   8.147 -0.0189  0.8341  1.3542
 5435SOL    HW227939   0.212   1.979   8.272 -0.4184 -0.7890 -0.3904
 5436SOL     OW27940   1.599   0.650   2.793  0.0909 -0.1104 -0.2902
 5436SOL    HW127941   1.564   0.705   2.864 -2.8907 -0.7026 -1.3170
 5436SOL    HW227942   1.623   0.568   2.835  0.8620 -0.8907 -2.2665
 5437SOL     OW27943   4.621   2.187  17.455  0.0682 -0.1425  0.3043
 5437SOL    HW127944   4.672   2.130  17.397 -2.1467  0.1948 -1.9812
 5437SOL    HW227945   4.674   2.193  17.534 -0.8321  0.5078  0.8566
 5438SOL     OW27946   0.686   3.146   8.968 -0.5129 -0.5841 -0.2031
 5438SOL    HW127947   0.677   3.183   9.056 -2.1822  0.0141 -0.6184
 5438SOL    HW227948   0.677   3.055   8.994 -1.7476  0.2246  2.1905
 5439SOL     OW27949   3.192   1.405   7.959 -0.4683  0.7415 -0.2685
 5439SOL    HW127950   3.201   1.391   7.864 -0.5278  0.5321 -0.2437
 5439SOL    HW227951   3.271   1.361   7.992 -2.0410 -1.1740  0.8906
 5440SOL     OW27952   3.643   3.643   2.861 -0.2365  0.3664 -0.6525
 5440SOL    HW127953   3.611   3.598   2.939 -0.6704 -0.3096 -1.2183
 5440SOL    HW227954   3.734   3.663   2.880 -0.0308 -1.1136 -0.1187
 5441SOL     OW27955   2.164   0.491   1.943 -0.3603  0.4050 -0.1739
 5441SOL    HW127956   2.188   0.419   2.001  0.0836 -1.0185 -2.1073
 5441SOL    HW227957   2.250   0.522   1.913 -0.0490 -0.9219 -0.6563
 5442SOL     OW27958   2.880   1.524   9.429  0.1063 -0.6823  0.1350
 5442SOL    HW127959   2.895   1.430   9.425 -0.3228 -0.6264 -2.3743
 5442SOL    HW227960   2.799   1.537   9.477 -0.5138 -1.3356 -0.7455
 5443SOL     OW27961   4.608   0.965   1.334  0.5911 -0.0467  0.8117
 5443SOL    HW127962   4.616   1.054   1.301  1.0022  0.1476  1.4196
 5443SOL    HW227963   4.664   0.922   1.269 -2.2237 -1.4288 -0.7134
 5444SOL     OW27964   1.978   4.276   2.356  0.0270  0.0689 -0.0364
 5444SOL    HW127965   1.945   4.325   2.282 -1.1392  0.2480  0.5940
 5444SOL    HW227966   1.954   4.191   2.318 -2.7692  0.8569 -0.0708
 5445SOL     OW27967   0.372   4.012   6.520 -0.4567 -0.8737 -0.0440
 5445SOL    HW127968   0.437   3.943   6.536 -0.1985  0.1696  3.4850
 5445SOL    HW227969   0.382   4.070   6.596  0.4554 -0.2242 -0.6580
 5446SOL     OW27970   1.207   4.717   8.990 -0.1580 -0.2174  0.7763
 5446SOL    HW127971   1.188   0.066   8.966  1.7917  0.1967  0.7890
 5446SOL    HW227972   1.127   4.670   8.970 -1.3343  2.0872 -0.0016
 5447SOL     OW27973   0.468   3.971  11.560 -0.7372 -0.2401  0.5231
 5447SOL    HW127974   0.392   4.003  11.511 -1.1001 -1.6134  0.1763
 5447SOL    HW227975   0.431   3.906  11.621  0.6288 -1.0255  0.5141
 5448SOL     OW27976   3.652   4.283   7.210  0.6146 -0.4791 -0.7080
 5448SOL    HW127977   3.698   4.266   7.292 -0.8123 -3.1561 -0.4715
 5448SOL    HW227978   3.695   4.225   7.147 -0.5235 -1.4212 -0.6199
 5449SOL     OW27979   1.719   2.914  13.598  0.0117 -0.8003  0.0066
 5449SOL    HW127980   1.632   2.888  13.570 -0.9548  0.9955  1.2841
 5449SOL    HW227981   1.706   3.009  13.597 -2.2074 -1.1225 -0.7015
 5450SOL     OW27982   4.124   2.251   4.608  0.3290  0.2696 -0.0237
 5450SOL    HW127983   4.088   2.162   4.605  1.2532 -0.0399 -2.5751
 5450SOL    HW227984   4.096   2.275   4.519  1.5868  1.9204  0.0302
 5451SOL     OW27985   3.541   1.210  10.211  0.1370 -0.1173  0.1289
 5451SOL    HW127986   3.479   1.266  10.165  1.3561  1.1591  0.0129
 5451SOL    HW227987   3.496   1.198  10.294 -0.2634  1.2548  0.1122
 5452SOL     OW27988   1.523   2.535   2.615  0.1454 -0.1383 -0.5360
 5452SOL    HW127989   1.455   2.602   2.622 -0.8153 -1.3424  1.6359
 5452SOL    HW227990   1.604   2.578   2.641  1.7253 -0.9840 -4.1423
 5453SOL     OW27991   3.451   3.499  11.014  0.2981  0.1903 -0.1563
 5453SOL    HW127992   3.541   3.525  10.995  0.3964  0.6566  0.9951
 5453SOL    HW227993   3.421   3.459  10.932  1.8790 -1.4105  0.0363
 5454SOL     OW27994   3.498   2.781   9.043  0.3906 -0.5368  0.2271
 5454SOL    HW127995   3.413   2.761   9.004  0.4789  1.2397 -0.8915
 5454SOL    HW227996   3.550   2.760   8.965  1.2130  0.5837  0.4758
 5455SOL     OW27997   0.686   4.062   7.507 -0.1310  0.4520  0.4722
 5455SOL    HW127998   0.722   4.150   7.503 -1.2384  0.9791  2.0868
 5455SOL    HW227999   0.594   4.073   7.534  0.0961  1.3530  0.8907
 5456SOL     OW28000   2.192   3.498   4.825  0.2584  0.3577 -0.3087
 5456SOL    HW128001   2.224   3.557   4.893  1.4529 -0.3882 -0.2332
 5456SOL    HW228002   2.103   3.478   4.855  0.4693  1.6183  1.2028
 5457SOL     OW28003   3.699   4.375   8.652  0.3467 -0.5283  0.3923
 5457SOL    HW128004   3.665   4.365   8.563  0.9468  0.9277  0.0001
 5457SOL    HW228005   3.619   4.416   8.686  0.9167 -0.9563  2.2303
 5458SOL     OW28006   2.702   2.379   4.557 -0.0299  0.3315 -0.4369
 5458SOL    HW128007   2.728   2.441   4.625  3.4614 -1.9036  0.2561
 5458SOL    HW228008   2.623   2.340   4.596  0.4792 -1.2711 -1.0220
 5459SOL     OW28009   0.450   3.525   8.549  0.0204  0.6147 -0.2894
 5459SOL    HW128010   0.456   3.479   8.633 -3.4151 -2.4101 -1.7064
 5459SOL    HW228011   0.473   3.614   8.574  0.4638  0.8769 -1.6256
 5460SOL     OW28012   2.645   0.415   9.561  0.5986 -0.4212 -0.5047
 5460SOL    HW128013   2.711   0.460   9.508  0.1132 -0.0814 -0.8209
 5460SOL    HW228014   2.635   0.470   9.638  2.0623  2.1884 -2.1880
 5461SOL     OW28015   4.153   2.691   8.523 -0.0367 -0.1182  0.6369
 5461SOL    HW128016   4.121   2.770   8.479  0.9521  0.1455  0.3968
 5461SOL    HW228017   4.246   2.698   8.502 -0.2747  1.2964  0.0641
 5462SOL     OW28018   4.219   2.170   9.542 -0.6941  0.2035  0.3466
 5462SOL    HW128019   4.151   2.119   9.499 -0.4706 -0.0794  0.3305
 5462SOL    HW228020   4.169   2.198   9.619 -0.3704  2.0406 -0.0930
 5463SOL     OW28021   2.734   4.066  14.269 -0.7318  0.1838  0.0318
 5463SOL    HW128022   2.743   4.095  14.360 -0.9669 -1.1916  0.4885
 5463SOL    HW228023   2.796   4.119  14.218  1.6977 -3.2506 -0.5694
 5464SOL     OW28024   0.612   4.029   1.118  0.5185 -0.0098 -0.0707
 5464SOL    HW128025   0.577   3.951   1.162 -0.4099  2.0968  2.8885
 5464SOL    HW228026   0.552   4.095   1.152  0.1118 -1.3359  1.8222
 5465SOL     OW28027   4.730   0.115   4.030 -0.4625 -0.4607 -0.0488
 5465SOL    HW128028   0.006   0.170   4.106  3.1105 -1.4669 -0.2153
 5465SOL    HW228029   4.709   0.186   3.969 -1.2263 -2.0764 -1.6739
 5466SOL     OW28030   1.120   0.737   2.727  0.0895  0.0066  0.1079
 5466SOL    HW128031   1.183   0.710   2.794 -0.4352 -1.4639  0.0180
 5466SOL    HW228032   1.044   0.689   2.759  0.9674 -1.5565 -0.1293
 5467SOL     OW28033   2.890   3.089   3.976 -0.2211  0.3300  0.5020
 5467SOL    HW128034   2.979   3.121   3.963  0.0702 -0.4353  0.5647
 5467SOL    HW228035   2.876   3.094   4.070  2.3325 -1.8760  1.0088
 5468SOL     OW28036   2.690   4.041  16.565 -0.6411 -0.2104  0.2612
 5468SOL    HW128037   2.752   4.034  16.637  1.0909 -0.2715 -1.2465
 5468SOL    HW228038   2.692   3.953  16.526  1.7770  0.4198 -1.0130
 5469SOL     OW28039   4.101   3.740   5.928  0.2907 -0.7260  0.4996
 5469SOL    HW128040   4.035   3.805   5.905  2.8086  0.5835 -3.1084
 5469SOL    HW228041   4.049   3.684   5.985 -0.3228  1.4233  2.0548
 5470SOL     OW28042   3.601   0.817   2.603 -0.2305  0.1046  0.2154
 5470SOL    HW128043   3.633   0.738   2.558 -2.4063  0.6726 -2.3402
 5470SOL    HW228044   3.599   0.799   2.696 -1.2525  0.3624  0.2465
 5471SOL     OW28045   1.369   2.745   2.690 -0.2481  0.3980  0.2924
 5471SOL    HW128046   1.407   2.738   2.778 -1.1201 -1.4897  0.5120
 5471SOL    HW228047   1.327   2.830   2.704  0.9938  1.3942 -2.1648
 5472SOL     OW28048   2.446   3.431  17.493  0.6028 -0.0121  0.0745
 5472SOL    HW128049   2.416   3.519  17.469  0.2950  0.0710  0.7497
 5472SOL    HW228050   2.478   3.394  17.411 -2.2918 -0.6258 -0.7630
 5473SOL     OW28051   2.107   3.736   7.620  0.2498  0.8812  0.5621
 5473SOL    HW128052   2.073   3.820   7.592 -1.2683  0.3248  0.7569
 5473SOL    HW228053   2.159   3.702   7.547  0.1756 -1.0285  1.3857
 5474SOL     OW28054   1.623   0.894   4.821 -0.5185  0.1828  0.5920
 5474SOL    HW128055   1.688   0.910   4.889 -1.2679  0.0657  1.3300
 5474SOL    HW228056   1.682   0.869   4.750  0.5895 -0.5472  1.7541
 5475SOL     OW28057   3.185   0.456  13.239 -0.3371  0.1535 -0.0938
 5475SOL    HW128058   3.250   0.414  13.183 -0.1903 -1.0798  0.9797
 5475SOL    HW228059   3.229   0.483  13.320 -1.3410 -0.7022  0.7376
 5476SOL     OW28060   1.532   1.311   7.204  0.0102  0.3870  0.8877
 5476SOL    HW128061   1.606   1.361   7.170 -0.9146  1.3436  0.2974
 5476SOL    HW228062   1.571   1.224   7.201  1.4953  1.1045 -0.8312
 5477SOL     OW28063   2.095   3.433   1.921  0.4384 -0.0426 -0.2529
 5477SOL    HW128064   2.095   3.371   1.994  0.0092 -1.4445 -1.4400
 5477SOL    HW228065   2.124   3.370   1.855  0.1086 -0.4264 -0.0341
 5478SOL     OW28066   0.423   3.997   0.190  0.0741 -1.2408 -0.2381
 5478SOL    HW128067   0.501   4.022   0.240 -0.9034 -1.6189  1.5007
 5478SOL    HW228068   0.442   3.904   0.186  0.4855 -1.1744  0.0819
 5479SOL     OW28069   2.119   4.131   5.895  0.2813  0.6111 -0.0899
 5479SOL    HW128070   2.043   4.124   5.837 -0.3573  0.9729  0.7133
 5479SOL    HW228071   2.170   4.204   5.859 -0.4085  1.4893  0.7137
 5480SOL     OW28072   4.259   1.668   1.471 -0.5739 -0.3128  0.2848
 5480SOL    HW128073   4.184   1.616   1.443 -0.2567  0.8145 -2.7551
 5480SOL    HW228074   4.261   1.729   1.397  2.5455  0.5574  1.0781
 5481SOL     OW28075   1.296   0.311  17.684  0.0911  0.2180 -0.2396
 5481SOL    HW128076   1.373   0.330  17.630 -0.3624  1.8016 -0.3525
 5481SOL    HW228077   1.330   0.278   0.002  0.0560  1.6257  0.3381
 5482SOL     OW28078   3.070   0.381   4.496  0.4344 -0.1960  0.2854
 5482SOL    HW128079   3.072   0.358   4.588  0.6456 -0.7339  0.1457
 5482SOL    HW228080   3.046   0.472   4.510 -0.5192  0.0370 -2.7002
 5483SOL     OW28081   3.491   4.135   3.248 -0.0700 -0.7533 -0.5234
 5483SOL    HW128082   3.535   4.054   3.221  1.3462 -0.7575  1.8166
 5483SOL    HW228083   3.534   4.148   3.332  2.2355  0.5492 -1.9072
 5484SOL     OW28084   1.411   1.148   4.083  0.8143 -0.4253  0.4239
 5484SOL    HW128085   1.424   1.074   4.024 -1.0516 -0.5788  0.2036
 5484SOL    HW228086   1.400   1.217   4.017 -0.9654 -1.0943  0.0298
 5485SOL     OW28087   0.376   0.320  13.366 -0.1082  0.0324 -0.0041
 5485SOL    HW128088   0.414   0.279  13.288  1.5712  0.0846  0.8024
 5485SOL    HW228089   0.441   0.379  13.404 -1.0788  1.4744 -0.5843
 5486SOL     OW28090   3.379   1.969   8.658 -0.1475  0.2253 -0.5858
 5486SOL    HW128091   3.370   1.875   8.641 -0.3856  0.2673 -0.6913
 5486SOL    HW228092   3.302   1.970   8.716 -1.5099 -1.8093 -2.3496
 5487SOL     OW28093   2.401   3.272   5.876 -0.1957 -0.4272  0.0290
 5487SOL    HW128094   2.355   3.329   5.938 -1.6569 -1.5398 -0.0249
 5487SOL    HW228095   2.361   3.310   5.798 -0.3717 -3.5410 -1.4127
 5488SOL     OW28096   0.135   2.065   3.926 -0.6070  0.2703  0.3015
 5488SOL    HW128097   0.048   2.089   3.894 -1.6739 -1.4728  1.8919
 5488SOL    HW228098   0.188   2.046   3.848 -0.5869 -3.1477  1.1384
 5489SOL     OW28099   0.638   1.015   6.319  0.3068  0.5412  0.1574
 5489SOL    HW128100   0.618   1.097   6.275  0.7899 -0.2602 -1.5711
 5489SOL    HW228101   0.591   1.020   6.402 -1.2002  1.3381 -0.7658
 5490SOL     OW28102   2.943   1.283  10.473  0.1540  0.1604 -0.0951
 5490SOL    HW128103   3.008   1.347  10.502 -0.1174  0.7093 -0.7076
 5490SOL    HW228104   2.921   1.241  10.557 -0.7387 -0.7269 -0.7835
 5491SOL     OW28105   4.723   0.020  12.916 -0.1023 -0.5888  0.2990
 5491SOL    HW128106   4.653   0.080  12.940 -1.1165 -0.3690 -3.0870
 5491SOL    HW228107   4.696   4.719  12.834  1.8600  0.5321 -0.9369
 5492SOL     OW28108   4.606   1.416   5.913 -0.2316 -0.1895 -0.1998
 5492SOL    HW128109   4.653   1.448   5.835  1.1944 -0.4127  0.5763
 5492SOL    HW228110   4.595   1.502   5.955  2.3129 -0.5868  1.2213
 5493SOL     OW28111   0.921   1.359  12.097  0.1647 -0.2199  0.0655
 5493SOL    HW128112   0.877   1.331  12.017 -0.5938  2.4267 -0.4440
 5493SOL    HW228113   0.900   1.452  12.099 -0.4181 -0.3533  0.5117
 5494SOL     OW28114   1.717   2.073   3.690  0.5342 -0.0418 -0.2052
 5494SOL    HW128115   1.629   2.053   3.724  0.1608 -0.4228 -1.3960
 5494SOL    HW228116   1.717   2.014   3.614 -0.8368 -0.8723  0.4367
 5495SOL     OW28117   4.422   2.700   3.565  0.0470 -0.0852 -0.1500
 5495SOL    HW128118   4.473   2.681   3.644 -0.1214  2.6269  0.5969
 5495SOL    HW228119   4.482   2.660   3.501  1.3248  0.3496  0.7672
 5496SOL     OW28120   0.323   3.522   4.956  0.1656 -0.1008 -0.7174
 5496SOL    HW128121   0.243   3.482   4.991  0.0638 -2.4307 -3.6060
 5496SOL    HW228122   0.308   3.615   4.973  0.9565 -0.0951 -0.0259
 5497SOL     OW28123   4.286   2.398   3.990  0.1692 -0.3076 -0.3019
 5497SOL    HW128124   4.226   2.441   3.930 -0.5089  0.5518  0.9723
 5497SOL    HW228125   4.359   2.460   3.991 -0.9895  1.0428 -0.0645
 5498SOL     OW28126   4.166   3.265  13.466 -0.0338 -0.2456  0.2504
 5498SOL    HW128127   4.228   3.229  13.530 -2.0093 -0.1662  2.2338
 5498SOL    HW228128   4.170   3.360  13.482 -0.1058 -0.0574 -0.8709
 5499SOL     OW28129   4.719   1.083   3.223 -0.1185 -0.4222 -0.2613
 5499SOL    HW128130   0.053   1.026   3.236  0.5659  0.0637 -2.0220
 5499SOL    HW228131   4.723   1.154   3.288 -2.5829 -0.3535 -0.2005
 5500SOL     OW28132   0.831   3.674  15.110  0.1135 -0.3689 -0.1531
 5500SOL    HW128133   0.921   3.643  15.121  0.4386  0.9138  0.7078
 5500SOL    HW228134   0.784   3.591  15.123  1.3977 -1.5890 -3.0929
 5501SOL     OW28135   2.681   4.245   6.564 -0.4679 -0.1741 -0.0132
 5501SOL    HW128136   2.618   4.186   6.523  0.0612 -0.5643 -0.2618
 5501SOL    HW228137   2.710   4.292   6.487  0.8497  0.0935  0.6427
 5502SOL     OW28138   1.193   2.564  12.256 -0.7176 -0.7876  0.5718
 5502SOL    HW128139   1.104   2.588  12.283 -0.4577 -1.2246  1.8380
 5502SOL    HW228140   1.225   2.561  12.346  0.2812  2.4632  0.2995
 5503SOL     OW28141   4.679   1.606  13.805  0.2189 -0.0253 -0.1069
 5503SOL    HW128142   4.655   1.632  13.894 -0.3376  2.7100 -1.0574
 5503SOL    HW228143   4.594   1.629  13.766  1.2746  0.6376 -1.9988
 5504SOL     OW28144   4.161   1.972   2.018 -0.1090 -0.3316 -0.5173
 5504SOL    HW128145   4.206   2.055   2.035 -1.7426  0.6778 -1.1749
 5504SOL    HW228146   4.130   1.959   2.107  0.4589  1.1188 -0.1101
 5505SOL     OW28147   2.279   2.620   5.900  0.0311  0.6740 -0.1879
 5505SOL    HW128148   2.332   2.699   5.891  0.5622  0.3785  0.3621
 5505SOL    HW228149   2.352   2.563   5.924 -1.1042 -0.6853  0.0581
 5506SOL     OW28150   2.183   0.313  10.723 -0.0560  0.2590  0.2095
 5506SOL    HW128151   2.099   0.268  10.736  0.9446 -1.5598  0.3676
 5506SOL    HW228152   2.172   0.395  10.771 -3.5943 -1.7888  2.9014
 5507SOL     OW28153   1.290   0.970   2.002  0.0212 -0.5626  0.2157
 5507SOL    HW128154   1.238   0.898   1.964  0.7257 -0.3688 -1.1112
 5507SOL    HW228155   1.335   0.929   2.076  1.0824 -0.8177 -0.5696
 5508SOL     OW28156   3.566   2.787  10.370  0.0405 -0.7091  0.4280
 5508SOL    HW128157   3.544   2.712  10.314  1.2666  0.6157 -1.8618
 5508SOL    HW228158   3.639   2.757  10.423  1.5840  1.7779 -0.2988
 5509SOL     OW28159   4.467   2.585   7.120 -0.0309  0.1448 -0.0234
 5509SOL    HW128160   4.432   2.592   7.209 -0.1626 -1.1491  0.0249
 5509SOL    HW228161   4.388   2.553   7.075 -0.3681 -1.1475  1.5009
 5510SOL     OW28162   3.973   0.569   5.376  0.2633  0.4215 -0.0941
 5510SOL    HW128163   3.974   0.543   5.468 -0.4082 -0.1694 -0.2544
 5510SOL    HW228164   3.878   0.558   5.366  0.5038  0.1189 -1.9986
 5511SOL     OW28165   4.357   3.221   2.306 -0.5472 -0.1265  0.8352
 5511SOL    HW128166   4.283   3.276   2.334  0.5980  2.4708 -1.1558
 5511SOL    HW228167   4.392   3.282   2.241  1.3127 -1.5648  0.5136
 5512SOL     OW28168   0.660   2.280   6.145 -0.4050 -0.2778 -0.0330
 5512SOL    HW128169   0.660   2.373   6.169 -1.1067  0.0209 -1.1254
 5512SOL    HW228170   0.731   2.261   6.206 -0.4551  3.2130  1.1293
 5513SOL     OW28171   2.695   2.690  12.892 -0.2261  0.1904 -0.6101
 5513SOL    HW128172   2.731   2.671  12.805 -1.0105 -0.9604 -0.6830
 5513SOL    HW228173   2.698   2.786  12.900  0.7071 -0.0859  2.3701
 5514SOL     OW28174   2.805   4.606   6.446 -0.0237 -0.6698  0.4192
 5514SOL    HW128175   2.828   4.606   6.539  2.2573  1.5766 -0.1444
 5514SOL    HW228176   2.826   4.697   6.425 -1.3393 -0.1624  1.3349
 5515SOL     OW28177   2.692   1.240   2.571  1.0716  0.4276 -0.3144
 5515SOL    HW128178   2.656   1.153   2.550 -0.6746  1.3859 -1.2401
 5515SOL    HW228179   2.770   1.211   2.620  0.1740 -0.5057  0.5705
 5516SOL     OW28180   0.553   2.358  16.909 -0.0313  0.1184  0.2049
 5516SOL    HW128181   0.496   2.349  16.985 -0.0508  0.3128  0.2131
 5516SOL    HW228182   0.492   2.403  16.850 -0.2327 -1.9859 -1.1889
 5517SOL     OW28183   0.129   3.473  13.992 -0.0622  0.0835 -0.0827
 5517SOL    HW128184   0.213   3.511  14.016  0.0107 -1.2264  1.7153
 5517SOL    HW228185   0.151   3.430  13.909  0.3982 -2.3892  1.3530
 5518SOL     OW28186   0.091   0.878   9.092  0.5615  0.6771  0.2023
 5518SOL    HW128187   0.081   0.968   9.061  2.3143  0.5977 -0.6293
 5518SOL    HW228188   0.093   0.852   9.000  1.7803  0.3851  0.3106
 5519SOL     OW28189   3.305   1.736  10.363  0.6494  0.1782 -0.4594
 5519SOL    HW128190   3.318   1.752  10.269 -0.1176 -1.5549 -0.8716
 5519SOL    HW228191   3.217   1.770  10.382  1.6346  0.8262  2.9492
 5520SOL     OW28192   2.118   3.416   8.748  0.1817  0.0906  0.0202
 5520SOL    HW128193   2.137   3.416   8.654 -1.9731 -1.1135 -0.4090
 5520SOL    HW228194   2.176   3.491   8.763 -0.0099  0.4459 -0.9978
 5521SOL     OW28195   2.346   1.511   2.710  0.0839  0.1337 -0.1454
 5521SOL    HW128196   2.298   1.430   2.724 -0.8249  0.5267 -1.0020
 5521SOL    HW228197   2.398   1.516   2.790 -1.1059 -1.2685  0.6920
 5522SOL     OW28198   0.538   4.434   1.017 -0.4235  0.5239 -0.0776
 5522SOL    HW128199   0.571   4.484   0.942  0.1828 -1.0581 -0.8639
 5522SOL    HW228200   0.489   4.502   1.062 -0.3122  0.7063 -0.2310
 5523SOL     OW28201   1.782   4.055   4.244 -0.2683 -0.1920 -0.3868
 5523SOL    HW128202   1.740   4.001   4.311 -2.0199 -1.6876 -2.6830
 5523SOL    HW228203   1.744   4.016   4.165  1.4034  0.1454 -1.3524
 5524SOL     OW28204   0.953   0.537  14.888 -0.2455 -0.3729  0.0504
 5524SOL    HW128205   0.972   0.581  14.806 -0.1701 -0.2621  0.1279
 5524SOL    HW228206   0.860   0.515  14.876 -0.1779 -1.0027  0.6705
 5525SOL     OW28207   2.717   1.441   1.240  0.4938  0.6171 -0.5021
 5525SOL    HW128208   2.765   1.361   1.258 -0.9735  0.0841  0.9892
 5525SOL    HW228209   2.658   1.423   1.167  0.6337 -1.9843  0.0168
 5526SOL     OW28210   1.015   3.953   1.302  0.3444  0.0750  0.4666
 5526SOL    HW128211   1.105   3.970   1.330  0.6108 -1.7165  0.6660
 5526SOL    HW228212   0.978   4.026   1.352  1.5427  2.1320 -1.6215
 5527SOL     OW28213   2.755   3.824   7.450 -0.3541 -0.0290  0.2900
 5527SOL    HW128214   2.817   3.813   7.378 -0.0816 -0.3562  0.5789
 5527SOL    HW228215   2.727   3.735   7.471 -1.1459  0.7001  2.4145
 5528SOL     OW28216   2.823   3.163   8.278  0.4231 -0.4169  0.2472
 5528SOL    HW128217   2.738   3.167   8.321  1.4730 -2.9704  2.5685
 5528SOL    HW228218   2.804   3.208   8.196  0.6638 -1.5951 -0.4502
 5529SOL     OW28219   2.275   4.214   8.076  0.2219 -0.2277  0.0335
 5529SOL    HW128220   2.205   4.219   8.011 -0.7937 -1.3703  1.0383
 5529SOL    HW228221   2.251   4.136   8.126 -0.0007  0.1754  0.5522
 5530SOL     OW28222   1.574   3.883   6.355  0.0925 -0.0777 -0.3640
 5530SOL    HW128223   1.550   3.856   6.444 -0.9997  2.2342  0.0438
 5530SOL    HW228224   1.645   3.944   6.375 -0.6537  0.8814 -0.6846
 5531SOL     OW28225   4.560   0.594   1.506  0.3247  0.3427  0.2049
 5531SOL    HW128226   4.472   0.608   1.541 -0.1470  0.3635 -0.9922
 5531SOL    HW228227   4.613   0.668   1.536  0.5704  0.9686 -1.7749
 5532SOL     OW28228   2.131   3.971   1.658  0.1482 -0.2265 -0.7103
 5532SOL    HW128229   2.038   3.967   1.679  0.3152  0.1891  0.1058
 5532SOL    HW228230   2.170   3.966   1.745  0.2778  0.0759 -0.7524
 5533SOL     OW28231   4.074   1.585  15.675  0.2967  0.0463  0.0427
 5533SOL    HW128232   4.137   1.516  15.652  0.0518  0.4965 -1.9772
 5533SOL    HW228233   4.099   1.609  15.764 -3.0995  1.1330  0.7005
 5534SOL     OW28234   3.945   3.025   2.491  0.2828 -0.2114  0.7093
 5534SOL    HW128235   3.854   3.055   2.487  1.0865  2.1702  0.4225
 5534SOL    HW228236   3.954   2.997   2.400 -3.3552 -1.3418  0.6904
 5535SOL     OW28237   1.555   4.315  14.238 -0.0988  0.3055 -0.3628
 5535SOL    HW128238   1.617   4.367  14.289  1.3566 -2.3023  0.5051
 5535SOL    HW228239   1.600   4.261  14.173 -0.5864  0.4638 -0.8352
 5536SOL     OW28240   1.656   3.561  16.649  0.5149  0.2845 -0.0327
 5536SOL    HW128241   1.615   3.475  16.637  3.5391 -1.2874  1.1019
 5536SOL    HW228242   1.720   3.535  16.715 -2.3067  1.0566  2.9820
 5537SOL     OW28243   0.264   2.187   2.091  0.5544 -0.2435 -0.0713
 5537SOL    HW128244   0.189   2.130   2.074 -0.1881  0.8405 -0.3497
 5537SOL    HW228245   0.216   2.266   2.114 -0.8277 -1.6086  1.7798
 5538SOL     OW28246   2.741   4.141   5.921 -0.4451  0.1718 -0.5628
 5538SOL    HW128247   2.706   4.198   5.852 -0.8420  1.6725  0.8966
 5538SOL    HW228248   2.772   4.076   5.858 -0.5769 -0.4732  0.0442
 5539SOL     OW28249   1.428   2.544   8.522  0.4210  0.4933 -0.1532
 5539SOL    HW128250   1.485   2.573   8.593 -0.2241 -0.7580  0.8688
 5539SOL    HW228251   1.421   2.620   8.463  1.6521  1.4107  0.8670
 5540SOL     OW28252   4.089   3.951   8.863  0.6007 -0.5259 -0.2619
 5540SOL    HW128253   4.021   3.885   8.847 -0.5422  0.3837  0.8857
 5540SOL    HW228254   4.038   4.031   8.867  1.7154  0.2408 -1.6417
 5541SOL     OW28255   2.612   1.981   6.749  0.1886  0.2338 -0.6995
 5541SOL    HW128256   2.618   2.072   6.778 -1.5615 -0.8858  3.1313
 5541SOL    HW228257   2.591   1.932   6.828  0.8987 -0.9981 -1.2819
 5542SOL     OW28258   3.718   1.129  17.215  0.0653 -0.0346 -0.0678
 5542SOL    HW128259   3.766   1.064  17.164 -1.5310 -0.5205 -0.9456
 5542SOL    HW228260   3.693   1.082  17.295  2.4658 -1.1862  0.0109
 5543SOL     OW28261   0.157   1.037   1.511 -0.1641  0.6094 -0.8434
 5543SOL    HW128262   0.177   1.093   1.436  2.0965 -0.7774 -1.2697
 5543SOL    HW228263   0.104   1.101   1.558 -0.6865 -0.8326  0.5536
 5544SOL     OW28264   2.931   4.189  11.615 -0.3917 -0.8143  0.4005
 5544SOL    HW128265   2.949   4.144  11.698  0.1250  2.7697  2.2481
 5544SOL    HW228266   3.021   4.220  11.619 -0.3336 -0.7179 -1.5482
 5545SOL     OW28267   3.952   1.187   4.490  0.5442 -0.2790 -0.2715
 5545SOL    HW128268   4.029   1.228   4.531  0.7529 -0.4028 -0.5350
 5545SOL    HW228269   3.901   1.263   4.465  0.5870 -1.0625 -2.7185
 5546SOL     OW28270   1.585   3.019  11.958  0.2913 -0.0377 -0.5852
 5546SOL    HW128271   1.597   2.954  11.889 -0.3028 -0.4602 -0.2899
 5546SOL    HW228272   1.650   3.001  12.025  1.9683  1.7124 -1.7254
 5547SOL     OW28273   3.797   2.003   4.184 -0.1368 -0.0574  0.1183
 5547SOL    HW128274   3.789   2.097   4.199 -0.9865 -0.2454  0.8754
 5547SOL    HW228275   3.717   1.987   4.134  0.2060 -0.1702 -0.3945
 5548SOL     OW28276   0.433   3.109   0.038  0.4201  0.9145 -0.6202
 5548SOL    HW128277   0.428   3.177   0.105  0.3385  0.7585 -0.4691
 5548SOL    HW228278   0.441   3.026   0.086  1.1057  1.5967  0.4533
 5549SOL     OW28279   3.608   3.599   3.855  0.4690 -0.1277  0.1339
 5549SOL    HW128280   3.547   3.621   3.785  0.2621 -1.9569 -0.2629
 5549SOL    HW228281   3.648   3.519   3.820 -3.0687 -1.0972 -1.6485
 5550SOL     OW28282   4.006   4.716   2.059  0.3060  0.6454  0.0251
 5550SOL    HW128283   3.958   0.057   2.053 -0.1803  0.5075  2.0093
 5550SOL    HW228284   3.936   4.653   2.073 -1.0701  2.5046  1.6156
 5551SOL     OW28285   3.334   0.487   5.958 -0.1532  0.0632  0.1071
 5551SOL    HW128286   3.317   0.580   5.950  0.7636  0.2025 -0.2587
 5551SOL    HW228287   3.374   0.460   5.875 -2.6045  0.3447 -1.1713
 5552SOL     OW28288   4.625   1.469   9.710  0.3221  0.7041 -0.0466
 5552SOL    HW128289   4.680   1.418   9.770 -0.7771  0.1092  0.4597
 5552SOL    HW228290   4.634   1.556   9.750 -0.2775  0.5662  0.3903
 5553SOL     OW28291   1.944   1.393   8.015  0.2401  0.0703 -0.7513
 5553SOL    HW128292   1.981   1.333   8.080 -0.7053  0.0347 -0.2541
 5553SOL    HW228293   1.899   1.461   8.065 -0.0774 -1.7570  1.4561
 5554SOL     OW28294   0.264   0.882   0.605  0.0826 -0.4968 -0.2494
 5554SOL    HW128295   0.264   0.808   0.544 -2.7928 -2.1445  1.7806
 5554SOL    HW228296   0.186   0.928   0.572 -0.9220 -1.6488  0.5135
 5555SOL     OW28297   1.480   0.426  17.060  0.2168 -0.7463  0.6107
 5555SOL    HW128298   1.483   0.521  17.064  0.3019 -0.7373  0.2750
 5555SOL    HW228299   1.408   0.417  16.998  1.1909 -0.1464 -0.6011
 5556SOL     OW28300   1.363   4.343   6.023 -0.1148  0.1062 -0.2559
 5556SOL    HW128301   1.391   4.398   6.096 -1.6993  2.8479 -1.7128
 5556SOL    HW228302   1.394   4.393   5.948 -0.0169 -0.1458 -0.3838
 5557SOL     OW28303   2.591   2.415   8.249 -0.3102 -0.0429 -0.6202
 5557SOL    HW128304   2.613   2.391   8.159 -0.2946 -3.2723  0.2304
 5557SOL    HW228305   2.575   2.329   8.289 -1.6471  0.1596 -0.7175
 5558SOL     OW28306   1.405   2.018   7.578  0.1877  0.0190  0.1864
 5558SOL    HW128307   1.454   1.944   7.614 -1.4429 -0.8056  0.6871
 5558SOL    HW228308   1.325   1.972   7.553  0.0313 -0.4279  1.5238
 5559SOL     OW28309   0.470   4.473   2.891 -0.1594  0.5497  0.1122
 5559SOL    HW128310   0.536   4.439   2.831 -0.5452  0.1545 -0.0866
 5559SOL    HW228311   0.392   4.423   2.866 -0.5962  1.3645 -0.1708
 5560SOL     OW28312   2.465   1.749   3.252 -0.7960  0.0297 -0.0812
 5560SOL    HW128313   2.408   1.804   3.198 -1.9084 -1.1192 -0.0705
 5560SOL    HW228314   2.545   1.799   3.232 -1.3779  1.1142  0.3242
 5561SOL     OW28315   1.370   1.712   3.224  1.0909  0.0069 -0.8838
 5561SOL    HW128316   1.373   1.635   3.281 -0.6494 -0.4692 -1.4257
 5561SOL    HW228317   1.466   1.713   3.221  1.1140  1.3740  0.1615
 5562SOL     OW28318   4.703   1.964  12.610 -0.2101  0.3697  0.0145
 5562SOL    HW128319   0.025   1.948  12.541 -0.4293 -0.1080 -0.0762
 5562SOL    HW228320   4.631   1.908  12.581  1.5793 -0.3979 -2.9498
 5563SOL     OW28321   1.266   0.680  13.603  0.3523 -0.5313  0.6081
 5563SOL    HW128322   1.252   0.664  13.697  1.6174  0.3042  0.9286
 5563SOL    HW228323   1.253   0.587  13.583 -0.0011 -0.4857  0.6223
 5564SOL     OW28324   2.049   3.550  12.082 -0.7197  0.0059  0.8028
 5564SOL    HW128325   1.957   3.525  12.079 -0.9935  1.3464 -2.0607
 5564SOL    HW228326   2.041   3.633  12.130  0.7401  0.5162  0.1807
 5565SOL     OW28327   4.661   2.092  10.808 -0.5081  0.1621 -0.4503
 5565SOL    HW128328   4.728   2.093  10.740 -0.1529  0.8071 -0.0898
 5565SOL    HW228329   4.587   2.040  10.776 -0.2782 -0.6542  0.3519
 5566SOL     OW28330   1.663   0.526   7.994  0.6718 -0.1071  0.4270
 5566SOL    HW128331   1.616   0.484   8.067 -0.8368 -1.4857 -1.3524
 5566SOL    HW228332   1.594   0.548   7.932  0.5172 -1.5749  0.0812
 5567SOL     OW28333   0.595   3.529   4.595  0.8704  0.3184 -0.5624
 5567SOL    HW128334   0.535   3.461   4.564  1.3685 -0.1581 -0.4890
 5567SOL    HW228335   0.598   3.522   4.691 -0.8525  0.8833 -0.4705
 5568SOL     OW28336   0.022   0.064   4.764 -0.3794 -0.2102 -0.1430
 5568SOL    HW128337   0.087   4.739   4.746  2.2661  1.8169  1.7347
 5568SOL    HW228338   0.075   0.139   4.793 -1.4503  0.3833  0.2940
 5569SOL     OW28339   3.197   4.120   4.746  0.3737  1.1530  0.1087
 5569SOL    HW128340   3.287   4.088   4.754  0.2231  0.5535 -0.6130
 5569SOL    HW228341   3.174   4.136   4.838  0.8762 -3.1420  1.0011
 5570SOL     OW28342   1.262   3.098  13.940 -0.2060 -0.1985 -0.3295
 5570SOL    HW128343   1.306   3.046  13.872  0.3756 -0.0257 -0.0857
 5570SOL    HW228344   1.327   3.111  14.009 -0.4885 -0.5808  0.0061
 5571SOL     OW28345   1.467   0.356   5.234  0.3138  0.2729 -0.0916
 5571SOL    HW128346   1.466   0.306   5.315 -0.8519  3.1063  1.6344
 5571SOL    HW228347   1.468   0.447   5.263 -0.5314  0.0923  0.5009
 5572SOL     OW28348   1.119   3.569   1.316 -0.2755  0.0684  0.3912
 5572SOL    HW128349   1.111   3.619   1.397 -0.0696 -0.1999  0.5761
 5572SOL    HW228350   1.107   3.481   1.351 -1.0262  0.0625  0.1247
 5573SOL     OW28351   2.353   2.074   6.968 -0.2961  0.2012  0.2110
 5573SOL    HW128352   2.415   2.104   6.901  0.8674 -0.0642  1.1686
 5573SOL    HW228353   2.281   2.137   6.970 -0.7049 -0.2908  0.8836
 5574SOL     OW28354   2.706   3.355   5.425  0.3992  0.2791 -0.0366
 5574SOL    HW128355   2.670   3.343   5.513 -0.6638  1.0113 -0.3746
 5574SOL    HW228356   2.636   3.398   5.377 -1.0256 -0.7218  1.1406
 5575SOL     OW28357   2.584   0.466  11.536  0.1929 -0.2836  0.3406
 5575SOL    HW128358   2.495   0.462  11.573 -0.8024  2.3764 -1.7871
 5575SOL    HW228359   2.605   0.372  11.538 -2.7261 -0.9646 -0.6937
 5576SOL     OW28360   0.407   0.557   8.991 -0.0998  0.7774 -0.6666
 5576SOL    HW128361   0.321   0.561   8.948  0.7995 -1.1089 -2.6464
 5576SOL    HW228362   0.439   0.476   8.951  1.7313  0.6825  1.0086
 5577SOL     OW28363   0.162   0.139   6.857  0.3714  0.2337 -0.0941
 5577SOL    HW128364   0.092   0.074   6.854  0.6640 -0.1857  1.6743
 5577SOL    HW228365   0.237   0.079   6.851  0.1918  0.2483 -2.2195
 5578SOL     OW28366   2.069   2.496  13.179  0.0206 -0.0348 -0.1856
 5578SOL    HW128367   2.118   2.574  13.204  3.7752 -1.9158 -1.6504
 5578SOL    HW228368   2.144   2.443  13.152 -0.6729 -0.4934 -1.1943
 5579SOL     OW28369   1.395   3.260   1.459  0.2236  0.3071 -0.4277
 5579SOL    HW128370   1.376   3.317   1.385 -0.2709 -0.5486 -0.9467
 5579SOL    HW228371   1.479   3.232   1.422  0.1406  0.4068 -0.6865
 5580SOL     OW28372   1.930   0.906   7.866  0.6722 -0.2234 -0.0086
 5580SOL    HW128373   2.005   0.958   7.895  0.5559 -0.0622 -0.0038
 5580SOL    HW228374   1.862   0.967   7.894  0.0448 -0.4725 -0.9984
 5581SOL     OW28375   3.000   1.056   6.533  0.0208 -0.8047  0.0417
 5581SOL    HW128376   3.064   1.090   6.470 -0.1654  1.5849  1.1301
 5581SOL    HW228377   2.963   0.989   6.476 -1.2278 -0.1483  0.0863
 5582SOL     OW28378   4.502   4.721  12.228 -0.5589 -0.5733  0.2262
 5582SOL    HW128379   4.512   0.027  12.146 -3.6862  1.5982  1.1444
 5582SOL    HW228380   4.557   4.648  12.199  0.6295 -1.1347  3.8430
 5583SOL     OW28381   0.241   0.270   5.567  0.6095 -0.1280 -0.1832
 5583SOL    HW128382   0.231   0.364   5.581  0.0703 -0.4648  1.5682
 5583SOL    HW228383   0.334   0.266   5.541  0.2104 -5.1048 -0.8606
 5584SOL     OW28384   1.161   1.981  14.853  0.4146 -0.1204 -0.1128
 5584SOL    HW128385   1.133   1.975  14.762  0.1842  1.7464 -0.1600
 5584SOL    HW228386   1.152   1.889  14.881 -0.4732  0.0123  0.0485
 5585SOL     OW28387   0.589   2.796   8.460  0.3444  0.1533  0.0123
 5585SOL    HW128388   0.659   2.806   8.395  0.6944  0.0340  0.3753
 5585SOL    HW228389   0.516   2.809   8.399  0.2670  0.2028  0.1153
 5586SOL     OW28390   0.927   3.387   2.868  0.4722  0.0373 -0.0476
 5586SOL    HW128391   0.931   3.358   2.959 -0.3149 -2.4879 -0.8272
 5586SOL    HW228392   0.995   3.333   2.828 -0.3603 -1.3673  0.4373
 5587SOL     OW28393   2.615   0.560   2.888  0.5927 -0.2670  0.2054
 5587SOL    HW128394   2.696   0.599   2.921  0.8591 -1.1842  0.6453
 5587SOL    HW228395   2.639   0.468   2.878  2.4798  0.7310 -4.5459
 5588SOL     OW28396   1.179   0.415   7.191  0.0267 -0.0829  0.0368
 5588SOL    HW128397   1.171   0.477   7.263  0.3654  0.0889 -0.0756
 5588SOL    HW228398   1.085   0.414   7.170  0.0041  2.0551  0.0890
 5589SOL     OW28399   4.319   1.971   0.344  0.9607 -0.6017 -0.3510
 5589SOL    HW128400   4.302   2.042   0.281  0.1290 -2.2198 -1.9470
 5589SOL    HW228401   4.404   1.940   0.315  2.4502  2.4950  0.7379
 5590SOL     OW28402   4.469   1.767   5.045 -0.3433  0.1105 -0.5603
 5590SOL    HW128403   4.429   1.696   4.995 -0.7802  0.9307 -1.3504
 5590SOL    HW228404   4.394   1.818   5.077  0.5227  0.3116  1.1777
 5591SOL     OW28405   2.614   4.331   8.263  0.3269  0.0557  0.2166
 5591SOL    HW128406   2.543   4.272   8.239  0.4584 -0.1002  0.2065
 5591SOL    HW228407   2.652   4.287   8.339  1.2420 -0.7613 -0.7004
 5592SOL     OW28408   0.533   3.431   5.804 -0.0533 -0.2849  0.5590
 5592SOL    HW128409   0.504   3.521   5.819 -2.7093 -1.2003  0.9653
 5592SOL    HW228410   0.454   3.389   5.772  0.1971 -1.6783  1.7859
 5593SOL     OW28411   4.111   2.506   5.493  0.3151 -0.5167  0.1650
 5593SOL    HW128412   4.155   2.543   5.416  1.1232  1.8219  1.7441
 5593SOL    HW228413   4.101   2.584   5.548  0.9733  0.8521 -1.6638
 5594SOL     OW28414   3.297   3.727   5.003 -0.3256  0.2187  1.0322
 5594SOL    HW128415   3.313   3.636   4.979  1.1100  0.6105  0.5496
 5594SOL    HW228416   3.382   3.750   5.040 -0.5942  0.5907  1.4390
 5595SOL     OW28417   0.021   0.396   4.165 -0.3670 -0.0118 -0.3217
 5595SOL    HW128418   0.069   0.439   4.235  0.4888  2.2515 -2.3041
 5595SOL    HW228419   4.732   0.469   4.111  1.6455 -0.4184 -2.0175
 5596SOL     OW28420   3.948   0.070   3.343  0.5558  0.2398 -0.0012
 5596SOL    HW128421   3.989   0.044   3.425  1.1627  0.4307 -0.2411
 5596SOL    HW228422   4.004   0.026   3.278 -0.0105  0.4826 -0.6502
 5597SOL     OW28423   4.688   2.081  14.591  0.2141 -0.3981 -0.1512
 5597SOL    HW128424   4.718   1.993  14.567 -0.4062 -0.7382  0.3445
 5597SOL    HW228425   0.031   2.126  14.593  0.4871 -0.9674  0.7967
 5598SOL     OW28426   2.023   3.340  17.289  0.0742  1.1213 -0.4607
 5598SOL    HW128427   2.081   3.267  17.267 -0.3859  0.6037  0.0352
 5598SOL    HW228428   1.959   3.289  17.341  1.3579 -2.6940 -2.6081
 5599SOL     OW28429   2.417   2.118   8.165  0.1846 -0.0494 -0.1048
 5599SOL    HW128430   2.326   2.111   8.135  0.8676 -1.7328 -1.7877
 5599SOL    HW228431   2.462   2.045   8.123 -0.4686 -1.5652  1.8742
 5600SOL     OW28432   0.556   2.226  12.273  0.2916 -0.2768  0.1087
 5600SOL    HW128433   0.634   2.272  12.241  0.2941 -0.2655  0.1310
 5600SOL    HW228434   0.573   2.133  12.261  0.0439 -0.0440 -2.0129
 5601SOL     OW28435   2.063   2.009   4.526  0.4497  0.1531  0.1314
 5601SOL    HW128436   2.034   2.036   4.438 -1.5037 -0.0244  0.7305
 5601SOL    HW228437   1.980   2.002   4.573  0.1768  1.3958 -0.1549
 5602SOL     OW28438   1.081   4.742  10.800  0.0891  0.2239 -0.1825
 5602SOL    HW128439   1.068   4.648  10.815  0.2478  0.7011  2.9696
 5602SOL    HW228440   1.176   0.007  10.815 -0.2407  0.4985  1.7315
 5603SOL     OW28441   0.809   1.074   7.935  0.1605  0.2791  0.2269
 5603SOL    HW128442   0.757   1.017   7.992 -0.5662  0.8147  0.0994
 5603SOL    HW228443   0.882   1.014   7.920  0.7570  1.2179 -0.5932
 5604SOL     OW28444   0.069   2.604  16.127 -0.2452  0.1236  0.2259
 5604SOL    HW128445   0.105   2.572  16.044  1.4023  0.4301  0.8088
 5604SOL    HW228446   0.035   2.686  16.092  0.9632  0.5956  0.1449
 5605SOL     OW28447   2.178   3.834  11.226  0.0309  0.5981  0.2933
 5605SOL    HW128448   2.234   3.834  11.148  0.1122 -0.6128  0.3506
 5605SOL    HW228449   2.089   3.809  11.201  0.7257  0.2005 -1.8566
 5606SOL     OW28450   4.712   4.669   0.185  0.2971  0.2282 -0.6476
 5606SOL    HW128451   0.043   4.638   0.132 -0.3784 -1.4369 -0.5949
 5606SOL    HW228452   4.665   4.586   0.184  0.3235  0.1893  1.6711
 5607SOL     OW28453   2.329   0.909   7.614 -0.1628 -0.1863 -0.0261
 5607SOL    HW128454   2.273   0.875   7.684 -1.6537  1.3615 -0.4561
 5607SOL    HW228455   2.392   0.838   7.600  0.5165  0.6678 -1.3006
 5608SOL     OW28456   1.888   4.449   2.560  0.6378 -0.0373 -0.0455
 5608SOL    HW128457   1.944   4.526   2.546  1.3394 -0.2917  1.3935
 5608SOL    HW228458   1.911   4.392   2.487  0.2103  0.5680 -0.6548
 5609SOL     OW28459   0.273   2.525   0.445 -0.0833  0.0814  0.1132
 5609SOL    HW128460   0.362   2.545   0.416  0.3874 -0.8347  0.9241
 5609SOL    HW228461   0.297   2.462   0.513  0.9667 -0.5955 -0.8735
 5610SOL     OW28462   0.502   3.215   6.003 -0.1200  0.1454  0.1646
 5610SOL    HW128463   0.474   3.262   6.081 -0.4881  1.6592 -0.8689
 5610SOL    HW228464   0.521   3.286   5.941 -0.5310 -0.2027 -0.3579
 5611SOL     OW28465   1.679   3.464   3.935  0.1682  0.2275  0.0387
 5611SOL    HW128466   1.701   3.426   4.021 -0.0965 -1.4938 -0.6621
 5611SOL    HW228467   1.765   3.447   3.896  0.5980  2.8200 -0.0935
 5612SOL     OW28468   0.378   2.014   5.482 -0.6659  0.5495 -0.3795
 5612SOL    HW128469   0.286   2.040   5.479 -0.9237 -0.3703 -0.6191
 5612SOL    HW228470   0.424   2.097   5.491  3.0341 -1.7510  1.6477
 5613SOL     OW28471   3.729   0.812   9.677 -0.2585 -0.1029  0.5750
 5613SOL    HW128472   3.759   0.786   9.590  0.0164  1.1832  0.2769
 5613SOL    HW228473   3.743   0.740   9.738 -1.6389 -0.1726  0.8091
 5614SOL     OW28474   3.897   3.874   1.553  0.4455  0.0647  0.2721
 5614SOL    HW128475   3.907   3.831   1.638  0.1951 -0.3430  0.0983
 5614SOL    HW228476   3.867   3.802   1.498 -0.0532  0.6298 -0.1861
 5615SOL     OW28477   2.849   0.984  10.557 -0.1532  0.1490 -0.6130
 5615SOL    HW128478   2.942   1.003  10.565 -0.4871  0.7203  2.0134
 5615SOL    HW228479   2.820   0.968  10.647  0.8206  0.5250 -0.2327
 5616SOL     OW28480   1.590   1.526   8.583 -0.3835 -0.4748  0.4989
 5616SOL    HW128481   1.678   1.501   8.553 -1.1320  0.4089 -2.3573
 5616SOL    HW228482   1.610   1.617   8.606 -0.0378  0.0108 -1.7747
 5617SOL     OW28483   0.574   4.022   3.892 -0.0203 -0.0542  0.0882
 5617SOL    HW128484   0.505   4.066   3.940  0.5932 -0.1017  1.0145
 5617SOL    HW228485   0.524   3.960   3.839 -0.9226  1.4451 -0.8218
 5618SOL     OW28486   1.547   2.857   3.429  0.0618 -0.1926 -0.0245
 5618SOL    HW128487   1.487   2.895   3.366 -0.1143 -0.6007 -0.1042
 5618SOL    HW228488   1.630   2.903   3.415 -0.3805  0.0611 -1.7086
 5619SOL     OW28489   4.682   1.393   8.959  0.6828  0.2396 -0.3189
 5619SOL    HW128490   4.695   1.363   9.049 -0.2900  1.7292  0.3282
 5619SOL    HW228491   4.586   1.393   8.954  0.5534 -0.5120  2.3512
 5620SOL     OW28492   0.223   2.703   3.563 -0.4225 -0.9958 -0.3397
 5620SOL    HW128493   0.169   2.759   3.507  0.5634  1.5906  1.2887
 5620SOL    HW228494   0.295   2.766   3.562  1.0689 -2.6555  1.8431
 5621SOL     OW28495   1.643   2.444  15.202 -0.0183  0.5076 -0.6752
 5621SOL    HW128496   1.728   2.404  15.218 -0.8182 -0.9269 -0.0005
 5621SOL    HW228497   1.630   2.477  15.291  1.4081  0.7097 -0.5368
 5622SOL     OW28498   4.253   0.533   9.155 -0.0251  0.5911 -0.3063
 5622SOL    HW128499   4.325   0.596   9.157 -0.7721  1.4674 -0.8164
 5622SOL    HW228500   4.201   0.555   9.077 -2.1106 -0.1234  0.8822
 5623SOL     OW28501   1.133   3.308   1.419  0.0972 -0.1911 -0.1870
 5623SOL    HW128502   1.090   3.251   1.483  1.0168 -2.7327 -1.8232
 5623SOL    HW228503   1.213   3.255   1.413  0.9427  1.3083 -2.3061
 5624SOL     OW28504   1.515   1.961  13.317 -0.3353  0.2854  0.0288
 5624SOL    HW128505   1.556   2.030  13.266  0.7932 -1.0111 -0.8227
 5624SOL    HW228506   1.425   1.956  13.286 -0.2077  3.1908 -0.7367
 5625SOL     OW28507   2.741   2.225   1.857 -0.2203 -0.1663 -0.5276
 5625SOL    HW128508   2.672   2.251   1.796 -1.7240 -0.0135  1.2190
 5625SOL    HW228509   2.772   2.144   1.816  1.1523  0.6189 -1.0300
 5626SOL     OW28510   4.119   3.988   4.949 -0.5662 -0.1487  0.4075
 5626SOL    HW128511   4.080   4.021   5.030  2.1064  2.1838  0.7534
 5626SOL    HW228512   4.041   3.980   4.894 -0.8705  0.1678  0.7908
 5627SOL     OW28513   3.732   0.314   6.393 -0.4888 -0.1773 -0.3835
 5627SOL    HW128514   3.823   0.288   6.383  0.1037  0.6524  2.8873
 5627SOL    HW228515   3.716   0.312   6.487  1.1024  1.1450 -0.0896
 5628SOL     OW28516   2.923   2.715   2.395  0.1543 -0.2050  0.3254
 5628SOL    HW128517   2.920   2.800   2.350 -1.0033 -1.6846 -2.3635
 5628SOL    HW228518   2.993   2.732   2.458 -0.9690 -1.0630  1.7863
 5629SOL     OW28519   4.620   2.249   3.982  0.7452 -0.0602 -0.0629
 5629SOL    HW128520   4.528   2.265   4.002  1.5610  0.5313  3.2075
 5629SOL    HW228521   4.637   2.193   4.057  1.0683  0.0049 -0.0863
 5630SOL     OW28522   0.159   2.174   9.081 -1.0764 -0.2061  0.5167
 5630SOL    HW128523   0.239   2.130   9.052  0.8039  2.0860  2.2311
 5630SOL    HW228524   0.102   2.161   9.005 -1.4396  0.6045  0.6581
 5631SOL     OW28525   4.231   1.954  16.738 -0.4045 -0.7468 -0.1733
 5631SOL    HW128526   4.226   1.912  16.824  0.8570 -3.1451 -1.2670
 5631SOL    HW228527   4.293   1.899  16.690  1.4329 -0.1410  1.4947
 5632SOL     OW28528   4.045   2.280   6.193  0.7401 -0.3536  0.3856
 5632SOL    HW128529   4.017   2.216   6.128  1.6923 -1.1733  0.7772
 5632SOL    HW228530   4.140   2.269   6.185  0.4845 -2.3133  0.2063
 5633SOL     OW28531   3.080   1.449  14.671 -0.1727 -0.2165 -0.0028
 5633SOL    HW128532   3.176   1.454  14.671 -0.2470  1.3397 -1.7272
 5633SOL    HW228533   3.065   1.485  14.758 -0.7855  0.1925 -0.2803
 5634SOL     OW28534   2.014   3.086   2.862 -0.3887  0.1942 -0.5708
 5634SOL    HW128535   2.074   3.160   2.850 -0.1459  0.1825  0.5390
 5634SOL    HW228536   1.974   3.097   2.776 -0.6990 -1.3712 -0.6199
 5635SOL     OW28537   4.448   4.468   8.577  0.5157 -0.0863  0.1908
 5635SOL    HW128538   4.534   4.434   8.599  0.1118 -0.6226  0.9448
 5635SOL    HW228539   4.481   4.536   8.519  0.2135 -0.5824 -0.5642
 5636SOL     OW28540   0.663   2.655   4.348 -0.1505 -0.5350 -0.2554
 5636SOL    HW128541   0.686   2.622   4.435  1.6038 -0.0449 -0.5332
 5636SOL    HW228542   0.574   2.687   4.362 -0.5006 -1.8687  0.6406
 5637SOL     OW28543   0.668   0.749   2.569 -0.5185  0.4982 -0.6580
 5637SOL    HW128544   0.731   0.796   2.623 -1.3385  0.3368  0.4352
 5637SOL    HW228545   0.728   0.724   2.498  1.8195  1.5155  0.9754
 5638SOL     OW28546   3.010   3.615  15.241 -0.2581 -0.4641 -0.1853
 5638SOL    HW128547   2.949   3.590  15.311  0.7537  0.6448  1.0686
 5638SOL    HW228548   3.053   3.530  15.238  0.8970  0.1046  0.6192
 5639SOL     OW28549   4.357   2.258   4.459  0.1787  0.1653 -0.2045
 5639SOL    HW128550   4.304   2.178   4.459  0.1195  0.1999 -0.8126
 5639SOL    HW228551   4.399   2.241   4.543  2.9037  1.1217 -1.3894
 5640SOL     OW28552   3.700   3.027   0.596  0.0027  0.0893  0.0291
 5640SOL    HW128553   3.646   3.106   0.598 -2.2752 -1.4683  0.0478
 5640SOL    HW228554   3.695   3.008   0.690 -1.9226 -0.2566 -0.1493
 5641SOL     OW28555   1.086   2.266   3.738  0.1362  0.0153  0.1131
 5641SOL    HW128556   1.181   2.276   3.741 -0.1168  2.6077 -0.8150
 5641SOL    HW228557   1.051   2.339   3.688  0.0732 -0.3283 -0.3444
 5642SOL     OW28558   2.250   1.926   9.236  0.1466  0.2246  0.0686
 5642SOL    HW128559   2.318   1.902   9.300 -0.1084  0.6373  0.4958
 5642SOL    HW228560   2.217   1.839   9.213 -0.0675  0.8379 -1.8574
 5643SOL     OW28561   1.705   3.827   5.496 -0.2202  0.5976 -0.2183
 5643SOL    HW128562   1.698   3.920   5.475 -1.2715  0.1038 -2.0890
 5643SOL    HW228563   1.656   3.813   5.577  2.1510  0.1683  1.1548
 5644SOL     OW28564   4.309   2.014   6.616 -0.5017  0.6128 -0.0333
 5644SOL    HW128565   4.360   2.089   6.647  0.5514  0.2571 -0.8951
 5644SOL    HW228566   4.268   1.988   6.699  1.2430 -0.1566  0.5894
 5645SOL     OW28567   3.685   4.731   1.853 -0.0877  0.1792  0.8520
 5645SOL    HW128568   3.745   4.657   1.840  1.7610  1.5577  1.5533
 5645SOL    HW228569   3.596   4.696   1.843  0.6606 -2.2465  2.4936
 5646SOL     OW28570   2.936   4.305   0.300 -0.2856 -0.2929 -0.0062
 5646SOL    HW128571   2.888   4.282   0.221 -1.2062  1.6338  0.0006
 5646SOL    HW228572   3.021   4.338   0.270  0.6428 -2.0993  0.5778
 5647SOL     OW28573   1.697   2.154  12.749 -0.1304 -0.4668  0.0863
 5647SOL    HW128574   1.657   2.079  12.704 -0.3162 -0.0034 -0.5246
 5647SOL    HW228575   1.680   2.134  12.841  0.8992 -2.1890 -0.1090
 5648SOL     OW28576   1.363   2.668  13.789  0.0070  0.1275  0.0885
 5648SOL    HW128577   1.306   2.658  13.865  0.8267 -1.3591  0.5347
 5648SOL    HW228578   1.292   2.640  13.732 -0.1627  1.7247 -0.4650
 5649SOL     OW28579   4.436   4.627  13.116  0.0772  0.8366  0.6483
 5649SOL    HW128580   4.492   4.587  13.183 -0.1718  1.0989  1.0097
 5649SOL    HW228581   4.352   4.619  13.161  0.8676 -1.7824  1.6923
 5650SOL     OW28582   2.332   0.631   7.943  0.2981 -0.5555 -0.1366
 5650SOL    HW128583   2.426   0.612   7.950  0.3530 -0.2695 -0.1047
 5650SOL    HW228584   2.293   0.548   7.915 -1.0524  0.5152 -1.3893
 5651SOL     OW28585   0.794   3.645   6.657  0.5522 -0.6336  0.2496
 5651SOL    HW128586   0.748   3.724   6.686 -3.4418 -1.9691 -2.5630
 5651SOL    HW228587   0.794   3.649   6.561  1.3839  0.5044  0.2942
 5652SOL     OW28588   2.843   0.819  11.656 -0.0748 -0.4628 -0.1687
 5652SOL    HW128589   2.885   0.832  11.741 -1.7216 -0.8702  0.7053
 5652SOL    HW228590   2.770   0.882  11.658  0.6360  0.2633  3.3874
 5653SOL     OW28591   1.451   0.873  15.969  0.2847 -0.2759 -0.1589
 5653SOL    HW128592   1.396   0.944  15.935 -0.6250  0.1804  2.2783
 5653SOL    HW228593   1.442   0.886  16.063 -1.7226  0.8475 -0.5160
 5654SOL     OW28594   2.927   2.053   7.947  0.4596 -0.1573 -0.4336
 5654SOL    HW128595   2.847   2.030   7.899  2.1978  1.6358 -4.1993
 5654SOL    HW228596   2.957   1.969   7.981 -0.7648 -1.1172 -1.7021
 5655SOL     OW28597   4.655   0.388   6.783  0.0083 -0.7281  0.3410
 5655SOL    HW128598   4.613   0.468   6.749  0.7188 -0.7891 -0.6834
 5655SOL    HW228599   4.669   0.426   6.870 -1.8250  1.7204 -0.4420
 5656SOL     OW28600   1.299   2.920   4.858  0.2658 -0.2883 -0.3977
 5656SOL    HW128601   1.290   2.921   4.953 -0.4586 -0.6279 -0.4636
 5656SOL    HW228602   1.225   2.973   4.827 -0.7518 -1.7313 -0.4692
 5657SOL     OW28603   1.054   0.795   3.751  0.0689 -0.3077 -0.1768
 5657SOL    HW128604   0.963   0.766   3.754 -0.2329  1.0128  2.7907
 5657SOL    HW228605   1.089   0.727   3.692  1.3207  0.6826 -0.5777
 5658SOL     OW28606   3.846   0.969  15.439 -0.4666 -0.1653  0.4250
 5658SOL    HW128607   3.820   1.061  15.440 -1.4609 -0.4304 -0.3273
 5658SOL    HW228608   3.836   0.940  15.530 -0.7914 -0.0490  0.4281
 5659SOL     OW28609   0.745   0.068   4.166  0.5639 -0.6763 -0.2661
 5659SOL    HW128610   0.778   4.735   4.214  2.1261  0.2066  0.0379
 5659SOL    HW228611   0.717   0.137   4.227  1.2542 -1.8802  1.3994
 5660SOL     OW28612   0.980   1.593   0.330  0.1338 -0.2725  0.1152
 5660SOL    HW128613   1.039   1.562   0.261  1.0157  1.3853  0.1418
 5660SOL    HW228614   1.032   1.667   0.360 -0.7204 -0.0699  1.0554
 5661SOL     OW28615   0.630   4.231   7.044  0.1876  0.1272 -0.5252
 5661SOL    HW128616   0.720   4.200   7.051  0.5377  1.3191  0.1380
 5661SOL    HW228617   0.646   4.325   7.046 -2.9063  0.6381  0.6020
 5662SOL     OW28618   3.305   2.768   8.784  0.4079 -0.4302 -0.0236
 5662SOL    HW128619   3.284   2.698   8.722  1.6975 -0.4462 -0.4421
 5662SOL    HW228620   3.216   2.793   8.808  0.2678 -1.8095  0.8937
 5663SOL     OW28621   2.593   1.453   7.920 -0.0679 -0.2405  0.6775
 5663SOL    HW128622   2.528   1.510   7.961 -0.4464 -0.5385  0.5012
 5663SOL    HW228623   2.552   1.367   7.933 -2.2126  0.6545 -0.0800
 5664SOL     OW28624   3.742   1.093   6.427 -0.2602 -0.3982  0.0797
 5664SOL    HW128625   3.732   0.998   6.419 -1.1028 -0.4582  1.9474
 5664SOL    HW228626   3.829   1.087   6.466 -0.3166  2.6791  0.6872
 5665SOL     OW28627   0.017   4.662   1.956  0.2997 -0.2264  0.1666
 5665SOL    HW128628   0.059   0.004   1.971  1.1111 -0.7015  0.5652
 5665SOL    HW228629   4.664   4.669   1.962  0.3915  0.0711  1.1283
 5666SOL     OW28630   1.687   2.374   0.472  0.8371  0.2111  0.8200
 5666SOL    HW128631   1.658   2.357   0.382 -3.3284  3.3809  1.5783
 5666SOL    HW228632   1.697   2.470   0.470  3.6403 -0.1102 -1.0390
 5667SOL     OW28633   2.422   2.285   7.957  0.0665  0.9069  0.4200
 5667SOL    HW128634   2.412   2.234   8.037 -0.5182 -0.3677 -0.4647
 5667SOL    HW228635   2.510   2.254   7.932 -0.7989 -2.1511  1.1772
 5668SOL     OW28636   2.251   2.351  13.037  0.6270  0.2507 -0.1704
 5668SOL    HW128637   2.212   2.333  12.951  1.4042 -0.1632 -0.4348
 5668SOL    HW228638   2.318   2.283  13.046 -1.3014 -1.3936  1.7027
 5669SOL     OW28639   4.369   4.251   5.747  0.3912  0.5318  0.0411
 5669SOL    HW128640   4.356   4.283   5.657 -2.9847 -2.4881 -0.5475
 5669SOL    HW228641   4.456   4.212   5.747 -0.4486 -1.3177  1.5929
 5670SOL     OW28642   2.281   4.721  15.141  0.4045  0.6053  0.2091
 5670SOL    HW128643   2.302   0.020  15.224  1.6603  1.5731 -0.5944
 5670SOL    HW228644   2.362   4.674  15.119 -1.3538 -2.1791 -0.4072
 5671SOL     OW28645   2.037   3.097   5.764 -0.5131  0.4142  0.0836
 5671SOL    HW128646   2.002   3.031   5.705  0.0228  0.4137 -0.2398
 5671SOL    HW228647   2.082   3.148   5.695  0.4086 -1.2679 -0.5592
 5672SOL     OW28648   2.033   0.083  13.923  0.4351 -0.7327  0.2715
 5672SOL    HW128649   2.017   0.092  14.017 -2.7532  1.9690 -0.5286
 5672SOL    HW228650   1.978   0.006  13.907  0.3780  0.0317 -3.1130
 5673SOL     OW28651   1.811   0.856   3.873  0.4296  0.1848  0.3269
 5673SOL    HW128652   1.836   0.943   3.843 -1.2011  1.0016  1.2903
 5673SOL    HW228653   1.730   0.846   3.822  0.6215  4.5315 -0.8514
 5674SOL     OW28654   4.595   0.928  15.111 -0.0237 -0.9047  0.2573
 5674SOL    HW128655   4.568   0.837  15.116  0.5632 -0.9660  2.1506
 5674SOL    HW228656   4.687   0.912  15.093  0.2649 -1.0079  1.8395
 5675SOL     OW28657   2.241   0.282   4.635 -0.3213  0.4400 -0.1926
 5675SOL    HW128658   2.314   0.324   4.591  1.6152 -0.4812  2.1768
 5675SOL    HW228659   2.270   0.275   4.725 -1.2473 -1.0108 -0.0018
 5676SOL     OW28660   3.260   4.439   5.526  0.6715  0.4048 -0.1867
 5676SOL    HW128661   3.341   4.419   5.478  0.8739  0.7316  0.0153
 5676SOL    HW228662   3.213   4.357   5.514  0.1775  0.8325 -1.2589
 5677SOL     OW28663   1.450   3.184   2.843 -0.5953  0.4229 -0.0673
 5677SOL    HW128664   1.492   3.243   2.781 -0.0006  0.8248  0.7119
 5677SOL    HW228665   1.397   3.248   2.892 -0.6130  0.8798 -0.6811
 5678SOL     OW28666   1.561   1.370   6.007  0.2020 -0.6204 -0.0065
 5678SOL    HW128667   1.504   1.299   6.039  0.3054  0.1392  1.8266
 5678SOL    HW228668   1.599   1.325   5.932 -0.3099 -2.5586  0.8864
 5679SOL     OW28669   3.590   2.395   1.240  0.2920  0.0569 -0.4268
 5679SOL    HW128670   3.648   2.452   1.291 -1.0852  0.3071  0.8531
 5679SOL    HW228671   3.544   2.360   1.317 -0.9894  0.8056 -0.8561
 5680SOL     OW28672   0.734   1.661   2.159 -0.4424 -0.1850  0.6814
 5680SOL    HW128673   0.751   1.587   2.101  1.9039 -0.0633  1.2162
 5680SOL    HW228674   0.709   1.612   2.237 -1.8747 -0.5823 -0.0386
 5681SOL     OW28675   0.459   4.457   5.714  0.4412 -0.0977  0.1121
 5681SOL    HW128676   0.521   4.474   5.643 -1.0970  1.0976 -0.9342
 5681SOL    HW228677   0.526   4.454   5.783 -0.8220 -2.7945  1.2492
 5682SOL     OW28678   2.355   1.818  13.441 -0.9101 -0.0497 -0.5001
 5682SOL    HW128679   2.373   1.837  13.533  0.7372  0.1966 -0.8777
 5682SOL    HW228680   2.439   1.829  13.395 -0.3413  1.3231  0.8647
 5683SOL     OW28681   2.507   4.200   9.913 -0.1459 -0.0951 -0.6914
 5683SOL    HW128682   2.457   4.144   9.972  0.3234 -2.2846 -2.3884
 5683SOL    HW228683   2.574   4.233   9.972  0.5248  1.3764 -2.2472
 5684SOL     OW28684   4.342   3.696  16.165 -0.3917 -0.3233 -0.1721
 5684SOL    HW128685   4.255   3.737  16.176 -0.0133  0.2243  0.8074
 5684SOL    HW228686   4.391   3.776  16.146  2.0211 -1.5220  1.1038
 5685SOL     OW28687   2.903   4.504   8.408  0.3310 -0.0713 -0.1205
 5685SOL    HW128688   2.903   4.420   8.362  1.4391  1.6309 -3.1523
 5685SOL    HW228689   2.900   4.480   8.501 -1.2021  0.1433 -0.1032
 5686SOL     OW28690   1.829   2.978   6.707 -0.0250  1.0725 -0.3879
 5686SOL    HW128691   1.781   3.052   6.669 -1.5758  0.1701 -0.2076
 5686SOL    HW228692   1.904   3.023   6.745  1.8585 -1.7996 -0.7241
 5687SOL     OW28693   2.547   1.191   5.624  0.0045 -0.5554  0.2857
 5687SOL    HW128694   2.529   1.285   5.628 -2.2739 -0.9835  0.1382
 5687SOL    HW228695   2.635   1.183   5.586 -0.2084 -1.2923 -0.0496
 5688SOL     OW28696   1.573   3.500   4.390  0.1216  0.1132  0.3888
 5688SOL    HW128697   1.529   3.424   4.427  0.1484  0.2214  0.6409
 5688SOL    HW228698   1.510   3.563   4.424 -0.5011 -0.3238  0.0401
 5689SOL     OW28699   4.733   2.046  11.084 -0.6414  0.6271  0.4922
 5689SOL    HW128700   4.705   2.067  10.995 -1.1822  1.1653  0.7845
 5689SOL    HW228701   0.017   2.136  11.103 -0.1680  1.0807 -2.4205
 5690SOL     OW28702   3.535   3.738   5.134 -0.0677 -0.0511 -0.4703
 5690SOL    HW128703   3.598   3.666   5.141 -2.3950 -1.9900  0.2433
 5690SOL    HW228704   3.591   3.816   5.134  1.2559 -0.9835 -2.0085
 5691SOL     OW28705   2.087   3.516   7.177 -0.1199  0.9539 -0.0057
 5691SOL    HW128706   2.034   3.595   7.188 -0.0928  1.1008 -0.9797
 5691SOL    HW228707   2.050   3.466   7.104 -0.7149  0.0468  0.8968
 5692SOL     OW28708   2.380   2.631   0.008  0.5709 -0.1679 -0.9548
 5692SOL    HW128709   2.475   2.629   0.003  0.5955 -0.7161 -0.3410
 5692SOL    HW228710   2.357   2.708  17.721  0.5811  0.0477 -0.6442
 5693SOL     OW28711   0.921   2.894   4.788  0.2563 -0.6157  0.1129
 5693SOL    HW128712   0.828   2.917   4.790  1.0427  2.4176  1.6550
 5693SOL    HW228713   0.927   2.849   4.872 -0.2320  1.6394  1.3547
 5694SOL     OW28714   3.003   1.666   6.226 -0.2654 -0.0737 -0.0261
 5694SOL    HW128715   3.031   1.585   6.268 -1.3401 -0.4710 -0.0680
 5694SOL    HW228716   2.909   1.656   6.242 -0.4164  3.3853  1.1888
 5695SOL     OW28717   2.113   0.406  14.069  0.5049  0.6700 -0.4890
 5695SOL    HW128718   2.105   0.500  14.054  1.0963  0.8872  0.5973
 5695SOL    HW228719   2.205   0.398  14.094  0.1053  1.0413  1.0929
 5696SOL     OW28720   0.961   3.874   0.604 -0.4364  0.3352 -0.1557
 5696SOL    HW128721   0.879   3.896   0.559 -0.8333 -0.2825  0.2691
 5696SOL    HW228722   0.973   3.782   0.579 -0.4608 -0.0383  1.2032
 5697SOL     OW28723   3.163   3.685   7.481  0.1766 -0.5870 -0.2387
 5697SOL    HW128724   3.213   3.691   7.399  1.9083  0.0170  0.8776
 5697SOL    HW228725   3.125   3.772   7.492  0.9155 -0.3763  0.5954
 5698SOL     OW28726   2.349   3.839   4.179 -0.0818 -0.1634  0.1331
 5698SOL    HW128727   2.380   3.800   4.261  0.2916 -1.4395 -0.6221
 5698SOL    HW228728   2.296   3.910   4.215  3.2279  1.3882  1.8508
 5699SOL     OW28729   2.839   0.771   5.181 -0.1895  0.1371  0.1219
 5699SOL    HW128730   2.807   0.850   5.224 -0.1926  0.7128 -0.9394
 5699SOL    HW228731   2.756   0.730   5.159 -0.3006  0.2080  0.4059
 5700SOL     OW28732   0.177   3.418   4.672 -0.5480  0.0824  0.8108
 5700SOL    HW128733   0.131   3.400   4.753  1.2224 -1.5303  1.4553
 5700SOL    HW228734   0.233   3.340   4.676  0.6339  0.9319  1.0268
 5701SOL     OW28735   3.722   2.592   6.017  0.2156  0.4660 -0.3897
 5701SOL    HW128736   3.660   2.574   5.947  0.2884 -1.9693  0.1714
 5701SOL    HW228737   3.669   2.558   6.089 -0.0417  0.0886 -0.7547
 5702SOL     OW28738   0.486   4.153   0.610  0.3158  0.1128 -0.0576
 5702SOL    HW128739   0.454   4.117   0.693 -1.1871  1.7289  0.0819
 5702SOL    HW228740   0.462   4.246   0.610  2.4159  0.6263 -1.8253
 5703SOL     OW28741   2.928   2.775  11.417 -0.2045  0.0482  0.5281
 5703SOL    HW128742   2.864   2.758  11.349  0.7245  0.6521 -0.4912
 5703SOL    HW228743   3.007   2.730  11.389  0.4531  0.4617  1.7082
 5704SOL     OW28744   2.183   1.140   4.826  0.4793  0.2886  0.1336
 5704SOL    HW128745   2.273   1.114   4.808  0.1179 -0.5165 -0.4692
 5704SOL    HW228746   2.195   1.228   4.789 -0.9572  0.8235  0.9074
 5705SOL     OW28747   3.506   1.550  12.956  0.2397 -0.4321  0.0203
 5705SOL    HW128748   3.446   1.612  12.998 -0.7248  0.1821 -2.2387
 5705SOL    HW228749   3.585   1.565  13.008  0.7504  0.1580 -0.9119
 5706SOL     OW28750   3.011   3.680   6.613 -0.2157 -0.1983 -0.6691
 5706SOL    HW128751   2.973   3.695   6.526  2.2365  1.2873 -1.4809
 5706SOL    HW228752   2.987   3.588   6.629  3.4741 -0.7452  1.6056
 5707SOL     OW28753   0.636   0.375  14.425 -0.8659 -0.1157 -0.6400
 5707SOL    HW128754   0.552   0.330  14.416 -3.5639  5.2330 -2.5486
 5707SOL    HW228755   0.626   0.422  14.508 -1.2899 -0.0625 -0.7179
 5708SOL     OW28756   3.616   1.717   8.725  0.1044  0.0182  0.3246
 5708SOL    HW128757   3.624   1.801   8.771 -0.8581 -0.1042  0.7404
 5708SOL    HW228758   3.553   1.670   8.781  0.8300  0.1405  1.2422
 5709SOL     OW28759   0.705   0.398   0.490  0.1866 -0.1635 -0.0034
 5709SOL    HW128760   0.713   0.352   0.573  0.2045 -1.6969 -0.8512
 5709SOL    HW228761   0.781   0.363   0.442  0.6497 -0.1412  0.7186
 5710SOL     OW28762   2.911   0.331   6.262 -0.0183  0.4516 -0.0180
 5710SOL    HW128763   2.826   0.364   6.233 -0.5214 -1.3977 -0.6409
 5710SOL    HW228764   2.962   0.348   6.183 -2.9809  0.3908 -1.9564
 5711SOL     OW28765   1.748   0.076   8.379 -0.4065  0.6564  0.7359
 5711SOL    HW128766   1.697   0.022   8.439 -0.7251  3.1362  2.7028
 5711SOL    HW228767   1.703   0.158   8.397 -1.0826  0.3651  0.3444
 5712SOL     OW28768   4.185   0.575   5.009  0.1147  0.4004 -0.3590
 5712SOL    HW128769   4.162   0.654   5.057 -0.6242 -0.8095  1.2848
 5712SOL    HW228770   4.278   0.583   5.027 -0.1138 -0.8871  1.3944
 5713SOL     OW28771   0.139   4.075  17.503 -0.1212 -0.0368  0.1242
 5713SOL    HW128772   0.108   4.002  17.556 -1.0898  1.3876  1.5172
 5713SOL    HW228773   0.092   4.050  17.423  3.2485  0.7750 -2.1170
 5714SOL     OW28774   0.214   2.103   5.162  0.6527  0.3411  0.4788
 5714SOL    HW128775   0.227   2.008   5.154  1.0261  0.3203  1.3260
 5714SOL    HW228776   0.165   2.112   5.244 -0.3405 -0.2301 -0.0636
 5715SOL     OW28777   3.813   1.164  12.801  0.9957  0.6257  0.2920
 5715SOL    HW128778   3.804   1.071  12.779 -0.2704  0.5579  1.1322
 5715SOL    HW228779   3.890   1.160  12.858  3.0571 -0.7403 -2.5984
 5716SOL     OW28780   1.906   1.196   6.810  0.9528  0.3584  0.0096
 5716SOL    HW128781   1.827   1.249   6.809  0.1905 -0.8046 -1.5911
 5716SOL    HW228782   1.911   1.149   6.893 -2.9584 -0.2443 -0.1082
 5717SOL     OW28783   2.381   1.706   9.975  0.0919  0.1265 -0.7154
 5717SOL    HW128784   2.378   1.626   9.922  2.0649  0.3638 -1.1747
 5717SOL    HW228785   2.424   1.761   9.910  1.2931 -0.8311 -0.7279
 5718SOL     OW28786   2.932   0.741   1.984 -0.4160  0.5673 -0.1244
 5718SOL    HW128787   2.999   0.753   2.051  1.5300 -1.3973 -1.7215
 5718SOL    HW228788   2.863   0.697   2.035 -0.0536  2.4113  1.9448
 5719SOL     OW28789   0.725   2.986   3.204  0.8474  0.7050  0.0837
 5719SOL    HW128790   0.737   2.935   3.123  0.2650  0.5639  0.0892
 5719SOL    HW228791   0.772   2.936   3.271  0.7944  0.6940  0.1124
 5720SOL     OW28792   3.242   2.068   7.865  0.2325 -0.0837  0.6602
 5720SOL    HW128793   3.279   2.059   7.778 -0.2041 -0.8573  0.5529
 5720SOL    HW228794   3.300   2.137   7.897 -0.0349  0.8337 -0.8176
 5721SOL     OW28795   0.346   3.112   3.644  0.3149 -0.0613 -0.6732
 5721SOL    HW128796   0.292   3.188   3.621 -2.9561 -1.7190  1.4098
 5721SOL    HW228797   0.342   3.112   3.740 -0.4093 -0.9985 -0.7021
 5722SOL     OW28798   2.044   3.125   6.782 -0.3621  0.1962  0.7902
 5722SOL    HW128799   2.118   3.161   6.733  0.2931  0.2351  1.8033
 5722SOL    HW228800   2.068   3.156   6.870  0.0399  0.1794  0.6862
 5723SOL     OW28801   4.600   3.972   8.816  0.6798 -0.4844  0.3115
 5723SOL    HW128802   4.533   3.908   8.792 -1.7501  2.0578  0.2711
 5723SOL    HW228803   4.646   3.995   8.735 -1.8791 -1.3570 -1.3802
 5724SOL     OW28804   2.697   3.876   3.179 -0.6605 -0.3538 -0.1717
 5724SOL    HW128805   2.617   3.928   3.168  0.2470  1.4543  1.8795
 5724SOL    HW228806   2.654   3.792   3.168 -2.3891  0.6056 -0.7052
 5725SOL     OW28807   2.503   2.827  13.428  0.8363 -0.0206 -0.2017
 5725SOL    HW128808   2.493   2.754  13.367  1.1933 -1.0754  0.9899
 5725SOL    HW228809   2.471   2.906  13.386  1.3217 -0.0719 -0.6690
 5726SOL     OW28810   0.056   3.369   9.225 -0.2702  0.2651  0.0960
 5726SOL    HW128811   0.042   3.281   9.190 -3.9779  0.5260  0.8915
 5726SOL    HW228812   0.093   3.412   9.148 -2.5016 -2.0569 -2.3021
 5727SOL     OW28813   1.342   2.963   6.654 -0.1702  0.5325  0.1238
 5727SOL    HW128814   1.367   3.011   6.576 -1.9661  0.6805 -0.3626
 5727SOL    HW228815   1.322   2.874   6.627 -0.5938 -0.2682  3.1026
 5728SOL     OW28816   3.362   2.689   8.169 -0.1500  0.0201 -0.4989
 5728SOL    HW128817   3.347   2.693   8.263  0.7766 -1.1735 -0.3106
 5728SOL    HW228818   3.283   2.650   8.132  0.9661 -1.2302 -1.5585
 5729SOL     OW28819   0.617   0.920  17.427 -0.1641 -0.3241  0.6306
 5729SOL    HW128820   0.636   0.829  17.404  1.1935 -0.0146  0.5235
 5729SOL    HW228821   0.539   0.910  17.481  0.1993  1.1812  1.4268
 5730SOL     OW28822   3.310   2.511   5.545 -0.0278 -0.4405 -0.3171
 5730SOL    HW128823   3.400   2.543   5.553 -0.3778 -0.2046  2.5862
 5730SOL    HW228824   3.316   2.444   5.477 -0.0061 -0.5514 -0.2052
 5731SOL     OW28825   1.654   0.317  17.284  0.1827  0.0914  0.1895
 5731SOL    HW128826   1.667   0.412  17.283 -0.8065  0.1952 -3.0175
 5731SOL    HW228827   1.619   0.304  17.196  1.6808  0.9403 -0.5408
 5732SOL     OW28828   3.722   1.145   3.360  0.0775  0.0266 -0.0447
 5732SOL    HW128829   3.709   1.060   3.318 -2.7141  1.7663 -2.6753
 5732SOL    HW228830   3.736   1.119   3.451 -1.2464  0.8702  0.4133
 5733SOL     OW28831   2.418   2.930   8.357  0.4395  0.3211 -0.3304
 5733SOL    HW128832   2.340   2.909   8.305  0.7643 -0.7658 -0.3676
 5733SOL    HW228833   2.493   2.895   8.309  0.0235 -0.9425 -0.0765
 5734SOL     OW28834   4.242   0.966   9.403  0.2859 -0.5188 -0.1212
 5734SOL    HW128835   4.210   0.917   9.327  1.9576  0.2943 -1.3634
 5734SOL    HW228836   4.288   0.904   9.460 -0.6059 -0.8084  0.2680
 5735SOL     OW28837   4.593   0.766   6.029  0.2010  0.5165 -0.1569
 5735SOL    HW128838   4.507   0.797   6.001 -0.3611 -2.0992 -1.4011
 5735SOL    HW228839   4.631   0.853   6.037 -1.0170  1.0840 -0.6184
 5736SOL     OW28840   4.449   3.029   0.438  0.2412 -0.4863 -0.3242
 5736SOL    HW128841   4.412   3.052   0.523  1.1394  2.1602 -0.6539
 5736SOL    HW228842   4.430   2.935   0.436  0.4907 -0.4648 -3.6997
 5737SOL     OW28843   1.141   1.536  13.225 -0.4264 -0.2553  0.1739
 5737SOL    HW128844   1.087   1.570  13.296  1.0707 -0.1512  1.2749
 5737SOL    HW228845   1.132   1.441  13.228  0.7424 -0.3854 -0.5351
 5738SOL     OW28846   3.560   2.465  11.527  0.5840  0.0895 -0.3050
 5738SOL    HW128847   3.590   2.539  11.580  0.9506 -0.4872  0.3011
 5738SOL    HW228848   3.477   2.444  11.570  1.2898  0.6765  1.3643
 5739SOL     OW28849   3.946   1.902   0.564  0.2285  0.1889 -0.4694
 5739SOL    HW128850   4.004   1.883   0.490  1.9588 -0.1735  0.9852
 5739SOL    HW228851   3.963   1.995   0.577  1.2241 -0.0247 -0.2235
 5740SOL     OW28852   0.314   1.434   7.048  0.3791  0.3407  0.2163
 5740SOL    HW128853   0.241   1.496   7.052 -0.7475 -1.0210  0.8738
 5740SOL    HW228854   0.384   1.490   7.081  1.2931 -1.0354  0.5898
 5741SOL     OW28855   0.198   2.507   3.296 -0.0220  0.6883  0.2658
 5741SOL    HW128856   0.199   2.560   3.376 -1.1830  2.4955 -0.9241
 5741SOL    HW228857   0.250   2.431   3.323 -1.4348 -0.6859 -0.8844
 5742SOL     OW28858   3.882   2.883   2.931 -0.0308  0.0833  0.5321
 5742SOL    HW128859   3.786   2.882   2.936  0.0126  1.7002  1.6775
 5742SOL    HW228860   3.897   2.843   2.846 -0.0555 -3.0968  2.0315
 5743SOL     OW28861   4.385   4.214   1.936  0.4774 -0.4494 -0.0288
 5743SOL    HW128862   4.393   4.167   1.853  1.1335 -0.8387  0.2554
 5743SOL    HW228863   4.380   4.146   2.002  1.7087  0.2830  0.8097
 5744SOL     OW28864   3.703   4.214   2.416  0.7726  0.1909 -0.2134
 5744SOL    HW128865   3.647   4.209   2.339  0.3198 -0.8849  0.1770
 5744SOL    HW228866   3.710   4.120   2.434  1.4733  0.0829 -1.0533
 5745SOL     OW28867   2.060   0.984   1.740 -0.2482  0.6429 -0.0417
 5745SOL    HW128868   1.986   0.927   1.757  0.3755  0.0447  0.6871
 5745SOL    HW228869   2.135   0.925   1.743 -1.6569 -1.0711  1.2780
 5746SOL     OW28870   2.144   0.109   5.916  0.1026 -0.4060  0.3825
 5746SOL    HW128871   2.148   0.188   5.969 -0.0673  0.5510 -1.0299
 5746SOL    HW228872   2.231   0.073   5.930  0.6956  0.2282 -1.6981
 5747SOL     OW28873   3.786   4.196  13.989  0.1738  0.3547 -0.1541
 5747SOL    HW128874   3.809   4.275  13.939  1.9494 -0.9240 -1.3466
 5747SOL    HW228875   3.739   4.221  14.068 -2.6449  3.3159 -2.7715
 5748SOL     OW28876   3.496   2.533   5.868 -0.6667 -0.1358 -0.3036
 5748SOL    HW128877   3.517   2.461   5.809  1.1163  1.7476 -1.9787
 5748SOL    HW228878   3.406   2.520   5.897 -0.5950  2.4855  1.1274
 5749SOL     OW28879   4.025   4.473   5.263 -0.6886  1.0728  0.7756
 5749SOL    HW128880   4.113   4.509   5.259 -0.4112  0.2845  0.0921
 5749SOL    HW228881   4.043   4.430   5.347 -1.2706 -2.5190 -0.9548
 5750SOL     OW28882   2.707   1.229   9.282  0.4099 -0.2889  0.4956
 5750SOL    HW128883   2.674   1.241   9.371 -0.8884 -0.6813  0.0612
 5750SOL    HW228884   2.645   1.284   9.234  0.2391  0.1648  1.2307
 5751SOL     OW28885   1.897   1.935   7.046  0.0508  0.3883 -0.2225
 5751SOL    HW128886   1.861   2.022   7.030 -1.4748 -0.1493  0.2668
 5751SOL    HW228887   1.982   1.959   7.082  0.0640 -1.5129  1.0133
 5752SOL     OW28888   0.760   2.261   6.998 -0.5559 -0.3518  0.4821
 5752SOL    HW128889   0.763   2.249   7.093  0.0276 -0.4571  0.4524
 5752SOL    HW228890   0.849   2.232   6.976  0.1295  1.2911  1.1475
 5753SOL     OW28891   1.140   1.882  16.267  0.1381  0.2548  0.2617
 5753SOL    HW128892   1.183   1.837  16.340  0.7673 -2.3390 -1.7288
 5753SOL    HW228893   1.160   1.970  16.298  0.8443 -0.8911  3.0058
 5754SOL     OW28894   0.051   0.211   9.640 -0.3995 -0.5284 -0.5309
 5754SOL    HW128895   4.738   0.280   9.603  0.0947 -0.3685 -0.9693
 5754SOL    HW228896   4.735   0.137   9.658  1.1287 -0.5480  4.4623
 5755SOL     OW28897   2.634   2.983   9.199 -0.1854  0.0372  0.7266
 5755SOL    HW128898   2.566   2.981   9.132 -0.9539  0.5122  1.4961
 5755SOL    HW228899   2.613   3.072   9.229  1.9109  0.7568  0.0316
 5756SOL     OW28900   3.468   0.213   3.360 -0.3462  0.4214  0.3208
 5756SOL    HW128901   3.553   0.211   3.314  0.3882 -2.1784  1.7874
 5756SOL    HW228902   3.495   0.211   3.452  0.6081 -1.0741  0.0101
 5757SOL     OW28903   1.137   3.526   7.025 -0.2981 -0.1566 -0.1769
 5757SOL    HW128904   1.224   3.567   7.030 -1.5013  2.1303  1.9194
 5757SOL    HW228905   1.088   3.577   6.961  0.4153  1.4663  0.5568
 5758SOL     OW28906   3.692   2.384   3.854 -0.5130 -0.2137 -0.5326
 5758SOL    HW128907   3.691   2.429   3.939 -0.1520  0.2035 -0.7512
 5758SOL    HW228908   3.628   2.314   3.870 -0.8794  0.1254 -0.5073
 5759SOL     OW28909   4.206   3.116  14.921  0.4504 -0.6282 -0.2357
 5759SOL    HW128910   4.127   3.159  14.952  0.6416 -1.0341  0.8010
 5759SOL    HW228911   4.195   3.026  14.951 -0.8052 -0.5030 -0.3386
 5760SOL     OW28912   4.171   3.384   6.288  0.7727  0.3323  0.3473
 5760SOL    HW128913   4.127   3.362   6.370 -0.6562 -2.8149 -1.2709
 5760SOL    HW228914   4.212   3.300   6.268 -2.9724 -1.3359 -0.2843
 5761SOL     OW28915   1.659   4.034   7.055  0.0740  0.3560  0.6375
 5761SOL    HW128916   1.674   4.092   6.980  1.4981 -0.6140  0.1664
 5761SOL    HW228917   1.616   4.090   7.120  2.0517  1.8091  0.7057
 5762SOL     OW28918   2.949   0.279   2.401 -0.3167  0.2124  0.3476
 5762SOL    HW128919   2.861   0.293   2.367 -0.9901  1.7438  2.7088
 5762SOL    HW228920   2.927   0.294   2.493 -0.5618  0.8775  0.1806
 5763SOL     OW28921   2.124   3.755   8.420  0.4614  0.0540  0.3401
 5763SOL    HW128922   2.055   3.745   8.485 -2.0345  2.7804 -1.8912
 5763SOL    HW228923   2.088   3.696   8.354 -0.0113  2.2683 -1.3887
 5764SOL     OW28924   3.047   1.219  15.326 -0.0284  0.0756  0.2484
 5764SOL    HW128925   3.023   1.299  15.374  0.3711  1.2865 -1.5699
 5764SOL    HW228926   3.015   1.243  15.239 -2.9850  0.5881  1.4891
 5765SOL     OW28927   0.430   2.875   3.522  0.0477  0.3598 -0.1086
 5765SOL    HW128928   0.420   2.960   3.564  0.3397 -0.7605  2.2439
 5765SOL    HW228929   0.407   2.896   3.432 -0.3075  0.0096 -0.1011
 5766SOL     OW28930   3.680   3.335   3.874  0.1700 -0.6873  0.0137
 5766SOL    HW128931   3.653   3.243   3.878 -0.1907 -0.6081 -0.5128
 5766SOL    HW228932   3.771   3.326   3.849 -0.0413  1.3399 -1.4862
 5767SOL     OW28933   0.977   4.351  15.885 -0.4318  0.1914  0.1699
 5767SOL    HW128934   1.052   4.406  15.908 -0.9341  1.2335 -0.6784
 5767SOL    HW228935   1.017   4.284  15.829  1.4173  1.0297  0.4626
 5768SOL     OW28936   4.097   2.781   3.833 -0.1189  0.1267 -0.4343
 5768SOL    HW128937   4.036   2.854   3.838 -0.0469  0.0262  2.2058
 5768SOL    HW228938   4.114   2.778   3.739 -2.2995  1.2197 -0.8465
 5769SOL     OW28939   4.209   3.584  10.446 -0.2418  0.1937 -0.0892
 5769SOL    HW128940   4.228   3.512  10.386  0.3293 -0.1808  0.5418
 5769SOL    HW228941   4.125   3.554  10.479 -0.8732  1.7190 -0.3073
 5770SOL     OW28942   4.124   0.574  12.867 -0.1369  0.7467  0.5905
 5770SOL    HW128943   4.053   0.590  12.930 -0.6711 -0.6525  0.3474
 5770SOL    HW228944   4.195   0.629  12.901  0.3833  0.4272  0.0205
 5771SOL     OW28945   3.446   2.953   4.840  0.2218  0.0000 -0.5168
 5771SOL    HW128946   3.517   2.888   4.842 -0.6587 -0.8004  3.3042
 5771SOL    HW228947   3.455   2.989   4.751 -3.0673  1.8837 -0.0669
 5772SOL     OW28948   3.802   0.806   1.387 -0.1739  0.0935  0.3001
 5772SOL    HW128949   3.755   0.874   1.436 -0.2274  0.9021 -0.8730
 5772SOL    HW228950   3.839   0.754   1.458  1.1059  2.3210  1.2584
 5773SOL     OW28951   0.871   0.738  15.067  0.3561 -0.4530  0.4116
 5773SOL    HW128952   0.905   0.662  15.019 -0.3831 -1.0184  0.7889
 5773SOL    HW228953   0.939   0.799  15.041 -1.1813  1.7139  1.5124
 5774SOL     OW28954   3.138   4.274   7.273 -0.3655  0.1720  0.5313
 5774SOL    HW128955   3.188   4.192   7.270 -0.7163  0.0211 -1.2690
 5774SOL    HW228956   3.214   4.323   7.242 -1.1910  1.0573 -0.0775
 5775SOL     OW28957   2.551   2.737  13.149  0.2743  0.4867  0.2830
 5775SOL    HW128958   2.573   2.700  13.064 -3.0671 -0.4885 -0.1702
 5775SOL    HW228959   2.623   2.703  13.202 -0.4967 -2.9531 -0.8448
 5776SOL     OW28960   3.111   0.741  11.369 -0.8310 -0.3471 -0.5724
 5776SOL    HW128961   3.146   0.679  11.433  1.3351 -0.1366 -1.5770
 5776SOL    HW228962   3.024   0.763  11.403 -0.2980  1.7623 -0.5673
 5777SOL     OW28963   2.954   1.373   6.297  0.5693 -0.2937  0.1885
 5777SOL    HW128964   3.020   1.304   6.287 -1.5238 -1.9311 -2.3507
 5777SOL    HW228965   2.890   1.334   6.238  0.1399 -0.0856  0.5177
 5778SOL     OW28966   1.156   1.646   2.565  0.4848 -0.4147 -0.0431
 5778SOL    HW128967   1.130   1.720   2.620  0.8003 -0.8375  0.6746
 5778SOL    HW228968   1.111   1.657   2.481  0.8975 -3.0664 -0.6304
 5779SOL     OW28969   0.137   0.604   2.461  0.4174  0.8739  0.2725
 5779SOL    HW128970   0.115   0.600   2.554 -0.1615  1.5524  0.1567
 5779SOL    HW228971   0.097   0.690   2.449  1.7962  1.5343  0.3947
 5780SOL     OW28972   0.043   3.504   2.312 -0.0719 -0.2589  0.6742
 5780SOL    HW128973   4.718   3.485   2.378 -0.0774 -0.3592  0.6404
 5780SOL    HW228974   0.075   3.415   2.294 -1.8441 -1.0144  1.2628
 5781SOL     OW28975   0.147   2.068   6.355 -0.1766  0.8256  0.5805
 5781SOL    HW128976   0.104   2.146   6.389  0.1097  0.9776  0.5878
 5781SOL    HW228977   0.213   2.055   6.422  0.3070 -3.3714 -0.6953
 5782SOL     OW28978   0.858   2.831   3.448 -0.0344  0.1119  0.4885
 5782SOL    HW128979   0.817   2.794   3.526 -0.7680  1.1354  0.5879
 5782SOL    HW228980   0.915   2.755   3.433 -1.1374 -0.5693 -0.2338
 5783SOL     OW28981   1.981   3.033  17.200  0.0598  0.3186  0.1020
 5783SOL    HW128982   1.911   3.090  17.230 -1.3129 -1.7180  0.8321
 5783SOL    HW228983   2.026   3.014  17.282 -0.4997 -1.4217  0.0100
 5784SOL     OW28984   2.606   1.058   6.443  0.2945 -0.3198 -0.3611
 5784SOL    HW128985   2.676   1.121   6.460 -0.4767  0.4010  0.1605
 5784SOL    HW228986   2.596   1.018   6.529 -2.5264 -0.9057 -0.9634
 5785SOL     OW28987   0.560   0.272   3.370  0.3078  0.5968  0.6963
 5785SOL    HW128988   0.564   0.367   3.357 -1.4555  0.5724 -0.0517
 5785SOL    HW228989   0.510   0.242   3.295 -0.2743 -0.6488  1.5893
 5786SOL     OW28990   1.794   0.977   6.248 -0.0470  0.4895 -0.1130
 5786SOL    HW128991   1.715   0.941   6.208 -0.2022  1.4541 -0.6805
 5786SOL    HW228992   1.829   1.030   6.176  2.1098  1.0089  1.3249
 5787SOL     OW28993   2.137   4.326   6.485 -0.0767  0.3454  0.0609
 5787SOL    HW128994   2.231   4.337   6.475  0.0551  1.0678  2.0546
 5787SOL    HW228995   2.116   4.407   6.440  2.1634 -0.6215 -2.7334
 5788SOL     OW28996   2.111   3.877   2.827  0.2577 -0.3092  0.2631
 5788SOL    HW128997   2.093   3.784   2.818 -0.0725 -0.2500  0.3248
 5788SOL    HW228998   2.117   3.903   2.919  0.3912 -1.3456  0.5479
 5789SOL     OW28999   3.597   2.518   5.530 -0.2605 -0.0449  0.0535
 5789SOL    HW129000   3.612   2.439   5.581  0.1393 -1.2113 -1.8426
 5789SOL    HW229001   3.669   2.578   5.552 -0.0089  0.7891 -2.9776
 5790SOL     OW29002   3.003   0.399   1.733  0.7087 -0.2200 -0.5549
 5790SOL    HW129003   2.934   0.416   1.669 -0.5173 -1.3566  0.4507
 5790SOL    HW229004   3.009   0.304   1.719  0.5044 -0.5823  1.8240
 5791SOL     OW29005   4.426   1.152   9.480 -0.1150 -0.3654 -0.3864
 5791SOL    HW129006   4.372   1.081   9.444  0.2528 -0.5108 -0.6472
 5791SOL    HW229007   4.366   1.226   9.480 -0.4232 -0.5995 -3.5629
 5792SOL     OW29008   1.313   2.767   7.176  0.3320  0.3465 -0.3137
 5792SOL    HW129009   1.238   2.732   7.128  0.5543  2.2007 -2.0282
 5792SOL    HW229010   1.291   2.739   7.265 -0.3270 -0.2099 -0.6554
 5793SOL     OW29011   2.035   0.872   3.673  0.3183  0.1592 -0.2182
 5793SOL    HW129012   1.941   0.875   3.692  0.2378 -0.3232 -0.5415
 5793SOL    HW229013   2.040   0.815   3.597  1.0549 -0.5324  0.3469
 5794SOL     OW29014   0.401   3.839  13.357  0.3058  0.1240 -0.2303
 5794SOL    HW129015   0.390   3.779  13.431  0.2445  2.3701  1.5942
 5794SOL    HW229016   0.406   3.785  13.278 -1.6045  0.6228 -0.7033
 5795SOL     OW29017   0.704   0.810   4.687 -0.0002  0.3103  0.2388
 5795SOL    HW129018   0.736   0.889   4.642 -1.5794  0.1182 -1.2469
 5795SOL    HW229019   0.656   0.771   4.613  0.9905 -1.3060  0.4700
 5796SOL     OW29020   0.650   2.409   7.902 -0.1868  0.0973 -0.3475
 5796SOL    HW129021   0.662   2.395   7.996 -0.5367  3.7852  0.2551
 5796SOL    HW229022   0.715   2.479   7.896 -0.7731  0.4873 -2.2551
 5797SOL     OW29023   4.597   2.925   7.577 -0.2748  0.5029 -0.0668
 5797SOL    HW129024   4.530   2.945   7.642  0.7058 -0.3852  1.2204
 5797SOL    HW229025   4.675   2.915   7.632 -1.3142 -0.5407  1.1999
 5798SOL     OW29026   2.564   4.244   2.073 -0.3059 -0.0294 -0.1356
 5798SOL    HW129027   2.506   4.171   2.096 -0.5790  0.2860  0.1701
 5798SOL    HW229028   2.600   4.263   2.160 -0.6224 -1.1347  0.2416
 5799SOL     OW29029   4.610   0.556   2.543  0.2493  0.5559  0.0465
 5799SOL    HW129030   4.648   0.613   2.609 -0.6026  2.6871 -1.3183
 5799SOL    HW229031   4.532   0.602   2.512 -1.2042 -1.9191  0.0319
 5800SOL     OW29032   4.409   0.487  11.870  0.7863  0.3854  0.1339
 5800SOL    HW129033   4.433   0.577  11.888  0.3910  0.3297  0.9003
 5800SOL    HW229034   4.320   0.493  11.903  0.4505  0.4802 -0.7748
 5801SOL     OW29035   0.270   3.818  14.045 -0.0127  0.1256  0.0956
 5801SOL    HW129036   0.250   3.728  14.072 -3.0868  0.8673  0.2985
 5801SOL    HW229037   0.317   3.845  14.123  2.0214  3.2377 -2.2269
 5802SOL     OW29038   4.709   4.363   6.488  0.7470 -0.0974  0.4851
 5802SOL    HW129039   4.647   4.428   6.455  0.2064 -0.7709  0.1767
 5802SOL    HW229040   0.017   4.337   6.411 -2.2816  1.7578 -2.1207
 5803SOL     OW29041   2.922   2.401   7.830  0.2564 -0.4049  0.1396
 5803SOL    HW129042   2.933   2.496   7.834 -1.7329 -0.0483 -2.9301
 5803SOL    HW229043   2.912   2.379   7.923  1.2091  2.5364  0.9339
 5804SOL     OW29044   0.090   0.305   2.919  0.2381  0.9751  0.7006
 5804SOL    HW129045   0.128   0.258   2.993 -1.1441 -1.2897 -0.0212
 5804SOL    HW229046   0.167   0.355   2.892 -0.4018  1.5291 -0.0859
 5805SOL     OW29047   3.055   1.522   8.599 -0.0025  1.0244  0.8940
 5805SOL    HW129048   3.046   1.523   8.695 -1.0162 -0.8088  0.8194
 5805SOL    HW229049   3.107   1.444   8.583  1.1894  1.9594  0.1626
 5806SOL     OW29050   4.314   4.569   5.798 -0.1158  0.4075 -0.1095
 5806SOL    HW129051   4.285   4.609   5.716 -2.2259 -2.3980 -0.7323
 5806SOL    HW229052   4.270   4.621   5.866 -2.7233  0.1333 -1.5823
 5807SOL     OW29053   3.616   0.413   4.329 -0.0297 -0.1740  0.2594
 5807SOL    HW129054   3.668   0.493   4.339 -2.2699  1.2114  0.8505
 5807SOL    HW229055   3.683   0.356   4.293 -1.6648 -0.2817 -2.5971
 5808SOL     OW29056   1.030   1.916   1.665  0.0114 -0.0318 -0.1165
 5808SOL    HW129057   1.116   1.948   1.636  1.5278 -1.4915  2.7582
 5808SOL    HW229058   0.976   1.944   1.591 -0.4538  1.2464  0.7220
 5809SOL     OW29059   0.639   4.485   7.494 -0.8847 -0.6037  0.2747
 5809SOL    HW129060   0.663   4.578   7.494  0.5534 -0.9777  1.6518
 5809SOL    HW229061   0.560   4.494   7.441  1.1114  0.7618 -2.4746
 5810SOL     OW29062   0.649   4.404  13.997  0.5984 -0.3543 -0.0144
 5810SOL    HW129063   0.723   4.413  13.938  0.3163 -1.6910 -0.5803
 5810SOL    HW229064   0.584   4.459  13.954  0.0599 -2.0143 -1.3421
 5811SOL     OW29065   4.414   1.455   7.610 -0.4092 -0.4006 -0.8755
 5811SOL    HW129066   4.359   1.534   7.614 -0.6570 -0.6636  1.1632
 5811SOL    HW229067   4.483   1.487   7.552 -0.1547  2.6617  1.1047
 5812SOL     OW29068   0.635   4.044   0.389 -0.5874  0.2464  0.2610
 5812SOL    HW129069   0.685   3.976   0.434 -2.0864 -1.4627 -0.6516
 5812SOL    HW229070   0.591   4.085   0.464 -1.0728 -0.0903  0.1613
 5813SOL     OW29071   2.788   2.518  15.589  0.4627 -0.3042 -0.5582
 5813SOL    HW129072   2.782   2.487  15.498  2.6578  2.1324 -1.5229
 5813SOL    HW229073   2.717   2.583  15.588  2.9788  2.4481  1.3752
 5814SOL     OW29074   0.366   2.902   3.249  0.1320  0.6410 -0.0537
 5814SOL    HW129075   0.346   2.975   3.191 -1.7252 -0.1490 -0.4132
 5814SOL    HW229076   0.379   2.830   3.188 -1.2296  0.5041 -0.1748
 5815SOL     OW29077   1.714   4.111   8.881 -0.4799 -0.5834  0.3168
 5815SOL    HW129078   1.632   4.154   8.903 -1.4306 -1.9786 -0.5116
 5815SOL    HW229079   1.759   4.105   8.965 -2.1859  0.1259  1.2781
 5816SOL     OW29080   3.779   1.746  14.390 -0.3860 -0.2303 -0.3636
 5816SOL    HW129081   3.704   1.694  14.419  0.9547 -0.2729  3.0283
 5816SOL    HW229082   3.734   1.782  14.314 -0.9784 -1.1654 -0.4534
 5817SOL     OW29083   4.242   3.374   7.215  0.2485 -0.1609 -0.1125
 5817SOL    HW129084   4.288   3.373   7.299  2.3484 -0.0320 -1.2444
 5817SOL    HW229085   4.290   3.453   7.188  0.1238 -0.2592 -0.6368
 5818SOL     OW29086   1.374   1.964   4.608 -0.2665  0.1678 -0.3863
 5818SOL    HW129087   1.293   2.009   4.585 -0.9541 -2.2010 -2.5979
 5818SOL    HW229088   1.420   2.028   4.662 -2.9179  0.0146  2.0659
 5819SOL     OW29089   2.852   1.100  10.008  0.0088  0.0516 -0.5296
 5819SOL    HW129090   2.879   1.149  10.086 -0.1600  0.0507 -0.4706
 5819SOL    HW229091   2.913   1.026  10.012 -1.1955 -0.9338 -0.1873
 5820SOL     OW29092   2.654   2.845   8.214 -0.1100  0.4107  0.5262
 5820SOL    HW129093   2.696   2.760   8.226  0.3189  0.4905 -0.4279
 5820SOL    HW229094   2.709   2.890   8.150 -1.6530  0.3061 -0.8816
 5821SOL     OW29095   3.128   4.020   5.687  0.1446  0.5157 -0.0630
 5821SOL    HW129096   3.143   4.045   5.778 -0.0120  0.4353 -0.0149
 5821SOL    HW229097   3.206   3.968   5.669  1.6865  3.3339 -1.5167
 5822SOL     OW29098   3.253   4.710   8.363  0.0230  0.3956  0.5178
 5822SOL    HW129099   3.255   4.696   8.268  1.5415  0.4550  0.5440
 5822SOL    HW229100   3.310   4.640   8.395  0.3493  0.2358 -0.4086
 5823SOL     OW29101   1.632   3.409  16.182 -0.1219  0.2379  0.7553
 5823SOL    HW129102   1.704   3.398  16.244  1.1119 -0.3123 -0.7881
 5823SOL    HW229103   1.589   3.484  16.224 -2.5187 -0.0406 -1.2062
 5824SOL     OW29104   1.400   0.188   1.393  0.1516 -0.2403  0.3785
 5824SOL    HW129105   1.330   0.125   1.408 -0.1730  0.0842  0.2255
 5824SOL    HW229106   1.363   0.262   1.442  0.2334  0.5592 -0.7641
 5825SOL     OW29107   3.789   0.857  15.199  0.4168  0.0547 -0.0745
 5825SOL    HW129108   3.864   0.799  15.211  0.4891 -0.0105 -0.8419
 5825SOL    HW229109   3.797   0.897  15.285 -0.9629  1.1089 -0.4342
 5826SOL     OW29110   0.113   2.153   5.708  0.5431 -0.1199  0.1610
 5826SOL    HW129111   0.075   2.227   5.756 -2.7265  0.0074 -2.6514
 5826SOL    HW229112   0.039   2.093   5.717  0.1459  0.3961  0.2978
 5827SOL     OW29113   3.273   1.098   1.819 -0.2972 -0.2494  0.1860
 5827SOL    HW129114   3.251   1.021   1.766  0.7791 -0.5001  0.0856
 5827SOL    HW229115   3.207   1.099   1.887 -1.6168 -0.1149 -1.0933
 5828SOL     OW29116   2.372   0.054   7.447 -0.2663  0.0554 -0.0290
 5828SOL    HW129117   2.325   0.015   7.520 -1.0635  0.4465 -0.3358
 5828SOL    HW229118   2.380   0.141   7.486  0.6931 -0.4183  0.8379
 5829SOL     OW29119   0.425   3.059   9.227  0.4998 -0.4439  0.1344
 5829SOL    HW129120   0.347   3.064   9.172  0.1701 -0.1018  0.6324
 5829SOL    HW229121   0.483   3.021   9.160 -0.1799  1.8547 -1.7604
 5830SOL     OW29122   0.287   2.113   6.086 -0.5730 -0.2111  0.2577
 5830SOL    HW129123   0.373   2.120   6.045 -1.7886  0.2411 -2.2137
 5830SOL    HW229124   0.300   2.058   6.163 -1.0955  0.3674  0.7711
 5831SOL     OW29125   1.605   2.584   4.951 -0.5526  0.3591  0.0939
 5831SOL    HW129126   1.556   2.631   4.884  0.2969  1.1570  0.0307
 5831SOL    HW229127   1.544   2.593   5.024 -0.4666 -0.7562  0.3071
 5832SOL     OW29128   1.562   4.416  14.828  0.2898 -0.3646  0.3324
 5832SOL    HW129129   1.545   4.326  14.797  0.7583 -0.9168  1.6980
 5832SOL    HW229130   1.655   4.422  14.846  0.3430 -1.4492  0.4416
 5833SOL     OW29131   0.288   2.395  10.944  0.2186  0.5673  0.6603
 5833SOL    HW129132   0.240   2.468  10.984 -0.3760  0.4526  0.1538
 5833SOL    HW229133   0.371   2.441  10.930  1.0746 -0.1786  3.2348
 5834SOL     OW29134   3.498   2.434   8.121  0.3069 -0.2184 -0.4215
 5834SOL    HW129135   3.455   2.507   8.077  0.5776  0.0247 -0.2751
 5834SOL    HW229136   3.429   2.372   8.146 -2.5482  2.7921 -0.8653
 5835SOL     OW29137   3.648   2.684  11.642  0.5120  0.1686 -0.0668
 5835SOL    HW129138   3.672   2.683  11.735  3.7602  1.3845 -0.8850
 5835SOL    HW229139   3.642   2.777  11.622  0.2590  0.0257 -0.6381
 5836SOL     OW29140   2.109   4.637   3.787  0.0557  0.5140  0.3273
 5836SOL    HW129141   2.078   4.653   3.698 -1.1584 -1.3551  0.4162
 5836SOL    HW229142   2.054   4.560   3.802  1.2143 -0.4288 -0.2997
 5837SOL     OW29143   1.402   4.341   8.353  0.2381 -0.2432  0.0597
 5837SOL    HW129144   1.377   4.375   8.439  2.6967  0.8371  0.3512
 5837SOL    HW229145   1.376   4.251   8.370 -1.9528  0.5283  0.7739
 5838SOL     OW29146   0.476   2.708   8.692 -0.2016  0.0728 -0.6416
 5838SOL    HW129147   0.397   2.680   8.646 -0.5918  1.5763 -0.9007
 5838SOL    HW229148   0.511   2.752   8.615  0.3552 -0.7400 -0.8470
 5839SOL     OW29149   4.511   3.252   0.271  0.2801 -0.3350  0.3987
 5839SOL    HW129150   4.547   3.189   0.208  0.3956  0.8800 -0.7770
 5839SOL    HW229151   4.478   3.189   0.334 -1.4340 -0.4042 -0.5707
 5840SOL     OW29152   1.145   3.996  11.969  0.1946 -0.4826  0.1470
 5840SOL    HW129153   1.216   4.006  11.906 -0.1985  0.4956 -0.1448
 5840SOL    HW229154   1.163   3.909  12.004  1.5232  0.3248  1.4318
 5841SOL     OW29155   1.884   4.010   3.787 -0.0465  0.4708  0.0767
 5841SOL    HW129156   1.971   4.028   3.751 -0.1770 -1.4684 -1.2022
 5841SOL    HW229157   1.904   3.926   3.828  1.4866  0.0230 -1.5831
 5842SOL     OW29158   0.510   2.245   5.920  0.1566  0.6947 -0.3850
 5842SOL    HW129159   0.517   2.336   5.893 -0.0739  0.4501 -1.2691
 5842SOL    HW229160   0.558   2.252   6.002 -1.3009  1.4000  0.4190
 5843SOL     OW29161   1.132   1.937   2.436  0.7061 -0.2930 -0.6597
 5843SOL    HW129162   1.099   1.864   2.384 -1.9384  0.9239 -0.6832
 5843SOL    HW229163   1.070   2.007   2.415  1.8112  0.6060 -0.9321
 5844SOL     OW29164   2.778   4.571   2.086 -0.4629  0.2889 -0.2352
 5844SOL    HW129165   2.720   4.524   2.146  0.3853  0.4229  0.6693
 5844SOL    HW229166   2.779   4.661   2.118  1.1360  0.6362 -1.2812
 5845SOL     OW29167   3.186   3.384   2.930 -0.2882 -0.6551 -0.5387
 5845SOL    HW129168   3.254   3.386   2.862  1.8858 -2.2818  1.5965
 5845SOL    HW229169   3.109   3.381   2.874  0.3213 -2.1162 -1.3028
 5846SOL     OW29170   1.077   3.128   4.743  0.4611 -0.1184  0.0794
 5846SOL    HW129171   1.029   3.055   4.783  1.5232 -0.6966  0.2809
 5846SOL    HW229172   1.056   3.125   4.649  0.2230 -0.6335  0.1448
 5847SOL     OW29173   1.356   4.431  15.471  0.3327  0.0379  0.0155
 5847SOL    HW129174   1.273   4.427  15.519 -1.2608  0.4456 -2.7001
 5847SOL    HW229175   1.415   4.389  15.534 -1.5664 -3.1628 -0.3301
 5848SOL     OW29176   3.203   0.042   3.643 -0.5719 -0.3604 -0.2247
 5848SOL    HW129177   3.224   4.691   3.636  1.4259 -0.0041  0.8306
 5848SOL    HW229178   3.181   0.054   3.736 -2.3315 -2.5737 -0.3474
 5849SOL     OW29179   2.588   3.513   2.142  0.6841  0.7432 -0.2770
 5849SOL    HW129180   2.588   3.609   2.142  0.7501  0.7485 -1.3659
 5849SOL    HW229181   2.497   3.485   2.135  1.5302 -1.9654 -0.2706
 5850SOL     OW29182   1.650   2.541   4.160  0.1877  0.0606  0.1431
 5850SOL    HW129183   1.713   2.543   4.232  1.7200  0.7014 -1.2187
 5850SOL    HW229184   1.706   2.528   4.084  1.6366 -0.0450  1.2322
 5851SOL     OW29185   1.345   3.577  13.831 -0.1469  0.0441  0.6103
 5851SOL    HW129186   1.382   3.507  13.885  0.2958  0.7398  1.2177
 5851SOL    HW229187   1.252   3.560  13.824  0.1069 -0.4973 -1.3220
 5852SOL     OW29188   0.200   3.619  10.203  0.3674  0.2383 -0.5233
 5852SOL    HW129189   0.292   3.593  10.197  0.4487  0.2326  0.7038
 5852SOL    HW229190   0.154   3.536  10.208 -0.3004  0.6610  0.3028
 5853SOL     OW29191   2.083   1.826   2.990 -0.2159 -0.1345 -0.1701
 5853SOL    HW129192   1.989   1.838   3.005 -0.0942  1.2286 -0.4455
 5853SOL    HW229193   2.092   1.808   2.896  1.4518  0.8026 -0.2006
 5854SOL     OW29194   3.295   2.907   2.549  0.2457 -0.7280 -0.0013
 5854SOL    HW129195   3.333   2.828   2.587 -0.1508 -0.6419  0.5669
 5854SOL    HW229196   3.266   2.964   2.620 -0.9387 -0.6859 -0.5094
 5855SOL     OW29197   1.779   1.093  17.328 -0.1886 -0.4379  0.3656
 5855SOL    HW129198   1.789   1.165  17.266  2.1601 -0.2943  0.9077
 5855SOL    HW229199   1.874   1.078  17.334 -0.3828 -1.6388  0.4470
 5856SOL     OW29200   3.320   2.045  11.805 -0.5516  0.0810 -0.5512
 5856SOL    HW129201   3.250   2.018  11.746 -0.1464  1.0052 -1.4489
 5856SOL    HW229202   3.277   2.055  11.890 -0.4967  0.0409 -0.5186
 5857SOL     OW29203   2.121   0.542   3.729 -0.4848  0.3116  0.0256
 5857SOL    HW129204   2.167   0.625   3.730  2.7321 -1.4757  0.4167
 5857SOL    HW229205   2.042   0.552   3.783 -0.9054 -2.3272 -0.0859
 5858SOL     OW29206   2.081   3.689   6.710  0.5566  0.0259  0.1811
 5858SOL    HW129207   2.035   3.728   6.785  0.0717  0.8976 -0.5602
 5858SOL    HW229208   2.065   3.596   6.722  0.6061  0.2054  1.6918
 5859SOL     OW29209   0.367   2.566  16.806 -0.7680  0.5773 -0.6247
 5859SOL    HW129210   0.324   2.648  16.829 -1.7951 -0.2835  0.5786
 5859SOL    HW229211   0.298   2.501  16.821 -2.1717  2.4491  0.9890
 5860SOL     OW29212   4.500   3.635   6.293  0.5221  0.2870  0.2095
 5860SOL    HW129213   4.484   3.575   6.366 -1.2075  0.0376 -0.3588
 5860SOL    HW229214   4.568   3.691   6.331 -0.4963  2.6193 -1.3931
 5861SOL     OW29215   0.544   2.767  14.268 -0.4396  0.4042  0.0704
 5861SOL    HW129216   0.608   2.725  14.211 -0.2970  0.2239  0.3682
 5861SOL    HW229217   0.468   2.769  14.209 -0.9761 -1.9641  0.6792
 5862SOL     OW29218   2.865   0.629   5.544  0.6165 -0.4778 -0.1602
 5862SOL    HW129219   2.867   0.723   5.563 -0.8688 -0.2654 -1.0492
 5862SOL    HW229220   2.772   0.613   5.560  0.3799 -0.0217 -1.0848
 5863SOL     OW29221   1.689   2.456  11.929 -0.3432 -0.7188 -0.6558
 5863SOL    HW129222   1.621   2.443  11.863  0.5476 -0.3912 -1.6478
 5863SOL    HW229223   1.763   2.413  11.886 -1.2894 -1.8390 -1.1722
 5864SOL     OW29224   1.687   1.957   6.781  0.5148  0.0678  0.2136
 5864SOL    HW129225   1.742   2.030   6.809  0.3090  1.5225 -3.1668
 5864SOL    HW229226   1.732   1.879   6.813 -0.6886  0.2119  2.1859
 5865SOL     OW29227   1.470   1.250   8.645  0.2679 -0.6740 -0.4335
 5865SOL    HW129228   1.563   1.226   8.637 -0.1765 -2.5848  0.1084
 5865SOL    HW229229   1.469   1.346   8.646  1.5078 -0.6593 -0.0723
 5866SOL     OW29230   0.889   2.634   8.876  0.4420 -0.3064 -0.2081
 5866SOL    HW129231   0.862   2.635   8.784 -0.5735 -1.8502  0.0713
 5866SOL    HW229232   0.840   2.558   8.906 -1.6451  0.6564 -1.1572
 5867SOL     OW29233   3.566   4.418   2.002 -0.4716  0.3514  0.4611
 5867SOL    HW129234   3.473   4.433   2.018 -0.6744 -0.2618 -0.1084
 5867SOL    HW229235   3.550   4.398   1.910 -0.1179  1.1702  0.2253
 5868SOL     OW29236   1.222   0.485   6.312 -0.1854  0.5048 -0.3556
 5868SOL    HW129237   1.258   0.504   6.399 -0.9474  3.0074 -0.5954
 5868SOL    HW229238   1.150   0.549   6.314 -1.4535 -0.8570 -2.6677
 5869SOL     OW29239   3.712   2.330  10.401 -0.3416  0.1857  0.0737
 5869SOL    HW129240   3.633   2.382  10.415 -1.2420 -0.8553 -1.2154
 5869SOL    HW229241   3.734   2.291  10.486 -0.6906  1.7761  0.8997
 5870SOL     OW29242   1.953   0.347   2.899  0.3829 -0.0517  0.0672
 5870SOL    HW129243   1.932   0.439   2.908 -2.2249 -0.6868  0.3637
 5870SOL    HW229244   2.022   0.335   2.965  0.5208  1.5596  0.2092
 5871SOL     OW29245   2.203   1.977   3.670  0.5823 -0.8699  0.3118
 5871SOL    HW129246   2.223   1.912   3.603  0.3059 -0.1701 -0.4513
 5871SOL    HW229247   2.136   2.031   3.627  2.2803  0.9862 -0.0339
 5872SOL     OW29248   3.783   4.426   8.228  0.2597  0.0148 -0.5528
 5872SOL    HW129249   3.762   4.518   8.215  2.6851  0.3057 -2.4043
 5872SOL    HW229250   3.867   4.413   8.184  0.2632 -0.2240 -0.4788
 5873SOL     OW29251   3.581   3.354  17.538  0.2819 -0.2932 -0.2263
 5873SOL    HW129252   3.648   3.422  17.549 -1.8129  1.6744  0.3840
 5873SOL    HW229253   3.644   3.283  17.527 -1.5453 -1.6329 -2.0732
 5874SOL     OW29254   3.124   0.057   7.908  0.1494 -0.0508 -0.0546
 5874SOL    HW129255   3.030   0.050   7.926  0.1154  0.1373 -0.1536
 5874SOL    HW229256   3.163   4.741   7.972 -0.3716 -0.2938  0.0415
 5875SOL     OW29257   4.384   4.335   2.557  0.3000 -0.8012  0.3284
 5875SOL    HW129258   4.326   4.321   2.632  1.0301  1.9418  1.4038
 5875SOL    HW229259   4.310   4.340   2.496 -2.0075 -0.2430  3.1340
 5876SOL     OW29260   0.629   1.084   1.667  0.6768  0.4425 -0.2128
 5876SOL    HW129261   0.698   1.034   1.623 -0.3697 -0.3854 -0.9067
 5876SOL    HW229262   0.550   1.044   1.631  1.5080 -1.0752 -0.3116
 5877SOL     OW29263   2.633   0.352   3.740 -0.1901 -0.0341  0.0216
 5877SOL    HW129264   2.708   0.393   3.697 -1.1252  1.6897  0.0372
 5877SOL    HW229265   2.584   0.428   3.771  0.8626  0.4862  0.3781
 5878SOL     OW29266   1.368   3.502  16.242  0.2524 -0.0469 -0.2146
 5878SOL    HW129267   1.360   3.550  16.160 -2.4945 -0.9586 -0.4926
 5878SOL    HW229268   1.282   3.459  16.243  0.2202 -0.0020 -1.3251
 5879SOL     OW29269   0.791   2.219  10.072 -0.0083  0.3981  0.4796
 5879SOL    HW129270   0.757   2.133  10.047  2.7415 -0.5067 -0.1478
 5879SOL    HW229271   0.869   2.184  10.115 -0.2616 -0.9413 -0.1477
 5880SOL     OW29272   4.390   3.343   7.754  0.1938  0.7077 -0.3453
 5880SOL    HW129273   4.427   3.349   7.666  0.2448  3.2217 -0.1600
 5880SOL    HW229274   4.299   3.374   7.750  0.9336  2.7879 -1.3088
 5881SOL     OW29275   1.042   0.168   4.845 -0.6814 -0.3571  0.0609
 5881SOL    HW129276   1.087   0.117   4.912 -0.7744 -0.8387 -0.2440
 5881SOL    HW229277   1.016   0.103   4.779 -0.2131  0.9749 -1.4474
 5882SOL     OW29278   4.404   1.604   7.354  0.5763 -0.2630  0.0123
 5882SOL    HW129279   4.389   1.695   7.329 -0.4104 -0.8793 -1.6154
 5882SOL    HW229280   4.321   1.563   7.330 -0.1077  1.3240 -0.3629
 5883SOL     OW29281   2.185   3.977   3.595 -0.1240  0.1145 -0.1457
 5883SOL    HW129282   2.250   3.909   3.581 -0.2097  0.0748 -0.3498
 5883SOL    HW229283   2.107   3.928   3.568 -0.0392 -0.3149  0.3878
 5884SOL     OW29284   1.752   2.211   5.369  0.0174  0.5497 -0.2782
 5884SOL    HW129285   1.822   2.269   5.339  2.0273 -1.4478  0.5600
 5884SOL    HW229286   1.678   2.256   5.326 -0.5285  1.3424  1.5161
 5885SOL     OW29287   3.113   4.447   4.004 -1.2924 -0.6851  0.3773
 5885SOL    HW129288   3.152   4.518   4.055 -1.5057  0.6891 -1.3870
 5885SOL    HW229289   3.031   4.422   4.046 -2.6803  1.9574 -0.8173
 5886SOL     OW29290   3.193   2.636  11.882  0.8603 -0.5579  0.0506
 5886SOL    HW129291   3.163   2.550  11.914  0.2561 -0.2436  0.3365
 5886SOL    HW229292   3.286   2.617  11.869  1.7887  4.0976 -0.0632
 5887SOL     OW29293   1.545   2.438   9.018  0.6082  0.4551  0.7419
 5887SOL    HW129294   1.580   2.494   8.949 -2.5706  1.0404 -0.3966
 5887SOL    HW229295   1.451   2.429   8.999  0.9325 -1.6194  0.1464
 5888SOL     OW29296   0.394   3.436   3.328 -0.1353 -0.5187 -0.3656
 5888SOL    HW129297   0.325   3.501   3.315  0.1515 -0.0902  0.2810
 5888SOL    HW229298   0.427   3.435   3.238 -2.2999  1.0181 -1.1705
 5889SOL     OW29299   4.313   1.174  15.730  0.2715 -0.0540 -0.0084
 5889SOL    HW129300   4.352   1.186  15.643  0.2040 -1.8032 -0.2912
 5889SOL    HW229301   4.222   1.203  15.721 -0.5009 -2.3328  0.3764
 5890SOL     OW29302   2.702   2.067   5.666 -0.7958  0.8560 -0.4634
 5890SOL    HW129303   2.775   2.061   5.728 -1.6436 -0.4049  0.4164
 5890SOL    HW229304   2.757   2.115   5.604  0.0445  0.3966 -0.0761
 5891SOL     OW29305   3.048   1.768  14.988 -0.1390  0.1465 -0.5195
 5891SOL    HW129306   2.971   1.817  15.016 -0.2612 -0.4993  0.2940
 5891SOL    HW229307   3.112   1.804  15.050 -0.5845 -0.1614  0.1233
 5892SOL     OW29308   4.333   2.631   0.274 -0.6802 -0.3350  0.3629
 5892SOL    HW129309   4.293   2.683   0.342  2.2877  1.2096  0.9259
 5892SOL    HW229310   4.273   2.562   0.246 -0.2723  0.2896 -2.0852
 5893SOL     OW29311   1.664   1.461   1.231  0.0469 -0.0942 -0.4988
 5893SOL    HW129312   1.642   1.508   1.150  2.8656  0.2396 -1.0527
 5893SOL    HW229313   1.580   1.419   1.254  1.8507 -3.2197  0.3728
 5894SOL     OW29314   4.192   1.434   4.764 -0.2165 -0.0587  0.1258
 5894SOL    HW129315   4.164   1.348   4.732  0.8160 -0.0419 -0.8295
 5894SOL    HW229316   4.121   1.487   4.728 -0.7504 -0.8493  0.0229
 5895SOL     OW29317   4.104   4.688   4.108 -0.0921 -0.1887  0.1511
 5895SOL    HW129318   4.094   0.027   4.159  0.0551  0.4849 -0.8746
 5895SOL    HW229319   4.140   4.720   4.025 -1.7645 -1.5683 -1.0715
 5896SOL     OW29320   4.645   1.027   8.131 -0.1726  0.0176  0.6134
 5896SOL    HW129321   4.729   0.981   8.133  0.2922  0.9372  2.2232
 5896SOL    HW229322   4.617   1.037   8.040  0.9531 -2.9977 -0.0654
 5897SOL     OW29323   2.542   1.660   6.876  0.5114  0.3367  0.0832
 5897SOL    HW129324   2.562   1.734   6.933 -0.6050 -0.2586  1.2664
 5897SOL    HW229325   2.624   1.612   6.888  1.4224  2.2006  1.4330
 5898SOL     OW29326   3.452   3.270   1.397 -0.3148 -0.5632  0.3303
 5898SOL    HW129327   3.369   3.271   1.444  0.6542 -1.0302  2.0210
 5898SOL    HW229328   3.437   3.342   1.335 -1.0691 -0.7567  0.2915
 5899SOL     OW29329   4.495   4.628   0.543 -0.1663  1.3276 -0.2496
 5899SOL    HW129330   4.437   4.675   0.483  1.0858 -0.1664 -2.6101
 5899SOL    HW229331   4.519   4.551   0.492 -2.7401  0.9692 -0.8947
 5900SOL     OW29332   3.735   3.993   3.978  0.3774 -0.4582  0.1355
 5900SOL    HW129333   3.819   3.947   3.984 -0.0243 -1.3002 -0.5816
 5900SOL    HW229334   3.676   3.919   3.963 -0.3479 -0.0670  1.0876
 5901SOL     OW29335   2.783   1.194   6.593 -0.0473  0.0717 -0.1349
 5901SOL    HW129336   2.865   1.147   6.578 -0.4706 -0.3291 -1.2307
 5901SOL    HW229337   2.823   1.265   6.643 -0.5747  0.4566 -0.2532
 5902SOL     OW29338   3.825   4.084   8.459 -0.3303  0.0331 -0.7329
 5902SOL    HW129339   3.871   4.161   8.494 -2.3006  1.0215 -0.2373
 5902SOL    HW229340   3.856   4.092   8.369  0.5717  0.4039 -0.3890
 5903SOL     OW29341   3.724   3.029  12.021 -0.0649 -0.0906 -0.1603
 5903SOL    HW129342   3.648   3.054  11.968 -0.0325 -0.0883 -0.2062
 5903SOL    HW229343   3.694   3.049  12.110  1.2007 -0.2206  0.3007
 5904SOL     OW29344   1.228   4.520  15.202  0.1469 -0.4184 -0.0730
 5904SOL    HW129345   1.314   4.536  15.164  0.1978  0.5490  0.4452
 5904SOL    HW229346   1.241   4.548  15.292  1.1208 -2.5070  0.4467
 5905SOL     OW29347   1.863   4.052   2.811 -0.3520 -0.0972  0.0580
 5905SOL    HW129348   1.840   4.084   2.724 -0.3575  0.6617  0.3363
 5905SOL    HW229349   1.937   3.996   2.786  1.0415  2.4449 -1.5112
 5906SOL     OW29350   0.651   0.180   9.121 -0.6103 -1.0370 -0.0479
 5906SOL    HW129351   0.609   0.104   9.163 -4.3889  1.5862  0.9590
 5906SOL    HW229352   0.589   0.247   9.150 -1.3298 -2.4982  1.8249
 5907SOL     OW29353   0.309   4.225   1.849 -0.0843 -0.4619  0.0277
 5907SOL    HW129354   0.285   4.195   1.936 -1.7720  0.5867 -0.0735
 5907SOL    HW229355   0.367   4.298   1.870 -0.0191 -0.7986  0.9931
 5908SOL     OW29356   3.790   4.600   5.246 -0.4104  0.4785  0.1127
 5908SOL    HW129357   3.805   4.605   5.151  0.6794 -1.3534  0.1931
 5908SOL    HW229358   3.861   4.543   5.274  0.2526  0.4614 -1.6154
 5909SOL     OW29359   3.912   4.658   8.474  0.4292  0.2230  0.2402
 5909SOL    HW129360   3.992   4.709   8.460  1.0473 -0.5668  0.8654
 5909SOL    HW229361   3.945   4.598   8.542 -1.9335 -0.6053  0.6537
 5910SOL     OW29362   4.585   2.045   8.289  0.2662 -0.3383 -0.0775
 5910SOL    HW129363   4.523   2.057   8.217  0.3122  2.7794  0.4076
 5910SOL    HW229364   4.567   2.126   8.337  0.6162 -0.1844 -0.2089
 5911SOL     OW29365   3.360   0.975   3.270  0.5730 -0.6747 -0.6136
 5911SOL    HW129366   3.416   0.978   3.192  2.6168 -0.5486  0.8652
 5911SOL    HW229367   3.426   0.943   3.332 -1.0922 -0.6567  1.1661
 5912SOL     OW29368   3.047   1.072   3.972  0.4412 -0.0441 -0.2172
 5912SOL    HW129369   3.010   1.136   4.032 -0.6742 -0.1750 -0.7659
 5912SOL    HW229370   3.137   1.091   3.947  1.1326 -0.1367  2.1679
 5913SOL     OW29371   1.635   4.482   3.937  0.1674  0.3438  0.0478
 5913SOL    HW129372   1.650   4.400   3.889 -0.0878  0.0334  0.5003
 5913SOL    HW229373   1.677   4.547   3.880  1.5831  0.6426  1.4373
 5914SOL     OW29374   3.754   2.205   0.155 -0.0110  0.1810  0.3639
 5914SOL    HW129375   3.707   2.168   0.229 -0.7331 -0.9669 -0.6685
 5914SOL    HW229376   3.687   2.245   0.100  0.7908 -0.5387 -1.1383
 5915SOL     OW29377   2.699   1.808   1.923  0.0338  0.3275 -0.7665
 5915SOL    HW129378   2.604   1.823   1.921 -0.2090 -1.1770 -0.9039
 5915SOL    HW229379   2.700   1.712   1.931  0.1173  0.3091 -0.9968
 5916SOL     OW29380   2.780   4.340   4.771 -0.6728  0.1330  0.0976
 5916SOL    HW129381   2.858   4.321   4.720  0.3902 -1.1116  2.1822
 5916SOL    HW229382   2.738   4.255   4.787  0.6190  0.0879  3.2537
 5917SOL     OW29383   0.920   0.361   7.104  0.1237 -0.4447  0.2460
 5917SOL    HW129384   0.957   0.272   7.104  2.5511  0.5802  1.3711
 5917SOL    HW229385   0.839   0.350   7.055 -0.6309 -0.8446  1.5756
 5918SOL     OW29386   1.708   1.279   6.452  0.0653 -0.4840  0.7206
 5918SOL    HW129387   1.696   1.254   6.544 -0.2477 -2.1450  0.2216
 5918SOL    HW229388   1.793   1.239   6.434 -1.0158 -0.9067 -3.4177
 5919SOL     OW29389   0.074   1.396   2.548  0.1345 -0.2045 -0.5779
 5919SOL    HW129390   0.120   1.409   2.631 -0.5990 -1.0075 -0.0444
 5919SOL    HW229391   0.005   1.336   2.577 -0.3395  0.3093 -0.6351
 5920SOL     OW29392   4.423   0.093   6.011  0.4406  0.6145  0.4622
 5920SOL    HW129393   4.333   0.113   6.038  0.3405 -0.6214  1.0480
 5920SOL    HW229394   4.435   0.010   6.057 -1.8944 -0.6475 -1.1541
 5921SOL     OW29395   0.500   0.489  15.108 -0.6641 -0.1735  0.1227
 5921SOL    HW129396   0.465   0.402  15.127 -0.8457 -0.2749 -0.6374
 5921SOL    HW229397   0.580   0.485  15.159  0.0330  0.3326 -0.9343
 5922SOL     OW29398   1.899   0.785   6.842  0.0896  0.1519 -0.2907
 5922SOL    HW129399   1.810   0.819   6.837  1.5252  4.2229  1.2364
 5922SOL    HW229400   1.891   0.757   6.933  2.2916  2.3552  0.5786
 5923SOL     OW29401   1.491   0.971   2.774 -0.3235  0.0954 -0.5465
 5923SOL    HW129402   1.481   0.891   2.824  1.0510 -0.4567 -1.1425
 5923SOL    HW229403   1.581   0.997   2.792 -0.3108  1.4518 -2.5423
 5924SOL     OW29404   0.468   1.459   7.999  0.1091  0.6838 -0.3580
 5924SOL    HW129405   0.538   1.394   8.007  0.4965  0.8222 -2.6209
 5924SOL    HW229406   0.513   1.522   7.943  1.2978  2.7416  2.8835
 5925SOL     OW29407   3.261   3.713  15.268 -0.3276  0.2165  0.8011
 5925SOL    HW129408   3.166   3.715  15.254 -0.2689 -0.8071  0.2700
 5925SOL    HW229409   3.279   3.625  15.235 -2.7343  0.6694 -1.7382
 5926SOL     OW29410   1.474   2.052  16.259 -0.2108  0.4425  0.7943
 5926SOL    HW129411   1.458   2.025  16.169  0.5242  0.5229  0.6366
 5926SOL    HW229412   1.454   2.145  16.248  1.1403  0.6440  0.0456
 5927SOL     OW29413   3.387   1.617   3.290  0.6282  0.3270  0.3060
 5927SOL    HW129414   3.299   1.581   3.302  1.0579 -0.9061 -0.1533
 5927SOL    HW229415   3.374   1.653   3.202  1.6602  0.9710  0.4246
 5928SOL     OW29416   0.788   2.836   0.940  0.6205 -0.3628  0.5979
 5928SOL    HW129417   0.698   2.856   0.966  0.6366 -0.6131  0.8463
 5928SOL    HW229418   0.802   2.763   1.001 -0.5239  0.2827  1.6329
 5929SOL     OW29419   1.127   0.569   6.832  0.1105  0.1612  0.1368
 5929SOL    HW129420   1.083   0.485   6.826 -0.1638  0.2111  1.6309
 5929SOL    HW229421   1.100   0.606   6.748  1.5574  0.6150 -0.1314
 5930SOL     OW29422   2.581   0.989  10.022 -0.1158  0.4247 -0.2976
 5930SOL    HW129423   2.569   0.992  10.117  2.0260  1.9493 -0.0900
 5930SOL    HW229424   2.674   1.009  10.013 -0.2801  1.7041  0.8732
 5931SOL     OW29425   1.510   3.823   5.106 -0.3689 -0.2071 -0.2515
 5931SOL    HW129426   1.514   3.787   5.018  0.3641 -0.1390 -0.2429
 5931SOL    HW229427   1.503   3.916   5.081 -2.2199 -0.0832  0.6867
 5932SOL     OW29428   4.368   0.138   1.830 -0.2459 -0.3009 -0.2327
 5932SOL    HW129429   4.289   0.087   1.811 -0.1809 -0.0849 -1.0801
 5932SOL    HW229430   4.362   0.219   1.779 -0.0421 -0.1107  0.0375
 5933SOL     OW29431   2.769   0.239   4.189  0.6588  0.2736  0.5766
 5933SOL    HW129432   2.797   0.264   4.101  0.6225 -3.9783 -0.6659
 5933SOL    HW229433   2.857   0.211   4.215  0.5811  0.7276  1.3051
 5934SOL     OW29434   4.430   3.370  12.001 -0.3808  0.4998  0.2535
 5934SOL    HW129435   4.442   3.394  11.909  1.0279  0.0452  0.3225
 5934SOL    HW229436   4.417   3.457  12.038  1.1442  0.7034  0.3374
 5935SOL     OW29437   1.608   1.291   7.678  0.0595  0.2939 -0.0132
 5935SOL    HW129438   1.663   1.368   7.661  1.3293 -0.8107 -0.9453
 5935SOL    HW229439   1.664   1.219   7.648 -0.7832  1.1153 -3.4741
 5936SOL     OW29440   4.047   1.597   2.730  0.2309 -0.2754 -0.4367
 5936SOL    HW129441   4.075   1.591   2.639 -1.7005  2.1001 -1.1700
 5936SOL    HW229442   3.970   1.652   2.719  2.0108  1.6984 -3.1036
 5937SOL     OW29443   2.328   1.355  16.977  0.5084 -1.0672 -0.0511
 5937SOL    HW129444   2.403   1.385  16.926  0.0506  0.7731  0.3407
 5937SOL    HW229445   2.373   1.360  17.061 -0.2892  1.6925  0.2063
 5938SOL     OW29446   3.619   4.277   3.441  0.3841 -0.6404  0.0878
 5938SOL    HW129447   3.544   4.305   3.492  1.2645 -0.0888  1.0795
 5938SOL    HW229448   3.684   4.249   3.505 -1.2439  2.9593  3.2611
 5939SOL     OW29449   1.867   2.946   0.504 -0.3477 -0.4063 -0.5264
 5939SOL    HW129450   1.821   2.946   0.588 -2.9499 -0.1990 -1.9718
 5939SOL    HW229451   1.797   2.965   0.442 -0.4291 -0.3766 -0.4251
 5940SOL     OW29452   0.002   1.365   8.170  0.5871 -0.3477  0.4217
 5940SOL    HW129453   4.654   1.389   8.192  0.6811  1.2873 -0.9183
 5940SOL    HW229454   0.034   1.326   8.251 -0.1448  2.4365  2.0778
 5941SOL     OW29455   0.932   3.188   8.876 -0.5541  0.0219 -0.2986
 5941SOL    HW129456   0.966   3.203   8.964  0.4389 -0.1242 -0.6688
 5941SOL    HW229457   0.843   3.167   8.908 -0.3545 -0.6688 -0.1828
 5942SOL     OW29458   0.502   0.661   1.097 -0.2264 -0.0990 -0.5377
 5942SOL    HW129459   0.451   0.696   1.024  0.1506  2.1429  0.2821
 5942SOL    HW229460   0.565   0.607   1.051  1.1350  1.3796 -0.4191
 5943SOL     OW29461   4.735   3.906   1.933  0.1619 -0.3901 -0.4700
 5943SOL    HW129462   4.692   3.862   2.007 -0.8818  1.4062 -0.0134
 5943SOL    HW229463   0.073   3.949   1.964 -0.1358  1.3492 -2.1390
 5944SOL     OW29464   2.461   0.077   5.162  0.3773  0.2081  0.4906
 5944SOL    HW129465   2.540   0.126   5.183  2.2667 -2.5077 -0.1812
 5944SOL    HW229466   2.400   0.105   5.231 -0.2062  1.0729 -0.3719
 5945SOL     OW29467   0.868   4.740   1.412 -0.0507  0.2406  0.0705
 5945SOL    HW129468   0.896   4.670   1.354  0.5625 -0.7524  1.5587
 5945SOL    HW229469   0.906   4.718   1.497 -1.8624 -4.1329 -0.2102
 5946SOL     OW29470   2.555   1.000   7.451 -0.0499 -0.2243  0.0167
 5946SOL    HW129471   2.493   0.973   7.519  0.9268  0.5819  1.2371
 5946SOL    HW229472   2.600   1.071   7.496  0.8979 -0.3884 -0.6644
 5947SOL     OW29473   2.200   1.281   2.759 -0.8157 -0.4131 -0.1534
 5947SOL    HW129474   2.140   1.313   2.827  1.1741  0.1135  1.3728
 5947SOL    HW229475   2.153   1.200   2.743  0.3607 -1.7637  3.0915
 5948SOL     OW29476   1.693   2.339  14.785 -0.0404  0.4767  0.0002
 5948SOL    HW129477   1.633   2.264  14.794 -0.5457  1.1370  2.0965
 5948SOL    HW229478   1.631   2.410  14.800 -0.6048  0.2982 -1.5246
 5949SOL     OW29479   2.348   3.763  12.261 -0.3809 -0.2574  0.2666
 5949SOL    HW129480   2.314   3.831  12.203  1.1904  0.7284  0.4965
 5949SOL    HW229481   2.394   3.812  12.329  2.1407 -1.2209 -0.7520
 5950SOL     OW29482   2.698   3.363   4.611  0.9728  0.2132 -0.1120
 5950SOL    HW129483   2.767   3.386   4.549  0.7807 -0.9303 -0.7480
 5950SOL    HW229484   2.731   3.277   4.635  0.1486  0.0225  0.3625
 5951SOL     OW29485   0.330   1.028   6.948  0.2942 -0.0346 -0.0831
 5951SOL    HW129486   0.353   0.955   6.890 -0.5783 -2.2842  2.4173
 5951SOL    HW229487   0.400   1.021   7.013  1.0021  0.5890 -0.7792
 5952SOL     OW29488   2.884   0.963   6.832  0.3605 -0.1453 -0.1839
 5952SOL    HW129489   2.971   1.000   6.819  0.4190  0.0776  0.8547
 5952SOL    HW229490   2.883   0.899   6.761 -1.3213  0.2853 -0.5559
 5953SOL     OW29491   4.614   3.635   5.504 -0.3215  0.1342  0.3676
 5953SOL    HW129492   4.604   3.663   5.595  0.3467 -1.1135  0.8310
 5953SOL    HW229493   4.547   3.567   5.492 -1.2535  0.6576  2.5752
 5954SOL     OW29494   0.998   4.367   3.414 -0.8246  0.3042  0.2959
 5954SOL    HW129495   0.971   4.415   3.335 -0.3989  0.1294  0.0474
 5954SOL    HW229496   1.028   4.439   3.470  0.1468  1.8097 -2.1444
 5955SOL     OW29497   2.405   0.515   3.062  0.1048 -0.6907 -0.2582
 5955SOL    HW129498   2.448   0.491   3.144 -0.1295  0.5732  0.2377
 5955SOL    HW229499   2.482   0.532   3.008 -0.0145  0.4958 -0.0694
 5956SOL     OW29500   3.438   0.515  17.675  0.5073  0.0604  0.1352
 5956SOL    HW129501   3.533   0.505  17.672  0.5325  0.2275  0.4233
 5956SOL    HW229502   3.440   0.610  17.662 -0.9097  0.0404 -0.2217
 5957SOL     OW29503   2.873   3.165   2.395  0.1615  0.1955  0.7665
 5957SOL    HW129504   2.915   3.174   2.309 -3.1585 -2.7796 -1.1881
 5957SOL    HW229505   2.793   3.214   2.376  2.1115  2.1557 -2.5453
 5958SOL     OW29506   4.179   3.311   7.560 -0.2367 -0.1255 -0.8448
 5958SOL    HW129507   4.207   3.260   7.485  0.9216 -1.0322  0.1942
 5958SOL    HW229508   4.173   3.240   7.624 -0.5441 -1.7384 -2.6893
 5959SOL     OW29509   1.228   2.411   5.148 -0.3749  0.5382  0.1972
 5959SOL    HW129510   1.287   2.484   5.132  0.8450 -0.5085 -0.0631
 5959SOL    HW229511   1.251   2.383   5.237 -0.0594 -0.4622 -0.1949
 5960SOL     OW29512   3.182   2.170   6.171 -0.2912  0.4420 -0.4985
 5960SOL    HW129513   3.117   2.101   6.190  0.0914  0.2185 -0.0166
 5960SOL    HW229514   3.147   2.223   6.100 -1.0214  0.6573  0.0220
 5961SOL     OW29515   1.357   0.396   3.480 -0.0295 -0.2029 -0.3917
 5961SOL    HW129516   1.365   0.302   3.496 -1.0983 -0.3939 -0.9983
 5961SOL    HW229517   1.450   0.420   3.472 -0.4409  2.2161  1.8664
 5962SOL     OW29518   0.055   3.673   7.395 -0.2692  0.0492  0.0842
 5962SOL    HW129519   0.068   3.624   7.477 -0.0199 -1.0272 -0.6033
 5962SOL    HW229520   0.064   3.590   7.348 -2.2381 -0.8385  1.2713
 5963SOL     OW29521   3.329   4.622  14.466 -1.0466  0.2712 -0.3321
 5963SOL    HW129522   3.354   4.687  14.531 -0.5097  0.1959 -0.4585
 5963SOL    HW229523   3.283   4.681  14.407  0.4652  0.9727 -0.8236
 5964SOL     OW29524   3.389   4.162   3.751  0.1844 -0.3667  0.3196
 5964SOL    HW129525   3.314   4.161   3.810 -0.3780  1.9879 -0.3448
 5964SOL    HW229526   3.463   4.183   3.808  0.5555 -0.2750 -0.1996
 5965SOL     OW29527   2.796   3.380   2.081 -0.4213 -0.4180 -0.1883
 5965SOL    HW129528   2.723   3.383   2.018  0.1156 -0.0260 -0.7881
 5965SOL    HW229529   2.764   3.444   2.144  2.0017 -0.3020  0.9103
 5966SOL     OW29530   0.844   3.847  12.726 -0.0738 -0.1356  0.5200
 5966SOL    HW129531   0.767   3.789  12.719  2.3253 -3.2001 -0.3534
 5966SOL    HW229532   0.889   3.810  12.651 -0.0773 -0.7178  0.8005
 5967SOL     OW29533   0.016   1.758   6.803 -0.4333  0.5442  0.2690
 5967SOL    HW129534   0.030   1.851   6.787  1.0334  0.0165 -1.6245
 5967SOL    HW229535   4.688   1.736   6.742  0.3937  2.0013 -1.2031
 5968SOL     OW29536   2.117   0.473  16.553 -0.2650  0.6691 -0.4461
 5968SOL    HW129537   2.161   0.520  16.482  0.7467  1.8509  0.9760
 5968SOL    HW229538   2.141   0.385  16.525 -0.9914  0.1436  0.5956
 5969SOL     OW29539   1.131   3.175   7.297  0.1480 -0.2304  0.2288
 5969SOL    HW129540   1.094   3.224   7.223  1.2000  2.7167  1.6642
 5969SOL    HW229541   1.184   3.111   7.250 -2.3245 -1.3235 -1.0867
 5970SOL     OW29542   1.390   2.940  13.738 -0.2094  0.6301  0.4374
 5970SOL    HW129543   1.420   2.952  13.648 -0.2249 -2.6172 -0.0009
 5970SOL    HW229544   1.400   2.847  13.754 -0.3083  0.6248  0.4658
 5971SOL     OW29545   2.278   2.505   3.705  0.4318  0.0835  0.5928
 5971SOL    HW129546   2.291   2.416   3.674  0.1532  1.2551 -2.8919
 5971SOL    HW229547   2.193   2.512   3.750  0.8025  0.0349  1.2959
 5972SOL     OW29548   4.055   3.486   7.731  0.3091 -0.0277  0.3903
 5972SOL    HW129549   4.073   3.446   7.645  1.1524  0.8755  0.1485
 5972SOL    HW229550   4.078   3.577   7.715  2.7773 -0.6163  0.5385
 5973SOL     OW29551   0.429   0.521   5.628  0.1352  0.2229 -0.4565
 5973SOL    HW129552   0.409   0.613   5.646  1.0653  1.0090 -3.4129
 5973SOL    HW229553   0.365   0.482   5.686  1.4402 -1.9719 -0.5099
 5974SOL     OW29554   2.315   2.684   5.258 -0.4512  0.6004 -0.4580
 5974SOL    HW129555   2.409   2.675   5.272 -0.4496 -0.7419 -1.3585
 5974SOL    HW229556   2.316   2.779   5.273 -2.0450  0.8007 -1.6071
 5975SOL     OW29557   1.777   3.614   2.605 -0.4607  0.0838  0.4170
 5975SOL    HW129558   1.712   3.577   2.544 -1.7724  2.5173  0.3099
 5975SOL    HW229559   1.803   3.686   2.547  1.6265  1.0235  2.5499
 5976SOL     OW29560   2.900   3.416   6.603 -0.4061 -0.3017  0.2739
 5976SOL    HW129561   2.854   3.427   6.520  0.0015  2.7620  0.4492
 5976SOL    HW229562   2.971   3.360   6.574 -0.1291  0.6009 -0.7984
 5977SOL     OW29563   0.956   2.929   4.161  0.1993 -0.4509  0.2312
 5977SOL    HW129564   0.956   2.952   4.254 -0.7623  2.8410 -0.5825
 5977SOL    HW229565   0.880   2.872   4.167 -1.2640  1.3441 -1.2485
 5978SOL     OW29566   2.303   3.906   5.902  0.4255 -0.1366  0.2590
 5978SOL    HW129567   2.236   3.853   5.947  0.4463 -0.2381  0.1729
 5978SOL    HW229568   2.259   3.990   5.898  0.3823 -0.1290  0.9426
 5979SOL     OW29569   4.045   2.067   9.089  0.2352 -0.1114  0.6572
 5979SOL    HW129570   4.050   2.132   9.018  0.5097 -1.0089 -0.1501
 5979SOL    HW229571   3.967   2.016   9.070  0.2480 -0.2059  0.8588
 5980SOL     OW29572   0.205   2.389   2.706 -0.0782  0.2159  0.0254
 5980SOL    HW129573   0.183   2.306   2.749  0.5538  0.2316  0.3754
 5980SOL    HW229574   0.136   2.445   2.740  1.3798  1.6535  0.6117
 5981SOL     OW29575   1.729   3.173   1.484  1.1194 -0.4450 -0.4135
 5981SOL    HW129576   1.713   3.235   1.556 -0.5041  0.2677 -1.3976
 5981SOL    HW229577   1.823   3.156   1.486  1.6686  2.6482  1.5508
 5982SOL     OW29578   0.596   3.459  13.364 -0.0968 -0.2577 -0.2071
 5982SOL    HW129579   0.659   3.389  13.386  0.1418 -0.6170 -2.0178
 5982SOL    HW229580   0.654   3.535  13.358  2.9569 -2.4679  1.0314
 5983SOL     OW29581   0.368   2.063  13.281  0.4243 -0.2247 -0.1484
 5983SOL    HW129582   0.347   2.009  13.357  1.9636  0.9400  1.0848
 5983SOL    HW229583   0.326   2.140  13.317  1.4759  1.0924 -1.7251
 5984SOL     OW29584   3.607   2.282   5.314  0.3965  0.0661  0.0250
 5984SOL    HW129585   3.606   2.277   5.409  2.2104  0.2534  0.0551
 5984SOL    HW229586   3.698   2.274   5.286  0.5263  0.0311  0.4638
 5985SOL     OW29587   1.218   3.099   3.495  0.0989 -0.3856 -0.7445
 5985SOL    HW129588   1.270   3.031   3.538 -0.6693  1.1512  2.6881
 5985SOL    HW229589   1.282   3.170   3.497  0.0428 -0.3259 -1.1541
 5986SOL     OW29590   0.352   2.373   8.381 -0.2574 -0.1798 -0.2358
 5986SOL    HW129591   0.354   2.317   8.303  0.7717 -0.7906  0.2397
 5986SOL    HW229592   0.442   2.401   8.394 -0.1516 -0.1873 -0.9560
 5987SOL     OW29593   0.849   2.270   4.410  0.4373 -0.7035 -0.1958
 5987SOL    HW129594   0.755   2.259   4.423 -0.0293  3.1631 -0.1282
 5987SOL    HW229595   0.869   2.228   4.326  1.8994  0.8539 -0.6500
 5988SOL     OW29596   4.414   1.010  12.853  0.5147  0.2591 -0.3590
 5988SOL    HW129597   4.497   1.058  12.847  0.5836  0.1842 -0.0379
 5988SOL    HW229598   4.387   1.006  12.762  1.9843  0.4988 -0.8125
 5989SOL     OW29599   1.857   3.916   6.178  0.3035 -0.2411  0.2035
 5989SOL    HW129600   1.815   3.830   6.182 -0.7464  0.2454 -0.3704
 5989SOL    HW229601   1.809   3.954   6.252 -0.2265  1.4979 -1.0334
 5990SOL     OW29602   4.353   2.057   3.444 -0.0757 -0.2721  0.3256
 5990SOL    HW129603   4.386   2.031   3.358 -0.5626  2.0301 -0.5325
 5990SOL    HW229604   4.271   2.102   3.427  0.3883 -0.0776 -1.3595
 5991SOL     OW29605   0.077   3.233   6.067 -0.1295 -0.0983 -0.1870
 5991SOL    HW129606   0.071   3.296   6.139 -2.3936 -1.2427  0.6440
 5991SOL    HW229607   0.105   3.160   6.122  0.8294  1.6101  1.6371
 5992SOL     OW29608   1.286   0.638   3.633  0.8679 -0.4808 -0.1951
 5992SOL    HW129609   1.294   0.586   3.554  2.3018 -0.3557 -0.1323
 5992SOL    HW229610   1.264   0.568   3.693 -3.3645 -0.3061 -1.5474
 5993SOL     OW29611   3.175   3.334   4.516  0.5478 -0.6001 -0.4520
 5993SOL    HW129612   3.157   3.283   4.595 -2.3178 -1.2302 -1.5230
 5993SOL    HW229613   3.259   3.372   4.542  0.0539  0.6074 -0.6527
 5994SOL     OW29614   0.909   2.687   4.979  0.2468 -0.6039 -0.2112
 5994SOL    HW129615   0.937   2.600   4.950  0.4568 -0.2921 -0.9416
 5994SOL    HW229616   0.817   2.666   4.995  0.5087 -1.1723  0.5693
 5995SOL     OW29617   4.310   3.502   6.046  0.0199  0.2581  0.0966
 5995SOL    HW129618   4.352   3.580   6.082 -1.6984  0.9919  0.5084
 5995SOL    HW229619   4.222   3.512   6.080  0.3553  2.5285  0.2610
 5996SOL     OW29620   2.125   2.336   2.913  0.0721  0.0998 -0.0197
 5996SOL    HW129621   2.100   2.398   2.845  0.5823  0.8343  0.4677
 5996SOL    HW229622   2.165   2.268   2.859 -1.5144 -1.2471  0.4685
 5997SOL     OW29623   0.001   4.569   9.534 -0.7486  0.1582  0.0982
 5997SOL    HW129624   4.736   4.607   9.622 -0.1028 -1.1437  0.7269
 5997SOL    HW229625   0.090   4.533   9.538 -1.0228 -0.5170  0.2023
 5998SOL     OW29626   0.553   0.009   5.252  0.3062  0.3119 -0.2427
 5998SOL    HW129627   0.531   0.065   5.177 -0.0776  1.7960  0.9847
 5998SOL    HW229628   0.534   0.083   5.309  1.4495 -0.4470  1.1083
 5999SOL     OW29629   1.828   1.440  11.035 -0.4150  0.4006  0.1555
 5999SOL    HW129630   1.768   1.389  11.089 -0.5562  2.5091  2.0079
 5999SOL    HW229631   1.840   1.517  11.091  0.0795  1.5197 -1.4918
 6000SOL     OW29632   1.622   2.211   7.247  0.1908 -0.2107 -0.2109
 6000SOL    HW129633   1.645   2.126   7.284 -1.5941 -0.9475 -0.7883
 6000SOL    HW229634   1.606   2.183   7.157 -1.6274  0.5570 -0.1278
 6001SOL     OW29635   0.465   1.252  16.145 -0.1064 -0.1161 -0.5092
 6001SOL    HW129636   0.546   1.300  16.157 -0.2135  0.6617 -3.0110
 6001SOL    HW229637   0.449   1.273  16.053  0.6605 -1.2601 -0.9066
 6002SOL     OW29638   0.627   4.301   4.946  0.0459  0.5968  0.2295
 6002SOL    HW129639   0.632   4.224   4.890  0.5255  3.0837 -3.1815
 6002SOL    HW229640   0.531   4.293   4.948  0.1759 -0.3252  2.5164
 6003SOL     OW29641   4.720   4.738   7.530  0.0583  0.0842  0.1458
 6003SOL    HW129642   0.063   0.039   7.527  0.3226 -0.4967 -1.0576
 6003SOL    HW229643   4.661   0.066   7.557 -0.3324  0.6308 -2.1319
 6004SOL     OW29644   1.172   0.719   3.374  0.0001  0.5677  0.1181
 6004SOL    HW129645   1.183   0.762   3.289 -0.4929 -1.8510 -1.1618
 6004SOL    HW229646   1.149   0.793   3.430  0.1243  0.5700  0.1663
 6005SOL     OW29647   0.472   2.260   1.208  0.6939  0.0887  0.5614
 6005SOL    HW129648   0.431   2.323   1.147  1.7890  0.3384  0.0846
 6005SOL    HW229649   0.427   2.269   1.292  0.5184  0.1606  0.4617
 6006SOL     OW29650   4.185   3.642   5.054 -0.2560 -0.4439 -0.7398
 6006SOL    HW129651   4.153   3.718   5.102 -1.7294 -0.7740 -1.2024
 6006SOL    HW229652   4.121   3.642   4.983  2.3579 -3.0303 -3.1040
 6007SOL     OW29653   3.933   1.619   6.405  0.2211 -0.2812 -0.2634
 6007SOL    HW129654   3.848   1.610   6.361  0.2997  0.4087 -0.5601
 6007SOL    HW229655   3.973   1.533   6.390 -0.2410 -0.5967  0.2914
 6008SOL     OW29656   4.605   2.814  10.246  0.1165 -0.1859  0.5321
 6008SOL    HW129657   4.544   2.876  10.206 -0.1895  1.1363  3.0125
 6008SOL    HW229658   4.592   2.741  10.185  1.1592  0.8484 -0.9338
 6009SOL     OW29659   3.471   1.710   7.243  0.0630  0.7865  0.0749
 6009SOL    HW129660   3.527   1.784   7.267  2.0524 -0.9435  0.8273
 6009SOL    HW229661   3.505   1.641   7.301  0.0117 -0.2838 -1.1796
 6010SOL     OW29662   0.715   4.567  10.562 -0.1868 -0.2672  0.4684
 6010SOL    HW129663   0.792   4.593  10.512 -0.7857 -0.0439 -0.3272
 6010SOL    HW229664   0.685   4.652  10.594 -2.3081 -1.0499  0.5612
 6011SOL     OW29665   3.322   2.658   4.056  0.3609  0.0499  0.0162
 6011SOL    HW129666   3.379   2.580   4.051  3.8732  2.6838 -1.2017
 6011SOL    HW229667   3.244   2.637   4.107  0.2359 -1.7744 -0.9277
 6012SOL     OW29668   3.216   3.700  14.278  0.2304 -0.1819  0.0267
 6012SOL    HW129669   3.287   3.753  14.242  0.3160 -0.7143 -0.5974
 6012SOL    HW229670   3.167   3.771  14.318  2.1965  0.9904  0.3554
 6013SOL     OW29671   1.426   4.206  17.011  0.3904  1.0349  0.6244
 6013SOL    HW129672   1.483   4.132  17.031 -0.5829  0.0327 -0.2983
 6013SOL    HW229673   1.341   4.169  16.986  1.9888 -3.4991  1.8598
 6014SOL     OW29674   1.595   1.797   4.191 -0.5410  0.6779 -0.3207
 6014SOL    HW129675   1.684   1.825   4.212 -0.4304 -0.0750  0.2106
 6014SOL    HW229676   1.563   1.781   4.280 -1.6761  0.3014 -0.8021
 6015SOL     OW29677   3.396   0.254   1.768 -0.2907 -0.0519 -0.7754
 6015SOL    HW129678   3.326   0.235   1.705 -1.0354 -1.4732  0.4900
 6015SOL    HW229679   3.370   0.341   1.800 -2.6084 -1.3605  0.8716
 6016SOL     OW29680   0.840   2.890   4.409  0.7742 -0.0911 -0.3363
 6016SOL    HW129681   0.765   2.936   4.446  1.4695 -0.8704  2.1004
 6016SOL    HW229682   0.801   2.813   4.368 -0.8534  0.2264  0.6192
 6017SOL     OW29683   3.296   0.592   2.541  0.4513  0.5123 -0.7143
 6017SOL    HW129684   3.318   0.499   2.548  0.2997  0.6518  1.6758
 6017SOL    HW229685   3.269   0.620   2.628 -0.8673  0.5965 -1.1556
 6018SOL     OW29686   3.223   4.176   1.973 -0.6883 -0.5044 -0.2852
 6018SOL    HW129687   3.163   4.190   2.047 -0.0963 -0.6878  0.2337
 6018SOL    HW229688   3.282   4.250   1.980 -0.7827 -0.7425  3.2941
 6019SOL     OW29689   2.526   1.191   1.974  0.0440  0.6331 -0.6353
 6019SOL    HW129690   2.525   1.270   2.027 -1.8267  0.6857 -0.7714
 6019SOL    HW229691   2.433   1.184   1.952 -0.4078 -2.4421  2.2929
 6020SOL     OW29692   4.421   3.527  11.727  0.4842 -0.6721  0.5738
 6020SOL    HW129693   4.337   3.558  11.759  0.2390 -0.1179 -0.6002
 6020SOL    HW229694   4.463   3.610  11.705 -2.9467  0.6482 -0.9248
 6021SOL     OW29695   0.710   3.606   7.684  0.1286 -0.3811 -0.4481
 6021SOL    HW129696   0.667   3.521   7.696 -0.0017 -0.4410 -1.3016
 6021SOL    HW229697   0.764   3.619   7.761 -1.2175 -1.1713  0.6405
 6022SOL     OW29698   1.669   2.506   7.443  0.1387  0.0835 -0.2224
 6022SOL    HW129699   1.704   2.595   7.456  1.6829 -0.2928 -1.8754
 6022SOL    HW229700   1.755   2.463   7.442  0.5861  0.9041  1.6658
 6023SOL     OW29701   2.737   2.004   4.292 -0.2316  0.6525 -0.2226
 6023SOL    HW129702   2.774   2.067   4.355  1.2353 -0.4655  0.0406
 6023SOL    HW229703   2.654   1.984   4.335  0.7474  1.5430  2.1245
 6024SOL     OW29704   0.375   0.551   4.565 -0.8244  0.1337  0.2825
 6024SOL    HW129705   0.350   0.642   4.585  0.0893  0.3364  0.4777
 6024SOL    HW229706   0.468   0.556   4.545 -0.6653 -1.4169  0.6381
 6025SOL     OW29707   3.988   1.866   3.773 -0.0234  0.0115 -0.0047
 6025SOL    HW129708   3.947   1.800   3.717  0.9736 -0.4102 -0.2349
 6025SOL    HW229709   4.080   1.864   3.747 -0.6667  1.6734 -2.3767
 6026SOL     OW29710   0.964   1.128  12.282  0.0520  0.3672  0.2634
 6026SOL    HW129711   1.041   1.073  12.269 -0.6827 -0.8883  1.2407
 6026SOL    HW229712   0.973   1.189  12.209  0.2887 -0.5425 -0.4678
 6027SOL     OW29713   0.473   3.676   6.023  0.0352  0.5211  0.1112
 6027SOL    HW129714   0.465   3.715   5.936 -0.8463  2.6875  1.1567
 6027SOL    HW229715   0.516   3.752   6.060 -0.6541 -1.2921  4.6278
 6028SOL     OW29716   1.688   3.906   2.980  0.2865  0.4005 -0.0122
 6028SOL    HW129717   1.618   3.934   2.920 -1.2954 -0.7507  1.3071
 6028SOL    HW229718   1.760   3.955   2.940  1.4616 -1.6548 -0.3795
 6029SOL     OW29719   3.968   1.575   1.920  1.1569 -0.0477 -0.0092
 6029SOL    HW129720   4.049   1.625   1.908  0.2834  1.1519 -0.9122
 6029SOL    HW229721   3.913   1.631   1.865 -0.2553 -0.2085  1.2465
 6030SOL     OW29722   1.950   1.745  12.637  0.1171 -0.5595  0.4337
 6030SOL    HW129723   1.954   1.782  12.725  3.0959 -0.5153  0.2818
 6030SOL    HW229724   1.995   1.816  12.591  0.8052 -0.6966  0.8866
 6031SOL     OW29725   3.447   1.440   4.374 -0.1349 -0.1940 -0.1465
 6031SOL    HW129726   3.383   1.384   4.329 -2.1521  3.2284 -1.5601
 6031SOL    HW229727   3.489   1.481   4.298 -2.5477 -0.4552 -1.6481
 6032SOL     OW29728   4.346   3.061   6.347 -0.1834 -0.4184  0.0953
 6032SOL    HW129729   4.301   2.981   6.373  1.0629 -0.5521  1.8183
 6032SOL    HW229730   4.275   3.090   6.290 -0.4720  1.9039  1.6391
 6033SOL     OW29731   0.589   3.025   7.710 -0.1000 -0.6211 -0.0977
 6033SOL    HW129732   0.600   2.995   7.619  1.4335  1.8640 -0.7162
 6033SOL    HW229733   0.524   2.962   7.741 -0.5899  0.1542  0.4365
 6034SOL     OW29734   2.328   3.408   5.631  0.1807  0.2133  0.2545
 6034SOL    HW129735   2.251   3.418   5.575 -0.6886  1.4554  1.6739
 6034SOL    HW229736   2.328   3.499   5.660  0.5040  0.9476 -2.0607
 6035SOL     OW29737   4.351   2.762  10.603  0.4665 -0.2841 -0.5728
 6035SOL    HW129738   4.298   2.749  10.524  2.2087 -0.7989 -1.6335
 6035SOL    HW229739   4.393   2.846  10.584  2.3371 -0.4505  2.8210
 6036SOL     OW29740   2.439   1.933   8.654  0.1784 -0.7028  0.6529
 6036SOL    HW129741   2.382   1.980   8.715 -0.3920 -0.8400  0.2274
 6036SOL    HW229742   2.384   1.942   8.576  2.5589 -0.4699 -0.9950
 6037SOL     OW29743   4.012   0.065  11.173  0.1369 -0.2187  0.2942
 6037SOL    HW129744   4.019   4.727  11.122  1.8939  0.5623 -0.6996
 6037SOL    HW229745   4.016   0.123  11.097  0.1358 -1.2463 -0.4837
 6038SOL     OW29746   1.341   2.169   6.857 -0.4785 -0.9184 -0.0460
 6038SOL    HW129747   1.352   2.264   6.856  0.6012 -1.0395  0.5394
 6038SOL    HW229748   1.293   2.154   6.938  0.3085  1.4309  0.8425
 6039SOL     OW29749   3.592   2.962  16.853 -0.6452  0.3171  0.9625
 6039SOL    HW129750   3.560   3.012  16.778 -1.0013 -1.5665 -0.1301
 6039SOL    HW229751   3.585   2.878  16.807 -1.8490 -1.4151  4.3483
 6040SOL     OW29752   4.128   2.852  11.360  0.1838 -0.1552  0.1498
 6040SOL    HW129753   4.063   2.801  11.407  0.4588 -1.7061 -1.1403
 6040SOL    HW229754   4.130   2.811  11.273  2.3968 -1.6542  0.9019
 6041SOL     OW29755   3.619   3.960   2.462  0.5534 -0.3805 -0.3599
 6041SOL    HW129756   3.571   3.901   2.404  1.3591 -1.2252 -0.1725
 6041SOL    HW229757   3.596   3.930   2.550 -1.2198 -1.5624 -1.2276
 6042SOL     OW29758   3.899   1.580   1.537 -0.7695  0.2315  0.1244
 6042SOL    HW129759   3.817   1.566   1.489 -0.0658  0.5850 -1.1710
 6042SOL    HW229760   3.865   1.636   1.606 -0.0309  0.3323  0.4046
 6043SOL     OW29761   3.274   1.143   1.269 -0.4214  0.6970 -0.3294
 6043SOL    HW129762   3.226   1.111   1.192 -2.4481 -0.1860  1.3179
 6043SOL    HW229763   3.201   1.168   1.325  0.4107  2.9953 -0.2586
 6044SOL     OW29764   3.118   2.790   3.530 -0.6722 -0.1968  0.2666
 6044SOL    HW129765   3.158   2.721   3.584  1.3066 -0.8052 -1.9578
 6044SOL    HW229766   3.081   2.850   3.595  0.8336 -0.1737  1.0975
 6045SOL     OW29767   2.591   4.408   2.645 -0.4231  0.4706  0.3642
 6045SOL    HW129768   2.592   4.352   2.722 -1.3224 -3.0309 -2.1866
 6045SOL    HW229769   2.679   4.383   2.617 -0.0056  0.8250  1.3521
 6046SOL     OW29770   2.276   3.628   8.741 -0.1052  0.0623 -0.0653
 6046SOL    HW129771   2.328   3.617   8.662  2.6407  1.0670  1.5985
 6046SOL    HW229772   2.335   3.687   8.788  0.1368 -1.6011  1.7488
 6047SOL     OW29773   2.242   4.617   8.906  0.5404  0.4945 -0.2805
 6047SOL    HW129774   2.243   4.527   8.940 -0.1261  0.2671 -0.8537
 6047SOL    HW229775   2.284   4.661   8.980 -0.0594  0.1396  0.2648
 6048SOL     OW29776   1.873   3.173   0.790 -0.4966  0.0310  0.0519
 6048SOL    HW129777   1.954   3.224   0.794 -0.8214  0.7520 -2.6000
 6048SOL    HW229778   1.895   3.087   0.753 -0.5195 -0.1070  0.3632
 6049SOL     OW29779   3.554   0.012   0.846  0.4738 -0.3754  0.1968
 6049SOL    HW129780   3.535   4.671   0.888  0.0331 -0.6507 -0.5454
 6049SOL    HW229781   3.500   0.076   0.893  1.1281  0.3623 -0.0627
 6050SOL     OW29782   2.775   4.390  11.006  0.1912  0.1966  0.1613
 6050SOL    HW129783   2.689   4.415  11.040  0.2222 -0.3680  0.6357
 6050SOL    HW229784   2.813   4.341  11.078  0.4893  0.9273  0.5085
 6051SOL     OW29785   2.226   2.915   8.706 -0.2348  0.6677  0.2346
 6051SOL    HW129786   2.239   2.896   8.799 -1.8483  0.8127  0.4799
 6051SOL    HW229787   2.131   2.924   8.700 -0.3794 -1.1754 -0.1707
 6052SOL     OW29788   4.214   0.493  17.481  0.3497 -0.6487 -0.0593
 6052SOL    HW129789   4.276   0.428  17.449  1.2674  0.0484  0.2812
 6052SOL    HW229790   4.157   0.500  17.405  0.7222  0.6148 -0.2318
 6053SOL     OW29791   0.757   2.644  10.505 -0.0022  0.0783  0.4727
 6053SOL    HW129792   0.836   2.626  10.454 -0.6925 -2.2468  0.2121
 6053SOL    HW229793   0.717   2.728  10.483  1.5627  0.8181  0.4183
 6054SOL     OW29794   2.288   1.385   8.419 -0.0569 -0.2524  0.5799
 6054SOL    HW129795   2.338   1.462   8.446  0.3417 -1.1959  2.5437
 6054SOL    HW229796   2.246   1.357   8.500  0.6194  2.3457  1.8124
 6055SOL     OW29797   2.660   2.780   2.486  0.1796 -0.0093  0.2014
 6055SOL    HW129798   2.738   2.728   2.470  0.5220  0.4446  0.3855
 6055SOL    HW229799   2.667   2.800   2.580  1.8148  1.8599 -0.3181
 6056SOL     OW29800   0.638   1.293   2.069  0.0986  0.3530 -0.4117
 6056SOL    HW129801   0.609   1.285   1.979 -1.7922  1.4010  0.1025
 6056SOL    HW229802   0.725   1.333   2.057 -0.4387  1.7386  0.2813
 6057SOL     OW29803   4.213   2.433  11.467  0.1570  0.4129  0.5293
 6057SOL    HW129804   4.245   2.504  11.411  1.1496 -0.6563 -0.2373
 6057SOL    HW229805   4.221   2.475  11.553 -1.7134  0.3840  0.7231
 6058SOL     OW29806   1.224   0.136   2.872  0.1819  0.3657  0.6308
 6058SOL    HW129807   1.265   0.055   2.841 -1.7397 -0.7637  1.0711
 6058SOL    HW229808   1.140   0.127   2.828  0.3355 -0.6908  0.5430
 6059SOL     OW29809   1.360   3.675   7.070  0.3233 -0.2033 -0.3708
 6059SOL    HW129810   1.420   3.697   7.141 -1.1185 -2.4951  1.5267
 6059SOL    HW229811   1.279   3.719   7.096 -0.1080 -0.9112 -0.5457
 6060SOL     OW29812   3.424   4.350   6.343  0.5851  0.5643  0.4288
 6060SOL    HW129813   3.511   4.330   6.379  0.2195  2.7522  2.5139
 6060SOL    HW229814   3.392   4.410   6.411 -0.6659 -0.1323  0.4480
 6061SOL     OW29815   2.462   4.506   6.230 -0.8542  0.4362 -0.3944
 6061SOL    HW129816   2.480   4.597   6.203  0.8369  0.1907 -0.0832
 6061SOL    HW229817   2.450   4.472   6.141  1.9279  0.3286 -0.7162
 6062SOL     OW29818   1.585   2.949  14.541  0.2016 -0.0270 -0.1047
 6062SOL    HW129819   1.618   3.020  14.487 -0.4142 -0.1582 -0.6607
 6062SOL    HW229820   1.615   2.973  14.628 -2.0471 -0.5085  0.8267
 6063SOL     OW29821   4.677   1.820   4.313 -0.0088  0.3432  0.1772
 6063SOL    HW129822   4.707   1.911   4.303  0.0604  0.2588 -0.3684
 6063SOL    HW229823   0.003   1.778   4.365 -0.9345 -0.6901  0.5587
 6064SOL     OW29824   1.289   1.216  17.128 -0.0541  0.7232  0.7724
 6064SOL    HW129825   1.232   1.139  17.121  1.1550 -0.2266  1.5217
 6064SOL    HW229826   1.251   1.260  17.051  0.7590 -0.3425 -0.2400
 6065SOL     OW29827   3.874   3.359  17.338 -0.2242  0.7269 -0.5123
 6065SOL    HW129828   3.881   3.454  17.327 -1.5260  1.1042  1.7390
 6065SOL    HW229829   3.893   3.328  17.250  0.6275 -0.7455  0.1982
 6066SOL     OW29830   4.230   0.992   5.018 -0.4307 -0.0805  0.2581
 6066SOL    HW129831   4.317   0.987   4.978 -0.9173  0.0865 -0.8167
 6066SOL    HW229832   4.258   1.049   5.090 -0.7618 -1.0502  1.1500
 6067SOL     OW29833   1.775   3.416   4.620 -0.3913 -0.0103  0.2599
 6067SOL    HW129834   1.847   3.364   4.657  0.1303 -0.1865 -0.9649
 6067SOL    HW229835   1.757   3.361   4.543  0.1277 -2.2762  1.7448
 6068SOL     OW29836   2.162   1.055   7.944 -0.2719 -0.4621 -0.0804
 6068SOL    HW129837   2.211   1.065   8.026  0.6152  0.6973 -0.7456
 6068SOL    HW229838   2.186   1.137   7.900 -1.0023  0.2128  0.7575
 6069SOL     OW29839   1.459   3.984  13.676  0.6805  0.1540  0.3473
 6069SOL    HW129840   1.400   3.918  13.711  0.5342  0.6276  1.0053
 6069SOL    HW229841   1.509   3.933  13.612 -0.7010  0.0748 -0.6795
 6070SOL     OW29842   3.181   3.145   2.709 -0.2507  0.4891  0.4753
 6070SOL    HW129843   3.106   3.204   2.701  0.2242  1.2512  1.6915
 6070SOL    HW229844   3.252   3.208   2.717  0.4190 -0.0043 -1.5750
 6071SOL     OW29845   0.612   1.766   7.382 -0.1436  0.4645 -0.0337
 6071SOL    HW129846   0.525   1.727   7.373 -0.6082  1.7794 -1.1663
 6071SOL    HW229847   0.600   1.849   7.429 -0.2133  1.3458 -1.6022
 6072SOL     OW29848   2.838   1.214   6.128  0.6487  0.1026  0.6692
 6072SOL    HW129849   2.807   1.126   6.104 -0.1757  1.4310 -3.0980
 6072SOL    HW229850   2.931   1.191   6.122  0.4856 -0.3603 -0.1432
 6073SOL     OW29851   4.226   3.655   5.633 -0.0313  0.6233  0.4048
 6073SOL    HW129852   4.273   3.699   5.704 -1.2588  1.0925  0.9125
 6073SOL    HW229853   4.263   3.569   5.653  0.4957  0.8304  0.3288
 6074SOL     OW29854   4.461   3.863   3.352  0.2774  0.6935  0.5360
 6074SOL    HW129855   4.482   3.772   3.373 -0.4405  0.4386  0.1454
 6074SOL    HW229856   4.394   3.891   3.414  1.3283  0.3692  1.8213
 6075SOL     OW29857   2.815   1.090   4.987 -0.0504  0.4513 -0.5745
 6075SOL    HW129858   2.858   1.158   4.935 -2.4738  0.2866 -2.8347
 6075SOL    HW229859   2.769   1.149   5.047 -2.9762 -1.9970 -0.4223
 6076SOL     OW29860   1.761   4.108  14.100  0.4445  0.4012 -0.1911
 6076SOL    HW129861   1.713   4.028  14.079  0.2221  0.2274  0.9809
 6076SOL    HW229862   1.849   4.073  14.111  0.1436 -0.3199 -0.0373
 6077SOL     OW29863   0.024   1.601   3.742 -0.4583 -0.5230  0.5300
 6077SOL    HW129864   0.028   1.649   3.825  4.4512  2.7407 -1.5469
 6077SOL    HW229865   4.682   1.631   3.707  0.0508  0.2162 -0.0601
 6078SOL     OW29866   1.553   2.815  13.981 -0.1029 -0.0305 -0.0523
 6078SOL    HW129867   1.531   2.794  13.890  1.0022 -3.5755  0.5144
 6078SOL    HW229868   1.608   2.893  13.971 -0.5704  0.2546 -0.4166
 6079SOL     OW29869   0.318   2.862  17.368  0.1447 -0.1472 -0.3688
 6079SOL    HW129870   0.381   2.873  17.297 -0.3596 -0.3598 -0.8455
 6079SOL    HW229871   0.345   2.933  17.426  0.3511 -2.2767  2.1558
 6080SOL     OW29872   3.563   2.962   7.428 -0.3251  0.1037  1.5177
 6080SOL    HW129873   3.483   2.941   7.381  0.5227  0.4405 -0.0839
 6080SOL    HW229874   3.621   2.986   7.356 -3.0781 -0.2268 -0.7966
 6081SOL     OW29875   0.951   3.659   3.136  0.3452  0.5881  0.5467
 6081SOL    HW129876   0.966   3.752   3.120  0.4628  0.8439  2.1981
 6081SOL    HW229877   0.857   3.655   3.121  0.2552 -1.1195  1.5926
 6082SOL     OW29878   4.466   1.437   1.201 -0.0363 -0.3250  0.2087
 6082SOL    HW129879   4.396   1.502   1.200 -0.3263 -0.5834  2.9656
 6082SOL    HW229880   4.506   1.457   1.117 -0.8821 -0.7413 -0.2982
 6083SOL     OW29881   0.425   3.000   2.887  0.0414  0.2090  0.1831
 6083SOL    HW129882   0.440   3.059   2.961  0.9741 -0.8239  0.8167
 6083SOL    HW229883   0.335   3.023   2.865  0.0480 -1.6006 -1.6436
 6084SOL     OW29884   3.075   0.334  16.303  0.3132 -0.5891  0.3606
 6084SOL    HW129885   3.070   0.410  16.361  0.1659  0.3330 -0.8632
 6084SOL    HW229886   3.147   0.363  16.247  0.2276  0.4871  0.8082
 6085SOL     OW29887   3.135   3.608   2.322 -0.1761 -0.3552  0.3276
 6085SOL    HW129888   3.191   3.578   2.251  1.9023 -1.7501  2.5684
 6085SOL    HW229889   3.064   3.659   2.282  0.5833 -2.1841 -3.3676
 6086SOL     OW29890   3.463   0.249   5.013  0.3956 -0.5627  0.2918
 6086SOL    HW129891   3.376   0.243   5.052 -0.1380 -0.1374 -0.8182
 6086SOL    HW229892   3.453   0.174   4.954 -0.3830  0.9815 -1.5419
 6087SOL     OW29893   0.898   1.274   5.597 -0.0673  0.2247 -0.3617
 6087SOL    HW129894   0.906   1.264   5.692  0.1352  2.3883 -0.1655
 6087SOL    HW229895   0.963   1.340   5.575  1.0955 -0.2979  1.5075
 6088SOL     OW29896   1.557   4.565   8.323 -0.3743 -0.1475  0.6654
 6088SOL    HW129897   1.517   4.478   8.314 -1.5662  0.4738  0.0997
 6088SOL    HW229898   1.592   4.548   8.411 -1.3530 -1.2862  0.8403
 6089SOL     OW29899   1.696   4.393   8.991  0.4385 -0.2319 -0.0139
 6089SOL    HW129900   1.610   4.351   8.991  0.0191  0.6109 -0.0924
 6089SOL    HW229901   1.679   4.468   9.048  1.6655  0.6676 -0.8154
 6090SOL     OW29902   0.858   1.696   8.766 -0.1822 -0.4748 -0.0405
 6090SOL    HW129903   0.878   1.732   8.680  0.4720  0.5076  0.5221
 6090SOL    HW229904   0.943   1.653   8.767 -0.8086 -1.7231 -0.1090
 6091SOL     OW29905   2.615   4.274   2.344  0.2399 -0.2687  0.5171
 6091SOL    HW129906   2.537   4.249   2.394 -1.3828  2.3571 -0.7227
 6091SOL    HW229907   2.685   4.228   2.390 -0.9853  1.2728  3.9435
 6092SOL     OW29908   0.063   1.137   9.033 -0.0441 -0.4306 -0.4971
 6092SOL    HW129909   0.150   1.171   9.056 -0.1107 -1.2098  0.8762
 6092SOL    HW229910   0.016   1.191   9.096  2.0998  1.7310 -0.7318
 6093SOL     OW29911   1.324   0.283   7.607 -0.5874 -0.3110 -0.1683
 6093SOL    HW129912   1.390   0.278   7.676 -1.1777  2.4224  0.5824
 6093SOL    HW229913   1.244   0.280   7.660 -0.8744  0.0152 -0.5844
 6094SOL     OW29914   3.388   1.747   3.997 -0.3191  0.4824  0.4535
 6094SOL    HW129915   3.425   1.678   4.052 -0.5830 -0.7689 -0.9212
 6094SOL    HW229916   3.295   1.737   4.018 -0.1972  1.3106  1.3809
 6095SOL     OW29917   3.269   4.411   5.129  0.0170  0.2451 -0.0185
 6095SOL    HW129918   3.354   4.370   5.142  0.0551  0.3338  0.0107
 6095SOL    HW229919   3.285   4.460   5.048  0.4134  0.0812 -0.0364
 6096SOL     OW29920   1.550   4.266   0.854  0.2074  0.4794 -0.1210
 6096SOL    HW129921   1.535   4.179   0.818 -1.8436  0.6695  0.2849
 6096SOL    HW229922   1.645   4.266   0.870  0.5553  0.1690 -2.2140
 6097SOL     OW29923   4.431   2.627   4.017  0.4905  0.5584 -0.2779
 6097SOL    HW129924   4.507   2.646   4.071 -0.0309  0.2509  0.5646
 6097SOL    HW229925   4.382   2.707   4.038 -0.4632 -0.1853  0.3700
 6098SOL     OW29926   3.339   2.375   5.300 -0.8663  0.0564  0.1797
 6098SOL    HW129927   3.427   2.337   5.302 -0.9382 -0.1415 -0.5245
 6098SOL    HW229928   3.346   2.409   5.211  0.5878 -0.5600  0.0520
 6099SOL     OW29929   0.590   0.351   4.857 -1.0552  0.5875 -0.2945
 6099SOL    HW129930   0.683   0.368   4.870 -1.0576 -0.0587  0.6008
 6099SOL    HW229931   0.558   0.438   4.879  0.1052  0.0723  3.4582
 6100SOL     OW29932   3.173   2.953   3.040  0.2127 -0.4654  0.3784
 6100SOL    HW129933   3.209   3.040   3.052 -1.4910  0.0369  1.9191
 6100SOL    HW229934   3.078   2.967   3.043  0.4635  1.4939 -0.8734
 6101SOL     OW29935   4.151   2.749   7.789  0.5939  0.1701 -0.0310
 6101SOL    HW129936   4.182   2.698   7.714  0.6241 -0.8120  0.6597
 6101SOL    HW229937   4.070   2.702   7.807  0.2159 -0.2247 -2.6956
 6102SOL     OW29938   1.578   0.331   6.738 -0.6825 -0.5861 -0.1497
 6102SOL    HW129939   1.571   0.416   6.782 -0.0684  0.5578 -2.2778
 6102SOL    HW229940   1.645   0.301   6.800 -0.7139  1.8870  1.0613
 6103SOL     OW29941   0.164   4.324   3.689  0.6624 -0.8703 -0.3443
 6103SOL    HW129942   0.078   4.353   3.720  0.4580 -1.0856 -0.7033
 6103SOL    HW229943   0.201   4.283   3.767 -3.7983 -3.8052  0.2303
 6104SOL     OW29944   2.234   2.826  16.982  0.2235 -0.0120 -0.1387
 6104SOL    HW129945   2.270   2.906  16.944  2.0351 -1.6114 -1.7817
 6104SOL    HW229946   2.285   2.763  16.932 -1.6294 -2.3858  0.9808
 6105SOL     OW29947   3.073   1.481   8.199  0.3091 -0.3091  0.0387
 6105SOL    HW129948   2.992   1.432   8.187  0.7967 -0.6089 -2.0464
 6105SOL    HW229949   3.118   1.474   8.115 -2.0060 -0.4894 -1.1930
 6106SOL     OW29950   4.685   1.860  16.374 -0.0193 -0.1149  0.0002
 6106SOL    HW129951   0.033   1.829  16.363 -0.2329 -1.5223  2.2698
 6106SOL    HW229952   4.699   1.932  16.435  2.9427  0.0676 -0.8748
 6107SOL     OW29953   2.992   0.854   4.137  0.8602  0.2341 -0.3043
 6107SOL    HW129954   3.078   0.812   4.128  0.8860  0.2172  0.0435
 6107SOL    HW229955   3.010   0.925   4.075 -2.2619  1.7510  0.5222
 6108SOL     OW29956   3.356   1.044  14.259 -0.3787 -0.1690 -0.4481
 6108SOL    HW129957   3.318   0.979  14.318  0.0522  1.3598  1.5370
 6108SOL    HW229958   3.428   1.001  14.214  1.3900 -1.3938  3.5238
 6109SOL     OW29959   4.406   0.158   8.065 -0.1595  0.2080  0.6836
 6109SOL    HW129960   4.434   0.215   7.993  0.7163 -2.4004 -1.0157
 6109SOL    HW229961   4.387   0.075   8.021  0.2097 -0.8354  2.5039
 6110SOL     OW29962   0.097   3.211   8.725 -0.0917  0.3286  0.2098
 6110SOL    HW129963   0.129   3.289   8.681  0.2752  0.3515  0.5159
 6110SOL    HW229964   0.028   3.182   8.666  0.6241  0.1537 -0.5325
 6111SOL     OW29965   1.692   1.161  13.026 -0.2429 -0.0914  0.2543
 6111SOL    HW129966   1.611   1.211  13.035 -1.0867 -1.5722  1.0272
 6111SOL    HW229967   1.737   1.203  12.953 -1.7817  0.0612 -0.5983
 6112SOL     OW29968   2.505   0.320   7.839  0.0605 -0.4451 -0.4027
 6112SOL    HW129969   2.591   0.352   7.864 -0.8230  0.5037  1.4229
 6112SOL    HW229970   2.506   0.229   7.867 -1.2825 -0.8316 -1.6354
 6113SOL     OW29971   3.371   4.400   3.466 -0.2614  0.0886  0.1233
 6113SOL    HW129972   3.332   4.367   3.385  1.4740 -3.4745  0.7402
 6113SOL    HW229973   3.364   4.492   3.444 -1.9830  0.4283  2.0294
 6114SOL     OW29974   4.575   3.192   6.226  0.4652 -0.1406  0.0907
 6114SOL    HW129975   4.618   3.108   6.211  1.5387  0.8964 -2.4888
 6114SOL    HW229976   4.502   3.159   6.279  0.0379  0.0626 -0.3741
 6115SOL     OW29977   0.238   2.632   6.622  0.5295 -0.2247 -0.2091
 6115SOL    HW129978   0.307   2.573   6.650 -0.7307 -1.5884  0.0552
 6115SOL    HW229979   0.276   2.717   6.643 -0.8935  0.9705 -2.3817
 6116SOL     OW29980   3.001   3.197   9.151  0.1807 -0.5375  0.0850
 6116SOL    HW129981   2.983   3.111   9.112  3.9027 -0.6661 -1.3581
 6116SOL    HW229982   3.064   3.231   9.088  1.9228 -1.8897  1.0749
 6117SOL     OW29983   0.500   0.754   3.920 -0.8788  0.3116 -0.3618
 6117SOL    HW129984   0.508   0.692   3.849 -0.8153 -0.1677  0.0648
 6117SOL    HW229985   0.477   0.698   3.994 -0.6371  2.8395  1.6455
 6118SOL     OW29986   4.298   1.822   5.768  0.6810 -0.4874  0.3177
 6118SOL    HW129987   4.375   1.855   5.814  0.1990  0.6991  0.2661
 6118SOL    HW229988   4.279   1.893   5.706  0.0690 -1.1678 -0.2741
 6119SOL     OW29989   3.915   0.243   5.955  0.6161  0.1667  0.1258
 6119SOL    HW129990   3.856   0.185   5.907 -1.4327  0.2998  2.4732
 6119SOL    HW229991   3.915   0.312   5.890  0.8312  0.6377  0.6273
 6120SOL     OW29992   4.093   4.025   1.748  0.2637  0.5678  0.1171
 6120SOL    HW129993   4.138   3.976   1.679 -1.7891 -1.5528  0.2811
 6120SOL    HW229994   4.128   4.111   1.727  1.3027  0.8376  2.9413
 6121SOL     OW29995   2.080   2.212   0.094  0.3061  0.0463  0.7268
 6121SOL    HW129996   2.171   2.236   0.108  0.4020 -0.0684  0.3011
 6121SOL    HW229997   2.038   2.266   0.162  0.8689 -0.3849  1.4127
 6122SOL     OW29998   0.665   2.241  16.554 -0.4292 -0.0013  0.1599
 6122SOL    HW129999   0.676   2.335  16.544 -2.3955  0.0847 -1.0784
 6122SOL    HW230000   0.689   2.225  16.646 -0.8580 -0.6739  0.1525
 6123SOL     OW30001   2.708   4.315  14.476 -0.2055 -0.5901 -0.1909
 6123SOL    HW130002   2.727   4.370  14.400 -3.8032  1.3068  0.2676
 6123SOL    HW230003   2.797   4.286  14.496 -0.2350 -0.9204 -0.5444
 6124SOL     OW30004   4.577   1.731   5.648 -0.1773  0.3852 -0.3639
 6124SOL    HW130005   4.569   1.788   5.572  2.6140  0.7282 -0.3887
 6124SOL    HW230006   4.509   1.761   5.708  0.2949 -0.4254  0.5849
 6125SOL     OW30007   0.218   2.477  15.944 -0.1974  0.3344 -1.0736
 6125SOL    HW130008   0.261   2.396  15.971 -1.4856  0.3038  0.9046
 6125SOL    HW230009   0.282   2.498  15.876 -0.3389 -0.7520 -1.5437
 6126SOL     OW30010   1.850   4.360   3.394 -0.3653 -0.1427 -0.5132
 6126SOL    HW130011   1.824   4.374   3.485  0.0347 -2.1086 -0.0883
 6126SOL    HW230012   1.818   4.276   3.361  0.5957 -0.2439 -1.1961
 6127SOL     OW30013   1.013   4.141   0.981 -0.1787  0.5441 -0.6066
 6127SOL    HW130014   0.958   4.218   0.992 -0.4397 -0.0559  2.2475
 6127SOL    HW230015   0.949   4.083   0.940 -0.0349 -0.2130  0.2400
 6128SOL     OW30016   3.791   2.848   1.996  0.4369 -0.4331 -0.4479
 6128SOL    HW130017   3.815   2.908   1.925 -0.7533 -0.8929 -1.2340
 6128SOL    HW230018   3.801   2.769   1.943 -1.7148 -1.0550  0.0451
 6129SOL     OW30019   0.912   1.074  16.844 -0.1727  0.2785  0.3206
 6129SOL    HW130020   0.955   1.128  16.778  1.9862 -0.3721  1.1898
 6129SOL    HW230021   0.826   1.112  16.865 -1.7635 -1.6763 -2.7006
 6130SOL     OW30022   1.823   4.323   0.861 -0.4168 -0.3541  0.0716
 6130SOL    HW130023   1.913   4.323   0.894 -0.7545  0.3533  1.0005
 6130SOL    HW230024   1.829   4.399   0.803  1.2335 -0.9011 -0.4634
 6131SOL     OW30025   1.932   1.225   3.562  0.3047 -0.5260 -0.5348
 6131SOL    HW130026   1.945   1.277   3.482  1.6599  0.7708  0.5331
 6131SOL    HW230027   1.936   1.295   3.627 -2.6034  1.0053 -1.9785
 6132SOL     OW30028   0.619   0.086   8.074  0.4714  0.5675  0.0502
 6132SOL    HW130029   0.630   4.734   8.062  1.3668  0.4869  1.4390
 6132SOL    HW230030   0.711   0.110   8.089  0.1764  0.0737  2.6233
 6133SOL     OW30031   0.930   0.916   7.585 -0.2197  0.1623  0.0183
 6133SOL    HW130032   0.939   0.904   7.679  1.4002 -1.2337 -0.3091
 6133SOL    HW230033   1.017   0.919   7.546 -0.2175  0.6146  0.0625
 6134SOL     OW30034   0.448   3.515  10.228 -0.1661  1.4912 -0.1652
 6134SOL    HW130035   0.497   3.479  10.302  2.3959 -0.4266 -2.7920
 6134SOL    HW230036   0.504   3.501  10.151  0.8764 -0.8988  1.0222
 6135SOL     OW30037   2.841   0.538   9.389  0.0127 -1.2356 -0.0556
 6135SOL    HW130038   2.773   0.606   9.386  2.7116  1.4015 -2.7480
 6135SOL    HW230039   2.902   0.576   9.452  1.2905 -2.6214 -0.4491
 6136SOL     OW30040   1.084   2.792   7.667  0.5937 -0.1164  0.3446
 6136SOL    HW130041   0.996   2.818   7.693  0.4858 -1.5004  1.3687
 6136SOL    HW230042   1.119   2.880   7.649 -1.1698  0.5239  0.0779
 6137SOL     OW30043   1.448   2.440   1.877 -0.1098 -0.4967 -0.5214
 6137SOL    HW130044   1.484   2.396   1.799  2.5707  1.7981 -0.6019
 6137SOL    HW230045   1.383   2.384   1.919 -0.9289  0.8923  0.0662
 6138SOL     OW30046   4.274   1.085  17.473 -0.3043 -0.3754  0.4218
 6138SOL    HW130047   4.213   1.063  17.402 -0.8908 -0.5709  0.9869
 6138SOL    HW230048   4.229   1.055  17.552 -0.0890  0.3821  0.8271
 6139SOL     OW30049   3.372   0.853  11.944 -0.6225 -0.4138 -0.0401
 6139SOL    HW130050   3.392   0.933  11.895 -0.1756  0.1348  1.0348
 6139SOL    HW230051   3.279   0.868  11.926 -0.3453 -2.3385 -3.0698
 6140SOL     OW30052   2.322   1.516   7.325 -0.0677 -0.2643 -0.0322
 6140SOL    HW130053   2.284   1.430   7.306  0.1214 -0.3744  0.0878
 6140SOL    HW230054   2.272   1.532   7.405  2.3397 -2.0029  1.8271
 6141SOL     OW30055   3.437   3.676   3.416 -0.2766  0.7305 -0.0678
 6141SOL    HW130056   3.515   3.729   3.403 -0.2478  0.7051  0.0026
 6141SOL    HW230057   3.436   3.670   3.511 -1.1244  0.5498 -0.0805
 6142SOL     OW30058   3.102   2.528   6.176 -0.3599  0.1647 -0.3878
 6142SOL    HW130059   3.124   2.465   6.245 -0.2560  1.1929  0.5118
 6142SOL    HW230060   3.129   2.613   6.210 -1.5253  0.9835 -1.5253
 6143SOL     OW30061   4.316   2.197   2.076 -0.5877  0.4886 -0.1778
 6143SOL    HW130062   4.283   2.263   2.136  0.1456 -0.9155  1.7878
 6143SOL    HW230063   4.411   2.194   2.089 -1.0333 -2.4604  2.3688
 6144SOL     OW30064   2.371   3.693   8.463  0.0345 -0.6892 -0.1597
 6144SOL    HW130065   2.360   3.598   8.465  0.4709 -0.6996  1.5737
 6144SOL    HW230066   2.283   3.722   8.438  0.0038 -3.1177 -2.9773
 6145SOL     OW30067   4.016   2.390   4.349 -0.1205  0.0371 -0.0862
 6145SOL    HW130068   4.005   2.458   4.282 -2.5074  1.8330  2.1093
 6145SOL    HW230069   4.065   2.335   4.288  1.2023 -0.4702  1.4400
 6146SOL     OW30070   1.761   2.652   0.464  0.5554  0.1288  0.0857
 6146SOL    HW130071   1.720   2.668   0.549 -1.0295  2.3715 -1.1084
 6146SOL    HW230072   1.850   2.680   0.484  0.3097  0.7716  0.2883
 6147SOL     OW30073   1.082   4.046   6.391 -0.0540  0.1731  0.7427
 6147SOL    HW130074   1.028   4.078   6.464  1.3094 -1.0576  2.2897
 6147SOL    HW230075   1.152   4.001   6.438  0.6189  0.4132 -0.0246
 6148SOL     OW30076   3.967   3.455  11.723  0.2396 -0.0784  0.0740
 6148SOL    HW130077   3.978   3.513  11.799 -0.8225 -0.3048  0.3895
 6148SOL    HW230078   3.971   3.521  11.654 -0.9679 -0.2022 -0.1071
 6149SOL     OW30079   0.958   1.626   4.103 -0.5389  0.4644 -0.2382
 6149SOL    HW130080   0.920   1.666   4.182 -0.9287 -2.0896  0.8879
 6149SOL    HW230081   0.893   1.562   4.073 -1.2050 -0.8463  3.8935
 6150SOL     OW30082   4.242   2.536   6.587 -0.0581  0.0021 -0.0365
 6150SOL    HW130083   4.158   2.548   6.633  0.3584 -0.9489  0.9902
 6150SOL    HW230084   4.223   2.462   6.530  2.1194 -0.9531  0.4534
 6151SOL     OW30085   2.057   3.246  10.004  0.3822  0.1430 -0.0468
 6151SOL    HW130086   2.054   3.151  10.019  0.3382  0.1087 -0.2668
 6151SOL    HW230087   2.141   3.271  10.042  1.0089 -0.1926 -1.1966
 6152SOL     OW30088   0.402   3.427   7.546  0.1817  0.4651  0.7267
 6152SOL    HW130089   0.477   3.394   7.595 -0.1418 -0.1294  0.8130
 6152SOL    HW230090   0.440   3.478   7.474 -1.1616 -1.3701 -1.2848
 6153SOL     OW30091   1.544   0.780   5.072  0.4451  0.5288 -0.3624
 6153SOL    HW130092   1.465   0.831   5.088  0.1841  0.4247 -1.3764
 6153SOL    HW230093   1.572   0.819   4.990 -1.0584  0.5006 -0.8900
 6154SOL     OW30094   4.431   2.974   3.519  0.1037 -0.4926 -0.0236
 6154SOL    HW130095   4.408   2.882   3.529 -0.1907 -0.5587 -1.3258
 6154SOL    HW230096   4.467   2.975   3.430  0.6475  2.3553  0.2166
 6155SOL     OW30097   0.238   4.186   9.009 -0.0517 -0.2829 -0.7224
 6155SOL    HW130098   0.290   4.199   8.929 -0.5911  0.6248 -0.9258
 6155SOL    HW230099   0.155   4.228   8.988 -0.4999 -1.4297 -1.2056
 6156SOL     OW30100   2.288   3.074  16.861  0.2856 -0.0122  0.2372
 6156SOL    HW130101   2.362   3.035  16.815 -0.4496  1.0061 -1.8561
 6156SOL    HW230102   2.315   3.164  16.879  1.1529 -0.1788 -0.2310
 6157SOL     OW30103   3.227   0.029   3.021  0.4152  0.4420  0.4906
 6157SOL    HW130104   3.212   0.101   2.960 -0.1161 -0.5242 -0.5316
 6157SOL    HW230105   3.199   0.077   3.098  1.2563 -0.2264  1.2249
 6158SOL     OW30106   3.995   1.822   4.250  0.1680 -0.0418  0.0664
 6158SOL    HW130107   3.917   1.876   4.234 -1.2515 -1.9058  0.6664
 6158SOL    HW230108   4.048   1.831   4.171 -0.5706  0.0310 -0.4186
 6159SOL     OW30109   1.108   0.513   3.998  0.3273 -0.2438 -0.1286
 6159SOL    HW130110   1.171   0.471   3.940 -0.8443  0.4007 -1.8524
 6159SOL    HW230111   1.148   0.599   4.013 -0.9474  0.4234 -0.5789
 6160SOL     OW30112   0.091   3.001   0.025 -0.0054 -0.5726 -0.6090
 6160SOL    HW130113   0.085   3.095   0.011  0.3606 -0.6633 -1.3610
 6160SOL    HW230114   4.742   2.984   0.046 -0.2185 -0.8139 -1.7244
 6161SOL     OW30115   2.365   0.978   9.122 -0.0427 -0.0054 -0.3263
 6161SOL    HW130116   2.307   0.937   9.057 -1.5685  2.3894 -0.4607
 6161SOL    HW230117   2.315   0.970   9.203  1.4444  2.6472  0.8361
 6162SOL     OW30118   1.138   3.235   2.783  0.8750  0.3111 -0.0434
 6162SOL    HW130119   1.199   3.285   2.838 -0.6168  2.5524 -0.4106
 6162SOL    HW230120   1.157   3.143   2.802  0.7227  0.6065  1.5605
 6163SOL     OW30121   3.645   1.089  16.184 -0.0791  0.2710 -0.1860
 6163SOL    HW130122   3.566   1.062  16.231  0.7008 -0.7594  0.4984
 6163SOL    HW230123   3.613   1.179  16.169 -1.3318  0.0476  1.0966
 6164SOL     OW30124   3.115   1.821   4.442  0.0113 -0.0284  0.5172
 6164SOL    HW130125   3.134   1.913   4.424 -0.5673  0.3847  2.0192
 6164SOL    HW230126   3.030   1.835   4.484  0.5519 -0.1731  1.6758
 6165SOL     OW30127   2.058   3.263   6.374 -0.0623 -0.3528 -0.8420
 6165SOL    HW130128   1.980   3.217   6.406 -1.1111  0.9467 -1.5405
 6165SOL    HW230129   2.027   3.351   6.351 -0.2008  0.0105  0.7416
 6166SOL     OW30130   1.322   3.704  12.815  0.4084 -0.2508  0.0069
 6166SOL    HW130131   1.239   3.701  12.862  0.2740  0.6806 -0.1666
 6166SOL    HW230132   1.373   3.639  12.863  3.0249  1.5714 -0.3176
 6167SOL     OW30133   1.870   1.853   4.201  0.6363  0.0623  0.6569
 6167SOL    HW130134   1.871   1.834   4.295  0.6892  1.0770  0.8627
 6167SOL    HW230135   1.933   1.925   4.207  4.1466 -3.0416  1.7153
 6168SOL     OW30136   2.379   0.743   4.720  0.0199 -0.3856  0.0826
 6168SOL    HW130137   2.384   0.655   4.758 -0.5554 -1.3131 -1.9609
 6168SOL    HW230138   2.287   0.743   4.693  0.0736 -0.2971 -0.0978
 6169SOL     OW30139   4.175   4.167   3.879 -0.2322 -0.1532  0.4491
 6169SOL    HW130140   4.160   4.092   3.821  2.1553 -1.2393  1.2551
 6169SOL    HW230141   4.124   4.137   3.954 -0.7610  0.6490  0.4166
 6170SOL     OW30142   2.807   3.838   4.631 -0.8388  0.1289 -0.1491
 6170SOL    HW130143   2.800   3.758   4.683  2.1321  0.2443  0.4317
 6170SOL    HW230144   2.900   3.844   4.608 -0.1781  0.2738  2.5450
 6171SOL     OW30145   3.394   4.228  12.545  0.1633  0.1824 -0.3855
 6171SOL    HW130146   3.420   4.271  12.627 -0.3349  0.3055 -0.2949
 6171SOL    HW230147   3.310   4.268  12.524  1.5458  2.3069 -1.9246
 6172SOL     OW30148   0.585   0.192   1.085  0.2044  0.2447  0.1857
 6172SOL    HW130149   0.513   0.251   1.109  0.8515 -0.2758  3.3388
 6172SOL    HW230150   0.588   0.129   1.156 -2.7534 -0.1761 -0.0269
 6173SOL     OW30151   3.589   3.976  12.447  0.6591  0.3189  0.1718
 6173SOL    HW130152   3.499   4.006  12.435  0.5266 -0.7522 -1.4756
 6173SOL    HW230153   3.638   4.041  12.397  1.2099 -2.3531 -2.8011
 6174SOL     OW30154   0.853   2.012   1.468 -0.0384  0.5375 -0.0934
 6174SOL    HW130155   0.833   1.933   1.418  2.1737  0.9626 -1.6862
 6174SOL    HW230156   0.776   2.066   1.448 -1.3759 -1.2536  0.2559
 6175SOL     OW30157   4.538   1.952   3.610 -0.2578 -0.9876  0.1568
 6175SOL    HW130158   4.473   2.002   3.561  1.3519  0.9758  0.0359
 6175SOL    HW230159   4.615   1.965   3.555  0.1647 -1.0323  0.7350
 6176SOL     OW30160   2.429   3.213   7.806 -0.3682 -0.1949  0.4331
 6176SOL    HW130161   2.441   3.290   7.862  0.6821  0.9825 -1.4069
 6176SOL    HW230162   2.511   3.205   7.757 -1.1310 -2.4611 -0.4812
 6177SOL     OW30163   0.378   3.716   7.151  0.3097  0.3608  0.1016
 6177SOL    HW130164   0.298   3.766   7.166 -1.1819 -0.9804 -3.3730
 6177SOL    HW230165   0.432   3.770   7.208  0.2053  0.2169  0.3360
 6178SOL     OW30166   0.764   4.109   5.516  0.5941 -0.0023 -0.1393
 6178SOL    HW130167   0.773   4.176   5.583 -2.0332  0.3899 -0.1950
 6178SOL    HW230168   0.670   4.092   5.509  0.1826  2.8316 -1.3050
 6179SOL     OW30169   3.149   3.672   8.610  0.2023 -0.5248  0.0445
 6179SOL    HW130170   3.081   3.634   8.665 -0.2956 -0.3944 -0.4777
 6179SOL    HW230171   3.208   3.716   8.671 -0.8535  0.5993  0.2483
 6180SOL     OW30172   1.339   2.757   5.969  0.3978 -0.4574  0.5657
 6180SOL    HW130173   1.347   2.677   5.917 -2.8051 -0.0136 -0.5870
 6180SOL    HW230174   1.385   2.733   6.050 -0.7356  0.8777  1.6107
 6181SOL     OW30175   4.191   1.699  10.054  0.4881  0.2665  0.4174
 6181SOL    HW130176   4.240   1.714   9.973  3.4929 -1.4130  1.9223
 6181SOL    HW230177   4.246   1.750  10.113  0.3244 -1.4762  2.0770
 6182SOL     OW30178   3.233   1.830   6.772 -0.4753  0.2426  0.1032
 6182SOL    HW130179   3.222   1.826   6.867  0.4941 -0.0243  0.1993
 6182SOL    HW230180   3.323   1.800   6.761 -0.6992  0.1380 -1.3928
 6183SOL     OW30181   4.247   0.079   2.299 -0.5747  0.6264  0.0583
 6183SOL    HW130182   4.303   0.003   2.284  0.4373  1.6519 -1.4419
 6183SOL    HW230183   4.191   0.072   2.222  0.2721 -1.4463 -0.3627
 6184SOL     OW30184   1.188   2.404   6.870  0.2509  0.0348 -0.2331
 6184SOL    HW130185   1.142   2.467   6.815 -0.6326 -1.6472 -1.4282
 6184SOL    HW230186   1.275   2.422   6.834  0.2820 -1.0268 -0.7043
 6185SOL     OW30187   1.962   4.711   2.769  0.2041  0.1164  0.5484
 6185SOL    HW130188   2.024   4.741   2.836 -0.3681  0.8404  0.7602
 6185SOL    HW230189   1.947   4.621   2.798  0.2101 -0.9681 -2.8672
 6186SOL     OW30190   1.286   0.886  13.839  1.1373  0.3274 -0.4038
 6186SOL    HW130191   1.372   0.878  13.796 -0.3224  1.0069 -3.4723
 6186SOL    HW230192   1.239   0.915  13.761  2.5398 -0.4714 -1.5676
 6187SOL     OW30193   1.595   1.059   8.871  0.6129  0.0797  0.2204
 6187SOL    HW130194   1.591   0.987   8.809  0.9178 -0.5060  0.8883
 6187SOL    HW230195   1.654   1.112   8.817 -0.3453 -0.9221 -1.8042
 6188SOL     OW30196   0.153   1.400   0.956  0.2729  0.4269 -0.1948
 6188SOL    HW130197   0.058   1.398   0.964  0.2372 -1.2270 -1.0513
 6188SOL    HW230198   0.158   1.305   0.943  0.7998  0.5852 -1.1824
 6189SOL     OW30199   1.243   1.097   1.547  0.5472 -0.6084  0.0548
 6189SOL    HW130200   1.304   1.045   1.494 -0.8756 -2.0760 -0.1589
 6189SOL    HW230201   1.185   1.037   1.593 -1.9681  0.0745 -2.1717
 6190SOL     OW30202   2.325   3.666   2.681  0.5298 -0.1779 -0.4515
 6190SOL    HW130203   2.396   3.695   2.624  0.6851 -0.7313 -0.5459
 6190SOL    HW230204   2.336   3.571   2.668  0.1833 -0.6959  3.0947
 6191SOL     OW30205   2.808   0.122   7.323  0.7204  0.3576  0.3812
 6191SOL    HW130206   2.892   0.163   7.340  0.9266 -0.2882  0.9113
 6191SOL    HW230207   2.804   0.130   7.228 -1.0764 -0.7573  0.3523
 6192SOL     OW30208   4.683   0.048  17.647 -0.3314 -0.5381  0.7355
 6192SOL    HW130209   4.592   0.022  17.639  0.6951 -3.0984 -2.6713
 6192SOL    HW230210   4.684   0.080  17.737  1.6319  0.3414  0.3944
 6193SOL     OW30211   2.241   1.252   5.943  0.1132  0.4151 -0.3881
 6193SOL    HW130212   2.266   1.164   5.913  2.2925  1.1506 -0.6670
 6193SOL    HW230213   2.197   1.225   6.023 -0.7929  1.5916 -0.4792
 6194SOL     OW30214   3.986   4.232  12.672 -0.2966 -0.3884 -0.2570
 6194SOL    HW130215   4.010   4.298  12.737  1.0360 -0.7717 -0.3666
 6194SOL    HW230216   4.066   4.181  12.662 -1.8418 -2.2046 -3.0942
 6195SOL     OW30217   2.809   1.283   9.796 -0.2383 -0.2821  0.0502
 6195SOL    HW130218   2.769   1.363   9.829 -0.6759 -1.1832  1.7055
 6195SOL    HW230219   2.796   1.220   9.867  1.8370 -1.9865 -1.0545
 6196SOL     OW30220   3.599   3.970  10.142 -0.4631 -0.5447 -0.3646
 6196SOL    HW130221   3.677   3.923  10.113  0.6463  1.7696 -1.1364
 6196SOL    HW230222   3.536   3.903  10.168  0.3141  0.4367  3.9592
 6197SOL     OW30223   0.235   1.273   8.019  0.2605  0.2928 -0.4324
 6197SOL    HW130224   0.155   1.295   8.068 -0.3808 -0.3339 -1.1926
 6197SOL    HW230225   0.241   1.350   7.962 -2.7739  0.0434 -1.1207
 6198SOL     OW30226   0.379   3.603  13.539 -0.0750  0.0122  0.3167
 6198SOL    HW130227   0.451   3.649  13.584  1.2967 -1.1925 -0.6435
 6198SOL    HW230228   0.429   3.550  13.478 -1.0921 -1.9185  1.1852
 6199SOL     OW30229   0.646   1.705   5.874  0.2795 -0.1234 -0.4740
 6199SOL    HW130230   0.620   1.703   5.782  2.0070 -0.9678 -0.9340
 6199SOL    HW230231   0.722   1.648   5.868  0.1459 -0.4474  0.8570
 6200SOL     OW30232   1.192   1.335   4.638  0.7063  0.4043 -0.3786
 6200SOL    HW130233   1.285   1.319   4.626  0.5785 -0.0533 -0.7419
 6200SOL    HW230234   1.170   1.334   4.731 -0.8580  0.7095 -0.7399
 6201SOL     OW30235   4.540   0.879   7.100 -0.4936 -0.4193  0.1715
 6201SOL    HW130236   4.586   0.834   7.029 -0.4546  0.8665 -0.6125
 6201SOL    HW230237   4.612   0.926   7.142 -0.2778 -0.4204 -0.1959
 6202SOL     OW30238   2.387   3.193   4.797  0.5095  0.1600  0.4148
 6202SOL    HW130239   2.380   3.267   4.736  1.5470 -0.7925 -0.8782
 6202SOL    HW230240   2.307   3.194   4.849 -2.2055 -0.0104 -3.7561
 6203SOL     OW30241   3.972   3.362   7.976 -0.8962 -0.5890 -0.3639
 6203SOL    HW130242   4.002   3.399   7.893 -2.9423  2.8240  0.4052
 6203SOL    HW230243   3.880   3.353   7.948 -0.7708 -0.9417 -0.6657
 6204SOL     OW30244   0.083   4.623   8.382  0.0544 -0.2206  0.2123
 6204SOL    HW130245   0.160   4.676   8.363  0.7421 -1.1081  0.5206
 6204SOL    HW230246   0.085   4.631   8.477 -4.3886 -0.3722  0.3385
 6205SOL     OW30247   2.009   2.359   3.205  0.2085  0.1013 -0.0927
 6205SOL    HW130248   2.022   2.395   3.117 -2.8223  1.4433  0.0023
 6205SOL    HW230249   2.093   2.377   3.247  0.4853  0.0230 -0.6144
 6206SOL     OW30250   4.021   0.237   3.043  0.5221 -0.0081 -0.2250
 6206SOL    HW130251   3.940   0.269   3.003 -0.3820 -1.3551  0.5387
 6206SOL    HW230252   4.016   0.143   3.028 -2.2258  0.0710  0.1217
 6207SOL     OW30253   2.411   2.686   8.004  0.4206 -0.1548  0.0680
 6207SOL    HW130254   2.375   2.632   7.934 -1.9423 -1.1821  2.0433
 6207SOL    HW230255   2.473   2.745   7.963  1.6283 -0.4152  1.5221
 6208SOL     OW30256   4.427   1.227   3.124 -0.2241 -0.2580 -0.0918
 6208SOL    HW130257   4.480   1.292   3.079 -0.6410  1.3332  1.7198
 6208SOL    HW230258   4.464   1.219   3.212 -0.0401  2.3745  0.0678
 6209SOL     OW30259   1.646   4.298  12.671 -0.2949  0.1519  0.3630
 6209SOL    HW130260   1.710   4.363  12.700 -1.3133 -0.1564  3.3958
 6209SOL    HW230261   1.672   4.226  12.729  1.0439  1.2230  1.0947
 6210SOL     OW30262   0.382   1.016   5.739 -0.2363 -0.5896  0.8331
 6210SOL    HW130263   0.377   0.975   5.825 -1.3127 -0.2628  0.9293
 6210SOL    HW230264   0.334   1.097   5.757 -1.8429 -1.4634  0.4335
 6211SOL     OW30265   3.528   1.600   7.939 -0.3938 -0.1841 -0.0031
 6211SOL    HW130266   3.514   1.519   7.988 -1.7761 -0.3947 -0.7318
 6211SOL    HW230267   3.446   1.617   7.892  0.7686  0.2295 -1.8577
 6212SOL     OW30268   1.124   1.207   1.969  0.1748  0.0888 -0.6774
 6212SOL    HW130269   1.099   1.220   2.061  0.5948 -0.8331 -0.4396
 6212SOL    HW230270   1.190   1.140   1.983  0.5854  0.3010 -1.6284
 6213SOL     OW30271   1.442   3.613   6.797  0.0253  0.9894 -0.2895
 6213SOL    HW130272   1.454   3.635   6.889  0.9751  3.4191 -1.0185
 6213SOL    HW230273   1.474   3.523   6.787  1.0138  1.4229 -1.0200
 6214SOL     OW30274   4.736   4.637   6.856  0.1552 -0.0105  0.1394
 6214SOL    HW130275   4.668   4.701   6.834  2.1049  0.8763 -3.2306
 6214SOL    HW230276   4.696   4.557   6.889 -1.6092  0.2774 -1.3082
 6215SOL     OW30277   0.514   2.662   6.461 -0.1663 -0.3894  0.3612
 6215SOL    HW130278   0.489   2.738   6.513  2.7144  0.8111 -0.0060
 6215SOL    HW230279   0.599   2.687   6.427  0.6792 -2.8860  0.6052
 6216SOL     OW30280   1.135   3.036   3.183  0.5572  0.3397  0.1306
 6216SOL    HW130281   1.069   3.078   3.128  0.4448 -1.1430 -0.8582
 6216SOL    HW230282   1.125   3.093   3.260 -2.4475 -1.5117  1.1175
 6217SOL     OW30283   0.063   4.420   8.189  0.6927 -0.1599 -0.1214
 6217SOL    HW130284   0.110   4.478   8.129  1.3130  0.1554  0.6662
 6217SOL    HW230285   0.077   4.462   8.275  1.1398 -0.5627  0.0012
 6218SOL     OW30286   0.294   3.812  17.763  0.5312  0.1445  0.1074
 6218SOL    HW130287   0.210   3.832  17.720  1.8320 -1.3185 -3.0842
 6218SOL    HW230288   0.345   3.880  17.718 -0.3720 -0.0431 -1.1998
 6219SOL     OW30289   0.586   0.177   4.653  0.1281 -0.0454 -0.1918
 6219SOL    HW130290   0.584   0.255   4.709 -1.7857 -0.7355  0.6998
 6219SOL    HW230291   0.653   0.129   4.702 -1.3117 -0.9855  0.8424
 6220SOL     OW30292   3.709   4.684   9.530 -1.1753  0.6102 -0.1386
 6220SOL    HW130293   3.755   4.632   9.463  1.5861  1.1364  1.3596
 6220SOL    HW230294   3.773   0.006   9.559  0.4431 -1.4665  0.9121
 6221SOL     OW30295   1.045   1.970  14.100  0.0208  0.5478 -0.0104
 6221SOL    HW130296   1.067   1.879  14.118  0.3739  0.4150 -1.1264
 6221SOL    HW230297   0.985   1.977  14.175 -0.2287 -2.5624  0.0778
 6222SOL     OW30298   1.122   2.574   7.827 -0.0544 -0.6942 -0.2646
 6222SOL    HW130299   1.080   2.610   7.905  0.6238 -4.1142  1.6378
 6222SOL    HW230300   1.136   2.659   7.785 -0.4154 -0.8126 -0.6279
 6223SOL     OW30301   2.522   2.278   5.753  0.1208 -0.5781  0.4091
 6223SOL    HW130302   2.597   2.266   5.694  1.6415  0.2665  2.1512
 6223SOL    HW230303   2.456   2.291   5.685  2.2906 -0.1863 -1.6210
 6224SOL     OW30304   2.655   3.725   6.294 -0.7317  0.0151 -0.1013
 6224SOL    HW130305   2.642   3.661   6.225 -0.2645 -0.0349 -0.1447
 6224SOL    HW230306   2.567   3.751   6.321 -0.6071  1.4333 -1.0462
 6225SOL     OW30307   3.342   1.448  10.330  0.1401  0.0829 -0.2214
 6225SOL    HW130308   3.329   1.537  10.362  1.4739 -0.1226  0.8679
 6225SOL    HW230309   3.373   1.394  10.403 -0.1816 -0.1229 -0.2378
 6226SOL     OW30310   3.000   0.603   9.633  0.6967  0.2942  0.0958
 6226SOL    HW130311   3.090   0.574   9.618  0.1159 -1.7522  0.6304
 6226SOL    HW230312   3.018   0.696   9.618  0.1670  0.4198  0.2620
 6227SOL     OW30313   4.213   4.328   6.620  0.2543 -0.5447  0.2342
 6227SOL    HW130314   4.242   4.240   6.647  1.3440 -0.1121  0.4615
 6227SOL    HW230315   4.134   4.300   6.574  1.1273 -0.9356 -1.0568
 6228SOL     OW30316   0.651   2.890   2.737  0.0710  0.4002  0.0283
 6228SOL    HW130317   0.712   2.874   2.808  0.3441  0.4049 -0.2036
 6228SOL    HW230318   0.576   2.925   2.785  0.8176  1.9805  0.0367
 6229SOL     OW30319   4.187   3.431   2.380  0.3767  0.3859 -0.1722
 6229SOL    HW130320   4.248   3.505   2.377 -1.0773  1.4680 -3.7264
 6229SOL    HW230321   4.105   3.473   2.407 -0.7137 -0.9492 -1.3787
 6230SOL     OW30322   3.102   2.710   0.016  0.0715 -0.2805 -0.3424
 6230SOL    HW130323   3.165   2.781   0.016 -0.0844 -0.1370 -1.9261
 6230SOL    HW230324   3.054   2.742  17.705 -0.7081 -1.7832 -0.4910
 6231SOL     OW30325   1.654   1.009   5.460  0.2310  0.0332 -0.7431
 6231SOL    HW130326   1.732   0.993   5.408  0.7904  1.1125 -0.2475
 6231SOL    HW230327   1.641   1.095   5.421 -0.7106  0.3845  0.3081
 6232SOL     OW30328   2.441   2.237   1.646  0.0677 -0.1766  0.0167
 6232SOL    HW130329   2.454   2.146   1.619 -0.1389  0.2182 -1.4198
 6232SOL    HW230330   2.365   2.227   1.703  0.9970 -2.4714  0.8742
 6233SOL     OW30331   4.156   3.718   2.808  0.0759 -0.0058  0.0085
 6233SOL    HW130332   4.172   3.660   2.882 -0.4391  2.2986  1.9577
 6233SOL    HW230333   4.241   3.762   2.806  0.6570 -1.1219  0.5870
 6234SOL     OW30334   2.699   1.957   8.765  0.5178  0.2460 -0.1129
 6234SOL    HW130335   2.609   1.948   8.731  0.1318  2.4767  0.3221
 6234SOL    HW230336   2.739   1.879   8.727  2.5934  1.3314 -0.1138
 6235SOL     OW30337   2.879   3.865   9.208  0.2313 -0.1839 -0.0679
 6235SOL    HW130338   2.823   3.881   9.284  0.7950  2.8639 -0.3142
 6235SOL    HW230339   2.944   3.934   9.214  1.7652 -1.3942 -2.4513
 6236SOL     OW30340   1.283   1.431   2.634 -0.0848 -0.0928  0.3946
 6236SOL    HW130341   1.317   1.415   2.546 -1.1203  0.9903 -0.1973
 6236SOL    HW230342   1.244   1.518   2.625 -0.2219 -0.2627 -0.6661
 6237SOL     OW30343   3.499   3.213   3.428  0.1845 -0.0646  0.2542
 6237SOL    HW130344   3.421   3.211   3.482 -0.1715  3.1210 -0.1429
 6237SOL    HW230345   3.489   3.280   3.360 -0.4070 -2.5362 -2.1044
 6238SOL     OW30346   1.934   4.156  12.582  0.2629  0.4649 -0.0521
 6238SOL    HW130347   1.991   4.228  12.607 -1.0142  1.8585 -1.1115
 6238SOL    HW230348   1.888   4.131  12.662  0.5897  0.1286  0.0268
 6239SOL     OW30349   3.752   4.464   6.908  0.2493 -0.4399  0.5242
 6239SOL    HW130350   3.767   4.370   6.906 -2.4493 -0.8372 -1.2876
 6239SOL    HW230351   3.659   4.473   6.927  0.1122  2.1248 -1.4683
 6240SOL     OW30352   2.254   4.270  14.445 -0.2693 -0.1201 -0.6267
 6240SOL    HW130353   2.208   4.217  14.510  0.2317  1.4189  0.9823
 6240SOL    HW230354   2.276   4.346  14.498 -1.3883 -0.5599  0.4613
 6241SOL     OW30355   1.610   1.801   3.333  0.1037 -0.5734 -0.3280
 6241SOL    HW130356   1.627   1.768   3.422  1.1863  0.1056 -0.2859
 6241SOL    HW230357   1.562   1.881   3.356 -0.0010 -0.4129 -1.1005
 6242SOL     OW30358   2.824   3.236   8.012  0.1767  0.2526  0.0154
 6242SOL    HW130359   2.849   3.261   7.923 -0.6870  2.6345  0.4292
 6242SOL    HW230360   2.744   3.288   8.021 -0.7785 -1.2598  0.1861
 6243SOL     OW30361   1.208   4.262   7.560 -0.1075 -0.1690  0.4414
 6243SOL    HW130362   1.251   4.331   7.609  2.4116 -0.4048 -1.4503
 6243SOL    HW230363   1.132   4.309   7.527 -0.0719 -0.2370  0.2627
 6244SOL     OW30364   1.426   0.900   3.889 -0.3866  0.5300  0.1973
 6244SOL    HW130365   1.379   0.934   3.813 -1.8654  1.2539  1.4329
 6244SOL    HW230366   1.513   0.906   3.849 -0.6896 -2.3519 -0.8845
 6245SOL     OW30367   4.369   1.048  14.481  0.1769 -0.1468 -0.2522
 6245SOL    HW130368   4.286   1.007  14.456  1.3127 -1.7595 -1.3927
 6245SOL    HW230369   4.362   1.051  14.577  2.5998  3.7120 -0.1972
 6246SOL     OW30370   4.502   1.101   7.921 -0.1102 -0.7353 -0.2935
 6246SOL    HW130371   4.520   1.153   7.843 -2.1732  0.8583  0.2953
 6246SOL    HW230372   4.423   1.048   7.908  0.8527 -2.0228 -0.9507
 6247SOL     OW30373   1.758   0.142   2.891  0.4328 -0.1340  0.1185
 6247SOL    HW130374   1.818   0.214   2.913 -0.5256  0.5495  0.4717
 6247SOL    HW230375   1.823   0.078   2.860  2.3335  1.8320  0.0447
 6248SOL     OW30376   0.331   2.337   5.632 -0.1590 -0.1733 -0.2350
 6248SOL    HW130377   0.253   2.288   5.660  0.3421  0.1302  1.6427
 6248SOL    HW230378   0.354   2.383   5.712  1.1785 -1.0387 -0.1376
 6249SOL     OW30379   0.722   4.729   9.643  0.2650  0.1726 -0.0251
 6249SOL    HW130380   0.790   4.738   9.576 -1.5707  0.2996 -1.8604
 6249SOL    HW230381   0.654   4.670   9.612  1.5103 -1.3536  0.1439
 6250SOL     OW30382   0.687   3.135  11.636 -0.0446 -0.3153 -0.2612
 6250SOL    HW130383   0.634   3.126  11.557  0.6170 -0.2679 -0.7080
 6250SOL    HW230384   0.700   3.048  11.673  0.3787 -0.1519 -0.0271
 6251SOL     OW30385   2.697   3.825   1.328  0.6063  0.5825  0.0668
 6251SOL    HW130386   2.703   3.873   1.411 -0.4162  0.7435  0.0475
 6251SOL    HW230387   2.615   3.863   1.296  0.5984  1.3614  1.0120
 6252SOL     OW30388   4.696   1.047   3.538 -0.1333  0.8180  0.1696
 6252SOL    HW130389   4.709   1.141   3.530 -0.5769  1.0678  2.4291
 6252SOL    HW230390   4.676   1.046   3.631  2.7736  0.2751  0.7994
 6253SOL     OW30391   4.574   2.353   2.954 -0.3339  0.2357 -0.4875
 6253SOL    HW130392   4.593   2.423   2.892  3.7230 -0.0727  0.4108
 6253SOL    HW230393   4.630   2.382   3.026 -1.6053 -2.6955  1.6734
 6254SOL     OW30394   4.293   2.645   6.853 -0.8492  0.4435 -0.4856
 6254SOL    HW130395   4.312   2.732   6.819  0.5077  0.5106  0.4166
 6254SOL    HW230396   4.312   2.586   6.780 -2.3138  1.9620 -2.0988
 6255SOL     OW30397   1.409   1.579  12.403 -0.3344 -0.1178  0.1320
 6255SOL    HW130398   1.415   1.484  12.410  0.5030 -0.2457 -2.1719
 6255SOL    HW230399   1.400   1.586  12.308  0.6416 -0.2731  0.0274
 6256SOL     OW30400   3.925   0.536   7.142 -0.1548 -0.4656  0.1029
 6256SOL    HW130401   3.850   0.513   7.197 -0.4458  0.7983  0.2303
 6256SOL    HW230402   3.999   0.528   7.201 -0.9810 -1.8736  0.9544
 6257SOL     OW30403   0.604   2.335   5.609 -0.7176 -0.5132 -0.2155
 6257SOL    HW130404   0.513   2.348   5.636 -1.9723 -4.3951 -2.4748
 6257SOL    HW230405   0.656   2.408   5.644 -1.2189 -0.2971  0.0840
 6258SOL     OW30406   0.861   4.160   3.499  0.0371  0.2439 -0.6808
 6258SOL    HW130407   0.911   4.240   3.481 -0.6308  0.2121 -2.6203
 6258SOL    HW230408   0.807   4.185   3.574  1.2526  2.9871 -0.7331
 6259SOL     OW30409   2.668   0.689   3.692  0.4600 -0.2113 -0.3866
 6259SOL    HW130410   2.713   0.706   3.774 -2.0806 -0.1632  0.9935
 6259SOL    HW230411   2.665   0.777   3.654  0.4771 -0.2059 -0.3754
 6260SOL     OW30412   1.056   3.946   8.499 -0.1610  0.0811  0.0704
 6260SOL    HW130413   1.001   3.922   8.425  1.3096 -0.0804 -0.9696
 6260SOL    HW230414   0.991   3.928   8.567 -1.0798 -1.0737 -1.1115
 6261SOL     OW30415   2.248   0.759   2.178 -0.0281 -0.1714  0.7699
 6261SOL    HW130416   2.297   0.779   2.099  2.0708  0.0949  2.1276
 6261SOL    HW230417   2.292   0.800   2.253  2.5822  0.6621 -1.2186
 6262SOL     OW30418   1.058   1.767   3.592  0.5415  0.1634 -0.2459
 6262SOL    HW130419   1.001   1.758   3.669  0.5063 -3.3060 -0.6962
 6262SOL    HW230420   1.081   1.860   3.591 -0.1255  0.3502  1.1975
 6263SOL     OW30421   2.759   3.767   7.849  0.0239 -0.7073 -0.3467
 6263SOL    HW130422   2.835   3.709   7.863  1.7017  1.5895 -0.0175
 6263SOL    HW230423   2.686   3.708   7.828  0.7356 -1.3248 -1.1100
 6264SOL     OW30424   2.546   0.771   2.733  0.2639  0.1048 -0.2238
 6264SOL    HW130425   2.580   0.852   2.770  3.7046 -0.7336 -1.5110
 6264SOL    HW230426   2.579   0.706   2.796  0.7221  1.3632  0.8220
 6265SOL     OW30427   3.236   2.082   2.222  0.4812  0.3481  0.2132
 6265SOL    HW130428   3.329   2.059   2.222  0.0771 -1.2259 -1.3280
 6265SOL    HW230429   3.211   2.063   2.132  4.1886 -0.3049 -0.6887
 6266SOL     OW30430   4.507   0.663   6.485 -0.5881 -0.2602  0.2395
 6266SOL    HW130431   4.539   0.751   6.504  1.2729 -0.6951 -0.8702
 6266SOL    HW230432   4.588   0.611   6.481 -0.2034  0.4375 -0.7695
 6267SOL     OW30433   0.195   3.365   9.640 -0.0223  0.6201 -0.0055
 6267SOL    HW130434   0.253   3.392   9.569 -0.4529 -0.0953 -0.6275
 6267SOL    HW230435   0.231   3.413   9.715  0.3663 -1.3302  1.0671
 6268SOL     OW30436   0.006   4.247  15.447  0.1681  0.0573  0.3780
 6268SOL    HW130437   0.038   4.242  15.538  0.7056  2.8673  0.3526
 6268SOL    HW230438   4.669   4.194  15.447 -0.1930  0.5956  0.3366
 6269SOL     OW30439   3.030   4.589   4.584 -0.2647  0.2833 -0.2646
 6269SOL    HW130440   2.995   4.678   4.588 -1.7558 -0.3752  1.1472
 6269SOL    HW230441   2.956   4.540   4.620  0.7585 -0.6339  0.6000
 6270SOL     OW30442   3.917   0.620   0.147  0.0986 -0.1935  0.0547
 6270SOL    HW130443   3.826   0.648   0.138  0.4952  1.2086  0.2919
 6270SOL    HW230444   3.960   0.703   0.170 -0.8649  0.5470 -0.8008
 6271SOL     OW30445   3.712   2.544   3.330 -0.0696 -0.1104 -0.5733
 6271SOL    HW130446   3.662   2.625   3.339  1.7721  0.8321  1.1707
 6271SOL    HW230447   3.796   2.588   3.322  0.0580 -0.4409 -1.0315
 6272SOL     OW30448   2.723   2.147   4.008 -0.0393 -0.3049 -0.3426
 6272SOL    HW130449   2.790   2.211   4.032 -1.1159 -0.4750  3.1309
 6272SOL    HW230450   2.703   2.100   4.089 -0.3448  0.1213 -0.1753
 6273SOL     OW30451   3.563   3.319   5.046  0.2983  0.2006  0.1297
 6273SOL    HW130452   3.573   3.377   5.121 -0.8380  0.4001  0.1244
 6273SOL    HW230453   3.656   3.324   5.022  0.1149 -1.8900 -1.0492
 6274SOL     OW30454   4.491   4.175  15.511  1.2497 -0.9292 -0.3404
 6274SOL    HW130455   4.432   4.170  15.436  0.5865 -3.1035  0.3328
 6274SOL    HW230456   4.445   4.124  15.577 -1.9960 -1.0449 -2.6878
 6275SOL     OW30457   1.585   1.184  15.885  0.5277 -0.2394 -0.0691
 6275SOL    HW130458   1.654   1.121  15.865  0.6686 -0.1350  0.0820
 6275SOL    HW230459   1.509   1.130  15.865  0.5233  0.6896 -2.5413
 6276SOL     OW30460   4.485   3.639   1.744 -0.5985 -0.1994  0.0030
 6276SOL    HW130461   4.528   3.564   1.703  1.9752  1.4187 -0.2551
 6276SOL    HW230462   4.547   3.712   1.744 -0.7579 -0.0646 -0.2257
 6277SOL     OW30463   1.112   0.720   4.735 -0.7936 -0.2676 -0.0797
 6277SOL    HW130464   1.131   0.629   4.715  0.9493  0.5133 -1.9789
 6277SOL    HW230465   1.171   0.766   4.675  0.2742  0.4403  1.4918
 6278SOL     OW30466   1.016   3.221  11.122  0.0684  0.2796 -0.2792
 6278SOL    HW130467   1.001   3.315  11.135 -1.6464 -0.0325  0.0883
 6278SOL    HW230468   1.094   3.210  11.175 -0.0747  1.5814  0.2125
 6279SOL     OW30469   3.533   0.051   6.084 -0.7592  0.2038 -0.3606
 6279SOL    HW130470   3.451   0.007   6.062 -0.3618 -0.3071 -0.8692
 6279SOL    HW230471   3.517   0.080   6.173 -1.4717 -1.6975  0.1180
 6280SOL     OW30472   0.761   0.223  14.233 -0.7363  0.3692  0.1953
 6280SOL    HW130473   0.709   0.258  14.305  0.4590 -2.4673  2.4357
 6280SOL    HW230474   0.758   0.288  14.163  0.4139  1.3463  1.0501
 6281SOL     OW30475   3.426   1.595   8.876  0.2344  0.2450 -0.1978
 6281SOL    HW130476   3.403   1.613   8.968  0.5315 -0.4702  0.0210
 6281SOL    HW230477   3.417   1.500   8.871 -0.9217  0.2959  0.8859
 6282SOL     OW30478   3.745   4.554   9.279 -0.5468 -0.7015 -0.1198
 6282SOL    HW130479   3.799   4.621   9.237 -1.2497  0.2117  0.4183
 6282SOL    HW230480   3.677   4.535   9.215 -0.2750  0.5698 -0.7975
 6283SOL     OW30481   0.750   1.889   2.509 -0.1269 -0.0462  0.3060
 6283SOL    HW130482   0.803   1.950   2.561 -0.1389  1.1639 -1.1273
 6283SOL    HW230483   0.766   1.929   2.424 -0.1216  0.7281  0.6752
 6284SOL     OW30484   3.718   3.995   9.859  0.3509 -0.6273  0.6127
 6284SOL    HW130485   3.750   3.913   9.897  0.2208  0.1571  2.4177
 6284SOL    HW230486   3.652   4.027   9.920 -0.2317  0.8259 -0.7884
 6285SOL     OW30487   0.015   3.853   8.993  0.5252  0.1671 -0.1485
 6285SOL    HW130488   0.069   3.793   8.942  0.9252  0.8238 -0.4975
 6285SOL    HW230489   4.721   3.900   8.918  0.8165 -0.0851 -0.4475
 6286SOL     OW30490   3.845   3.907   7.349  0.2298  0.4820  0.1713
 6286SOL    HW130491   3.889   3.871   7.426 -0.6111 -0.7219  0.0951
 6286SOL    HW230492   3.814   3.993   7.377  1.4567  1.7122 -2.2041
 6287SOL     OW30493   1.641   0.100   6.606  0.2866  0.4439 -0.9107
 6287SOL    HW130494   1.630   0.191   6.635  0.0002 -0.0427  0.5430
 6287SOL    HW230495   1.553   0.075   6.577  1.5767 -1.2632 -3.2879
 6288SOL     OW30496   0.348   1.940   1.721 -0.3548 -0.1024  0.2729
 6288SOL    HW130497   0.395   1.899   1.649  1.7517  3.0625 -0.1361
 6288SOL    HW230498   0.294   1.868   1.755 -0.0019 -1.3246 -1.7441
 6289SOL     OW30499   0.620   1.178   2.597 -0.1859  0.2097 -0.1441
 6289SOL    HW130500   0.630   1.252   2.537 -2.3751  2.2738  1.9506
 6289SOL    HW230501   0.529   1.150   2.584  0.1229 -0.7529 -0.1817
 6290SOL     OW30502   1.084   2.782  10.152 -0.0250 -0.1918 -0.4545
 6290SOL    HW130503   1.058   2.848  10.216 -0.8760 -0.1238 -0.8762
 6290SOL    HW230504   1.000   2.735  10.147  0.3037 -0.7596 -0.7356
 6291SOL     OW30505   1.748   4.289  14.517  0.2210  0.2689  0.0745
 6291SOL    HW130506   1.751   4.379  14.485  0.8993  0.3045  0.2506
 6291SOL    HW230507   1.825   4.283  14.573  1.4635 -2.8799 -1.9929
 6292SOL     OW30508   2.004   4.654   1.281 -0.0774 -0.2456 -0.4539
 6292SOL    HW130509   2.032   4.564   1.293  1.1959 -0.0871 -2.2265
 6292SOL    HW230510   2.082   4.703   1.309 -0.3034 -0.2449  0.1770
 6293SOL     OW30511   4.376   1.831   7.998 -0.0448  0.3685  0.1273
 6293SOL    HW130512   4.326   1.826   8.079 -0.3633  1.1506 -0.0243
 6293SOL    HW230513   4.400   1.923   8.007  3.6458 -0.8142  2.3631
 6294SOL     OW30514   0.252   4.434   6.169  0.7173  0.0551 -0.6126
 6294SOL    HW130515   0.253   4.444   6.074 -0.5696 -0.8493 -0.7334
 6294SOL    HW230516   0.170   4.385   6.177  1.5710 -1.3048 -0.3210
 6295SOL     OW30517   4.150   3.297  16.283  0.3146  0.0599 -0.5268
 6295SOL    HW130518   4.111   3.365  16.338 -0.1970  0.8521 -1.8606
 6295SOL    HW230519   4.208   3.350  16.228 -2.7849 -0.9987 -4.8278
 6296SOL     OW30520   2.495   2.698   8.905 -0.4527  0.0174 -0.3568
 6296SOL    HW130521   2.444   2.739   8.974 -1.0268 -0.6774 -0.3661
 6296SOL    HW230522   2.577   2.688   8.952  0.1600 -1.3170 -1.6947
 6297SOL     OW30523   3.573   3.173  10.407 -0.0770 -0.1125 -0.2050
 6297SOL    HW130524   3.581   3.230  10.331 -2.0736  1.3759  0.7121
 6297SOL    HW230525   3.580   3.233  10.481 -2.8063 -2.9123  2.3314
 6298SOL     OW30526   2.796   1.732   8.641 -0.1817  0.1735 -0.4704
 6298SOL    HW130527   2.742   1.705   8.566 -1.2534 -0.3351  0.4729
 6298SOL    HW230528   2.869   1.671   8.632  0.6988  1.0674  0.5620
 6299SOL     OW30529   2.105   3.664  13.946  0.0475  0.0680  0.0940
 6299SOL    HW130530   2.021   3.656  13.991 -0.7827 -1.9707 -1.8572
 6299SOL    HW230531   2.089   3.733  13.881  0.8922  0.2392  0.0648
 6300SOL     OW30532   1.808   4.421   2.826 -0.0246 -0.3131 -0.3925
 6300SOL    HW130533   1.843   4.435   2.738 -0.2178  2.7950  0.0120
 6300SOL    HW230534   1.715   4.421   2.801  0.3313 -1.3001 -1.6906
 6301SOL     OW30535   0.822   0.851  17.168 -0.6181 -0.4488  0.0932
 6301SOL    HW130536   0.814   0.871  17.074 -0.0435 -2.1309 -0.3131
 6301SOL    HW230537   0.767   0.774  17.183  0.2556 -1.2810 -0.9548
 6302SOL     OW30538   0.131   0.201  14.863 -0.3074  0.1303  0.7837
 6302SOL    HW130539   0.083   0.262  14.919 -1.2212  0.7053 -0.6470
 6302SOL    HW230540   0.105   0.115  14.896  0.0009 -0.8129 -1.4435
 6303SOL     OW30541   0.419   2.271  15.011 -0.1148 -0.1251  0.2512
 6303SOL    HW130542   0.364   2.232  15.079 -3.0893  1.5614 -1.2128
 6303SOL    HW230543   0.439   2.351  15.059 -0.5361  0.1715 -0.0679
 6304SOL     OW30544   3.045   1.224   7.296 -0.2204  0.5899  0.1803
 6304SOL    HW130545   3.003   1.244   7.212  0.3036 -0.4456 -0.3377
 6304SOL    HW230546   3.045   1.128   7.297  0.4824  0.5937  0.0617
 6305SOL     OW30547   2.997   0.147   8.886  0.1350 -0.8351 -0.4046
 6305SOL    HW130548   3.032   0.234   8.904 -1.1444  0.2700 -3.3028
 6305SOL    HW230549   3.022   0.131   8.795  2.4520 -0.2520  0.1445
 6306SOL     OW30550   1.967   3.050   1.540 -0.2006  0.2174 -0.3301
 6306SOL    HW130551   1.921   2.971   1.511 -0.6344  1.1057 -2.0645
 6306SOL    HW230552   1.973   3.031   1.634  0.1649 -0.1465 -0.4298
 6307SOL     OW30553   3.449   1.413   5.289  0.1010 -0.2285 -1.0365
 6307SOL    HW130554   3.474   1.484   5.230  0.0662  1.1529  0.5982
 6307SOL    HW230555   3.359   1.396   5.260 -0.3835 -0.5717  0.6589
 6308SOL     OW30556   0.755   1.560   2.893  0.5071  0.0324  0.3123
 6308SOL    HW130557   0.833   1.615   2.892 -0.4203  1.3391 -2.4929
 6308SOL    HW230558   0.753   1.520   2.806 -1.3431 -0.0734  0.4093
 6309SOL     OW30559   0.210   1.097  15.678  0.4911  0.0781  0.3931
 6309SOL    HW130560   0.256   1.069  15.599 -1.0611 -1.2757 -0.0186
 6309SOL    HW230561   0.285   1.088  15.736  0.6931  0.6150  0.2191
 6310SOL     OW30562   1.908   2.798   9.152 -0.4069 -0.6408  0.3709
 6310SOL    HW130563   1.922   2.740   9.228 -2.1483 -1.5276  0.0024
 6310SOL    HW230564   1.913   2.731   9.084  1.6670  0.1906 -0.2907
 6311SOL     OW30565   0.152   2.657   8.907  0.4711 -0.0400 -0.3480
 6311SOL    HW130566   0.135   2.574   8.950  1.3381  1.2025  2.3490
 6311SOL    HW230567   0.231   2.684   8.952 -0.3125  0.5855  0.6627
 6312SOL     OW30568   1.425   4.234   5.280  0.4298 -0.0121  0.5023
 6312SOL    HW130569   1.429   4.179   5.201 -1.0910  1.9671 -0.9674
 6312SOL    HW230570   1.338   4.210   5.311 -0.6782  1.3378 -1.4804
 6313SOL     OW30571   1.677   4.709  14.025  0.1515  0.1793  0.1585
 6313SOL    HW130572   1.689   0.057  13.996 -1.9642  0.2140 -0.6159
 6313SOL    HW230573   1.582   4.714  14.025  0.0836 -0.9667 -0.5629
 6314SOL     OW30574   3.913   4.000  12.913  0.4149  0.0593 -0.1756
 6314SOL    HW130575   3.885   4.091  12.922  0.3121  0.0064  0.0235
 6314SOL    HW230576   3.866   3.975  12.833  1.7469 -0.6279 -0.7462
 6315SOL     OW30577   0.645   4.289   9.595  0.3755  0.0409 -0.0905
 6315SOL    HW130578   0.709   4.245   9.651  0.0643  1.0905  1.0870
 6315SOL    HW230579   0.605   4.346   9.660 -0.5871 -0.1631 -0.5127
 6316SOL     OW30580   2.526   1.012   6.184 -0.5794 -0.0234  0.0602
 6316SOL    HW130581   2.571   1.038   6.264 -0.0723 -0.5656 -0.0541
 6316SOL    HW230582   2.440   1.053   6.196 -0.1851  0.3497  1.5448
 6317SOL     OW30583   1.582   3.943  15.757 -0.1512  0.2937  1.0652
 6317SOL    HW130584   1.602   4.018  15.813  0.0049  0.5437  0.6684
 6317SOL    HW230585   1.548   3.877  15.818  0.5239 -0.8148  0.2511
 6318SOL     OW30586   1.604   2.426   8.267  0.1217 -0.1139 -0.1351
 6318SOL    HW130587   1.547   2.487   8.223 -1.7163  0.0651  2.4941
 6318SOL    HW230588   1.542   2.368   8.311 -0.1421  0.5266  0.3253
 6319SOL     OW30589   1.776   3.567   6.054 -0.0716 -0.0301 -0.0294
 6319SOL    HW130590   1.787   3.481   6.014 -1.7779  0.2137 -1.0244
 6319SOL    HW230591   1.813   3.540   6.138 -0.2358  1.2389  0.4488
 6320SOL     OW30592   0.929   4.491   1.867  0.5305 -0.2037  0.1916
 6320SOL    HW130593   0.881   4.567   1.899 -0.5351 -0.9374  0.3244
 6320SOL    HW230594   0.933   4.429   1.940  0.8653 -0.9680 -0.4668
 6321SOL     OW30595   0.620   2.023   1.063  0.5105  0.3075  1.0790
 6321SOL    HW130596   0.609   2.097   1.123 -1.2776 -0.1001  1.2449
 6321SOL    HW230597   0.709   2.050   1.039  0.4877 -0.8366 -0.2789
 6322SOL     OW30598   0.978   3.872   5.092 -0.1711  0.0098  0.3410
 6322SOL    HW130599   1.029   3.907   5.019 -0.4937  0.7362  0.4644
 6322SOL    HW230600   0.892   3.856   5.053 -1.3721  2.5134  1.9349
 6323SOL     OW30601   1.640   1.043   3.154 -0.5375 -0.6435  0.1520
 6323SOL    HW130602   1.694   1.082   3.224 -0.5781 -0.2820 -0.0178
 6323SOL    HW230603   1.556   1.062   3.196 -0.1174 -0.3520  0.8682
 6324SOL     OW30604   1.586   1.623   2.684 -0.0961  0.1346 -0.3548
 6324SOL    HW130605   1.524   1.690   2.654 -0.6823 -0.9471 -1.5778
 6324SOL    HW230606   1.656   1.629   2.619  2.1022 -1.1592  1.9271
 6325SOL     OW30607   0.522   0.540   7.794  0.0959  0.0791 -0.2446
 6325SOL    HW130608   0.617   0.535   7.803  0.3977  0.6186 -3.0084
 6325SOL    HW230609   0.509   0.602   7.722  3.1011  0.0390 -0.8375
 6326SOL     OW30610   1.590   0.335   7.730 -0.2045  0.3997 -0.4192
 6326SOL    HW130611   1.589   0.319   7.824 -3.5531  0.2020 -0.4604
 6326SOL    HW230612   1.684   0.327   7.719 -0.1384  0.3518  0.2221
 6327SOL     OW30613   3.708   3.551   7.040  0.1334  0.2453 -0.2858
 6327SOL    HW130614   3.638   3.496   7.076 -2.4226  1.5775 -3.2429
 6327SOL    HW230615   3.786   3.524   7.087  1.9263 -0.7702 -3.8547
 6328SOL     OW30616   2.546   3.276   7.198  0.0521 -0.3168  0.5587
 6328SOL    HW130617   2.605   3.293   7.125 -1.7819  0.5012 -0.7273
 6328SOL    HW230618   2.464   3.262   7.151 -0.7372  2.6091  1.0623
 6329SOL     OW30619   3.128   3.946  10.959 -0.7111 -0.0079 -0.3638
 6329SOL    HW130620   3.163   4.035  10.965 -2.7909  0.8642 -0.9489
 6329SOL    HW230621   3.073   3.966  10.884 -2.2615 -0.7380  0.5756
 6330SOL     OW30622   4.009   1.962   8.544 -0.0488  0.2847 -0.4161
 6330SOL    HW130623   4.079   2.011   8.589 -1.0008  1.1987  0.0665
 6330SOL    HW230624   3.989   1.899   8.613 -2.8130  1.5118 -0.0990
 6331SOL     OW30625   2.917   1.934  10.144  0.3309  0.2865 -0.7892
 6331SOL    HW130626   2.898   2.024  10.119  0.1570  0.1367 -1.1934
 6331SOL    HW230627   2.829   1.897  10.136  1.0736 -2.0219  1.5784
 6332SOL     OW30628   3.111   2.814   7.276  0.0079  0.1257  0.5092
 6332SOL    HW130629   3.060   2.881   7.232  0.6168  0.7103  0.7057
 6332SOL    HW230630   3.077   2.727   7.251  0.8963 -0.9645  3.0833
 6333SOL     OW30631   1.054   3.629   4.126 -0.2915  0.8022 -0.2312
 6333SOL    HW130632   1.048   3.670   4.040  0.3445  3.4816  0.9859
 6333SOL    HW230633   1.108   3.551   4.110 -0.0127  0.9472 -0.0145
 6334SOL     OW30634   3.683   1.185   2.979 -0.1247  0.4633  0.2784
 6334SOL    HW130635   3.726   1.268   2.958  3.0000 -0.5877  2.4842
 6334SOL    HW230636   3.598   1.189   2.935  1.7686 -0.8501 -3.4604
 6335SOL     OW30637   2.536   4.589   5.612 -0.1119  0.2241 -0.1186
 6335SOL    HW130638   2.572   4.504   5.587  1.5767  0.6839  0.7689
 6335SOL    HW230639   2.572   4.616   5.696  0.6942 -1.2639  0.0152
 6336SOL     OW30640   4.503   0.923   4.971 -0.3035 -0.4365 -0.6938
 6336SOL    HW130641   4.476   0.838   4.936  1.7599 -1.8283  1.1449
 6336SOL    HW230642   4.547   0.900   5.052 -1.1243 -3.0460 -0.9918
 6337SOL     OW30643   1.482   2.419   7.001  0.0536 -0.5752 -0.3978
 6337SOL    HW130644   1.458   2.410   7.093 -0.9302  0.2490 -0.5646
 6337SOL    HW230645   1.574   2.395   7.008 -0.5847 -3.3261 -1.3170
 6338SOL     OW30646   2.278   0.540   5.293 -0.2269  0.2294  0.2457
 6338SOL    HW130647   2.333   0.596   5.238 -2.0881  2.0232  0.2022
 6338SOL    HW230648   2.217   0.603   5.331 -1.7151 -0.8232 -0.3835
 6339SOL     OW30649   1.473   4.510   2.371 -0.0061  0.0322  0.1909
 6339SOL    HW130650   1.483   4.605   2.369 -1.2761  0.1945  1.6883
 6339SOL    HW230651   1.412   4.498   2.444  2.4082  0.9610  2.3642
 6340SOL     OW30652   2.694   1.124   8.117  0.0320 -0.0978  0.4814
 6340SOL    HW130653   2.601   1.126   8.142 -0.5722  0.1165 -1.8065
 6340SOL    HW230654   2.678   1.098   8.027 -0.0384  0.7302  0.2584
 6341SOL     OW30655   1.140   3.754  11.219 -0.4051  0.0761  0.6472
 6341SOL    HW130656   1.073   3.821  11.231  0.5621  1.4910 -1.7218
 6341SOL    HW230657   1.189   3.789  11.145 -1.7127  3.3183  1.3076
 6342SOL     OW30658   0.820   1.157  11.209 -0.2442 -0.1615  0.3014
 6342SOL    HW130659   0.888   1.176  11.274 -0.8437 -0.9694  1.1578
 6342SOL    HW230660   0.843   1.069  11.179 -0.2945  0.1447 -0.6236
 6343SOL     OW30661   1.782   4.334   4.297 -0.3358 -0.2733 -0.4544
 6343SOL    HW130662   1.805   4.304   4.385 -0.0423  2.6048  0.4576
 6343SOL    HW230663   1.774   4.254   4.245  0.0580 -0.2311 -0.5844
 6344SOL     OW30664   1.093   4.427   4.565 -0.6492 -0.2254  0.0023
 6344SOL    HW130665   1.109   4.336   4.592 -0.6851 -0.9721 -2.4950
 6344SOL    HW230666   1.171   4.436   4.510  0.2673 -1.4813  1.0970
 6345SOL     OW30667   0.951   4.725   7.830 -0.1237 -0.0063  0.3213
 6345SOL    HW130668   0.909   4.640   7.817  0.8237 -0.7968  2.3419
 6345SOL    HW230669   1.026   4.718   7.771  0.1257 -0.4443  0.6847
 6346SOL     OW30670   2.223   3.404   9.598  0.2269 -0.8940  0.6285
 6346SOL    HW130671   2.281   3.418   9.673  0.0534  0.3506  0.5269
 6346SOL    HW230672   2.259   3.458   9.528  0.0911 -1.6365 -0.0109
 6347SOL     OW30673   2.203   2.486   2.437  0.1684 -0.0104  0.0603
 6347SOL    HW130674   2.256   2.407   2.431 -0.0933 -0.2121  0.3807
 6347SOL    HW230675   2.214   2.509   2.345  0.5219 -0.5125 -0.0189
 6348SOL     OW30676   1.140   1.548   5.367  0.6791 -0.0062  0.5304
 6348SOL    HW130677   1.124   1.540   5.273 -2.2459 -0.9424  1.0828
 6348SOL    HW230678   1.065   1.604   5.387  0.7931  0.4252 -0.2697
 6349SOL     OW30679   1.451   1.902  12.904 -0.1994  0.6514  0.1595
 6349SOL    HW130680   1.542   1.893  12.931  0.2508  0.2769 -1.4700
 6349SOL    HW230681   1.461   1.921  12.811  2.0548 -1.3302  0.0027
 6350SOL     OW30682   4.171   1.127   7.730  0.4756 -0.5690 -0.3559
 6350SOL    HW130683   4.175   1.032   7.741  1.3960 -0.3387  1.2671
 6350SOL    HW230684   4.163   1.150   7.823  0.8449 -0.1993 -0.4128
 6351SOL     OW30685   1.383   3.313   4.505  0.3901 -0.3824  0.0552
 6351SOL    HW130686   1.352   3.317   4.595 -0.5518  1.1018 -0.3319
 6351SOL    HW230687   1.299   3.332   4.464  0.1049 -1.8466 -0.0553
 6352SOL     OW30688   1.551   1.838   1.594 -0.4514 -0.3401 -0.0687
 6352SOL    HW130689   1.493   1.796   1.658 -1.5346 -0.7502 -1.3300
 6352SOL    HW230690   1.605   1.770   1.554 -0.1621 -0.3315  0.3000
 6353SOL     OW30691   2.773   4.451   6.723  0.2111 -0.3252 -0.0172
 6353SOL    HW130692   2.847   4.394   6.744 -0.1800  0.0198  2.2534
 6353SOL    HW230693   2.727   4.384   6.672 -1.0152 -0.9378  1.9109
 6354SOL     OW30694   4.408   4.373  14.853 -0.2624  0.2441  0.5442
 6354SOL    HW130695   4.411   4.468  14.842  1.3221  0.2712  1.2036
 6354SOL    HW230696   4.358   4.357  14.772 -0.2812 -1.5502  0.9130
 6355SOL     OW30697   3.598   1.836   2.590  0.0634 -0.6207  0.0275
 6355SOL    HW130698   3.583   1.927   2.614  2.6991 -0.0142 -0.6500
 6355SOL    HW230699   3.546   1.846   2.510  0.2053 -2.3445 -0.2948
 6356SOL     OW30700   3.554   3.209   2.832 -0.2107  0.2387  0.1101
 6356SOL    HW130701   3.640   3.210   2.873  1.2825  0.4718 -3.0179
 6356SOL    HW230702   3.562   3.146   2.760 -1.3614  1.3644 -1.0123
 6357SOL     OW30703   3.579   0.897  14.124 -0.0626  0.0592 -0.0752
 6357SOL    HW130704   3.528   0.853  14.056 -0.9624 -0.9150  1.2303
 6357SOL    HW230705   3.652   0.942  14.081  0.2461 -1.0875 -0.7409
 6358SOL     OW30706   2.554   1.404   1.020 -0.1875 -0.1511 -0.0677
 6358SOL    HW130707   2.491   1.349   0.973 -0.2082  0.3124 -0.5852
 6358SOL    HW230708   2.633   1.379   0.973 -1.6545 -1.1503 -2.0218
 6359SOL     OW30709   3.563   2.713   6.799  0.1402  0.4549  0.8129
 6359SOL    HW130710   3.471   2.740   6.807 -0.1042 -0.4075  0.8894
 6359SOL    HW230711   3.617   2.776   6.847 -1.6063  3.4526 -1.1235
 6360SOL     OW30712   0.758   2.637   3.797 -0.0173  0.2465  0.3414
 6360SOL    HW130713   0.733   2.729   3.785 -0.0221  0.2504  0.3798
 6360SOL    HW230714   0.748   2.629   3.892 -1.6315 -2.1151 -0.0208
 6361SOL     OW30715   1.744   4.441  16.999 -0.0335 -0.5376 -0.8262
 6361SOL    HW130716   1.752   4.386  17.076 -1.7582  1.4819  0.8024
 6361SOL    HW230717   1.835   4.468  16.991 -0.1179 -0.0122  0.0440
 6362SOL     OW30718   4.534   4.455   2.869  0.0116 -0.0829 -0.0569
 6362SOL    HW130719   4.586   4.518   2.818 -0.7111  1.2829  0.9001
 6362SOL    HW230720   4.448   4.448   2.828  0.0211  1.6889 -0.3996
 6363SOL     OW30721   4.183   3.902   4.534 -0.3014 -0.0208  0.8112
 6363SOL    HW130722   4.185   3.980   4.479  1.0804 -1.0433 -0.5871
 6363SOL    HW230723   4.232   3.938   4.608  2.4895 -2.5471  0.2084
 6364SOL     OW30724   0.130   2.075   1.220 -0.3546 -0.2867  0.1542
 6364SOL    HW130725   0.185   2.007   1.180  1.7276  0.7611  1.2689
 6364SOL    HW230726   0.042   2.037   1.216 -0.8957  1.2103 -1.8531
 6365SOL     OW30727   0.451   4.115   6.818 -0.3172 -0.4727  0.2423
 6365SOL    HW130728   0.511   4.136   6.890 -0.5396  0.0155  0.2902
 6365SOL    HW230729   0.441   4.203   6.781 -0.7414 -0.6045  0.0379
 6366SOL     OW30730   2.581   1.559   6.598 -0.0438  0.2494 -0.0509
 6366SOL    HW130731   2.572   1.618   6.672  0.4242 -1.4929  1.4065
 6366SOL    HW230732   2.596   1.471   6.633 -0.5050  0.0468 -0.3574
 6367SOL     OW30733   3.694   2.286   7.963 -0.1701  0.1868  0.6933
 6367SOL    HW130734   3.633   2.354   7.994 -0.2691  1.2284 -1.8148
 6367SOL    HW230735   3.676   2.219   8.029 -1.6471 -0.2078 -0.1020
 6368SOL     OW30736   3.085   2.419   6.687 -0.3269  0.1761 -0.0183
 6368SOL    HW130737   3.007   2.364   6.685 -0.7241  0.7598 -0.9793
 6368SOL    HW230738   3.132   2.383   6.612  1.6773  1.1303  0.7865
 6369SOL     OW30739   1.243   4.192   7.171  0.3147 -0.0100 -0.1325
 6369SOL    HW130740   1.216   4.183   7.080  0.0306  0.0671 -0.0540
 6369SOL    HW230741   1.176   4.153   7.227  1.4417 -0.6278  0.7773
 6370SOL     OW30742   0.267   3.245   7.201 -0.6016  0.1769  0.1543
 6370SOL    HW130743   0.295   3.178   7.264 -1.0632 -0.3815 -0.2277
 6370SOL    HW230744   0.186   3.212   7.161  0.0067  1.5011 -2.1762
 6371SOL     OW30745   1.786   2.507   2.274 -0.1885 -0.4302 -0.2571
 6371SOL    HW130746   1.821   2.420   2.255  2.6022  1.0150 -1.7641
 6371SOL    HW230747   1.752   2.528   2.187  0.3645  2.0506  0.1308
 6372SOL     OW30748   4.626   4.179   5.406 -0.1996  0.2633 -0.1136
 6372SOL    HW130749   4.642   4.161   5.499 -1.1098 -1.1690 -0.2349
 6372SOL    HW230750   4.714   4.179   5.369 -1.0925  0.6488 -2.2479
 6373SOL     OW30751   0.063   1.687   6.147 -0.2883  0.5187  0.6064
 6373SOL    HW130752   0.094   1.624   6.082 -1.7807 -1.1963  1.5333
 6373SOL    HW230753   0.060   1.767   6.094 -0.6202  0.8475  1.1189
 6374SOL     OW30754   2.255   3.551   6.464  0.4782  0.4272 -0.2968
 6374SOL    HW130755   2.259   3.517   6.374 -1.7148  1.7447 -0.8973
 6374SOL    HW230756   2.293   3.638   6.455  3.2421 -0.7679 -0.1785
 6375SOL     OW30757   1.562   0.259   7.421  0.2372 -0.3376  0.1931
 6375SOL    HW130758   1.584   0.165   7.423  2.1430  0.0665 -1.6267
 6375SOL    HW230759   1.481   0.251   7.470  0.1139 -0.9509 -0.1078
 6376SOL     OW30760   3.699   1.800   0.487 -0.2197 -0.3653  0.5962
 6376SOL    HW130761   3.623   1.839   0.530 -2.0946 -1.8461 -1.4536
 6376SOL    HW230762   3.766   1.835   0.547  1.2526  2.9056 -2.9875
 6377SOL     OW30763   2.750   1.510   5.715  0.2080 -0.2154  0.0831
 6377SOL    HW130764   2.838   1.494   5.750  0.3616  0.9002  0.2079
 6377SOL    HW230765   2.733   1.601   5.739  0.8726 -0.2140  0.5499
 6378SOL     OW30766   3.370   0.738  10.484  0.0638  0.4007 -0.3434
 6378SOL    HW130767   3.359   0.686  10.404  1.1701  1.2644 -1.0548
 6378SOL    HW230768   3.449   0.791  10.471  1.7444 -1.0668  3.8049
 6379SOL     OW30769   1.282   0.902   5.727 -0.7397 -0.1110 -0.4456
 6379SOL    HW130770   1.218   0.961   5.688  0.0034  0.2219 -1.1508
 6379SOL    HW230771   1.248   0.901   5.816 -0.6718 -2.3352 -0.4251
 6380SOL     OW30772   3.606   2.354   7.173  0.3840 -0.2031 -0.7191
 6380SOL    HW130773   3.540   2.363   7.104 -1.6791  2.2341  1.5230
 6380SOL    HW230774   3.631   2.262   7.166  1.7485  0.0973  0.1958
 6381SOL     OW30775   1.771   4.179   5.156  0.0333  0.6730 -0.1215
 6381SOL    HW130776   1.696   4.207   5.105 -1.4488 -1.2246  1.0003
 6381SOL    HW230777   1.841   4.216   5.103  0.9400 -0.3163  0.3816
 6382SOL     OW30778   4.412   0.298   2.404  0.7695  0.3380 -0.2452
 6382SOL    HW130779   4.354   0.241   2.353 -1.3737  0.9257  1.5313
 6382SOL    HW230780   4.363   0.380   2.394 -2.5247 -1.7100 -1.1292
 6383SOL     OW30781   1.912   1.164   6.040 -0.2094 -0.0173  0.1118
 6383SOL    HW130782   1.947   1.229   6.101  3.3128 -1.4182 -0.4546
 6383SOL    HW230783   1.912   1.218   5.961 -0.8561  1.8095  1.3748
 6384SOL     OW30784   4.341   2.998   5.769 -0.0126  0.3972  0.7004
 6384SOL    HW130785   4.302   2.984   5.683  1.4647 -1.8287  0.3992
 6384SOL    HW230786   4.270   3.045   5.814 -2.1453 -1.0719 -1.1307
 6385SOL     OW30787   1.832   2.689  12.327  0.3333  0.0604  0.1281
 6385SOL    HW130788   1.829   2.753  12.256  1.2956 -0.0507 -0.0134
 6385SOL    HW230789   1.926   2.683  12.340  0.4736  0.1060 -0.8735
 6386SOL     OW30790   4.378   3.193  12.232 -0.0990 -0.1909  0.0519
 6386SOL    HW130791   4.416   3.247  12.163 -1.0835  0.1468 -0.2229
 6386SOL    HW230792   4.284   3.212  12.226  0.0090  0.3452  0.1010
 6387SOL     OW30793   2.702   0.381   5.145 -0.4488  0.5580  0.6291
 6387SOL    HW130794   2.734   0.374   5.054 -1.0229 -1.9938  0.6196
 6387SOL    HW230795   2.709   0.290   5.173  0.7468  0.0614 -1.2720
 6388SOL     OW30796   0.177   0.220   8.497  0.2553 -0.5051 -0.4252
 6388SOL    HW130797   0.119   0.243   8.569 -0.0569  0.2651 -0.9263
 6388SOL    HW230798   0.141   0.278   8.430  1.9465  1.6890  0.5545
 6389SOL     OW30799   3.081   4.322   6.423 -0.8070 -0.2355 -0.5364
 6389SOL    HW130800   3.113   4.363   6.504  1.5943 -1.1936 -1.0152
 6389SOL    HW230801   3.088   4.392   6.359 -3.2927  0.3712 -0.1433
 6390SOL     OW30802   4.692   2.399   6.242  0.3467  0.0423  0.0429
 6390SOL    HW130803   0.013   2.469   6.229  0.3621  0.0298  0.0500
 6390SOL    HW230804   4.704   2.376   6.334 -0.7071 -1.9935 -0.3234
 6391SOL     OW30805   2.653   2.715   4.974 -0.6778 -0.4497 -0.1186
 6391SOL    HW130806   2.635   2.687   4.884 -2.2193 -1.8686  0.6230
 6391SOL    HW230807   2.604   2.794   4.995 -0.6733 -0.1986 -1.0467
 6392SOL     OW30808   0.176   2.897   9.453 -0.6232 -0.3772 -0.4275
 6392SOL    HW130809   0.265   2.897   9.418  0.1024  0.9578  1.4114
 6392SOL    HW230810   0.117   2.862   9.386  0.5435 -0.7691 -1.2384
 6393SOL     OW30811   1.358   1.102   2.562 -0.2014  0.2169  0.1103
 6393SOL    HW130812   1.405   1.080   2.643  1.1110  1.8457 -0.2028
 6393SOL    HW230813   1.269   1.125   2.587  0.4892  1.5902  1.3056
 6394SOL     OW30814   1.151   1.105   0.502 -0.1689  0.0549 -0.3688
 6394SOL    HW130815   1.087   1.134   0.437 -1.3462 -0.5924  0.5185
 6394SOL    HW230816   1.172   1.020   0.464 -1.2789 -0.6683  0.6424
 6395SOL     OW30817   4.299   2.920   5.512 -0.2951  0.4983  0.3014
 6395SOL    HW130818   4.346   2.852   5.464 -2.0486  0.4220 -1.3035
 6395SOL    HW230819   4.310   2.996   5.454 -0.7439 -0.6763 -1.3266
 6396SOL     OW30820   2.082   0.796   4.139  0.4780 -0.0121 -0.1859
 6396SOL    HW130821   2.140   0.862   4.175 -1.6249  1.8480 -0.2078
 6396SOL    HW230822   2.046   0.763   4.222 -2.3336  0.9104 -1.0207
 6397SOL     OW30823   3.473   0.161   7.663  0.3593  0.2372 -0.2968
 6397SOL    HW130824   3.566   0.162   7.687  0.2431 -0.1699  0.1771
 6397SOL    HW230825   3.474   0.179   7.569  0.5519 -1.2168 -0.5738
 6398SOL     OW30826   2.191   0.876   2.883 -0.5871 -0.1413 -0.4985
 6398SOL    HW130827   2.128   0.945   2.863  0.0529  1.4436  3.0189
 6398SOL    HW230828   2.217   0.851   2.794  0.9489  0.8297 -0.3167
 6399SOL     OW30829   3.086   3.630   4.334  0.6161 -0.6105 -0.5099
 6399SOL    HW130830   3.158   3.596   4.280  0.0329 -5.3350  1.6859
 6399SOL    HW230831   3.127   3.620   4.420 -0.4926 -0.4465  0.0334
 6400SOL     OW30832   0.616   1.841   7.923  0.4356  0.0809 -0.1283
 6400SOL    HW130833   0.642   1.752   7.899 -0.2490 -0.3855  0.8624
 6400SOL    HW230834   0.523   1.825   7.940  0.2610  0.5469 -0.6542
 6401SOL     OW30835   3.000   1.769  11.797 -0.1281  0.0559  0.5565
 6401SOL    HW130836   3.060   1.699  11.822  1.5512  1.4309  0.4244
 6401SOL    HW230837   2.959   1.786  11.881 -0.3375  2.9312 -0.1323
 6402SOL     OW30838   0.110   0.739   6.983  0.1500  0.5244 -0.2028
 6402SOL    HW130839   0.077   0.653   7.006 -0.8614  0.6417 -1.2308
 6402SOL    HW230840   0.137   0.776   7.067 -1.1832 -2.0246  1.3183
 6403SOL     OW30841   2.321   2.729   2.516  0.2790  0.4445 -0.2173
 6403SOL    HW130842   2.243   2.677   2.497  1.1014 -1.2300  0.9503
 6403SOL    HW230843   2.386   2.658   2.520 -1.2957 -0.9872  0.2316
 6404SOL     OW30844   4.737   0.352   3.880 -0.7482  0.0596 -0.4029
 6404SOL    HW130845   4.659   0.408   3.881 -1.8231 -1.4154 -1.2445
 6404SOL    HW230846   0.058   0.422   3.896 -2.7574  1.5907  0.7363
 6405SOL     OW30847   1.368   2.602  15.246 -0.4136 -0.0360  0.1123
 6405SOL    HW130848   1.326   2.520  15.223 -0.4220 -0.2767  1.0011
 6405SOL    HW230849   1.456   2.569  15.263  0.1582  1.2736 -0.2671
 6406SOL     OW30850   2.305   2.013  12.654  0.4867  0.2624  0.1217
 6406SOL    HW130851   2.303   2.012  12.750 -3.9788 -0.3858  0.0056
 6406SOL    HW230852   2.254   2.088  12.625  1.9810  0.5023 -1.8807
 6407SOL     OW30853   3.597   4.481   7.500 -0.2377 -1.1664 -0.0457
 6407SOL    HW130854   3.640   4.419   7.559  1.4725  0.8796  0.8237
 6407SOL    HW230855   3.548   4.525   7.569 -1.3989 -1.1339 -0.8765
 6408SOL     OW30856   4.377   2.022   4.641 -0.4373  0.0590 -0.2284
 6408SOL    HW130857   4.332   1.950   4.598  0.5736 -0.1478 -0.9187
 6408SOL    HW230858   4.351   2.008   4.733 -0.7184 -2.3479 -0.6848
 6409SOL     OW30859   1.412   2.009   3.702  0.3684  0.2423 -0.1577
 6409SOL    HW130860   1.406   2.100   3.730  0.7724  0.3015 -0.2653
 6409SOL    HW230861   1.330   1.981   3.742  0.2934  0.0100 -0.4718
 6410SOL     OW30862   3.516   0.057   2.675 -0.1662 -0.1470 -0.3987
 6410SOL    HW130863   3.460   4.723   2.685 -1.2906  0.5616 -1.2524
 6410SOL    HW230864   3.498   0.089   2.586 -0.9635 -1.0332 -0.5596
 6411SOL     OW30865   2.900   1.968   9.807 -0.0978 -0.1507  0.2574
 6411SOL    HW130866   2.970   2.017   9.849  1.1224 -1.8783  0.2358
 6411SOL    HW230867   2.929   1.876   9.807 -3.3398 -1.1703  3.3272
 6412SOL     OW30868   4.729   3.311   5.409 -0.0619  0.1601 -0.1566
 6412SOL    HW130869   4.717   3.219   5.385  4.3282 -0.2839 -0.6625
 6412SOL    HW230870   4.638   3.338   5.418  0.4381  0.6539  3.2650
 6413SOL     OW30871   2.271   2.074   6.206  0.2899 -0.2934 -0.0379
 6413SOL    HW130872   2.234   2.119   6.130 -0.3033 -1.0032 -0.1676
 6413SOL    HW230873   2.361   2.105   6.202  0.2997 -0.4185 -0.8258
 6414SOL     OW30874   2.860   2.678   9.330  0.1982  0.2770 -1.1407
 6414SOL    HW130875   2.910   2.626   9.394 -2.6564  0.3818  1.1899
 6414SOL    HW230876   2.921   2.746   9.305 -0.1549  1.2112  0.5378
 6415SOL     OW30877   1.922   0.817   7.374  0.1971 -0.1143  0.2830
 6415SOL    HW130878   1.932   0.753   7.445  0.9183  1.7147  1.8244
 6415SOL    HW230879   1.845   0.864   7.405  0.2256 -0.1120  0.3519
 6416SOL     OW30880   0.724   2.904   3.730  0.0224 -0.4857 -0.1601
 6416SOL    HW130881   0.652   2.932   3.787  0.2273  1.2543 -0.7511
 6416SOL    HW230882   0.736   2.983   3.678 -0.7908  0.3884  0.9996
 6417SOL     OW30883   0.567   2.005  13.514  0.7245 -0.3061  0.3237
 6417SOL    HW130884   0.536   2.037  13.599  1.8349  0.0009  0.6179
 6417SOL    HW230885   0.480   1.978  13.485  0.4845  0.6400  0.1756
 6418SOL     OW30886   1.671   2.704  17.193 -0.1594  0.4007 -0.6155
 6418SOL    HW130887   1.598   2.745  17.239 -0.3864 -0.3126 -0.3357
 6418SOL    HW230888   1.683   2.761  17.117 -2.7220  1.1877 -0.4265
 6419SOL     OW30889   4.497   3.544  13.155  0.6019 -0.3199  0.2896
 6419SOL    HW130890   4.448   3.532  13.236  1.3007 -0.1563  0.7402
 6419SOL    HW230891   4.463   3.475  13.098 -1.6284  0.9212  0.1054
 6420SOL     OW30892   2.723   1.838   9.303 -0.0357  0.0807 -0.0416
 6420SOL    HW130893   2.753   1.920   9.343  0.5321 -0.7028  1.1272
 6420SOL    HW230894   2.787   1.808   9.238  1.4904  1.1828  0.9432
 6421SOL     OW30895   4.648   1.990   4.584  0.6926  0.3758  0.3946
 6421SOL    HW130896   4.661   1.898   4.606 -1.4680 -0.1831 -0.6846
 6421SOL    HW230897   4.553   1.995   4.594  0.3902 -1.6147 -1.4602
 6422SOL     OW30898   2.524   1.854   9.790  0.3096 -0.5179  0.1996
 6422SOL    HW130899   2.592   1.865   9.723  0.4747  3.2255  1.0005
 6422SOL    HW230900   2.456   1.918   9.770 -0.0622 -1.3162 -1.0923
 6423SOL     OW30901   2.917   1.202   9.054 -0.4994  0.3200  0.2337
 6423SOL    HW130902   2.980   1.262   9.095 -0.3359  1.1449 -1.2161
 6423SOL    HW230903   2.855   1.208   9.127  1.6573 -0.0558  2.0916
 6424SOL     OW30904   4.321   3.207  15.484 -0.3137 -0.4607  0.4084
 6424SOL    HW130905   4.398   3.255  15.515 -1.8139  1.9635  0.3743
 6424SOL    HW230906   4.265   3.248  15.550 -0.4178 -0.3196  0.2341
 6425SOL     OW30907   3.212   4.655   6.942 -0.6189 -0.2705  0.6318
 6425SOL    HW130908   3.138   4.650   6.882 -0.9762 -1.7250  1.1827
 6425SOL    HW230909   3.207   4.739   6.986 -0.5981  0.2915 -0.4411
 6426SOL     OW30910   0.666   2.890   9.454 -0.0997  0.1091 -0.5258
 6426SOL    HW130911   0.589   2.844   9.419 -1.0476  0.5490  0.9754
 6426SOL    HW230912   0.615   2.960   9.496 -1.0235  0.1263 -1.6645
 6427SOL     OW30913   1.479   2.713   5.572 -0.5694 -0.1912 -0.1230
 6427SOL    HW130914   1.555   2.686   5.624  0.1067  3.6573  0.8791
 6427SOL    HW230915   1.513   2.731   5.485  0.0998 -0.5837  0.0552
 6428SOL     OW30916   2.477   3.166   6.442 -0.1900  0.2933  0.4111
 6428SOL    HW130917   2.479   3.151   6.537  0.8330 -3.7893 -0.2410
 6428SOL    HW230918   2.424   3.095   6.408  1.3171 -1.0868  0.9316
 6429SOL     OW30919   0.694   1.727   1.690  0.3330 -0.1095 -0.6648
 6429SOL    HW130920   0.700   1.634   1.669 -0.0073 -0.1946 -0.3879
 6429SOL    HW230921   0.755   1.743   1.762 -0.6424 -0.5585  0.2407
 6430SOL     OW30922   0.196   1.745  16.311  0.0129 -0.3385 -0.4201
 6430SOL    HW130923   0.240   1.666  16.343  0.3949  0.3986  0.8726
 6430SOL    HW230924   0.234   1.759  16.225 -0.4316 -0.4656 -0.6352
 6431SOL     OW30925   2.587   2.536   1.926 -0.1545 -0.0785  0.3105
 6431SOL    HW130926   2.573   2.593   1.850 -0.2457 -0.2488  0.2007
 6431SOL    HW230927   2.668   2.573   1.960  0.2103  0.5749 -1.2650
 6432SOL     OW30928   4.627   2.252   5.995  0.5864  0.0403  0.0137
 6432SOL    HW130929   4.689   2.301   5.941 -0.9476  0.8129 -1.0397
 6432SOL    HW230930   4.632   2.307   6.073 -2.7773  2.6189 -1.5894
 6433SOL     OW30931   3.593   0.554   6.312  0.3876  0.0428  0.1215
 6433SOL    HW130932   3.543   0.569   6.392  0.9901 -0.1859  0.5391
 6433SOL    HW230933   3.649   0.478   6.328  1.7465  1.1382  0.6214
 6434SOL     OW30934   1.852   0.182   5.644  0.2136  0.2438 -0.4528
 6434SOL    HW130935   1.928   0.240   5.642  1.8324 -1.8374  1.2665
 6434SOL    HW230936   1.855   0.147   5.556  1.0126 -1.0504  0.0927
 6435SOL     OW30937   1.455   0.616   5.304 -0.2227  0.0061 -0.3371
 6435SOL    HW130938   1.478   0.676   5.233 -0.3758 -0.4622 -0.7802
 6435SOL    HW230939   1.448   0.670   5.383  1.0019  1.9564 -1.5539
 6436SOL     OW30940   2.819   2.429  16.567 -0.1346 -0.1988  0.1897
 6436SOL    HW130941   2.837   2.388  16.483 -2.3639 -0.5975 -0.0930
 6436SOL    HW230942   2.826   2.522  16.548  2.4332 -0.0653  1.7168
 6437SOL     OW30943   1.032   1.753   6.471 -0.1469  0.1583  0.2151
 6437SOL    HW130944   0.937   1.763   6.481 -0.5880 -1.6135 -2.1437
 6437SOL    HW230945   1.064   1.793   6.551  1.7142  0.8391 -0.8589
 6438SOL     OW30946   0.520   0.807   1.940  0.0658 -0.1731  0.1019
 6438SOL    HW130947   0.592   0.813   1.877  0.1800 -1.0041  0.1521
 6438SOL    HW230948   0.454   0.810   1.871 -1.7946 -1.2245  1.8182
 6439SOL     OW30949   3.872   2.492   3.674  0.1902 -0.1744 -0.3630
 6439SOL    HW130950   3.815   2.456   3.742  0.1048 -1.0646 -0.8997
 6439SOL    HW230951   3.810   2.529   3.611 -1.2099 -0.5534  0.8006
 6440SOL     OW30952   2.655   3.819  10.285  0.1375  0.0551 -0.0259
 6440SOL    HW130953   2.669   3.914  10.288  0.9051 -0.1294  1.9436
 6440SOL    HW230954   2.619   3.811  10.196  0.5759  1.1473 -0.2989
 6441SOL     OW30955   2.855   2.182   4.456 -0.3645 -0.2368 -0.7626
 6441SOL    HW130956   2.820   2.264   4.488 -2.4099 -1.6619  0.6481
 6441SOL    HW230957   2.897   2.147   4.535 -0.8398  0.1149 -0.3509
 6442SOL     OW30958   4.226   2.887  12.416  0.4594  0.6114 -0.5261
 6442SOL    HW130959   4.316   2.916  12.434 -0.0222  1.1185  1.1132
 6442SOL    HW230960   4.179   2.961  12.455  1.3869  0.3246  1.1368
 6443SOL     OW30961   0.649   1.030   5.583 -0.1536  0.3792 -0.2014
 6443SOL    HW130962   0.595   1.075   5.648 -0.9663  0.3728 -0.8688
 6443SOL    HW230963   0.588   0.988   5.522 -1.2092  0.5902  0.7215
 6444SOL     OW30964   4.680   4.605   0.766 -0.0427  0.3490  0.6564
 6444SOL    HW130965   4.741   4.667   0.726 -0.1906  0.1387  0.1067
 6444SOL    HW230966   4.613   4.592   0.699  0.3926  0.4076  0.2097
 6445SOL     OW30967   4.129   0.984  12.650 -0.5507 -0.3122  0.2680
 6445SOL    HW130968   4.112   1.014  12.560 -1.5678  2.7393  1.4754
 6445SOL    HW230969   4.224   0.980  12.641 -0.4241  0.6763  1.2060
 6446SOL     OW30970   4.653   3.743   4.388 -0.2504  0.2751 -0.2860
 6446SOL    HW130971   4.741   3.777   4.368 -0.4021 -0.8082 -2.6903
 6446SOL    HW230972   4.642   3.791   4.470 -3.1708 -1.4042  0.3058
 6447SOL     OW30973   4.186   0.637   8.246 -0.3339  0.9642  0.0175
 6447SOL    HW130974   4.248   0.684   8.302 -0.3896  0.7220  0.2811
 6447SOL    HW230975   4.239   0.616   8.169 -0.2663  0.4642  0.2004
 6448SOL     OW30976   1.290   1.847   2.021 -0.4771  0.6340  0.2458
 6448SOL    HW130977   1.241   1.798   1.955  1.6989 -1.7869  0.4266
 6448SOL    HW230978   1.321   1.770   2.068  1.1834  2.0193  1.4382
 6449SOL     OW30979   2.937   0.673   3.256  0.5841 -0.0922  0.0941
 6449SOL    HW130980   2.862   0.733   3.264  0.6178  0.0886 -0.9597
 6449SOL    HW230981   3.007   0.723   3.298  1.0437  0.1958 -1.0214
 6450SOL     OW30982   2.447   2.721   3.643 -0.0468  0.2354 -0.0050
 6450SOL    HW130983   2.383   2.775   3.690 -0.3759 -0.6309  0.5401
 6450SOL    HW230984   2.387   2.646   3.645 -1.5184  1.4344  1.5697
 6451SOL     OW30985   1.153   3.331   8.669 -0.0383  0.2192  0.4151
 6451SOL    HW130986   1.186   3.289   8.749  1.0988 -0.2403 -0.2984
 6451SOL    HW230987   1.147   3.422   8.697  0.5946  0.1652  0.7232
 6452SOL     OW30988   2.437   2.242   6.451 -0.2321  0.1556 -0.1770
 6452SOL    HW130989   2.350   2.278   6.469  0.2092  1.2778 -0.2696
 6452SOL    HW230990   2.459   2.286   6.369  1.5526  1.1430  0.8195
 6453SOL     OW30991   2.309   4.688  12.364 -0.1293 -0.2691  0.5937
 6453SOL    HW130992   2.355   4.727  12.289 -3.5833  1.7211 -0.4609
 6453SOL    HW230993   2.266   0.026  12.393  0.6223  0.0944  0.7156
 6454SOL     OW30994   2.832   0.011   9.477  0.0567  0.9482  0.0068
 6454SOL    HW130995   2.796   0.087   9.431 -2.4681 -0.1683  0.0898
 6454SOL    HW230996   2.863   0.051   9.558 -1.3413 -0.5786  1.2991
 6455SOL     OW30997   4.013   2.618   6.733  0.1759  0.2487 -0.3654
 6455SOL    HW130998   3.937   2.585   6.779  1.1116 -1.4406 -0.0306
 6455SOL    HW230999   4.074   2.638   6.804  0.1723  0.0454 -0.3067
 6456SOL     OW31000   1.639   4.117   6.098  0.0321  0.3290 -0.0983
 6456SOL    HW131001   1.630   4.187   6.162 -1.2933 -1.3298  1.5382
 6456SOL    HW231002   1.735   4.111   6.102  0.0808 -0.4150 -2.2343
 6457SOL     OW31003   2.832   3.599   6.982  0.0099  0.6900  0.2195
 6457SOL    HW131004   2.809   3.548   6.905 -1.3379  2.4195 -0.5391
 6457SOL    HW231005   2.747   3.640   7.000 -0.6502  0.1280 -1.6647
 6458SOL     OW31006   1.947   2.581   8.990  1.0601 -0.3659 -0.2734
 6458SOL    HW131007   2.038   2.560   8.968  0.3852 -0.5990 -2.9000
 6458SOL    HW231008   1.899   2.549   8.914 -2.1118  2.8487  0.3928
 6459SOL     OW31009   1.062   3.886   4.798 -0.1856 -0.1768  0.1620
 6459SOL    HW131010   1.132   3.837   4.754 -0.8677 -0.2507 -0.8285
 6459SOL    HW231011   0.985   3.835   4.775 -0.7811  1.4521 -1.3851
 6460SOL     OW31012   1.982   1.163   9.393  0.2925  0.7563  0.3975
 6460SOL    HW131013   1.953   1.248   9.427 -2.7798 -0.5678  1.1296
 6460SOL    HW231014   1.909   1.102   9.408  2.3775 -1.5570  1.2570
 6461SOL     OW31015   3.573   0.168   3.005  0.0274 -0.0200 -0.0710
 6461SOL    HW131016   3.652   0.187   3.055  0.7619  1.2658 -1.7219
 6461SOL    HW231017   3.561   0.078   3.035  0.8896  0.1740  0.8426
 6462SOL     OW31018   0.720   2.109   0.664  0.7572  0.1622  0.6076
 6462SOL    HW131019   0.730   2.153   0.749  1.7026 -0.0737  0.6245
 6462SOL    HW231020   0.661   2.165   0.614  1.1157  0.3199  0.3626
 6463SOL     OW31021   2.102   3.432  11.572  0.2875  0.0857  0.3318
 6463SOL    HW131022   2.130   3.522  11.588  1.4326 -0.5933  2.0607
 6463SOL    HW231023   2.024   3.427  11.628  0.6602 -0.4053  0.8039
 6464SOL     OW31024   2.043   1.836   5.420 -0.4688 -0.1660  0.4032
 6464SOL    HW131025   2.024   1.801   5.507  1.4411 -1.3642  0.3456
 6464SOL    HW231026   1.957   1.873   5.403  0.3187  1.9315  0.9967
 6465SOL     OW31027   2.318   4.006   9.141  0.6199  0.1061 -0.3880
 6465SOL    HW131028   2.318   3.986   9.048 -0.9115 -0.1459 -0.3213
 6465SOL    HW231029   2.240   4.060   9.150  0.3493 -0.3559  0.0167
 6466SOL     OW31030   3.361   1.562   1.556  0.7414 -0.3181  0.3546
 6466SOL    HW131031   3.408   1.529   1.632 -0.8751  1.3737  2.0811
 6466SOL    HW231032   3.341   1.479   1.513 -0.4326 -0.0436  0.3915
 6467SOL     OW31033   1.669   1.097  13.739  0.0665  0.0187  0.0467
 6467SOL    HW131034   1.749   1.130  13.698  0.1993  0.0427  0.3299
 6467SOL    HW231035   1.683   1.097  13.833 -0.5139  0.6414  0.1288
 6468SOL     OW31036   1.486   4.003   3.175 -0.3455 -0.3040  0.4160
 6468SOL    HW131037   1.517   4.083   3.218  0.9130 -0.3730 -0.3842
 6468SOL    HW231038   1.570   3.960   3.162  1.0032  2.2014  0.7593
 6469SOL     OW31039   2.083   2.112   5.321 -0.3753 -0.1166 -0.0620
 6469SOL    HW131040   2.074   2.029   5.367  0.7671 -0.4326 -0.4015
 6469SOL    HW231041   2.178   2.126   5.324 -0.2430 -1.0008 -0.0874
 6470SOL     OW31042   4.065   0.099   0.873 -0.2377 -0.0400 -0.1007
 6470SOL    HW131043   3.971   0.103   0.890 -0.4285  0.3092 -1.2563
 6470SOL    HW231044   4.101   0.113   0.960  3.9277  1.8704 -2.1367
 6471SOL     OW31045   1.465   2.318   2.265  0.0424 -0.3342 -0.0632
 6471SOL    HW131046   1.441   2.385   2.200  2.5640  1.9169  1.3456
 6471SOL    HW231047   1.384   2.320   2.314 -0.4512  0.8767 -0.9201
 6472SOL     OW31048   3.132   1.783   4.072 -0.0874  0.2159  0.0257
 6472SOL    HW131049   3.158   1.871   4.044 -0.3207 -0.0283 -0.9234
 6472SOL    HW231050   3.065   1.763   4.008  0.2100  0.8499 -0.4874
 6473SOL     OW31051   0.170   2.916   7.258  0.3076 -0.3749  0.1735
 6473SOL    HW131052   0.237   2.952   7.316  0.2624  0.1073 -0.0762
 6473SOL    HW231053   0.199   2.826   7.244 -0.1886 -0.5887  0.4933
 6474SOL     OW31054   0.112   0.876   2.516  0.2893  0.0376 -0.0616
 6474SOL    HW131055   0.136   0.874   2.609  0.4072  1.2306 -0.0661
 6474SOL    HW231056   0.021   0.906   2.524 -0.0507 -1.2819  1.0614
 6475SOL     OW31057   0.940   4.078   2.579 -0.9716 -0.0798  0.5191
 6475SOL    HW131058   1.006   4.036   2.635  2.5563  1.5077 -2.4700
 6475SOL    HW231059   0.860   4.041   2.617 -1.8842  1.0627 -0.2959
 6476SOL     OW31060   0.081   4.299   3.397 -0.1377 -0.2075  0.2350
 6476SOL    HW131061   0.026   4.221   3.407  1.1395 -0.9874  1.2729
 6476SOL    HW231062   0.125   4.301   3.482 -0.1684 -1.2032  0.2736
 6477SOL     OW31063   0.664   2.213  14.930  0.0007 -0.5455  0.0982
 6477SOL    HW131064   0.653   2.123  14.901 -1.1553 -0.5524  0.5804
 6477SOL    HW231065   0.575   2.229  14.959 -0.0995 -0.5162 -0.2312
 6478SOL     OW31066   0.552   1.140   6.686  0.2698 -0.4006 -0.6242
 6478SOL    HW131067   0.494   1.086   6.633 -0.6121  2.0246 -2.1628
 6478SOL    HW231068   0.485   1.180   6.742  0.5620 -0.0884 -0.4987
 6479SOL     OW31069   2.469   0.860   4.225 -0.1951 -0.2968  0.0775
 6479SOL    HW131070   2.563   0.862   4.208  0.0367 -0.2953  1.3116
 6479SOL    HW231071   2.436   0.814   4.148 -2.0718 -0.3780  0.9073
 6480SOL     OW31072   2.375   0.907  11.020 -0.4316  0.6300  0.6222
 6480SOL    HW131073   2.429   0.976  11.060  1.0072  0.0034 -0.2525
 6480SOL    HW231074   2.351   0.935  10.932 -0.6568 -0.8331  0.2325
 6481SOL     OW31075   1.438   4.099   5.059 -0.1693 -0.4038 -0.0688
 6481SOL    HW131076   1.344   4.086   5.073 -0.2767  0.6066  0.1506
 6481SOL    HW231077   1.444   4.163   4.989  0.8304 -0.6321 -0.1959
 6482SOL     OW31078   3.736   0.578   8.831 -0.2857 -0.4458 -0.1480
 6482SOL    HW131079   3.819   0.548   8.793 -0.6202 -2.7225  0.9050
 6482SOL    HW231080   3.691   0.597   8.749 -0.0619 -0.4121 -0.2609
 6483SOL     OW31081   3.774   0.797   6.381  0.2340 -0.9439  0.0081
 6483SOL    HW131082   3.861   0.779   6.344  1.8116  0.1179  3.1209
 6483SOL    HW231083   3.761   0.720   6.436 -0.2638 -0.5011  0.5070
 6484SOL     OW31084   3.695   0.458  10.612 -0.2318 -0.3730  0.7612
 6484SOL    HW131085   3.757   0.461  10.685 -1.6982  1.3899  1.9455
 6484SOL    HW231086   3.742   0.396  10.557  1.8770  1.4605  0.4899
 6485SOL     OW31087   3.747   3.245  13.197 -0.7282  0.2770 -0.0806
 6485SOL    HW131088   3.808   3.217  13.265 -0.3301  0.0072 -0.5477
 6485SOL    HW231089   3.798   3.296  13.134 -0.3136  1.8643  1.5222
 6486SOL     OW31090   2.351   0.961  17.535 -0.4048 -0.1936  0.0316
 6486SOL    HW131091   2.328   1.053  17.523  0.4675  0.2743  1.9031
 6486SOL    HW231092   2.298   0.910  17.473  0.4011 -1.1103  0.0870
 6487SOL     OW31093   2.948   4.358  11.991 -0.0151 -0.0300 -0.8766
 6487SOL    HW131094   3.016   4.297  11.962  1.5700  2.6255 -2.8289
 6487SOL    HW231095   2.869   4.319  11.954 -1.1510  1.6929 -0.2671
 6488SOL     OW31096   1.267   3.126  14.521  0.4690 -0.1013 -0.3452
 6488SOL    HW131097   1.318   3.204  14.501  3.0306 -1.2368  1.8197
 6488SOL    HW231098   1.315   3.056  14.476  1.2691  1.0264 -1.2557
 6489SOL     OW31099   1.946   3.822   1.449  0.4953 -0.0459  0.8437
 6489SOL    HW131100   1.993   3.864   1.522  1.2747 -0.8144  0.7822
 6489SOL    HW231101   1.991   3.743   1.419 -0.8767 -1.4842  2.5519
 6490SOL     OW31102   3.775   1.424  10.966  0.6483  0.3124 -0.0493
 6490SOL    HW131103   3.766   1.494  11.030  1.7666  0.1486  0.2966
 6490SOL    HW231104   3.807   1.478  10.893 -0.0787  0.9478  0.1048
 6491SOL     OW31105   0.487   0.363   6.750  0.1706 -0.0011  0.5291
 6491SOL    HW131106   0.460   0.445   6.710 -1.4676 -0.7505  0.1050
 6491SOL    HW231107   0.471   0.307   6.674  1.6131  0.9342 -0.4662
 6492SOL     OW31108   3.517   3.034   3.211  0.6339 -0.4070  0.4842
 6492SOL    HW131109   3.490   3.071   3.295 -2.4173 -0.4849 -0.4580
 6492SOL    HW231110   3.450   3.079   3.160 -1.2582 -2.1201  1.4643
 6493SOL     OW31111   3.564   0.792   1.645 -0.1442 -0.4487  0.1126
 6493SOL    HW131112   3.490   0.735   1.623 -2.3402  2.7556 -0.7655
 6493SOL    HW231113   3.610   0.735   1.707  0.5408  1.5318  1.4317
 6494SOL     OW31114   2.737   2.454   4.273 -0.0421  0.2889 -0.6832
 6494SOL    HW131115   2.661   2.413   4.232  0.3116  0.2426 -1.3002
 6494SOL    HW231116   2.722   2.415   4.359  0.4992  0.0052 -0.7203
 6495SOL     OW31117   0.338   2.251  16.709 -0.4898  0.9167 -0.0754
 6495SOL    HW131118   0.352   2.272  16.616  0.1403  0.0556 -0.1771
 6495SOL    HW231119   0.256   2.293  16.735 -0.5458  0.2647  0.7959
 6496SOL     OW31120   3.080   3.729  11.099 -0.2993  0.3242  0.2420
 6496SOL    HW131121   3.075   3.816  11.060  1.6486  0.7997  1.0358
 6496SOL    HW231122   3.074   3.670  11.023  0.0306 -0.7775  1.0689
 6497SOL     OW31123   1.454   1.803  16.389  0.2455 -0.9371  0.0091
 6497SOL    HW131124   1.513   1.800  16.465 -0.1865  0.8505  0.4076
 6497SOL    HW231125   1.454   1.898  16.382  0.4309 -1.0007 -0.8246
 6498SOL     OW31126   0.917   3.859   1.684 -0.1134  0.1609 -0.2399
 6498SOL    HW131127   0.975   3.868   1.760  1.7282  1.2381 -1.8047
 6498SOL    HW231128   0.832   3.883   1.723  0.0426 -1.1286  0.8983
 6499SOL     OW31129   3.970   0.557   6.081 -0.2414 -0.2477  0.2852
 6499SOL    HW131130   4.054   0.599   6.063 -0.2844 -0.6034 -0.7450
 6499SOL    HW231131   3.956   0.511   5.998  1.2669  1.0519 -0.6834
 6500SOL     OW31132   4.133   0.143   1.153  0.3276  0.1571 -0.4313
 6500SOL    HW131133   4.199   0.183   1.210 -2.4816  1.1100  2.1402
 6500SOL    HW231134   4.064   0.148   1.219 -1.2518 -0.8719 -1.9948
 6501SOL     OW31135   0.361   4.162   3.009 -0.2116  0.0244 -0.6159
 6501SOL    HW131136   0.430   4.117   2.960  1.3451  2.1861 -0.4582
 6501SOL    HW231137   0.417   4.184   3.084 -1.2335 -0.5459  0.3037
 6502SOL     OW31138   1.767   4.430   3.656 -0.2365  0.4345  0.2241
 6502SOL    HW131139   1.835   4.423   3.722 -0.1019 -0.2330  0.0144
 6502SOL    HW231140   1.704   4.360   3.674  0.0281  0.3336  0.7497
 6503SOL     OW31141   4.430   2.932  16.208 -0.3572 -0.2788 -0.1284
 6503SOL    HW131142   4.417   2.874  16.133 -0.4035 -1.7454  1.0097
 6503SOL    HW231143   4.352   2.987  16.197 -0.2056 -0.6478 -3.0407
 6504SOL     OW31144   4.441   0.696  10.306 -0.7801  0.2764 -0.1573
 6504SOL    HW131145   4.347   0.715  10.315 -0.6118  0.8156  0.4825
 6504SOL    HW231146   4.468   0.761  10.241 -0.9898 -0.0152 -0.5325
 6505SOL     OW31147   2.688   1.454   6.079  0.5215  0.1043  0.2225
 6505SOL    HW131148   2.598   1.438   6.110  0.4994  0.0256  0.1181
 6505SOL    HW231149   2.730   1.371   6.103  0.3521 -0.6151 -1.8836
 6506SOL     OW31150   0.808   3.447   1.497  0.5975 -0.4150  0.0734
 6506SOL    HW131151   0.843   3.365   1.532  1.6914 -0.8604 -2.0701
 6506SOL    HW231152   0.796   3.412   1.409  2.7228  2.1683 -1.2414
 6507SOL     OW31153   1.183   2.586  14.326 -0.2444  0.4162 -0.3564
 6507SOL    HW131154   1.180   2.669  14.280  1.5007  0.8509  0.3274
 6507SOL    HW231155   1.155   2.526  14.257  0.1146 -0.1927  0.0186
 6508SOL     OW31156   0.162   4.555   3.327  0.1233  0.0651 -0.1740
 6508SOL    HW131157   0.197   4.599   3.404  1.0767 -1.5382  0.3154
 6508SOL    HW231158   0.131   4.476   3.371 -1.2819 -0.4600 -2.1146
 6509SOL     OW31159   3.918   1.648  12.268  0.2591 -0.0237 -0.0262
 6509SOL    HW131160   3.906   1.566  12.315  1.3006  0.3575  0.9159
 6509SOL    HW231161   3.827   1.677  12.274 -0.2065 -1.7698  1.2433
 6510SOL     OW31162   2.017   0.151   1.962  0.1757 -0.1842  0.0058
 6510SOL    HW131163   1.956   0.223   1.947 -1.3675 -1.1940  1.4067
 6510SOL    HW231164   1.973   0.093   1.900  1.4251  0.0945 -1.1286
 6511SOL     OW31165   2.086   1.885   7.341 -0.5138  0.0764 -0.1759
 6511SOL    HW131166   2.102   1.978   7.356  0.2600 -0.5239  2.5791
 6511SOL    HW231167   2.164   1.851   7.297  1.0498  2.8302  0.5413
 6512SOL     OW31168   2.902   2.555   5.820  0.0041 -0.2139  0.6348
 6512SOL    HW131169   2.945   2.635   5.790 -0.8732 -1.2201 -3.3307
 6512SOL    HW231170   2.924   2.498   5.746  0.6584  0.9363 -0.0524
 6513SOL     OW31171   1.800   0.888   2.978  0.5064  0.3060  0.0548
 6513SOL    HW131172   1.862   0.959   2.995  0.8328 -0.4684  2.0681
 6513SOL    HW231173   1.720   0.916   3.023 -0.2552 -0.6813 -0.6609
 6514SOL     OW31174   4.591   1.672  14.074  0.2441  0.4759 -0.3945
 6514SOL    HW131175   4.546   1.589  14.089 -0.4588  0.6089 -1.7650
 6514SOL    HW231176   4.520   1.732  14.096  0.7733  1.0810 -0.3178
 6515SOL     OW31177   3.548   2.214   6.732 -0.2754 -0.0978  0.4190
 6515SOL    HW131178   3.579   2.148   6.671 -0.5471  0.1074  0.0588
 6515SOL    HW231179   3.603   2.189   6.806 -0.5118  1.8779  1.2563
 6516SOL     OW31180   2.083   0.257   0.682  0.4172  0.3657 -0.0464
 6516SOL    HW131181   2.092   0.337   0.629  0.4332  0.4678  0.1086
 6516SOL    HW231182   2.148   0.264   0.751  1.1357  1.5732 -0.8444
 6517SOL     OW31183   0.750   1.224   2.849  0.0700  0.2771 -0.4291
 6517SOL    HW131184   0.813   1.277   2.801  1.6465  1.1950  2.6223
 6517SOL    HW231185   0.693   1.208   2.774 -0.3276 -0.7281  0.0864
 6518SOL     OW31186   1.763   0.409   1.287  0.0031  0.0073  0.3191
 6518SOL    HW131187   1.750   0.337   1.349 -1.2426 -1.6431 -1.8337
 6518SOL    HW231188   1.853   0.435   1.304  1.1316 -1.1068 -3.9019
 6519SOL     OW31189   3.695   2.268  12.216  0.2150 -0.5451  0.3250
 6519SOL    HW131190   3.672   2.294  12.305 -1.5290 -0.3799 -0.1763
 6519SOL    HW231191   3.773   2.321  12.194 -0.4873  0.7118  0.8708
 6520SOL     OW31192   4.006   2.696   4.320 -0.0678  0.9093  0.2791
 6520SOL    HW131193   3.967   2.696   4.233  1.0925 -1.9828 -0.2394
 6520SOL    HW231194   3.996   2.788   4.344 -0.9093  0.9584 -0.2697
 6521SOL     OW31195   3.999   4.181   5.201  0.0655  0.0305  0.1051
 6521SOL    HW131196   4.084   4.221   5.219  0.0864  0.0861 -0.1077
 6521SOL    HW231197   3.969   4.140   5.281  0.2036 -0.8820 -0.3083
 6522SOL     OW31198   1.213   4.691   3.344 -0.3072 -0.2487 -0.5149
 6522SOL    HW131199   1.220   0.003   3.266  0.0298 -0.0065 -0.3177
 6522SOL    HW231200   1.218   4.599   3.318  1.1316  0.3433 -2.3478
 6523SOL     OW31201   3.522   0.604  10.806 -0.1448 -0.4262  0.0482
 6523SOL    HW131202   3.548   0.553  10.729  2.8996  1.3075 -0.0880
 6523SOL    HW231203   3.592   0.593  10.871  1.0996 -1.7285 -1.5067
 6524SOL     OW31204   3.866   3.916   4.829 -0.2569  0.3608  0.5707
 6524SOL    HW131205   3.887   3.849   4.765 -1.4953 -1.1229  1.7329
 6524SOL    HW231206   3.847   3.860   4.904 -0.6948  0.5736  0.6183
 6525SOL     OW31207   2.005   3.148   7.420  0.2872  0.1448 -0.1994
 6525SOL    HW131208   1.997   3.053   7.432 -0.1501  0.2072 -0.0317
 6525SOL    HW231209   1.931   3.180   7.471 -0.8712 -2.2732 -0.3672
 6526SOL     OW31210   0.279   1.939   6.875 -0.1029 -0.0156  0.0099
 6526SOL    HW131211   0.336   1.865   6.897 -0.4412 -0.2013  0.2485
 6526SOL    HW231212   0.218   1.905   6.810  0.0086 -0.0043 -0.1013
 6527SOL     OW31213   4.459   0.569   3.309  0.5569 -0.2986 -0.1443
 6527SOL    HW131214   4.367   0.587   3.332  0.5944  0.9379 -0.9487
 6527SOL    HW231215   4.503   0.577   3.394 -0.7976  0.9968  0.4595
 6528SOL     OW31216   2.620   3.354   3.782 -0.2653  0.3144 -0.0124
 6528SOL    HW131217   2.612   3.448   3.799 -1.0151 -0.0033  1.4012
 6528SOL    HW231218   2.565   3.316   3.851 -0.1110 -1.7107 -1.0088
 6529SOL     OW31219   2.374   1.740   7.674  0.0462  0.5222 -1.0462
 6529SOL    HW131220   2.351   1.782   7.591  0.4763  3.4242  0.3065
 6529SOL    HW231221   2.426   1.667   7.640  1.2294 -0.2928  2.5998
 6530SOL     OW31222   4.319   2.821   0.061  0.0107  0.3631  0.0651
 6530SOL    HW131223   4.339   2.772   0.140  0.0670 -0.1608 -0.2717
 6530SOL    HW231224   4.248   2.768   0.025  0.7076 -1.9415  2.1318
 6531SOL     OW31225   1.787   3.689   3.476  0.0548 -0.0645  0.7868
 6531SOL    HW131226   1.739   3.610   3.452  3.2535 -1.8228  0.1777
 6531SOL    HW231227   1.759   3.692   3.567 -1.0561 -0.5926  0.4638
 6532SOL     OW31228   1.854   0.939   4.999  0.2055  0.3117 -0.5075
 6532SOL    HW131229   1.890   0.868   5.051 -1.4241 -0.5782 -0.5925
 6532SOL    HW231230   1.929   0.997   4.989 -0.6071  1.4607 -0.0308
 6533SOL     OW31231   3.454   3.106   9.492 -0.1787  0.2248  0.3947
 6533SOL    HW131232   3.485   3.020   9.462  2.1471  1.5343 -0.9808
 6533SOL    HW231233   3.362   3.081   9.489 -0.2121  0.4307 -0.2372
 6534SOL     OW31234   4.011   1.146   6.548 -0.0562 -0.2265 -0.1183
 6534SOL    HW131235   4.047   1.207   6.613 -0.6950  0.4360 -0.3938
 6534SOL    HW231236   4.081   1.124   6.488 -0.1844 -0.3680 -0.2157
 6535SOL     OW31237   4.089   1.604   2.232 -0.4781  0.5719  0.4341
 6535SOL    HW131238   4.006   1.649   2.217  0.7790  2.4482 -0.9423
 6535SOL    HW231239   4.152   1.646   2.173  0.3266  4.2138  3.8496
 6536SOL     OW31240   3.703   1.451  14.628  0.2740  0.3860  0.0030
 6536SOL    HW131241   3.646   1.496  14.565 -0.6300 -0.5717  0.1472
 6536SOL    HW231242   3.695   1.516  14.699  1.6511  0.4512  0.0897
 6537SOL     OW31243   0.405   3.259  10.025  0.0689  0.0749  0.2573
 6537SOL    HW131244   0.434   3.180  10.070  0.5657  0.5760  0.8079
 6537SOL    HW231245   0.310   3.261  10.032  0.3405  3.3739  2.8368
 6538SOL     OW31246   0.202   1.535   3.559 -0.5110 -0.2734  0.5611
 6538SOL    HW131247   0.126   1.560   3.611 -0.6574  1.7359 -0.6003
 6538SOL    HW231248   0.230   1.455   3.602 -0.6384  0.9614  2.9365
 6539SOL     OW31249   4.284   1.103   5.894  0.3811 -0.1082  0.2026
 6539SOL    HW131250   4.290   1.149   5.978  1.0675 -0.2005  0.2019
 6539SOL    HW231251   4.191   1.105   5.869  0.5734  1.7050 -0.3619
 6540SOL     OW31252   3.195   4.066   4.168 -0.2095 -0.5698 -0.7075
 6540SOL    HW131253   3.145   4.125   4.225  3.0030 -0.4532  2.0071
 6540SOL    HW231254   3.282   4.075   4.207  0.0027 -1.1866 -1.0310
 6541SOL     OW31255   4.144   3.164   5.869  0.3658  0.0446 -0.0593
 6541SOL    HW131256   4.141   3.191   5.777 -0.5521  2.0964  0.5858
 6541SOL    HW231257   4.066   3.108   5.877  1.1886 -0.8305  1.6669
 6542SOL     OW31258   0.686   1.362   7.210  0.2797  0.2461 -0.2995
 6542SOL    HW131259   0.753   1.383   7.275  0.2024 -1.0354  0.1968
 6542SOL    HW231260   0.606   1.349   7.260 -0.9161 -0.2433 -2.3463
 6543SOL     OW31261   1.645   3.617  12.776 -0.0065 -0.2940 -0.3041
 6543SOL    HW131262   1.607   3.607  12.688 -1.9746 -3.3035  0.8824
 6543SOL    HW231263   1.733   3.641  12.749 -0.0030  0.1800  0.1310
 6544SOL     OW31264   1.840   2.181   4.815 -0.2080 -0.1929 -0.3680
 6544SOL    HW131265   1.853   2.276   4.825 -1.8018  0.0075 -0.1744
 6544SOL    HW231266   1.818   2.161   4.906 -1.1926 -0.8674 -0.7579
 6545SOL     OW31267   4.357   3.165   0.641 -0.0308  0.5837 -0.4586
 6545SOL    HW131268   4.308   3.209   0.572 -1.1826  3.2404  2.0464
 6545SOL    HW231269   4.332   3.219   0.716  3.3532  1.2051  0.2155
 6546SOL     OW31270   0.918   4.582   0.447  0.3081  0.0254  0.2332
 6546SOL    HW131271   0.849   4.647   0.463 -2.1854 -3.0724  2.1670
 6546SOL    HW231272   0.861   4.506   0.458  1.7604 -1.3054 -1.3574
 6547SOL     OW31273   1.518   1.920   2.263 -0.0080  0.2188  0.1518
 6547SOL    HW131274   1.459   1.982   2.219 -1.0404  0.0787  1.3614
 6547SOL    HW231275   1.485   1.918   2.352  0.4198  1.0522  0.3297
 6548SOL     OW31276   0.252   2.582   8.543  0.0006 -0.0359 -0.0013
 6548SOL    HW131277   0.183   2.639   8.509  0.7377  0.1680 -1.1520
 6548SOL    HW231278   0.263   2.521   8.470 -1.1173  0.9206 -0.9598
 6549SOL     OW31279   3.035   3.272  13.336  0.2362  0.2711 -0.3489
 6549SOL    HW131280   2.979   3.327  13.391 -1.1799 -3.3417  1.8097
 6549SOL    HW231281   3.095   3.333  13.293 -0.0864  1.1141  0.3902
 6550SOL     OW31282   2.120   1.405   4.484  0.2671  0.3415  0.2664
 6550SOL    HW131283   2.100   1.499   4.490 -0.6145  0.2093 -0.5828
 6550SOL    HW231284   2.114   1.388   4.390 -1.6180  0.7336  0.3161
 6551SOL     OW31285   3.777   0.801   3.601  0.0875 -0.6650  0.1935
 6551SOL    HW131286   3.852   0.783   3.543 -0.5514 -1.1498 -0.4859
 6551SOL    HW231287   3.805   0.750   3.677  1.2728 -0.4326 -0.0768
 6552SOL     OW31288   1.598   0.157   7.937  0.0658 -0.0386 -0.0017
 6552SOL    HW131289   1.645   0.114   8.009 -1.3073  1.5322  1.8146
 6552SOL    HW231290   1.510   0.120   7.935  0.3191 -0.5711 -1.2690
 6553SOL     OW31291   2.724   3.942   1.559 -0.3398 -0.3971 -0.5336
 6553SOL    HW131292   2.764   3.949   1.646 -0.1959 -0.1546 -0.6166
 6553SOL    HW231293   2.679   4.025   1.544 -2.2746 -1.1145  1.4603
 6554SOL     OW31294   2.530   4.358   1.370 -0.0432  0.3701 -0.0729
 6554SOL    HW131295   2.534   4.410   1.450 -2.1201  0.9256 -0.3216
 6554SOL    HW231296   2.597   4.296   1.398  0.0662  0.9664  0.9877
 6555SOL     OW31297   0.981   1.583  14.425  0.1151 -0.8111 -0.3463
 6555SOL    HW131298   0.960   1.539  14.342 -3.2336  0.9252 -0.4101
 6555SOL    HW231299   1.076   1.584  14.422  0.1440  1.1070  1.7627
 6556SOL     OW31300   4.116   0.348  14.890 -0.2491  0.2408  0.1453
 6556SOL    HW131301   4.045   0.295  14.855 -0.7247  1.2600 -0.4245
 6556SOL    HW231302   4.105   0.435  14.850 -2.6943  0.3995  1.1683
 6557SOL     OW31303   3.548   2.439   8.716  0.4233  0.0535 -0.1561
 6557SOL    HW131304   3.477   2.408   8.773  0.1114 -1.2242 -1.2271
 6557SOL    HW231305   3.507   2.432   8.630  0.0620  1.2440 -0.0784
 6558SOL     OW31306   4.132   2.379   7.338  0.2581 -0.2087 -0.1818
 6558SOL    HW131307   4.211   2.327   7.327 -0.0721 -0.5320 -1.0084
 6558SOL    HW231308   4.149   2.456   7.283  1.5658  1.0611  2.0110
 6559SOL     OW31309   2.962   3.637  11.589 -0.3745  0.1138  0.3072
 6559SOL    HW131310   2.956   3.566  11.525 -1.8765  0.1601  0.3937
 6559SOL    HW231311   3.012   3.706  11.544  0.2959 -1.9450 -2.0832
 6560SOL     OW31312   4.071   1.945   2.494  0.0978  0.3027  0.1051
 6560SOL    HW131313   4.011   1.890   2.544 -0.6155 -0.0203 -1.1135
 6560SOL    HW231314   4.151   1.944   2.547  1.3438  2.1024 -1.7260
 6561SOL     OW31315   4.659   1.051  12.120 -0.2507 -0.1009  0.3129
 6561SOL    HW131316   4.718   1.056  12.044  0.2711  3.2156  0.9550
 6561SOL    HW231317   4.726   1.032  12.186 -0.7040  0.4053  0.9091
 6562SOL     OW31318   2.966   3.188  15.814  0.2581  1.0161  0.1123
 6562SOL    HW131319   3.041   3.179  15.873 -0.7317  1.0908  1.3757
 6562SOL    HW231320   2.985   3.111  15.761 -0.9206  0.7067  0.1440
 6563SOL     OW31321   1.538   4.590   3.223 -0.6790  0.1381 -0.7664
 6563SOL    HW131322   1.567   4.593   3.132  0.8794 -2.3793 -0.3799
 6563SOL    HW231323   1.511   4.680   3.242  1.8838  0.6069  0.6144
 6564SOL     OW31324   0.133   0.039  13.179 -0.2229 -0.1763  0.1468
 6564SOL    HW131325   0.092   0.004  13.099  0.1434  1.2985 -0.6747
 6564SOL    HW231326   0.111   4.710  13.240 -0.2194 -0.4121 -0.1251
 6565SOL     OW31327   0.174   4.475   6.682  0.2083  0.3649 -0.6790
 6565SOL    HW131328   0.110   4.530   6.729  1.7791  1.6768 -0.0843
 6565SOL    HW231329   0.116   4.404   6.652 -1.3073  1.7083 -0.9181
 6566SOL     OW31330   1.997   4.204  15.172 -0.0156  0.0075  0.3058
 6566SOL    HW131331   1.931   4.193  15.103 -0.4701 -0.0871  0.7468
 6566SOL    HW231332   1.987   4.117  15.212 -1.5441  0.7967  1.6264
 6567SOL     OW31333   3.077   3.168   3.169  0.1000 -0.1065  0.2201
 6567SOL    HW131334   3.117   3.124   3.243  0.3335 -0.8458 -0.3473
 6567SOL    HW231335   3.101   3.256   3.198  1.2989 -0.6963  0.9700
 6568SOL     OW31336   0.669   2.752  11.923 -0.3824  0.2077 -0.3874
 6568SOL    HW131337   0.705   2.676  11.970 -0.2573 -0.3065 -1.3124
 6568SOL    HW231338   0.604   2.710  11.867  0.7339 -0.7457 -0.9726
 6569SOL     OW31339   4.366   1.580  16.646  0.1584  0.4169 -0.6284
 6569SOL    HW131340   4.369   1.486  16.664  1.6182  0.3998 -0.9870
 6569SOL    HW231341   4.275   1.603  16.668  0.7924  1.9755  0.3673
 6570SOL     OW31342   3.018   3.905   9.583 -0.0875 -0.0629  0.0529
 6570SOL    HW131343   3.072   3.937   9.511  1.5525 -2.8437  0.0790
 6570SOL    HW231344   2.927   3.909   9.553  0.4023 -0.9292 -1.5081
 6571SOL     OW31345   2.455   0.387  14.650 -0.3456  0.1956  0.2826
 6571SOL    HW131346   2.423   0.398  14.560  5.3488 -0.7121 -1.9005
 6571SOL    HW231347   2.390   0.437  14.700  0.6304  0.8403  0.9031
 6572SOL     OW31348   3.994   4.669   3.037  0.1949  0.0190  0.0517
 6572SOL    HW131349   3.903   4.651   3.017  0.6650 -2.6679  0.4140
 6572SOL    HW231350   4.034   4.634   2.957 -1.1026 -0.9343 -0.1748
 6573SOL     OW31351   4.243   0.373   6.488 -0.4857 -0.1153  0.6854
 6573SOL    HW131352   4.332   0.380   6.454 -1.6910  0.8130 -2.3331
 6573SOL    HW231353   4.238   0.451   6.543  0.3876 -0.4054  1.1671
 6574SOL     OW31354   4.350   3.412  15.100  0.4243  1.0743 -0.3730
 6574SOL    HW131355   4.443   3.421  15.123  0.2094  1.8275  0.1952
 6574SOL    HW231356   4.333   3.475  15.030 -0.1129  1.5047  0.1438
 6575SOL     OW31357   1.828   1.066   7.036 -0.6859  0.0994  0.4523
 6575SOL    HW131358   1.800   0.990   6.985 -1.3588  0.5177  0.2019
 6575SOL    HW231359   1.903   1.021   7.078 -1.1150 -1.5873 -0.5951
 6576SOL     OW31360   1.645   0.218   0.940 -0.3179  0.3571  0.1635
 6576SOL    HW131361   1.705   0.180   0.876  0.0806 -0.5509  1.0640
 6576SOL    HW231362   1.613   0.141   0.987  1.1960 -0.9407 -0.9413
 6577SOL     OW31363   0.282   1.933   5.830 -0.8466  0.5971  0.3067
 6577SOL    HW131364   0.377   1.938   5.822 -0.9093 -0.0894 -0.9461
 6577SOL    HW231365   0.253   2.003   5.771 -0.5518  0.9628  0.6033
 6578SOL     OW31366   2.936   1.492   5.182  0.4758 -0.5872  0.0565
 6578SOL    HW131367   2.889   1.518   5.261  1.0446 -1.0855  0.5601
 6578SOL    HW231368   2.871   1.435   5.140  0.0818  0.4408 -0.7252
 6579SOL     OW31369   2.717   2.111   9.402 -0.4320  0.1335  0.5084
 6579SOL    HW131370   2.650   2.168   9.364 -1.2747 -1.0075  0.2549
 6579SOL    HW231371   2.699   2.120   9.496  0.1174  0.9420  0.5362
 6580SOL     OW31372   0.115   3.989   8.648  0.5900  0.2500 -0.2939
 6580SOL    HW131373   0.048   3.958   8.587 -0.9858  0.8665  1.1532
 6580SOL    HW231374   0.128   4.078   8.614  0.3376  0.1685 -0.6080
 6581SOL     OW31375   1.166   4.146   5.100  0.2538  0.2732 -0.5729
 6581SOL    HW131376   1.158   4.190   5.015 -0.5021  0.2900 -0.4971
 6581SOL    HW231377   1.082   4.110   5.127  1.4725 -1.7158  0.5709
 6582SOL     OW31378   3.772   4.123   5.659  0.2648  0.3685  0.0787
 6582SOL    HW131379   3.704   4.093   5.719 -0.2899  0.4361 -0.5028
 6582SOL    HW231380   3.796   4.198   5.712  0.2280 -1.0528  2.0902
 6583SOL     OW31381   3.836   2.131   3.637 -0.2351  0.2610 -0.1714
 6583SOL    HW131382   3.832   2.194   3.565  0.1999  0.7319  0.2186
 6583SOL    HW231383   3.908   2.075   3.611  0.2655 -0.1041  1.9772
 6584SOL     OW31384   1.102   0.677  16.662 -0.1688  0.4559 -0.1359
 6584SOL    HW131385   1.196   0.658  16.657 -0.5028 -0.9364 -1.2148
 6584SOL    HW231386   1.092   0.763  16.621  2.2009  0.1681 -1.3486
 6585SOL     OW31387   3.761   2.640   8.305  0.3394  0.4017  0.2521
 6585SOL    HW131388   3.760   2.544   8.308  1.7577  0.3420 -1.0924
 6585SOL    HW231389   3.796   2.665   8.390  2.7630  0.0803 -0.6455
 6586SOL     OW31390   3.793   2.957   7.172  0.4268 -0.2149  0.7357
 6586SOL    HW131391   3.795   3.047   7.141 -1.6492  0.6411  3.0184
 6586SOL    HW231392   3.870   2.949   7.229  0.3852 -2.7258  0.4625
 6587SOL     OW31393   3.414   0.247   0.953  0.2449 -0.2295 -0.7814
 6587SOL    HW131394   3.319   0.258   0.962  0.5608  2.3671 -0.6737
 6587SOL    HW231395   3.451   0.328   0.989 -0.1089 -0.0997 -0.7018
 6588SOL     OW31396   2.948   0.617  10.696 -0.2921  0.6979 -1.0202
 6588SOL    HW131397   3.005   0.620  10.773  0.2797  2.2029 -1.5078
 6588SOL    HW231398   2.861   0.605  10.734  0.1060 -2.0111 -0.9210
 6589SOL     OW31399   1.125   4.620   4.162 -0.3180 -0.1008  0.2337
 6589SOL    HW131400   1.151   4.668   4.240  1.2100 -0.7599  0.1365
 6589SOL    HW231401   1.207   4.610   4.115  0.0188  0.4775  0.6977
 6590SOL     OW31402   1.495   2.907  10.569  0.8139 -0.2646  0.3229
 6590SOL    HW131403   1.500   2.913  10.665 -1.2300  0.9188  0.3441
 6590SOL    HW231404   1.506   2.811  10.570  1.7179 -0.1640  0.5426
 6591SOL     OW31405   0.554   4.443   3.834 -0.3351 -0.9951 -0.4759
 6591SOL    HW131406   0.487   4.431   3.902 -0.4043 -1.7496 -0.6874
 6591SOL    HW231407   0.610   4.508   3.877 -2.0786 -0.1555  0.5387
 6592SOL     OW31408   0.706   4.265   1.569 -0.1079 -0.0560  0.0454
 6592SOL    HW131409   0.737   4.176   1.553 -2.3905 -0.7830 -0.3323
 6592SOL    HW231410   0.611   4.259   1.559 -0.0340 -1.1746  0.0565
 6593SOL     OW31411   3.916   4.371  10.841 -1.0323  0.5379  0.0062
 6593SOL    HW131412   3.884   4.460  10.826  1.5697  1.2394 -1.3994
 6593SOL    HW231413   3.953   4.371  10.929  0.9564 -1.8036 -0.8242
 6594SOL     OW31414   1.071   0.055   0.522 -0.4163 -0.1806 -0.1296
 6594SOL    HW131415   1.031   4.719   0.484  2.2538 -0.4237 -2.5011
 6594SOL    HW231416   1.065   0.023   0.612 -0.2984 -1.7277 -0.6580
 6595SOL     OW31417   1.390   1.959   2.516  0.6615  0.2323 -0.1353
 6595SOL    HW131418   1.305   1.990   2.484  0.0516 -0.3195  0.9493
 6595SOL    HW231419   1.360   1.896   2.582 -1.6130  1.7770  0.3106
 6596SOL     OW31420   1.346   3.424   1.255  0.0330  0.1117  0.0823
 6596SOL    HW131421   1.414   3.481   1.220 -0.3569  0.3672 -0.2617
 6596SOL    HW231422   1.276   3.486   1.276  0.8148  1.3893 -1.0895
 6597SOL     OW31423   2.108   3.222   4.020 -0.1286  0.0513 -0.2875
 6597SOL    HW131424   2.174   3.283   4.054  0.0740  0.8802 -2.2006
 6597SOL    HW231425   2.153   3.138   4.017 -0.5514 -0.2515  1.5160
 6598SOL     OW31426   3.789   2.091   8.423 -0.4032 -0.9373 -0.4376
 6598SOL    HW131427   3.709   2.041   8.438 -0.8040 -0.4472 -0.9401
 6598SOL    HW231428   3.847   2.048   8.486  1.3628  1.7186 -0.2532
 6599SOL     OW31429   1.207   0.199  14.153 -0.1924 -0.1153  0.3538
 6599SOL    HW131430   1.236   0.276  14.201  0.2114  0.7120 -1.2061
 6599SOL    HW231431   1.179   0.248  14.076  0.8043  0.3962  0.3207
 6600SOL     OW31432   2.105   1.227  17.047  0.6182 -0.1186 -0.4977
 6600SOL    HW131433   2.063   1.186  16.972  0.0294 -0.9188  0.2629
 6600SOL    HW231434   2.166   1.285  17.003 -1.3359  2.0004 -0.4242
 6601SOL     OW31435   4.173   1.726   9.686 -0.2208 -0.3292  0.9642
 6601SOL    HW131436   4.140   1.805   9.644  0.2816 -1.0497 -0.7723
 6601SOL    HW231437   4.105   1.697   9.747 -0.4718  1.6511  1.6061
 6602SOL     OW31438   4.023   0.727   4.312 -0.7644 -0.1591  0.3090
 6602SOL    HW131439   3.958   0.758   4.249 -0.1641 -0.7097 -0.5788
 6602SOL    HW231440   4.087   0.797   4.325 -0.1214 -0.6360 -0.2510
 6603SOL     OW31441   1.015   2.952   8.707  0.0592 -0.3144  0.4984
 6603SOL    HW131442   0.965   2.987   8.781 -1.7139  2.4490 -2.0153
 6603SOL    HW231443   1.074   2.887   8.745  1.6449 -0.5289 -2.3912
 6604SOL     OW31444   2.163   0.560   6.107 -0.3242 -0.2497 -0.4441
 6604SOL    HW131445   2.152   0.633   6.046  0.0589 -0.5735 -0.9003
 6604SOL    HW231446   2.203   0.601   6.183  0.8992  0.7106 -1.6177
 6605SOL     OW31447   4.212   3.610   8.678 -0.5444 -0.1665  0.2536
 6605SOL    HW131448   4.186   3.524   8.710  1.7599 -0.5534  1.1102
 6605SOL    HW231449   4.125   3.635   8.647 -0.7030 -0.6993  0.2752
 6606SOL     OW31450   4.248   1.283   9.190 -0.4952 -0.6454 -0.2446
 6606SOL    HW131451   4.194   1.303   9.266  1.2875 -0.3638  0.9584
 6606SOL    HW231452   4.320   1.346   9.191 -0.4371 -0.7109 -0.2908
 6607SOL     OW31453   3.943   3.799   4.208  0.0956  0.8116 -0.0045
 6607SOL    HW131454   3.873   3.801   4.274  1.0291  0.2423  1.0077
 6607SOL    HW231455   3.878   3.773   4.143  0.5069  1.7331 -0.7839
 6608SOL     OW31456   0.310   3.120  16.896  0.3487 -0.2609 -0.4225
 6608SOL    HW131457   0.399   3.091  16.877  0.7354  0.1058  0.8878
 6608SOL    HW231458   0.279   3.132  16.806  0.3507 -0.8278 -0.5022
 6609SOL     OW31459   0.871   3.652   2.826 -0.2244  0.3829  0.3213
 6609SOL    HW131460   0.893   3.559   2.830 -0.6288  0.2933  0.5344
 6609SOL    HW231461   0.851   3.674   2.917 -2.6070  2.3243 -0.6716
 6610SOL     OW31462   1.585   0.606   7.255 -0.4681  0.5881 -0.1786
 6610SOL    HW131463   1.580   0.619   7.349  2.9170  4.9322 -0.6327
 6610SOL    HW231464   1.498   0.624   7.220  0.1211 -0.1995 -2.0535
 6611SOL     OW31465   4.075   0.813   1.222 -0.9051 -0.4037 -0.2029
 6611SOL    HW131466   4.048   0.870   1.150  3.1837  0.7960 -0.8017
 6611SOL    HW231467   4.151   0.770   1.183 -0.6862  2.3908 -2.8951
 6612SOL     OW31468   0.088   3.028   8.401 -0.3989 -0.0907 -0.7203
 6612SOL    HW131469   0.028   3.075   8.459 -1.6205 -0.0955 -1.9638
 6612SOL    HW231470   0.149   3.100   8.390 -0.3305  0.2555  1.9431
 6613SOL     OW31471   4.109   1.106  12.416 -0.4974 -0.8157 -0.2946
 6613SOL    HW131472   4.045   1.153  12.363  0.1778 -1.0715 -1.3368
 6613SOL    HW231473   4.172   1.175  12.438  0.9764 -2.2975  0.1538
 6614SOL     OW31474   3.201   0.658   8.127  0.3328 -0.0032 -0.7964
 6614SOL    HW131475   3.147   0.737   8.127 -1.4174 -1.1924 -1.5137
 6614SOL    HW231476   3.144   0.605   8.182 -1.6647  2.5348 -0.4319
 6615SOL     OW31477   1.242   2.105   3.319 -0.6703 -0.1509 -0.0630
 6615SOL    HW131478   1.268   2.046   3.248  3.3797  1.0192  0.4749
 6615SOL    HW231479   1.198   2.173   3.268  0.1114  1.7888  1.8937
 6616SOL     OW31480   1.778   2.486   3.268 -0.0218 -0.1085 -0.0129
 6616SOL    HW131481   1.830   2.546   3.215 -2.8949  1.1718 -1.3917
 6616SOL    HW231482   1.840   2.413   3.264  0.2872  0.2366 -1.8291
 6617SOL     OW31483   2.158   1.631  13.406  0.0628 -0.0759 -0.1002
 6617SOL    HW131484   2.082   1.686  13.422  0.8370  1.1126 -0.4735
 6617SOL    HW231485   2.223   1.702  13.406  0.5240 -0.4984 -0.3270
 6618SOL     OW31486   1.313   2.339   8.923 -0.1113  0.0399  0.0772
 6618SOL    HW131487   1.325   2.246   8.944 -0.7787  0.2551  1.4009
 6618SOL    HW231488   1.226   2.356   8.961  0.2092 -2.7865  2.0862
 6619SOL     OW31489   0.784   3.513   3.419  0.0060 -0.1389 -0.3891
 6619SOL    HW131490   0.816   3.597   3.387 -0.4766  1.0906  2.3661
 6619SOL    HW231491   0.695   3.501   3.388  0.0283  2.5270 -1.4367
 6620SOL     OW31492   0.256   1.191   4.789 -0.1884 -0.3627  0.4697
 6620SOL    HW131493   0.205   1.145   4.856 -0.9557  0.3241  0.3573
 6620SOL    HW231494   0.212   1.275   4.777  0.9442  0.1781  0.0751
 6621SOL     OW31495   0.772   1.383   0.309  0.0412 -0.0886 -0.2501
 6621SOL    HW131496   0.833   1.456   0.315 -0.2298  0.2141 -1.1196
 6621SOL    HW231497   0.833   1.311   0.323  0.4787  0.4283  0.4851
 6622SOL     OW31498   2.374   1.519   5.928 -0.5428 -0.1497  0.2892
 6622SOL    HW131499   2.405   1.487   6.013  2.5555  1.0152 -0.3982
 6622SOL    HW231500   2.282   1.493   5.927 -0.3828 -0.8266  3.3746
 6623SOL     OW31501   4.614   3.216  12.769  0.1062  0.3109  0.1130
 6623SOL    HW131502   4.692   3.270  12.783 -0.3876  0.7194  1.2549
 6623SOL    HW231503   4.647   3.129  12.791  0.2562  0.6100  1.0796
 6624SOL     OW31504   2.706   1.460  10.477 -0.0812 -0.3762  0.5680
 6624SOL    HW131505   2.779   1.412  10.516  0.7040  0.2206 -0.1555
 6624SOL    HW231506   2.758   1.525  10.429 -1.5550  1.0858  0.9309
 6625SOL     OW31507   1.903   1.772   4.475 -0.0456  0.3936 -0.1942
 6625SOL    HW131508   1.878   1.838   4.540  0.8288 -0.2076  0.7533
 6625SOL    HW231509   1.947   1.711   4.535 -0.3468  1.8104  1.4765
 6626SOL     OW31510   3.903   2.534   5.788  0.9229 -0.3023  0.0101
 6626SOL    HW131511   3.898   2.606   5.852  1.2135 -1.1347  0.9632
 6626SOL    HW231512   3.904   2.456   5.844 -2.2799 -1.3215 -1.4047
 6627SOL     OW31513   4.660   0.065  15.236  0.2051  0.0295 -0.3795
 6627SOL    HW131514   4.576   0.111  15.243 -1.1093 -2.4201  0.0021
 6627SOL    HW231515   4.711   0.109  15.304 -1.5199 -1.5623  1.9577
 6628SOL     OW31516   3.812   3.662  14.452  0.2071  0.5014  0.4295
 6628SOL    HW131517   3.833   3.730  14.387  0.2170 -0.1092 -0.2012
 6628SOL    HW231518   3.724   3.687  14.478 -1.2511 -0.5256 -3.5366
 6629SOL     OW31519   2.705   1.121   4.366  0.5177  0.0099 -0.5624
 6629SOL    HW131520   2.763   1.157   4.433  1.1425  0.6296 -1.4309
 6629SOL    HW231521   2.647   1.193   4.343  0.6384 -0.5488 -2.6637
 6630SOL     OW31522   0.550   4.279  15.889  0.2185 -0.3082 -0.2769
 6630SOL    HW131523   0.491   4.352  15.905  1.6475  0.7162  0.3145
 6630SOL    HW231524   0.637   4.310  15.915  0.0876 -1.3696  1.4042
 6631SOL     OW31525   3.041   0.829   5.034 -0.1857 -0.8013 -0.3335
 6631SOL    HW131526   2.966   0.805   5.089  0.5705  0.3344  1.2022
 6631SOL    HW231527   2.996   0.841   4.950  0.1717  1.2303 -0.2333
 6632SOL     OW31528   1.863   0.827  12.216  0.4161 -0.2833 -0.4420
 6632SOL    HW131529   1.802   0.882  12.264 -0.7542  1.2288 -3.6581
 6632SOL    HW231530   1.918   0.890  12.171  0.2293  1.8836  2.3675
 6633SOL     OW31531   2.563   3.480   5.010  0.0034  0.7127 -0.3867
 6633SOL    HW131532   2.487   3.535   4.992 -1.7202 -0.9240  1.9541
 6633SOL    HW231533   2.583   3.510   5.099 -1.4533  0.0087  0.1781
 6634SOL     OW31534   3.134   3.229   5.017  0.6235  0.2760  0.4355
 6634SOL    HW131535   3.173   3.168   5.079  2.5370  0.2407 -0.7967
 6634SOL    HW231536   3.044   3.198   5.022  0.0727  1.8808  0.4320
 6635SOL     OW31537   4.129   2.320   8.267 -0.0179  0.6794  0.2273
 6635SOL    HW131538   4.143   2.274   8.349  0.9346  0.2773 -0.1607
 6635SOL    HW231539   4.034   2.326   8.252 -0.3033 -0.5161  1.5992
 6636SOL     OW31540   0.308   2.038   3.702  0.4629  0.3186  0.1325
 6636SOL    HW131541   0.288   2.023   3.609  0.8603 -0.7010  0.2073
 6636SOL    HW231542   0.381   2.099   3.694  1.7906 -1.4564 -1.2208
 6637SOL     OW31543   3.394   3.171  16.962  0.1859 -0.7713 -0.1027
 6637SOL    HW131544   3.381   3.190  16.869 -1.6328  2.3284  0.7783
 6637SOL    HW231545   3.330   3.229  17.003  0.4176  2.0879 -3.7043
 6638SOL     OW31546   3.950   3.749   6.706 -0.6599 -0.0320 -0.0463
 6638SOL    HW131547   3.871   3.695   6.703 -1.2522  0.8951 -1.8968
 6638SOL    HW231548   4.007   3.710   6.771 -0.0681  0.8675 -0.0216
 6639SOL     OW31549   0.847   3.176   8.605 -0.1276 -0.1221  0.2825
 6639SOL    HW131550   0.911   3.127   8.553 -1.4277  0.0236 -1.4557
 6639SOL    HW231551   0.876   3.160   8.695 -0.0432  0.7624  0.4070
 6640SOL     OW31552   0.912   2.088   2.586 -0.3209  0.4114 -0.3611
 6640SOL    HW131553   0.878   2.170   2.550 -0.5159 -0.6821 -2.6965
 6640SOL    HW231554   0.941   2.097   2.677 -0.6606 -0.1909 -0.1863
 6641SOL     OW31555   1.957   2.926   3.063 -1.0013  0.3962 -0.3141
 6641SOL    HW131556   1.893   2.983   3.106 -0.6902 -0.4285  1.2101
 6641SOL    HW231557   1.966   2.978   2.982 -0.7703  1.9721  0.7184
 6642SOL     OW31558   0.862   1.263   8.813 -0.1253 -0.5673  0.3611
 6642SOL    HW131559   0.788   1.291   8.867  1.1035  2.4187  0.5029
 6642SOL    HW231560   0.818   1.197   8.760 -2.6272 -0.4204  2.2469
 6643SOL     OW31561   3.574   1.101   2.103  0.0170  0.0161 -0.2534
 6643SOL    HW131562   3.594   1.155   2.027  2.4168  1.3928  1.3355
 6643SOL    HW231563   3.622   1.022   2.078  1.4423  0.5827  0.6254
 6644SOL     OW31564   2.488   2.362  15.733 -0.7896 -0.4749  0.0793
 6644SOL    HW131565   2.420   2.429  15.728  1.2355  1.5093 -0.9062
 6644SOL    HW231566   2.561   2.407  15.775 -0.3986 -0.5173 -0.5556
 6645SOL     OW31567   2.209   4.064   5.521 -0.1074 -0.1902  0.2116
 6645SOL    HW131568   2.162   4.068   5.604  0.5190  3.0770  0.4208
 6645SOL    HW231569   2.166   4.135   5.474  0.6705 -0.7175 -1.3304
 6646SOL     OW31570   3.343   1.884   9.205 -1.2428  0.4854 -0.4606
 6646SOL    HW131571   3.316   1.815   9.145  0.9922 -0.3062 -0.5754
 6646SOL    HW231572   3.337   1.963   9.153  1.5183  0.1245 -1.3630
 6647SOL     OW31573   1.626   4.160  14.735 -0.2782 -0.0758  0.5568
 6647SOL    HW131574   1.572   4.082  14.731 -0.2315 -0.0042 -1.4981
 6647SOL    HW231575   1.656   4.162  14.644 -1.4663 -1.7438  0.1427
 6648SOL     OW31576   1.509   2.504   0.064 -0.0325  0.0408 -0.6896
 6648SOL    HW131577   1.540   2.462  17.749  2.7716  1.0626 -0.1433
 6648SOL    HW231578   1.582   2.564   0.082 -0.6851  1.6365 -3.4617
 6649SOL     OW31579   0.507   2.604   3.426 -0.2543 -0.5783  0.1158
 6649SOL    HW131580   0.589   2.583   3.382 -1.4609  0.4911 -2.6628
 6649SOL    HW231581   0.519   2.691   3.464 -0.4877  0.4047 -2.0448
 6650SOL     OW31582   2.997   2.214  15.455  0.0254 -0.1330 -0.5149
 6650SOL    HW131583   2.933   2.207  15.526 -0.2814  0.9352 -0.6889
 6650SOL    HW231584   3.074   2.223  15.511  0.7375  1.7599 -1.7825
 6651SOL     OW31585   0.246   1.040  16.828  0.2222 -0.3541  0.4435
 6651SOL    HW131586   0.242   1.087  16.744  0.6759 -0.5650  0.2991
 6651SOL    HW231587   0.156   1.010  16.838  0.2155 -0.5955 -0.2929
 6652SOL     OW31588   4.137   2.045   4.388  0.1886 -0.1710  0.3361
 6652SOL    HW131589   4.127   2.105   4.314  2.3131  0.0601  0.2435
 6652SOL    HW231590   4.098   1.966   4.351 -1.3395 -1.8734  5.4822
 6653SOL     OW31591   2.842   2.662   0.153 -0.1593  0.0905  0.3918
 6653SOL    HW131592   2.930   2.677   0.119 -0.4451  0.1927 -0.2872
 6653SOL    HW231593   2.792   2.668   0.072  1.0478  0.8216 -0.3007
 6654SOL     OW31594   4.602   3.882   6.695 -0.3736  0.3235  0.0961
 6654SOL    HW131595   4.566   3.886   6.607 -1.0986  2.5810  0.4869
 6654SOL    HW231596   4.620   3.788   6.704  0.6840  0.5613  0.4752
 6655SOL     OW31597   1.243   4.664   6.744 -0.4688 -0.2007 -0.0908
 6655SOL    HW131598   1.291   4.738   6.782 -0.1769  0.1208 -1.0680
 6655SOL    HW231599   1.296   4.637   6.668  0.3068 -0.5326  0.5730
 6656SOL     OW31600   2.321   1.928   7.852  0.2703  0.4419  0.0811
 6656SOL    HW131601   2.249   1.965   7.802  1.8289  0.1115 -2.4759
 6656SOL    HW231602   2.344   1.861   7.787  0.5995  0.5338  0.1015
 6657SOL     OW31603   1.874   1.472  12.634  0.1427 -0.5736  0.0426
 6657SOL    HW131604   1.846   1.559  12.663 -0.0534 -0.3467 -0.8179
 6657SOL    HW231605   1.958   1.501  12.599  0.4599 -1.5459 -0.0132
 6658SOL     OW31606   1.112   1.953   4.186  0.0551  0.0755 -0.7541
 6658SOL    HW131607   1.106   1.871   4.235 -2.4780  1.0211  0.5345
 6658SOL    HW231608   1.196   1.946   4.141  0.9916 -1.0568  1.1797
 6659SOL     OW31609   0.501   1.966  13.069  0.0803 -0.0289  0.0002
 6659SOL    HW131610   0.441   1.988  13.139 -1.2967  0.2688 -1.2761
 6659SOL    HW231611   0.526   2.048  13.027  0.4573  0.0778  0.4313
 6660SOL     OW31612   4.515   1.601   0.740  0.4944 -0.2858 -0.3604
 6660SOL    HW131613   4.540   1.664   0.672  0.9870 -1.3992 -1.2055
 6660SOL    HW231614   4.436   1.562   0.702 -0.1942  1.2381 -0.4735
 6661SOL     OW31615   0.429   4.448   4.140  0.1243  0.3487 -0.2445
 6661SOL    HW131616   0.443   4.492   4.223  0.8932 -0.4944  0.0744
 6661SOL    HW231617   0.501   4.385   4.141  0.3602  0.6315  0.5669
 6662SOL     OW31618   3.729   0.932   4.030  0.1503 -0.1237 -0.6490
 6662SOL    HW131619   3.813   0.976   4.021  0.4992 -0.5871  0.3324
 6662SOL    HW231620   3.689   0.982   4.102 -0.8165 -2.2642  0.3204
 6663SOL     OW31621   1.104   3.861   9.069 -0.7902 -0.3640  0.1792
 6663SOL    HW131622   1.150   3.855   8.985  1.9626  0.9538  1.5932
 6663SOL    HW231623   1.074   3.774   9.097 -2.4455 -0.0095 -0.4906
 6664SOL     OW31624   1.989   4.418  12.091 -0.4471  0.1071  0.4975
 6664SOL    HW131625   1.914   4.478  12.091  1.8306  2.9043  1.5493
 6664SOL    HW231626   1.955   4.330  12.106 -0.8885  0.0797 -0.6523
 6665SOL     OW31627   4.475   3.678  15.543 -0.1623 -0.2270 -0.1390
 6665SOL    HW131628   4.419   3.744  15.501  0.5724 -0.7139 -1.8727
 6665SOL    HW231629   4.547   3.670  15.481  0.7119 -0.4582  0.9223
 6666SOL     OW31630   0.967   3.883  10.949  0.7067  0.5294  0.4385
 6666SOL    HW131631   0.946   3.789  10.955  1.5347  0.5757  4.0851
 6666SOL    HW231632   1.014   3.899  10.868  1.0791 -3.3570 -0.1368
 6667SOL     OW31633   3.611   0.385   1.348 -0.6047  0.8534 -0.2591
 6667SOL    HW131634   3.669   0.371   1.423  0.8409 -0.4899 -1.6083
 6667SOL    HW231635   3.665   0.458   1.317 -0.9664  0.7651 -1.1032
 6668SOL     OW31636   2.937   0.705  14.735  0.1191 -0.3300 -0.0262
 6668SOL    HW131637   2.992   0.782  14.720  1.7034 -1.0855  1.8416
 6668SOL    HW231638   2.853   0.749  14.744 -0.4729 -0.8256 -3.2109
 6669SOL     OW31639   3.126   0.532  11.554 -0.0441  0.0632 -0.4498
 6669SOL    HW131640   3.032   0.547  11.544 -0.0014 -0.0989 -1.1126
 6669SOL    HW231641   3.122   0.449  11.505  1.3666 -1.1398  1.4773
 6670SOL     OW31642   1.977   1.630   6.543 -0.0918 -0.2678 -0.6692
 6670SOL    HW131643   2.037   1.556   6.533 -0.4285 -0.3628 -2.0005
 6670SOL    HW231644   1.912   1.590   6.601 -0.2196  0.2328 -0.4722
 6671SOL     OW31645   0.101   4.262   9.575 -0.0122 -0.3039 -0.1749
 6671SOL    HW131646   0.157   4.338   9.560  0.0748 -0.2262  0.5509
 6671SOL    HW231647   0.165   4.196   9.601  0.5697  0.5933  0.7024
 6672SOL     OW31648   3.197   0.359   4.044 -0.8560 -0.2223  0.0075
 6672SOL    HW131649   3.286   0.393   4.040 -0.6055 -0.9136 -0.4187
 6672SOL    HW231650   3.143   0.438   4.044  2.3674  1.9376  0.1847
 6673SOL     OW31651   0.138   3.058   3.943 -0.3076 -0.8415  0.2916
 6673SOL    HW131652   0.177   3.134   3.985  1.2596 -2.3688  1.6507
 6673SOL    HW231653   0.098   3.008   4.014 -0.7957 -1.0281 -0.1152
 6674SOL     OW31654   1.601   0.577  13.490 -0.1481 -0.2203 -0.0213
 6674SOL    HW131655   1.693   0.552  13.485 -0.3998 -1.0789 -0.3860
 6674SOL    HW231656   1.581   0.517  13.561 -0.4628  0.6121  0.5902
 6675SOL     OW31657   2.674   2.271   3.762  0.2096  0.4115  0.5131
 6675SOL    HW131658   2.623   2.340   3.803  1.7810  1.8601  0.0213
 6675SOL    HW231659   2.719   2.241   3.841 -1.7986  0.5330  1.7103
 6676SOL     OW31660   2.267   3.264   5.289  0.1930  0.4660  0.2689
 6676SOL    HW131661   2.360   3.246   5.280 -0.4210 -2.4575 -0.1649
 6676SOL    HW231662   2.269   3.359   5.275 -0.5493  0.5917  1.0305
 6677SOL     OW31663   4.365   4.314   3.408 -0.3718 -0.2486 -0.3512
 6677SOL    HW131664   4.435   4.334   3.346 -1.1833 -0.5914 -1.3835
 6677SOL    HW231665   4.292   4.296   3.349 -0.0608 -3.0009  0.1211
 6678SOL     OW31666   3.433   1.048   2.589 -0.2967 -0.4606 -0.4441
 6678SOL    HW131667   3.505   0.986   2.578 -1.1259 -1.3158 -1.0059
 6678SOL    HW231668   3.361   1.017   2.535 -1.9781  0.7624  1.1123
 6679SOL     OW31669   2.252   3.794   5.448 -0.5371  0.1896 -0.4758
 6679SOL    HW131670   2.239   3.801   5.354  0.3661  0.2948 -0.5870
 6679SOL    HW231671   2.220   3.878   5.482  0.6341  0.7719 -0.8425
 6680SOL     OW31672   0.503   3.807   1.358  0.0025  0.1569  0.1177
 6680SOL    HW131673   0.521   3.768   1.272  1.6690  0.5000  0.3108
 6680SOL    HW231674   0.564   3.756   1.412 -1.2558  0.1659  1.5538
 6681SOL     OW31675   2.314   1.337   3.635  0.1353  0.1624  0.0223
 6681SOL    HW131676   2.290   1.245   3.624  0.9161 -0.1640  1.0753
 6681SOL    HW231677   2.375   1.343   3.562  0.3621 -2.6786 -0.0181
 6682SOL     OW31678   1.358   3.439   8.321  0.1190  0.3988  0.3263
 6682SOL    HW131679   1.359   3.353   8.361  1.0535  0.7915  1.1443
 6682SOL    HW231680   1.378   3.499   8.393 -0.4730 -0.5331  1.2625
 6683SOL     OW31681   1.228   0.303  12.350 -0.3544 -0.0882 -0.1202
 6683SOL    HW131682   1.291   0.331  12.284 -1.9697  0.3548 -1.4776
 6683SOL    HW231683   1.281   0.308  12.429  1.4524 -0.1347 -1.3307
 6684SOL     OW31684   3.791   0.912   1.136  0.2143  0.5916  0.0495
 6684SOL    HW131685   3.849   0.984   1.111  1.4699 -0.4098  0.0518
 6684SOL    HW231686   3.804   0.885   1.227 -2.0811 -1.7897 -0.3115
 6685SOL     OW31687   2.079   1.060  16.547  0.3250 -0.2288  0.8571
 6685SOL    HW131688   2.039   0.974  16.561  1.8081 -1.0486  0.1477
 6685SOL    HW231689   2.040   1.061  16.459  1.4088 -0.5948  0.3636
 6686SOL     OW31690   1.886   2.137   2.995 -0.1196 -0.6710 -0.2299
 6686SOL    HW131691   1.852   2.226   2.995 -1.6163 -1.2570 -1.6696
 6686SOL    HW231692   1.876   2.117   2.902  1.3870  0.8477 -0.7228
 6687SOL     OW31693   2.551   3.522   7.300  0.1889  0.4082 -0.2920
 6687SOL    HW131694   2.567   3.436   7.261 -1.9005 -0.0129 -0.2308
 6687SOL    HW231695   2.620   3.531   7.366 -0.4824 -0.4675  0.5177
 6688SOL     OW31696   4.400   2.590  16.911 -0.5571  0.3304  0.3764
 6688SOL    HW131697   4.324   2.537  16.933 -1.0874  0.4083 -1.2668
 6688SOL    HW231698   4.367   2.669  16.868  2.6066  0.9797 -0.8955
 6689SOL     OW31699   4.296   2.283   2.823 -0.6405 -0.1882  0.4832
 6689SOL    HW131700   4.354   2.267   2.896  1.4033  0.0764 -1.0811
 6689SOL    HW231701   4.309   2.205   2.770  0.6787 -1.8156  3.2350
 6690SOL     OW31702   4.725   2.826   6.802 -0.2133  0.2626  0.1359
 6690SOL    HW131703   4.663   2.819   6.875 -0.2661  1.1699  0.1768
 6690SOL    HW231704   0.009   2.916   6.819 -1.8734  0.4538  1.7603
 6691SOL     OW31705   0.907   3.217   1.580 -0.5691  0.5268  0.1055
 6691SOL    HW131706   0.897   3.193   1.672 -0.2743 -0.3223 -0.0783
 6691SOL    HW231707   0.864   3.148   1.529 -0.3560  0.1964  0.3701
 6692SOL     OW31708   4.258   1.571   0.326  0.2063 -0.0206  0.0863
 6692SOL    HW131709   4.258   1.482   0.291  3.9407  0.3048 -0.7789
 6692SOL    HW231710   4.346   1.603   0.306  0.4446 -2.0538 -2.0994
 6693SOL     OW31711   2.982   2.882  11.837 -0.2452  0.6861  0.1714
 6693SOL    HW131712   2.923   2.947  11.800 -2.3922  1.0583  4.3179
 6693SOL    HW231713   2.950   2.797  11.806  0.2124 -0.0448  1.7037
 6694SOL     OW31714   1.120   1.236   6.139 -0.1541 -0.3266  0.1618
 6694SOL    HW131715   1.124   1.156   6.191 -1.3377 -0.6063 -0.1756
 6694SOL    HW231716   1.026   1.234   6.119 -0.0678  1.8812 -0.4665
 6695SOL     OW31717   0.978   4.581   2.581  0.3042  0.2860  0.0197
 6695SOL    HW131718   0.965   4.580   2.486 -0.5889  1.6957  0.1244
 6695SOL    HW231719   0.933   4.502   2.609 -0.4587  0.6038 -0.3071
 6696SOL     OW31720   1.454   3.418  14.030  0.1934  0.4615  0.2976
 6696SOL    HW131721   1.515   3.349  14.004 -0.3139 -1.1200  3.2781
 6696SOL    HW231722   1.377   3.362  14.042  0.7806 -0.1529  1.1905
 6697SOL     OW31723   3.752   0.895   3.237  0.7509  0.1988  0.4039
 6697SOL    HW131724   3.760   0.801   3.226  3.0717  0.7959 -2.8529
 6697SOL    HW231725   3.767   0.925   3.147 -1.2249  0.6040  0.2036
 6698SOL     OW31726   2.823   3.644  11.298  0.2953  0.6814  0.6817
 6698SOL    HW131727   2.890   3.636  11.231 -1.5233  0.7165 -1.1388
 6698SOL    HW231728   2.834   3.726  11.347  1.1756  1.7098 -1.2433
 6699SOL     OW31729   0.272   0.859   7.903 -0.2072 -0.4395  0.1063
 6699SOL    HW131730   0.353   0.823   7.939  1.4970  1.2902 -1.9654
 6699SOL    HW231731   0.305   0.943   7.871 -0.8734 -1.2997 -2.8321
 6700SOL     OW31732   2.144   3.887   2.185 -0.5301 -0.1756 -0.1666
 6700SOL    HW131733   2.112   3.828   2.254  0.3088  1.2447  1.4295
 6700SOL    HW231734   2.190   3.827   2.126 -0.4268  0.5449 -0.8113
 6701SOL     OW31735   1.195   3.421  12.000 -0.2272  0.1480  0.1406
 6701SOL    HW131736   1.270   3.418  11.941  0.7337  2.6756  1.2534
 6701SOL    HW231737   1.187   3.331  12.030  2.0005  1.0229  3.3523
 6702SOL     OW31738   4.478   0.948   3.398 -0.3517 -0.0052  0.0500
 6702SOL    HW131739   4.474   1.041   3.423  1.0008  0.1807 -0.4291
 6702SOL    HW231740   4.537   0.928   3.471  0.9578 -0.7951 -1.2380
 6703SOL     OW31741   2.856   0.910   1.784  0.3581 -0.5955  0.0602
 6703SOL    HW131742   2.877   0.849   1.855 -0.7657  2.4235  3.0059
 6703SOL    HW231743   2.916   0.981   1.803 -0.4613  0.3694 -0.9466
 6704SOL     OW31744   4.656   3.539   4.008  0.2593 -0.5097 -0.5658
 6704SOL    HW131745   4.655   3.635   4.002 -1.9249 -0.3450  2.6536
 6704SOL    HW231746   4.561   3.536   4.021  0.3342 -2.5723 -0.5349
 6705SOL     OW31747   1.407   1.577   5.535  0.3773  0.1955  0.3203
 6705SOL    HW131748   1.321   1.563   5.496  0.3669  1.1326  0.0035
 6705SOL    HW231749   1.412   1.501   5.593 -0.2867 -0.3899 -0.4069
 6706SOL     OW31750   1.383   0.124   3.491 -0.2413 -1.0306  0.7540
 6706SOL    HW131751   1.326   0.061   3.447 -0.1353  0.5879 -1.6859
 6706SOL    HW231752   1.387   0.082   3.577 -0.0705  0.2378  1.3639
 6707SOL     OW31753   1.771   3.970  15.487 -0.1029 -0.0476 -0.1740
 6707SOL    HW131754   1.771   3.931  15.574  0.7935  0.6653  0.1523
 6707SOL    HW231755   1.678   3.956  15.470 -0.2093  0.4152  0.0244
 6708SOL     OW31756   3.391   4.706   7.240 -0.3910 -0.5768 -0.5720
 6708SOL    HW131757   3.317   4.690   7.299  0.5120 -0.8330  0.4928
 6708SOL    HW231758   3.419   0.043   7.286 -1.0943  0.9299 -2.7864
 6709SOL     OW31759   4.442   4.651   2.230  0.1011  0.3432 -0.2273
 6709SOL    HW131760   4.460   4.599   2.152  1.9414  0.4436  0.1358
 6709SOL    HW231761   4.531   4.642   2.263  0.0248 -0.5241 -0.2468
 6710SOL     OW31762   2.399   2.595   4.718 -0.3110 -0.3597 -0.3509
 6710SOL    HW131763   2.343   2.664   4.754  0.3072  0.1018 -0.2809
 6710SOL    HW231764   2.485   2.637   4.719 -1.0069  1.0935 -1.4326
 6711SOL     OW31765   3.525   2.830   7.836  0.6220 -0.2863 -0.4932
 6711SOL    HW131766   3.566   2.914   7.817  0.7657  0.0153  1.1034
 6711SOL    HW231767   3.449   2.835   7.778 -0.7650 -1.5619  1.1754
 6712SOL     OW31768   0.074   2.187   7.166 -0.8464 -0.4890  0.4707
 6712SOL    HW131769   0.150   2.207   7.221 -0.0302 -1.3975 -0.3138
 6712SOL    HW231770   0.006   2.220   7.224 -0.2608  2.4402 -0.5068
 6713SOL     OW31771   4.362   1.824  11.990 -0.4709  0.2574  0.6952
 6713SOL    HW131772   4.271   1.850  11.980 -0.7255 -1.2063 -0.6947
 6713SOL    HW231773   4.388   1.887  12.058 -0.2575 -1.2354  2.0079
 6714SOL     OW31774   0.079   1.999   8.414 -0.0940  0.1178 -0.3243
 6714SOL    HW131775   0.087   1.915   8.460  1.0672 -0.1469 -1.0030
 6714SOL    HW231776   4.734   1.987   8.377 -0.1609  1.0945 -0.4858
 6715SOL     OW31777   2.183   1.837   6.758 -0.2913 -0.2971  0.0114
 6715SOL    HW131778   2.191   1.824   6.853 -1.3766 -1.6734 -0.0782
 6715SOL    HW231779   2.232   1.914   6.733 -1.1762 -0.3665 -1.9130
 6716SOL     OW31780   0.145   3.651  13.671 -0.4548 -0.1565  0.3026
 6716SOL    HW131781   0.138   3.560  13.701 -0.4121 -0.7331 -1.4113
 6716SOL    HW231782   0.232   3.653  13.632 -0.6987 -1.8943 -0.3437
 6717SOL     OW31783   3.206   2.174   9.622  0.6365 -0.2943  0.6888
 6717SOL    HW131784   3.222   2.133   9.537  3.0810 -1.6776  1.8096
 6717SOL    HW231785   3.121   2.206   9.593  0.6809 -1.1771 -0.4086
 6718SOL     OW31786   2.324   1.768   7.261 -0.3215 -0.4324 -0.7701
 6718SOL    HW131787   2.343   1.675   7.272  1.1630  0.3856  3.3540
 6718SOL    HW231788   2.382   1.806   7.327 -1.2602 -2.1403  1.0275
 6719SOL     OW31789   1.384   1.440  16.967  0.5848 -0.0313 -0.2843
 6719SOL    HW131790   1.442   1.403  17.033  1.2420 -0.1935 -0.9498
 6719SOL    HW231791   1.455   1.466  16.908  0.9122  2.3973  1.1676
 6720SOL     OW31792   0.588   1.445   8.305  0.3305  0.3964  0.0898
 6720SOL    HW131793   0.524   1.484   8.246 -1.1712 -1.2594  0.6341
 6720SOL    HW231794   0.651   1.411   8.241 -0.2864 -2.9906  1.2637
 6721SOL     OW31795   2.671   0.280   2.906 -0.0418 -0.7415 -0.0993
 6721SOL    HW131796   2.746   0.294   2.964 -0.8969  1.9390  0.3707
 6721SOL    HW231797   2.637   0.193   2.926 -0.2341 -0.8940 -1.0750
 6722SOL     OW31798   0.143   4.579   5.191 -0.0186 -0.2993 -0.1686
 6722SOL    HW131799   0.167   4.660   5.147 -1.7939 -0.3029 -1.1332
 6722SOL    HW231800   0.226   4.533   5.203  0.9027  1.4158 -0.0211
 6723SOL     OW31801   3.502   0.634   9.206  0.5995 -0.0869 -0.2294
 6723SOL    HW131802   3.430   0.616   9.267  0.8253  1.0249  0.3680
 6723SOL    HW231803   3.515   0.720   9.246 -3.7478  0.6440 -0.4451
 6724SOL     OW31804   0.384   1.029   2.027 -0.0845  0.6289 -0.2058
 6724SOL    HW131805   0.375   1.025   2.122 -1.5949 -0.9312 -0.4219
 6724SOL    HW231806   0.455   0.966   2.012  0.9777  1.7474  0.0594
 6725SOL     OW31807   4.255   3.879   1.559 -0.0457 -0.1381 -0.4519
 6725SOL    HW131808   4.330   3.863   1.501  1.3797 -0.1888  1.3941
 6725SOL    HW231809   4.218   3.791   1.557 -3.2490  1.1683  1.3423
 6726SOL     OW31810   3.763   0.303  10.416  0.1689 -0.3333  0.1314
 6726SOL    HW131811   3.857   0.313  10.399 -0.0357  0.0000 -0.7994
 6726SOL    HW231812   3.727   0.308  10.328  0.1547 -0.8503  0.1075
 6727SOL     OW31813   2.961   0.948   2.947  0.1961  0.0091 -0.6455
 6727SOL    HW131814   2.966   1.002   2.868 -1.3700  0.0856 -0.6798
 6727SOL    HW231815   3.049   0.977   2.971 -0.4979  2.1637 -0.7154
 6728SOL     OW31816   1.416   2.206   5.920 -0.0090 -0.1103 -0.2024
 6728SOL    HW131817   1.500   2.164   5.937 -1.1170 -2.1927  0.2030
 6728SOL    HW231818   1.356   2.135   5.945  1.3117 -1.4100 -0.6776
 6729SOL     OW31819   3.440   3.398   4.618  0.4988  0.0884 -0.1238
 6729SOL    HW131820   3.423   3.408   4.712 -0.2366  1.8019 -0.4558
 6729SOL    HW231821   3.472   3.485   4.597  0.8331 -0.2991 -1.2211
 6730SOL     OW31822   0.862   1.616  16.104  0.4412  0.2073  0.0327
 6730SOL    HW131823   0.850   1.691  16.161 -4.7868 -0.1118 -0.6726
 6730SOL    HW231824   0.774   1.600  16.071  0.5508  0.9622 -0.6354
 6731SOL     OW31825   0.083   1.204   5.136 -0.4891  0.0006  0.0575
 6731SOL    HW131826   0.107   1.291   5.166  0.6141 -0.1903 -0.2521
 6731SOL    HW231827   4.734   1.193   5.161 -0.1592  1.1152  1.6938
 6732SOL     OW31828   2.326   1.957   2.435  0.1175  0.1396  0.9240
 6732SOL    HW131829   2.382   1.886   2.465 -0.1547 -0.4388  0.0583
 6732SOL    HW231830   2.363   1.985   2.351 -0.8342 -0.3891  0.3321
 6733SOL     OW31831   4.715   3.135   1.938  0.9117 -0.4197  0.4688
 6733SOL    HW131832   4.671   3.171   1.861 -1.5322 -2.0342  1.1438
 6733SOL    HW231833   0.001   3.048   1.910  1.3522 -1.0920  3.0634
 6734SOL     OW31834   2.269   4.732   7.701 -0.0193  0.1029 -0.0781
 6734SOL    HW131835   2.351   4.715   7.748  1.3378  2.2230 -1.6958
 6734SOL    HW231836   2.227   0.022   7.781 -2.1463 -0.1364 -1.0914
 6735SOL     OW31837   3.297   2.521   5.063 -0.6579  0.0616  0.0283
 6735SOL    HW131838   3.383   2.557   5.042 -1.6716  1.9071 -0.9596
 6735SOL    HW231839   3.280   2.464   4.989 -2.2297  0.5030  0.0337
 6736SOL     OW31840   0.103   0.406   2.114 -0.0156 -0.2664  0.3690
 6736SOL    HW131841   0.045   0.402   2.190  0.4317 -1.2387  0.6604
 6736SOL    HW231842   0.183   0.394   2.164  0.4061 -2.0369 -0.7452
 6737SOL     OW31843   0.749   1.160   7.013 -0.5138  0.1147  0.5191
 6737SOL    HW131844   0.735   1.232   7.074 -0.7299  1.4579 -1.1313
 6737SOL    HW231845   0.698   1.184   6.935  0.5333 -0.4738 -0.3456
 6738SOL     OW31846   2.078   2.676   2.849  0.2346  0.1989 -0.3389
 6738SOL    HW131847   2.086   2.623   2.769 -0.7655 -0.8397  0.2464
 6738SOL    HW231848   2.130   2.750   2.819 -0.4025  1.7023  2.3125
 6739SOL     OW31849   1.803   2.667   2.772  0.2207 -0.4678  0.3702
 6739SOL    HW131850   1.827   2.654   2.680 -0.7308  0.5759 -0.0208
 6739SOL    HW231851   1.886   2.711   2.792  0.2533  0.3090 -1.4584
 6740SOL     OW31852   1.715   2.897   4.126 -0.4976 -0.2851 -0.2035
 6740SOL    HW131853   1.723   2.966   4.060 -1.0626  1.2624  1.3416
 6740SOL    HW231854   1.622   2.874   4.128 -0.4290 -0.7642 -1.9405
 6741SOL     OW31855   2.266   4.347  12.027  0.7714  0.5561  0.0652
 6741SOL    HW131856   2.252   4.400  11.949  0.7655 -0.0992 -0.3858
 6741SOL    HW231857   2.174   4.342  12.054  0.9108 -2.6218  0.0312
 6742SOL     OW31858   1.231   0.836   6.265 -0.5977 -0.6248  0.0802
 6742SOL    HW131859   1.242   0.925   6.297  1.6203 -1.9138  2.9851
 6742SOL    HW231860   1.140   0.821   6.291  0.1012  1.6556  3.8293
 6743SOL     OW31861   1.830   1.402   4.706  0.0229 -0.2178  0.1560
 6743SOL    HW131862   1.875   1.476   4.665  0.9091 -0.3695  0.8818
 6743SOL    HW231863   1.813   1.447   4.789 -1.3066  1.0458 -0.7881
 6744SOL     OW31864   2.819   3.091   4.241 -0.3981  0.4417 -0.2043
 6744SOL    HW131865   2.877   3.153   4.284  0.0305 -0.2532  0.2146
 6744SOL    HW231866   2.808   3.025   4.309  0.9573 -0.1018 -0.5104
 6745SOL     OW31867   3.249   0.855   9.424  0.4434  0.5148  0.0433
 6745SOL    HW131868   3.247   0.766   9.389  2.3377  1.4914 -2.5746
 6745SOL    HW231869   3.200   0.905   9.359  0.6274 -2.1527 -2.1437
 6746SOL     OW31870   2.531   4.347  16.858  0.0501  0.2984 -0.1460
 6746SOL    HW131871   2.502   4.312  16.942 -1.8969 -0.3781 -1.1209
 6746SOL    HW231872   2.512   4.271  16.803  0.0022 -0.7964  1.3917
 6747SOL     OW31873   1.141   3.484   3.138 -0.1981  0.1081  0.5988
 6747SOL    HW131874   1.084   3.556   3.113  1.2393 -0.3760 -4.1259
 6747SOL    HW231875   1.092   3.445   3.210  0.1744 -0.6718  0.4298
 6748SOL     OW31876   0.946   4.421  13.261  0.3415 -0.6504  0.8038
 6748SOL    HW131877   0.980   4.416  13.351  1.0075 -1.1439  0.5238
 6748SOL    HW231878   0.860   4.380  13.265 -1.0412  2.2659  1.4229
 6749SOL     OW31879   3.068   2.243   7.266  0.8196  0.1115 -0.2989
 6749SOL    HW131880   3.134   2.311   7.252  0.9320  0.9287  3.9159
 6749SOL    HW231881   3.056   2.195   7.185 -2.5734  0.6648 -0.1447
 6750SOL     OW31882   3.936   2.170   7.347 -0.4642 -0.8239  0.2267
 6750SOL    HW131883   3.912   2.162   7.255  1.4575 -0.6027 -0.2838
 6750SOL    HW231884   3.983   2.254   7.341  0.0059 -1.0941  0.1619
 6751SOL     OW31885   4.236   2.125   1.220  0.0328 -0.2115 -0.1586
 6751SOL    HW131886   4.300   2.083   1.277 -1.2646 -1.2700  0.5365
 6751SOL    HW231887   4.285   2.125   1.138  0.2038 -1.1711 -0.0537
 6752SOL     OW31888   1.581   3.500   2.391 -0.7885  0.3721  0.3116
 6752SOL    HW131889   1.542   3.580   2.356 -1.2757 -1.2715 -2.9590
 6752SOL    HW231890   1.526   3.430   2.357  0.1498  0.1707 -0.8395
 6753SOL     OW31891   1.875   1.962  13.297  0.6441  0.3648 -0.1775
 6753SOL    HW131892   1.869   2.009  13.213  1.2113  2.4082  0.9233
 6753SOL    HW231893   1.970   1.967  13.305  0.8626 -1.3533 -1.4923
 6754SOL     OW31894   3.238   2.351   7.085 -0.6655 -0.0552 -0.8388
 6754SOL    HW131895   3.326   2.376   7.060 -1.0533  0.1577 -1.9894
 6754SOL    HW231896   3.220   2.273   7.033  0.8015 -0.9111 -0.0537
 6755SOL     OW31897   0.328   1.291   9.317  0.0737  0.5419 -0.6564
 6755SOL    HW131898   0.337   1.203   9.355 -0.6493 -1.3306 -4.8111
 6755SOL    HW231899   0.335   1.277   9.222 -1.5892  0.0505 -0.7109
 6756SOL     OW31900   3.665   3.029   3.573  1.0016 -0.1874 -0.5216
 6756SOL    HW131901   3.615   3.073   3.505  1.0645 -0.2462 -0.6072
 6756SOL    HW231902   3.603   2.964   3.608  2.7201 -0.1346  2.6138
 6757SOL     OW31903   4.578   1.837   8.669 -0.0878 -0.2133 -0.5051
 6757SOL    HW131904   4.575   1.932   8.678 -3.3237 -0.2271 -1.3668
 6757SOL    HW231905   4.625   1.833   8.585 -1.0008 -0.6592 -0.9961
 6758SOL     OW31906   0.727   0.309   5.538  0.3032 -0.3683 -0.1383
 6758SOL    HW131907   0.811   0.341   5.506 -1.5052  3.3512 -1.1801
 6758SOL    HW231908   0.688   0.384   5.584 -2.3052 -2.1236  0.4796
 6759SOL     OW31909   2.882   4.703   7.737  0.0289  0.1153 -0.7111
 6759SOL    HW131910   2.916   4.624   7.779 -2.3951  0.0851  1.2250
 6759SOL    HW231911   2.846   4.661   7.659 -1.4769  0.3955 -0.1664
 6760SOL     OW31912   1.551   3.645   1.241 -0.4058  0.2605  0.3744
 6760SOL    HW131913   1.614   3.700   1.195 -0.1857  1.0409  1.6083
 6760SOL    HW231914   1.497   3.706   1.290 -0.1282  0.1168  0.8569
 6761SOL     OW31915   2.006   4.365   4.782  0.5796 -0.0472 -0.9349
 6761SOL    HW131916   1.963   4.450   4.792 -0.1236 -0.7418  2.0545
 6761SOL    HW231917   2.025   4.347   4.874  0.1269 -0.5214 -0.9370
 6762SOL     OW31918   1.099   1.785   4.451 -0.3600  0.1131 -0.4773
 6762SOL    HW131919   1.079   1.692   4.456 -0.1660  0.0964  0.0807
 6762SOL    HW231920   1.151   1.802   4.530  0.4843  1.6592 -1.3505
 6763SOL     OW31921   4.123   1.325   2.210 -0.2609 -0.6876  0.2833
 6763SOL    HW131922   4.117   1.415   2.176  1.2157  0.1072  2.1473
 6763SOL    HW231923   4.169   1.282   2.138 -0.8560 -0.8219 -0.0136
 6764SOL     OW31924   0.826   3.200  13.064 -0.6775 -0.3088  0.1941
 6764SOL    HW131925   0.922   3.202  13.061 -0.6129 -3.2603  0.2207
 6764SOL    HW231926   0.793   3.219  13.151 -0.9285 -0.9303  0.2332
 6765SOL     OW31927   0.055   3.150   3.254 -0.2667  0.3359 -0.0518
 6765SOL    HW131928   0.025   3.171   3.342  0.9653  1.7032  0.0398
 6765SOL    HW231929   0.026   3.232   3.214 -1.5662  0.1501  0.4982
 6766SOL     OW31930   2.673   2.074  10.033  0.7394 -0.5156  0.0307
 6766SOL    HW131931   2.611   2.144  10.011 -2.1197 -2.8078  0.7578
 6766SOL    HW231932   2.736   2.078   9.961 -0.5929 -3.7233 -1.3144
 6767SOL     OW31933   1.651   4.354   2.240  0.3247 -0.0194  0.2083
 6767SOL    HW131934   1.560   4.375   2.261 -0.0792  0.4026 -1.9402
 6767SOL    HW231935   1.695   4.439   2.244 -1.7525  1.0716 -0.2739
 6768SOL     OW31936   3.696   3.907   8.777 -0.7164 -0.3998 -0.5910
 6768SOL    HW131937   3.755   3.981   8.791  0.6696 -1.3491 -1.4862
 6768SOL    HW231938   3.753   3.832   8.792  0.1279  0.4297  0.3079
 6769SOL     OW31939   0.943   0.829   0.854  0.1178  0.3497  0.2276
 6769SOL    HW131940   1.016   0.885   0.829  0.6083 -0.1448  0.5458
 6769SOL    HW231941   0.954   0.803   0.945  1.0976  1.1852  0.3411
 6770SOL     OW31942   2.422   4.087   6.413  0.0906 -0.4261 -0.2310
 6770SOL    HW131943   2.402   4.181   6.412 -0.7327 -0.5933  0.2341
 6770SOL    HW231944   2.428   4.072   6.319  0.9559 -1.0340 -0.0683
 6771SOL     OW31945   0.989   0.136  11.566  0.1623  0.0955  0.2069
 6771SOL    HW131946   0.979   0.230  11.551  0.3274 -0.2232 -1.9123
 6771SOL    HW231947   1.010   0.100  11.480 -0.3629  1.5417 -0.5132
 6772SOL     OW31948   0.831   3.639  10.986 -0.0502  0.2318  0.7544
 6772SOL    HW131949   0.855   3.587  10.910 -1.6858  0.8625 -0.2021
 6772SOL    HW231950   0.752   3.586  10.999 -0.1941  0.2855  0.0797
 6773SOL     OW31951   0.136   0.494   8.898 -0.0253  0.7883 -0.6561
 6773SOL    HW131952   0.152   0.421   8.838 -0.9827 -1.7159  2.1149
 6773SOL    HW231953   0.049   0.527   8.873 -0.2390 -0.7780 -2.0115
 6774SOL     OW31954   2.077   4.433   7.310  0.2637  0.3113 -0.4416
 6774SOL    HW131955   2.146   4.497   7.296  0.5798 -0.2622 -1.5194
 6774SOL    HW231956   2.048   4.422   7.220  1.4464 -0.5210 -0.7072
 6775SOL     OW31957   3.361   0.852   7.114  0.2532  0.0441  0.0954
 6775SOL    HW131958   3.332   0.871   7.025  2.4720 -0.7949 -0.7898
 6775SOL    HW231959   3.402   0.766   7.106 -2.0513 -1.0677  0.2668
 6776SOL     OW31960   1.970   1.166  14.107  0.0258 -0.0874 -0.3682
 6776SOL    HW131961   2.047   1.150  14.052  2.0160  0.5413  2.2423
 6776SOL    HW231962   2.001   1.183  14.196 -1.3052  1.4100 -0.1892
 6777SOL     OW31963   2.090   1.014  13.530 -0.0904 -0.1423  0.0300
 6777SOL    HW131964   2.142   0.989  13.454 -1.0439 -0.1084 -0.6389
 6777SOL    HW231965   2.006   0.972  13.510 -1.0591  1.6736  0.3169
 6778SOL     OW31966   2.052   0.802   8.724  0.4458 -0.4022  0.4067
 6778SOL    HW131967   2.006   0.886   8.723  1.2980  0.0518 -1.1258
 6778SOL    HW231968   2.124   0.816   8.785  1.7463  0.1569 -1.2400
 6779SOL     OW31969   1.566   3.166  13.938 -0.2180 -0.3680 -0.3453
 6779SOL    HW131970   1.592   3.196  13.851 -2.9435 -0.9923 -1.3832
 6779SOL    HW231971   1.612   3.082  13.946  0.3571  0.0904  1.2201
 6780SOL     OW31972   2.093   0.603  15.287 -0.5173 -0.0744  0.1638
 6780SOL    HW131973   2.011   0.646  15.311  0.8171  2.0294  0.9807
 6780SOL    HW231974   2.149   0.670  15.327  0.1813  0.6938 -2.1271
 6781SOL     OW31975   3.975   3.969   6.189 -0.3342 -0.3395  0.1420
 6781SOL    HW131976   3.934   4.039   6.239  1.0108 -1.0913  2.2838
 6781SOL    HW231977   3.922   3.893   6.214 -2.9997  0.7640 -2.1287
 6782SOL     OW31978   2.488   1.409  17.185  0.8154 -0.1864 -0.4649
 6782SOL    HW131979   2.516   1.484  17.238 -0.9563 -0.7813  1.3228
 6782SOL    HW231980   2.570   1.359  17.188  1.7584  1.1828 -3.5972
 6783SOL     OW31981   0.629   0.089   9.962  0.2359  0.0789 -0.1077
 6783SOL    HW131982   0.554   0.115  10.015 -0.6981  0.3477 -1.5669
 6783SOL    HW231983   0.686   0.165   9.962 -0.7846  0.8454  1.0725
 6784SOL     OW31984   2.087   4.376   7.016  0.4854  0.9233 -0.3814
 6784SOL    HW131985   2.125   4.462   6.995 -1.7308  3.1013  4.4361
 6784SOL    HW231986   2.062   4.341   6.931  0.5817 -1.3571  0.5236
 6785SOL     OW31987   0.067   4.723  15.016 -0.0182 -1.0045  0.3736
 6785SOL    HW131988   0.152   4.728  15.059 -0.1700  0.0216  0.5700
 6785SOL    HW231989   0.009   4.738  15.091 -0.2009  0.8886 -0.1309
 6786SOL     OW31990   3.582   4.591  15.378 -0.0181  0.0097 -0.4709
 6786SOL    HW131991   3.516   4.550  15.434  0.1609  1.8730  1.1026
 6786SOL    HW231992   3.542   4.579  15.292  0.0752 -1.4273 -0.3073
 6787SOL     OW31993   4.060   4.592   1.409 -0.6302 -0.2384  0.1975
 6787SOL    HW131994   4.090   4.507   1.439 -0.4050 -0.4159 -0.5269
 6787SOL    HW231995   3.977   4.564   1.371 -1.0564  0.8088  0.3441
 6788SOL     OW31996   4.214   0.827  10.034  0.2575 -0.1393  0.3088
 6788SOL    HW131997   4.300   0.824  10.077  0.1391 -0.6774  0.5098
 6788SOL    HW231998   4.229   0.905   9.981  0.4025  0.6722  1.5491
 6789SOL     OW31999   3.188   3.898   9.364 -0.2093  0.2751  0.0498
 6789SOL    HW132000   3.264   3.948   9.393 -0.1213  0.3813 -0.3760
 6789SOL    HW232001   3.129   3.967   9.334 -1.8528 -0.2778  1.9902
 6790SOL     OW32002   2.328   3.425  11.811  0.2949 -0.3220  0.1084
 6790SOL    HW132003   2.392   3.473  11.864  0.7218  0.5309 -1.1794
 6790SOL    HW232004   2.267   3.499  11.811  1.0477  0.3051 -0.7465
 6791SOL     OW32005   1.953   2.832   9.489 -0.3674  0.5478 -0.3185
 6791SOL    HW132006   1.859   2.819   9.502 -0.5387 -0.7283 -2.8346
 6791SOL    HW232007   1.957   2.927   9.479 -3.0512  0.8193  1.2880
 6792SOL     OW32008   1.695   2.883  16.975 -0.2454 -0.0144 -0.1316
 6792SOL    HW132009   1.651   2.876  16.891  0.2837 -0.8289 -0.3389
 6792SOL    HW232010   1.788   2.873  16.953 -0.5128 -1.6456 -0.5153
 6793SOL     OW32011   0.789   1.148   1.319 -0.2580 -0.0938  0.0752
 6793SOL    HW132012   0.868   1.182   1.361  0.5648 -0.7619 -0.9350
 6793SOL    HW232013   0.715   1.208   1.332 -0.0166  0.3771 -0.7496
 6794SOL     OW32014   0.842   3.743   4.705  0.5346  0.0312  0.6230
 6794SOL    HW132015   0.823   3.650   4.691 -1.7099  0.4748  0.7114
 6794SOL    HW232016   0.847   3.778   4.616  0.2004  0.1145  0.6378
 6795SOL     OW32017   0.475   4.639   4.942  0.0783 -0.2146 -0.0321
 6795SOL    HW132018   0.561   4.615   4.908  0.1355 -1.6601  1.1313
 6795SOL    HW232019   0.432   4.683   4.869  1.7240 -1.2742 -1.6210
 6796SOL     OW32020   0.613   4.050   4.803 -0.2452 -0.2234  0.3324
 6796SOL    HW132021   0.640   4.010   4.720 -0.9495 -0.4137  0.1954
 6796SOL    HW232022   0.638   3.975   4.858  3.7669  2.1788  1.7471
 6797SOL     OW32023   0.929   2.350   2.435 -0.0011  0.2097 -0.0098
 6797SOL    HW132024   1.012   2.316   2.402  0.7899  1.7302  0.4187
 6797SOL    HW232025   0.937   2.444   2.425  0.9496 -0.2385 -3.4111
 6798SOL     OW32026   3.217   0.648   5.150  0.6978 -0.1977  0.0178
 6798SOL    HW132027   3.150   0.701   5.106  0.6941 -0.4665 -0.2988
 6798SOL    HW232028   3.224   0.690   5.236 -1.8726  1.1173 -0.4098
 6799SOL     OW32029   0.648   2.160   5.272  0.4729 -0.1049 -0.4941
 6799SOL    HW132030   0.573   2.193   5.221 -0.3420  1.3422  1.6622
 6799SOL    HW232031   0.702   2.239   5.264  1.9384 -1.2593 -2.2570
 6800SOL     OW32032   0.171   2.937   9.082 -0.3435 -0.6327  0.3830
 6800SOL    HW132033   0.118   3.010   9.050 -0.2173 -0.8204 -0.2592
 6800SOL    HW232034   0.207   2.896   9.004  0.6420 -0.6662  0.8525
 6801SOL     OW32035   2.213   3.782  15.095  0.3559 -0.6014 -0.1155
 6801SOL    HW132036   2.208   3.867  15.139 -1.0234 -1.4981  1.4554
 6801SOL    HW232037   2.134   3.735  15.121  0.0373  0.0501  0.1186
 6802SOL     OW32038   3.355   0.449   6.212  0.3396  0.6557  0.0900
 6802SOL    HW132039   3.354   0.452   6.117  1.5105 -1.9854 -0.0278
 6802SOL    HW232040   3.436   0.497   6.231  1.8922 -1.4998 -1.0356
 6803SOL     OW32041   0.606   0.249  16.410 -0.2906  0.5132  0.0196
 6803SOL    HW132042   0.669   0.195  16.456  0.3883 -0.3794 -1.9924
 6803SOL    HW232043   0.576   0.310  16.478 -0.2358 -0.1879  0.6765
 6804SOL     OW32044   3.111   3.600   5.616  0.1153 -0.0671 -0.1065
 6804SOL    HW132045   3.062   3.549   5.552  1.6464 -0.8789 -0.6317
 6804SOL    HW232046   3.169   3.657   5.566  0.3307  0.0673  0.2977
 6805SOL     OW32047   2.677   0.401   1.043 -0.2403  0.5070  0.2327
 6805SOL    HW132048   2.701   0.370   0.956  0.8294 -0.6842  0.9633
 6805SOL    HW232049   2.692   0.493   1.023 -0.7946  0.3365 -0.9639
 6806SOL     OW32050   4.652   4.562  14.829  0.4512  0.3648 -0.0364
 6806SOL    HW132051   4.706   4.600  14.898  2.2996  0.0157 -1.3017
 6806SOL    HW232052   4.639   4.474  14.863 -1.1621  0.0271 -1.5248
 6807SOL     OW32053   3.673   4.253  14.238 -0.1040  0.9918 -0.2061
 6807SOL    HW132054   3.755   4.266  14.286  0.2879  0.8692 -0.8385
 6807SOL    HW232055   3.627   4.336  14.245  2.8630  2.5287  0.9980
 6808SOL     OW32056   1.659   4.085   5.422 -0.4458 -0.2716 -0.2618
 6808SOL    HW132057   1.742   4.119   5.388 -0.9092  1.5323  0.4131
 6808SOL    HW232058   1.600   4.103   5.348  1.6492  2.3041 -1.3356
 6809SOL     OW32059   2.764   4.276  11.423  0.3036  0.4469  0.2205
 6809SOL    HW132060   2.812   4.271  11.340  2.4633 -1.3509  1.5635
 6809SOL    HW232061   2.822   4.221  11.477 -0.2294 -1.0441 -0.7289
 6810SOL     OW32062   4.160   2.741   3.572 -0.2454 -0.2936  0.1865
 6810SOL    HW132063   4.250   2.712   3.557 -0.1632  0.3492 -0.5708
 6810SOL    HW232064   4.102   2.676   3.531 -1.2158  1.6217 -1.4653
 6811SOL     OW32065   1.947   3.842   5.817 -0.1602 -0.2316 -0.3793
 6811SOL    HW132066   1.912   3.924   5.782 -0.8892 -0.9538 -1.3479
 6811SOL    HW232067   1.874   3.781   5.831 -1.3304  0.8179 -1.8834
 6812SOL     OW32068   0.640   0.913   7.702 -0.2358 -0.0341 -0.6074
 6812SOL    HW132069   0.720   0.872   7.733  0.2916  1.7600  0.4080
 6812SOL    HW232070   0.599   0.844   7.650  0.0270 -0.4018 -0.3259
 6813SOL     OW32071   3.336   2.022  17.535  0.1996 -0.2246  0.0211
 6813SOL    HW132072   3.378   1.941  17.564 -1.9826 -1.9064 -1.4932
 6813SOL    HW232073   3.301   2.048  17.620  0.6868  1.8863 -0.4478
 6814SOL     OW32074   3.796   1.423   4.466 -0.2109  0.1277 -0.5189
 6814SOL    HW132075   3.715   1.463   4.495  0.1564 -0.5572  1.4656
 6814SOL    HW232076   3.828   1.487   4.403 -0.2751  0.7579  0.0962
 6815SOL     OW32077   3.277   1.131  12.130  0.6918 -0.3864 -0.1362
 6815SOL    HW132078   3.262   1.172  12.215  1.0989 -1.4652  0.4582
 6815SOL    HW232079   3.328   1.053  12.155  1.5157  0.4752  0.8708
 6816SOL     OW32080   0.446   2.170   6.901  0.5706 -0.0532 -0.3872
 6816SOL    HW132081   0.537   2.141   6.889  0.5621 -1.3275  2.5341
 6816SOL    HW232082   0.400   2.086   6.889 -0.9591  0.5584  1.2171
 6817SOL     OW32083   1.352   1.443   6.972  0.4484 -0.3944  0.2038
 6817SOL    HW132084   1.262   1.420   6.949 -0.0852  1.5168  0.4212
 6817SOL    HW232085   1.384   1.479   6.890  2.2891 -0.8105  0.7242
 6818SOL     OW32086   3.651   4.541  12.446 -0.2235  0.1670 -0.3185
 6818SOL    HW132087   3.565   4.533  12.488  0.1905 -2.4130  0.0646
 6818SOL    HW232088   3.694   4.472  12.497  1.1337  1.9395  0.9309
 6819SOL     OW32089   1.230   3.937  10.780 -0.2682 -0.0880 -0.0763
 6819SOL    HW132090   1.247   3.919  10.687  0.2693 -1.2290  0.2424
 6819SOL    HW232091   1.183   4.020  10.767 -0.8895 -0.6288 -1.2904
 6820SOL     OW32092   0.697   0.046   6.423  0.1841  0.5607 -0.3877
 6820SOL    HW132093   0.766   0.032   6.358 -2.5331 -0.2500 -3.0979
 6820SOL    HW232094   0.691   4.708   6.477  2.3292 -0.1191 -1.1592
 6821SOL     OW32095   3.784   0.377   5.002 -0.2564 -0.9979  0.3237
 6821SOL    HW132096   3.852   0.371   5.069 -0.1607 -1.1759  0.2105
 6821SOL    HW232097   3.709   0.323   5.029 -1.8585  1.1303  0.0632
 6822SOL     OW32098   4.453   4.735   4.065  0.4548 -0.1388 -0.5299
 6822SOL    HW132099   4.417   0.081   4.076 -2.4890 -1.2734 -1.1718
 6822SOL    HW232100   4.543   4.742   4.032  0.1695  2.6839 -0.7161
 6823SOL     OW32101   0.444   1.424   1.131  0.1548  0.2388 -0.0097
 6823SOL    HW132102   0.514   1.488   1.148 -0.9764  1.6172 -0.5098
 6823SOL    HW232103   0.466   1.407   1.039 -0.9902 -0.7416 -0.0955
 6824SOL     OW32104   1.196   4.115  15.474 -0.0502 -0.8021  0.0687
 6824SOL    HW132105   1.210   4.021  15.460  1.5637 -0.3543 -1.3056
 6824SOL    HW232106   1.157   4.140  15.390 -0.1917 -2.2242 -0.3013
 6825SOL     OW32107   1.450   0.948   9.665 -0.0790 -0.1845 -0.3393
 6825SOL    HW132108   1.536   0.978   9.635  0.7009 -1.8468  0.2394
 6825SOL    HW232109   1.412   0.918   9.583 -1.5933  1.8570 -0.4041
 6826SOL     OW32110   2.061   2.494   1.868  0.2729  0.5730  0.0908
 6826SOL    HW132111   1.970   2.490   1.839  0.7607 -1.8434 -1.1213
 6826SOL    HW232112   2.074   2.406   1.904  0.5417  0.3162 -0.6325
 6827SOL     OW32113   0.327   3.237   4.027 -0.6526  0.2812  0.1116
 6827SOL    HW132114   0.395   3.262   3.965  0.0184 -0.9976  0.3272
 6827SOL    HW232115   0.375   3.191   4.096 -0.7743  1.4131  0.9471
 6828SOL     OW32116   2.554   4.179   8.648  0.1727 -0.3418 -0.3667
 6828SOL    HW132117   2.492   4.251   8.634  1.2694  0.4957 -0.9378
 6828SOL    HW232118   2.544   4.146   8.559  2.2106 -0.2724 -0.6256
 6829SOL     OW32119   4.359   3.491   6.509 -0.1416  0.1300 -0.0667
 6829SOL    HW132120   4.277   3.444   6.523 -1.7711  2.8163 -0.4310
 6829SOL    HW232121   4.417   3.427   6.549  0.0716 -0.8729 -1.9870
 6830SOL     OW32122   4.598   1.036   5.985 -0.1097  0.2968  0.1972
 6830SOL    HW132123   4.689   1.061   5.967 -0.0717 -0.6647 -0.9439
 6830SOL    HW232124   4.555   1.078   5.911 -1.5451  1.5876  1.7688
 6831SOL     OW32125   0.643   1.221   4.833  0.5345  0.0813  0.1707
 6831SOL    HW132126   0.729   1.188   4.804  0.0535  1.2918 -2.5789
 6831SOL    HW232127   0.658   1.215   4.927  0.0433  0.2278  0.2554
 6832SOL     OW32128   3.188   0.526   8.509  0.4001  0.1232  0.1292
 6832SOL    HW132129   3.274   0.502   8.476  0.9013  1.6453  0.3281
 6832SOL    HW232130   3.202   0.584   8.584  1.8897 -0.6447  0.4513
 6833SOL     OW32131   4.140   3.137   4.316 -0.4409  0.0279  0.3035
 6833SOL    HW132132   4.079   3.063   4.326  0.8868 -1.4220 -2.1715
 6833SOL    HW232133   4.093   3.205   4.363 -1.0654  1.2386 -2.0502
 6834SOL     OW32134   0.306   0.862   1.229 -0.0910  0.0948 -0.1228
 6834SOL    HW132135   0.353   0.928   1.177  2.0112  0.3466  2.1116
 6834SOL    HW232136   0.347   0.779   1.206  0.3992  0.6666 -1.2877
 6835SOL     OW32137   0.371   1.575   7.434 -0.2984  0.1780  0.4844
 6835SOL    HW132138   0.285   1.549   7.469 -0.5424 -0.7157 -0.7951
 6835SOL    HW232139   0.442   1.515   7.458 -2.4874 -3.2034 -1.4369
 6836SOL     OW32140   1.440   2.851   1.409  0.1188 -0.6061 -0.2193
 6836SOL    HW132141   1.366   2.879   1.462  1.8724  1.5539  1.1018
 6836SOL    HW232142   1.484   2.781   1.457 -1.6323 -1.0249  0.7755
 6837SOL     OW32143   4.584   4.111   0.488  0.0511 -0.2667  0.1497
 6837SOL    HW132144   4.505   4.080   0.533  0.0157 -2.1071 -1.2114
 6837SOL    HW232145   4.605   4.026   0.451 -0.9304 -1.5017  2.3942
 6838SOL     OW32146   4.015   2.490  11.835  0.0655 -0.5948  0.1529
 6838SOL    HW132147   3.939   2.479  11.778  0.2284  3.3550 -0.7855
 6838SOL    HW232148   4.040   2.576  11.801 -0.3448 -0.9654 -1.0783
 6839SOL     OW32149   3.825   4.158   8.805 -0.4328  0.8912 -0.0922
 6839SOL    HW132150   3.785   4.225   8.749  1.0072  3.4233  1.9204
 6839SOL    HW232151   3.792   4.188   8.889 -2.3323 -0.6755 -0.2651
 6840SOL     OW32152   0.863   2.294  14.750  0.4431  0.6195 -0.2756
 6840SOL    HW132153   0.787   2.276  14.806  0.5175  3.1386  0.6353
 6840SOL    HW232154   0.892   2.374  14.792 -0.5751  1.9698 -2.1620
 6841SOL     OW32155   4.528   3.384   1.664  0.5488  0.0658 -0.4845
 6841SOL    HW132156   4.441   3.395   1.703  0.9635 -0.0573  0.4773
 6841SOL    HW232157   4.509   3.333   1.585  0.0506  0.5071 -0.6563
 6842SOL     OW32158   0.992   3.776  16.057 -0.5671 -0.3606 -0.1078
 6842SOL    HW132159   0.983   3.812  15.969 -1.1241 -2.6237 -0.9838
 6842SOL    HW232160   0.949   3.844  16.109 -0.2771  0.9928 -1.6455
 6843SOL     OW32161   2.276   3.609   4.572  0.3718  0.0377 -0.2525
 6843SOL    HW132162   2.354   3.561   4.545  1.8467  0.9269  2.4345
 6843SOL    HW232163   2.240   3.558   4.644 -0.0316 -0.2084 -0.6277
 6844SOL     OW32164   0.031   4.358   4.630  0.4734 -0.5330  0.1130
 6844SOL    HW132165   4.703   4.403   4.677  0.8424  1.4140 -1.2177
 6844SOL    HW232166   0.007   4.360   4.537 -3.1860 -1.9036  1.0087
 6845SOL     OW32167   4.010   1.577   3.990 -0.3179  0.0352  0.2072
 6845SOL    HW132168   4.039   1.530   3.912 -1.0006  0.7575 -0.4877
 6845SOL    HW232169   4.092   1.605   4.031  0.0557 -1.4358  0.4664
 6846SOL     OW32170   2.830   4.143   1.240  0.0216  0.0875 -0.1473
 6846SOL    HW132171   2.775   4.111   1.312  2.0325  0.0665  1.3644
 6846SOL    HW232172   2.892   4.073   1.225 -1.7460 -1.2331 -1.2359
 6847SOL     OW32173   2.074   2.925  13.318 -0.3656  0.6348 -0.0253
 6847SOL    HW132174   2.165   2.933  13.344 -1.2657  1.0790  3.0129
 6847SOL    HW232175   2.098   2.879  13.238 -0.1338 -0.9991  0.9836
 6848SOL     OW32176   1.782   3.098  14.687  0.2038  0.3769 -0.0640
 6848SOL    HW132177   1.826   3.106  14.602 -0.4713  3.7361 -0.0970
 6848SOL    HW232178   1.716   3.167  14.686  0.8386  1.0060  1.2729
 6849SOL     OW32179   0.109   2.896   7.699  0.0916 -0.1153  0.2424
 6849SOL    HW132180   0.159   2.975   7.683  0.0271 -0.5545 -2.2116
 6849SOL    HW232181   0.092   2.897   7.793  1.6113 -1.1613  0.5398
 6850SOL     OW32182   0.494   4.203   8.485 -0.0203 -0.4189  0.2920
 6850SOL    HW132183   0.437   4.226   8.412  0.1183  1.3824  0.7419
 6850SOL    HW232184   0.575   4.205   8.433 -0.7337  0.5848 -0.7816
 6851SOL     OW32185   4.067   1.859  12.294  0.2465 -0.0307  0.0844
 6851SOL    HW132186   4.012   1.924  12.250 -0.4975  0.5128  1.7894
 6851SOL    HW232187   4.026   1.776  12.270 -1.6361  1.3309 -1.3920
 6852SOL     OW32188   3.140   3.693  10.710 -0.1064 -0.6420 -0.1903
 6852SOL    HW132189   3.177   3.766  10.760  2.5948 -0.7941 -2.0303
 6852SOL    HW232190   3.205   3.697  10.641 -1.0398 -0.8404 -1.0740
 6853SOL     OW32191   4.373   0.976   1.449  0.1931 -0.1004 -0.1027
 6853SOL    HW132192   4.454   0.942   1.411  1.8309  3.1860  0.3909
 6853SOL    HW232193   4.383   1.071   1.449  0.1056 -0.0929 -0.5544
 6854SOL     OW32194   1.987   3.762   7.256  0.2950 -0.6718  0.4427
 6854SOL    HW132195   2.046   3.815   7.310  0.7036  0.5744 -1.2495
 6854SOL    HW232196   1.913   3.745   7.315 -0.0914  1.2434  0.5201
 6855SOL     OW32197   3.364   3.171   3.046 -0.1333  0.6852 -0.0959
 6855SOL    HW132198   3.432   3.192   2.983 -0.9927 -1.5056 -1.7543
 6855SOL    HW232199   3.306   3.247   3.046 -1.5255 -0.3656 -1.1335
 6856SOL     OW32200   2.367   3.521   9.388  0.0699  0.3215  0.0414
 6856SOL    HW132201   2.390   3.612   9.373  0.8002  0.1253 -0.0613
 6856SOL    HW232202   2.359   3.469   9.308  0.2274  1.5263 -0.7461
 6857SOL     OW32203   4.260   1.856   3.660 -0.3554 -0.0839 -0.2935
 6857SOL    HW132204   4.308   1.938   3.669 -0.5803  0.1569 -1.3155
 6857SOL    HW232205   4.274   1.848   3.565 -0.9349 -2.5248 -0.1804
 6858SOL     OW32206   1.009   1.496   8.851 -0.4118  0.3202 -0.5112
 6858SOL    HW132207   0.968   1.434   8.791 -0.9575 -0.0733  0.2701
 6858SOL    HW232208   0.948   1.483   8.924  0.8902  0.8971  0.6985
 6859SOL     OW32209   4.557   0.105  11.992  0.3101 -0.1634  0.1055
 6859SOL    HW132210   4.533   0.059  11.912  0.7518  0.9872 -0.7017
 6859SOL    HW232211   4.653   0.103  11.983  0.3837  0.5485  0.7757
 6860SOL     OW32212   4.292   3.472  14.734  0.0694 -0.2292  0.1245
 6860SOL    HW132213   4.307   3.531  14.807 -4.7429 -0.1190  1.0272
 6860SOL    HW232214   4.278   3.532  14.661 -0.4255 -0.2649  0.1875
 6861SOL     OW32215   3.891   4.452   3.343 -1.0020  0.5872 -0.0949
 6861SOL    HW132216   3.938   4.536   3.349 -0.2490  0.3344 -2.1379
 6861SOL    HW232217   3.805   4.482   3.314 -0.6155  2.6367  0.8640
 6862SOL     OW32218   2.876   3.516   9.602 -0.7884  0.1265  0.5128
 6862SOL    HW132219   2.830   3.542   9.522  0.9428 -0.6217 -0.7369
 6862SOL    HW232220   2.828   3.553   9.675  1.5764  1.3594  1.4485
 6863SOL     OW32221   4.217   2.118  11.639  0.3185 -0.1554  0.1781
 6863SOL    HW132222   4.227   2.029  11.605 -1.0836 -1.9376  4.4372
 6863SOL    HW232223   4.121   2.122  11.639  0.3378  0.2365 -0.3686
 6864SOL     OW32224   0.499   3.822   3.445  0.1563  0.4608 -0.3794
 6864SOL    HW132225   0.472   3.858   3.529  0.7969 -3.0903  1.3253
 6864SOL    HW232226   0.593   3.810   3.457  0.3690 -0.4848 -3.0935
 6865SOL     OW32227   3.837   1.974   5.061 -0.1008  0.0385 -0.0303
 6865SOL    HW132228   3.894   1.990   5.136  0.1345 -1.7268  0.1737
 6865SOL    HW232229   3.854   1.884   5.033 -0.9657  0.1503 -0.9404
 6866SOL     OW32230   2.508   0.081   9.742 -0.1114  0.0629  0.2476
 6866SOL    HW132231   2.533   0.115   9.828  0.1344 -1.9068  0.9430
 6866SOL    HW232232   2.591   0.067   9.696 -0.2870 -1.1461  0.3031
 6867SOL     OW32233   3.047   0.761   8.950  0.0378 -0.2448  0.5744
 6867SOL    HW132234   3.090   0.846   8.950 -0.3732 -0.0312  1.4519
 6867SOL    HW232235   2.958   0.787   8.976  0.2849  0.2127  0.9546
 6868SOL     OW32236   2.455   4.249   3.564 -0.2357 -0.2345 -0.6394
 6868SOL    HW132237   2.423   4.204   3.486 -0.0616 -0.4685 -0.5769
 6868SOL    HW232238   2.549   4.261   3.549 -0.1286 -0.7877 -0.4268
 6869SOL     OW32239   0.206   1.297   6.599  0.3099  0.0445  0.0928
 6869SOL    HW132240   0.201   1.278   6.693  0.7015 -1.8909 -0.2637
 6869SOL    HW232241   0.198   1.392   6.604 -1.7208 -0.1271  0.1372
 6870SOL     OW32242   3.406   3.410   2.298  0.6768  0.6074 -0.1653
 6870SOL    HW132243   3.457   3.334   2.269  0.5911  0.0907  1.0356
 6870SOL    HW232244   3.339   3.372   2.355 -0.2343  0.6669 -1.1843
 6871SOL     OW32245   1.058   2.697   6.161 -0.3640 -0.1374  0.6876
 6871SOL    HW132246   1.066   2.609   6.199 -0.2064  0.2583  1.5850
 6871SOL    HW232247   0.998   2.673   6.090 -0.9386  0.6777  0.9064
 6872SOL     OW32248   1.788   2.351   4.009  0.1932  0.1396  0.4897
 6872SOL    HW132249   1.827   2.267   3.985 -0.4400  0.0113 -0.0916
 6872SOL    HW232250   1.767   2.331   4.100  1.5048 -1.0380  0.5318
 6873SOL     OW32251   3.821   1.928   1.052 -0.3602 -0.1120 -0.4007
 6873SOL    HW132252   3.906   1.916   1.094  0.2198  1.3795 -1.1202
 6873SOL    HW232253   3.795   2.003   1.105 -0.6294 -1.0060  0.7174
 6874SOL     OW32254   3.999   2.941   3.183  0.2049  0.5549 -0.1746
 6874SOL    HW132255   3.979   3.035   3.183  0.8116  0.6804 -2.1337
 6874SOL    HW232256   3.942   2.907   3.115  1.4770 -0.2328 -0.8451
 6875SOL     OW32257   3.987   0.839   5.524  0.0391  0.3664 -0.1678
 6875SOL    HW132258   4.006   0.757   5.479 -2.9758 -1.3394  1.6049
 6875SOL    HW232259   3.912   0.812   5.578 -0.9932  2.0142 -0.7572
 6876SOL     OW32260   1.746   3.803  17.182 -0.5367  0.0270  0.1308
 6876SOL    HW132261   1.687   3.822  17.255  0.7660  0.7500  1.0017
 6876SOL    HW232262   1.679   3.774  17.121 -0.5460  0.2160  0.0524
 6877SOL     OW32263   1.293   0.393   1.532 -0.5277 -0.3111  0.1654
 6877SOL    HW132264   1.219   0.368   1.587 -0.0437 -1.1126  0.4511
 6877SOL    HW232265   1.333   0.473   1.568  0.7053 -1.4666  1.3880
 6878SOL     OW32266   4.535   3.021   4.244  0.7124  0.6360  0.6900
 6878SOL    HW132267   4.478   3.096   4.262 -2.7932 -1.9451  0.3506
 6878SOL    HW232268   4.506   2.993   4.157  0.1553 -1.9912  1.7104
 6879SOL     OW32269   0.695   0.517   5.694  0.0406  1.1120 -0.8449
 6879SOL    HW132270   0.602   0.538   5.687  0.0308  0.8578 -1.4413
 6879SOL    HW232271   0.687   0.454   5.766 -0.6708  0.1239 -1.7931
 6880SOL     OW32272   0.932   3.900  17.401 -0.1043  0.2432  0.1172
 6880SOL    HW132273   0.928   3.816  17.446  1.5160  0.1142  0.0270
 6880SOL    HW232274   0.882   3.955  17.462  2.0259  1.3165  0.9233
 6881SOL     OW32275   1.999   0.651   2.497  0.1322 -0.2601  0.0175
 6881SOL    HW132276   2.033   0.580   2.550  3.7999  0.4021 -1.4075
 6881SOL    HW232277   1.969   0.607   2.417  1.4018 -0.7842 -0.1747
 6882SOL     OW32278   4.455   4.460   6.417  0.4658  0.5503  0.1941
 6882SOL    HW132279   4.445   4.498   6.504  1.3623 -3.0403  1.8893
 6882SOL    HW232280   4.391   4.389   6.425  0.1147  1.1608  2.6206
 6883SOL     OW32281   1.498   0.243   4.317 -0.3934 -0.1235 -0.2530
 6883SOL    HW132282   1.592   0.225   4.317 -0.1620  1.1053  1.8586
 6883SOL    HW232283   1.487   0.296   4.396  0.3204 -0.5712  0.1490
 6884SOL     OW32284   0.864   3.459   4.494  0.3002  0.0499  0.2038
 6884SOL    HW132285   0.781   3.445   4.540 -0.9258  0.3333 -1.8773
 6884SOL    HW232286   0.830   3.503   4.416 -0.4945 -1.4368 -0.2985
 6885SOL     OW32287   1.960   2.054   3.236  0.4428  0.0413 -0.6834
 6885SOL    HW132288   1.952   2.148   3.250 -1.1014  0.0972 -1.8881
 6885SOL    HW232289   1.939   2.060   3.143  1.6895  0.7273 -0.9263
 6886SOL     OW32290   0.041   3.477   1.562  0.3109 -0.4318 -0.3551
 6886SOL    HW132291   4.728   3.402   1.540 -2.7156  1.4399  0.8847
 6886SOL    HW232292   0.121   3.428   1.544  0.5081 -0.0854 -0.4174
 6887SOL     OW32293   1.031   1.446  16.230  0.5454 -0.1862  0.6970
 6887SOL    HW132294   0.978   1.500  16.172  1.5387 -2.1240 -2.0403
 6887SOL    HW232295   1.109   1.431  16.176  0.0185  0.5815 -0.2807
 6888SOL     OW32296   3.964   1.109   4.200 -0.2571  0.1931 -0.2107
 6888SOL    HW132297   3.963   1.124   4.294 -1.2546  2.0372 -0.5242
 6888SOL    HW232298   3.970   1.200   4.173 -2.1274  1.3669  3.3432
 6889SOL     OW32299   2.301   4.235   7.190 -0.2692 -0.2217  0.3916
 6889SOL    HW132300   2.345   4.311   7.227 -2.8318  1.9870 -1.1314
 6889SOL    HW232301   2.248   4.279   7.123  0.3593 -1.5888 -1.0314
 6890SOL     OW32302   2.027   2.158   3.524 -0.3202 -0.3769  0.8778
 6890SOL    HW132303   2.059   2.226   3.466 -0.0118 -0.4843  0.9239
 6890SOL    HW232304   1.939   2.134   3.494 -0.4108  1.2290 -0.1375
 6891SOL     OW32305   3.574   4.346   5.134 -0.7078 -0.0429  0.8112
 6891SOL    HW132306   3.638   4.280   5.110 -1.7494 -0.8839  0.3325
 6891SOL    HW232307   3.580   4.335   5.229 -1.9596 -3.0672  0.5473
 6892SOL     OW32308   3.044   2.203   7.690 -0.5402  0.3463  0.2524
 6892SOL    HW132309   3.093   2.151   7.754 -0.0047  1.5243  0.8097
 6892SOL    HW232310   2.982   2.249   7.747 -0.9457 -0.0844  0.1563
 6893SOL     OW32311   0.278   4.419  17.748 -0.2160 -0.0172  0.1347
 6893SOL    HW132312   0.277   4.327   0.010 -1.9103  0.0332  0.2662
 6893SOL    HW232313   0.267   4.461   0.068  1.2750 -1.6757  1.1528
 6894SOL     OW32314   3.890   1.970  17.317  0.0858  0.3932  0.1431
 6894SOL    HW132315   3.853   1.887  17.349  0.1428 -0.8611 -3.0736
 6894SOL    HW232316   3.838   2.037  17.363 -2.1173  0.3828 -2.2991
 6895SOL     OW32317   1.530   0.151  15.639  0.1285 -0.1777 -0.0230
 6895SOL    HW132318   1.555   0.182  15.552  1.4304  1.0912  0.7937
 6895SOL    HW232319   1.554   0.231  15.686 -0.6621  0.2364 -0.3424
 6896SOL     OW32320   0.946   4.360   0.008  0.6853  0.0889 -0.0981
 6896SOL    HW132321   0.912   4.288   0.060  1.1928 -0.7480 -0.9235
 6896SOL    HW232322   0.957   4.428   0.074  1.2067 -1.9375  1.8957
 6897SOL     OW32323   1.891   0.602  12.083  0.1582 -0.0902  1.0153
 6897SOL    HW132324   1.874   0.682  12.132  0.5787  0.9587 -0.5413
 6897SOL    HW232325   1.968   0.630  12.034 -1.2647  1.0216 -0.5998
 6898SOL     OW32326   3.154   0.461   3.796 -0.0756 -0.4680 -0.1804
 6898SOL    HW132327   3.183   0.378   3.832  0.9084  0.3990  1.0497
 6898SOL    HW232328   3.109   0.500   3.871  1.1439  1.9670 -0.7125
 6899SOL     OW32329   0.465   0.171   6.528  0.2007  0.1369  0.0430
 6899SOL    HW132330   0.443   0.087   6.568 -3.5828  0.9381 -0.3574
 6899SOL    HW232331   0.551   0.157   6.488 -0.9660 -1.0363 -2.0155
 6900SOL     OW32332   1.944   1.159   6.535  0.1859 -0.1354  0.4463
 6900SOL    HW132333   1.937   1.064   6.529  1.2568 -0.3019  1.8753
 6900SOL    HW232334   1.926   1.163   6.629  4.0477 -0.7595  1.2226
 6901SOL     OW32335   1.298   2.666   9.072 -0.2874  0.6242 -0.3066
 6901SOL    HW132336   1.220   2.676   9.125 -0.4194 -1.8228 -0.0269
 6901SOL    HW232337   1.363   2.640   9.138 -0.0092 -0.1155 -0.8685
 6902SOL     OW32338   1.087   2.233   4.203  0.4176  0.3380 -0.3294
 6902SOL    HW132339   1.059   2.142   4.217 -3.1596  1.3137 -1.1290
 6902SOL    HW232340   1.145   2.217   4.128 -1.0794 -2.0526 -0.9772
 6903SOL     OW32341   4.046   4.497  17.109  0.2011  0.2983 -0.2678
 6903SOL    HW132342   4.059   4.555  17.184  0.1194  1.6165 -1.2696
 6903SOL    HW232343   4.064   4.556  17.036 -0.4311  0.2338 -0.4796
 6904SOL     OW32344   0.199   3.182  13.152 -0.6802 -0.1525  0.5709
 6904SOL    HW132345   0.143   3.116  13.195  1.6507 -2.6920 -0.2993
 6904SOL    HW232346   0.271   3.195  13.214  0.4002  0.4940 -0.8454
 6905SOL     OW32347   4.471   4.231   4.498  0.1442  0.7860  0.3925
 6905SOL    HW132348   4.487   4.274   4.582  0.7793  2.4239 -0.5619
 6905SOL    HW232349   4.519   4.299   4.450 -1.7308  1.3392 -0.6755
 6906SOL     OW32350   2.172   4.318   2.735 -0.3371 -0.2300 -0.1099
 6906SOL    HW132351   2.222   4.392   2.699 -1.0699 -0.2660 -1.2062
 6906SOL    HW232352   2.143   4.347   2.822 -0.9577  0.9234 -0.6998
 6907SOL     OW32353   0.427   2.837   7.062 -0.7861  0.0552 -0.2896
 6907SOL    HW132354   0.398   2.890   6.988  1.9238  1.7690 -0.1314
 6907SOL    HW232355   0.518   2.867   7.070 -1.2538  1.4670 -0.1975
 6908SOL     OW32356   1.349   1.862   4.074  0.0046  0.0859 -0.3745
 6908SOL    HW132357   1.429   1.821   4.106  0.7704  1.9181  0.0821
 6908SOL    HW232358   1.320   1.795   4.012  2.2395  1.1844 -2.6132
 6909SOL     OW32359   1.820   2.391   8.110  0.0362  0.1991  0.0381
 6909SOL    HW132360   1.759   2.430   8.173  0.3369 -0.2561  0.5997
 6909SOL    HW232361   1.780   2.305   8.118  1.1026 -0.5625 -2.9578
 6910SOL     OW32362   2.325   0.481  11.657 -0.2031  0.8667  0.5587
 6910SOL    HW132363   2.257   0.461  11.721  0.5085 -0.7769  0.8065
 6910SOL    HW232364   2.281   0.556  11.617 -0.3386  1.1217  1.1918
 6911SOL     OW32365   0.018   0.285   8.711 -0.3089 -0.3439  0.2306
 6911SOL    HW132366   4.673   0.325   8.703 -1.4095 -2.6554  0.8029
 6911SOL    HW232367   4.735   0.217   8.774  0.3425 -0.7123  0.0818
 6912SOL     OW32368   2.169   0.671  15.717  1.0150 -0.0994 -0.2144
 6912SOL    HW132369   2.205   0.758  15.735  2.8041 -0.2937 -2.7664
 6912SOL    HW232370   2.098   0.689  15.655  1.1768 -2.5490 -1.1288
 6913SOL     OW32371   1.122   1.002  17.030 -0.3658  0.1581 -0.1261
 6913SOL    HW132372   1.056   1.060  16.992  0.3503 -0.7016 -2.6432
 6913SOL    HW232373   1.091   0.924  16.984 -0.7942 -0.5347  1.3287
 6914SOL     OW32374   0.398   1.378  11.011 -0.3860 -0.0051  0.3356
 6914SOL    HW132375   0.371   1.290  10.983  1.0264  0.0646 -1.2597
 6914SOL    HW232376   0.481   1.368  11.057 -0.4430  2.4656  0.9702
 6915SOL     OW32377   4.699   2.682  12.364 -0.2152  0.2175 -0.0595
 6915SOL    HW132378   4.668   2.672  12.274 -1.1540 -3.0889  0.6373
 6915SOL    HW232379   0.045   2.646  12.357 -0.3605 -0.4743  1.6796
 6916SOL     OW32380   0.693   2.037  13.257 -0.1765  1.2843 -0.5988
 6916SOL    HW132381   0.631   2.030  13.329  0.7716  0.4271  0.1391
 6916SOL    HW232382   0.636   1.991  13.196  0.3141 -1.5849  1.1190
 6917SOL     OW32383   1.832   2.072   9.756  0.5188  0.5689 -0.1726
 6917SOL    HW132384   1.876   2.154   9.738  1.5979 -0.3137 -1.5803
 6917SOL    HW232385   1.873   2.019   9.687 -0.4649  0.1572 -0.4471
 6918SOL     OW32386   0.440   3.866   9.594  0.0034  0.2411  0.1000
 6918SOL    HW132387   0.447   3.941   9.653  1.8794  0.4442 -0.3968
 6918SOL    HW232388   0.391   3.807   9.651  0.2730 -0.7278 -0.6734
 6919SOL     OW32389   0.383   2.834  16.532  0.0924 -0.2659  0.4887
 6919SOL    HW132390   0.384   2.811  16.625  0.0451 -0.3590  0.4660
 6919SOL    HW232391   0.288   2.840  16.524  0.0502 -1.2422  0.2720
 6920SOL     OW32392   1.677   2.449   6.712  0.4896  0.1484 -0.5214
 6920SOL    HW132393   1.699   2.420   6.800 -2.6308  1.3506  0.6452
 6920SOL    HW232394   1.678   2.544   6.724 -1.5787 -0.0088  0.8464
 6921SOL     OW32395   3.018   0.529   8.289  0.1320 -0.1296 -0.4264
 6921SOL    HW132396   2.926   0.547   8.312  0.1817 -0.2406 -0.1504
 6921SOL    HW232397   3.069   0.516   8.368 -1.0731  2.8800  0.8884
 6922SOL     OW32398   1.312   4.454   7.257  0.3561 -0.6155  0.6408
 6922SOL    HW132399   1.388   4.446   7.315 -0.9047 -1.1741  2.2088
 6922SOL    HW232400   1.290   4.367   7.224 -0.3199 -0.3157  0.2974
 6923SOL     OW32401   4.236   2.625   4.953 -0.4571  0.2758  0.1267
 6923SOL    HW132402   4.186   2.564   4.898 -1.5971  1.6096 -0.3194
 6923SOL    HW232403   4.266   2.703   4.907  1.4528 -0.0147  0.8720
 6924SOL     OW32404   3.883   2.356  12.859 -0.3161  0.4042  0.2015
 6924SOL    HW132405   3.943   2.324  12.926 -1.6227  0.4376  1.3918
 6924SOL    HW232406   3.820   2.393  12.920 -0.0290  0.0424  0.7138
 6925SOL     OW32407   2.585   2.665   5.332  0.1331 -0.1297 -0.1293
 6925SOL    HW132408   2.654   2.708   5.281 -1.4148  2.8245  0.2930
 6925SOL    HW232409   2.633   2.588   5.361  0.7769  0.0767 -0.6358
 6926SOL     OW32410   0.104   1.126  10.763  0.6588 -0.0397 -0.1060
 6926SOL    HW132411   0.194   1.106  10.790 -0.4573 -1.7906  2.3222
 6926SOL    HW232412   0.105   1.141  10.668  1.1499 -0.8132 -0.2214
 6927SOL     OW32413   3.581   0.604   5.512  0.0925 -0.3014  0.2917
 6927SOL    HW132414   3.606   0.540   5.445  0.4194 -0.3336  0.4451
 6927SOL    HW232415   3.545   0.679   5.465  1.3628  0.0280 -0.1675
 6928SOL     OW32416   4.685   0.571   8.078  0.0012 -0.0627 -0.1557
 6928SOL    HW132417   4.732   0.638   8.028 -1.0720  0.0864 -0.9541
 6928SOL    HW232418   0.017   0.517   8.108 -0.1140  0.6794  1.4625
 6929SOL     OW32419   2.373   0.319   8.466  0.3686 -0.3802 -0.1337
 6929SOL    HW132420   2.346   0.411   8.464 -0.2661 -0.5401  0.8886
 6929SOL    HW232421   2.321   0.304   8.545  0.9853  2.9327  0.8897
 6930SOL     OW32422   3.082   4.652   6.708  0.0573 -0.0716  0.2215
 6930SOL    HW132423   3.059   4.563   6.680 -1.9094  0.6622 -0.5183
 6930SOL    HW232424   3.047   4.694   6.630  0.6421 -0.0385 -0.0231
 6931SOL     OW32425   0.749   2.120   3.894  0.1033  0.4022  0.0885
 6931SOL    HW132426   0.664   2.129   3.937  0.7989  2.0284  1.1026
 6931SOL    HW232427   0.784   2.065   3.965 -2.2741  2.3633  2.7889
 6932SOL     OW32428   0.978   1.425   2.228 -0.3162 -0.3780 -0.5080
 6932SOL    HW132429   1.064   1.384   2.238  0.6946  2.0090  0.6768
 6932SOL    HW232430   0.921   1.370   2.282 -0.7058  1.9250  1.4194
 6933SOL     OW32431   0.111   2.590   1.905  0.1783 -0.0920 -0.0654
 6933SOL    HW132432   0.083   2.587   1.996  0.1688  0.8687 -0.0346
 6933SOL    HW232433   0.129   2.683   1.890  2.9045 -0.5911 -0.0270
 6934SOL     OW32434   2.773   0.917   8.358 -0.6624 -0.1065 -0.1231
 6934SOL    HW132435   2.751   1.010   8.359 -3.0793 -0.6989  0.1698
 6934SOL    HW232436   2.747   0.881   8.273  0.3522 -1.0582 -0.0406
 6935SOL     OW32437   3.982   2.438  17.298 -0.1998  0.1796 -0.3449
 6935SOL    HW132438   3.950   2.428  17.388 -0.6235  2.8416 -0.1749
 6935SOL    HW232439   3.959   2.530  17.285  0.5607  0.5053  0.6239
 6936SOL     OW32440   3.360   1.704   3.020 -0.0595  0.0698 -0.1637
 6936SOL    HW132441   3.440   1.679   2.974  0.8928  2.7426  0.0729
 6936SOL    HW232442   3.298   1.726   2.950  0.7258  1.4935 -0.4200
 6937SOL     OW32443   1.079   0.784   2.221  0.1843  0.4622  0.9823
 6937SOL    HW132444   1.151   0.774   2.283  1.4747 -0.7011 -0.6966
 6937SOL    HW232445   1.122   0.789   2.135 -1.4687  0.3175  0.1503
 6938SOL     OW32446   2.717   2.741   7.313 -0.8647  0.0610 -0.6754
 6938SOL    HW132447   2.743   2.706   7.228  3.6118  1.8791 -0.0352
 6938SOL    HW232448   2.693   2.828   7.281  0.1620  0.9503  0.9512
 6939SOL     OW32449   0.931   0.115  13.973  0.1067 -0.3955  0.2150
 6939SOL    HW132450   1.009   0.167  13.954  0.0602 -0.2157  0.5138
 6939SOL    HW232451   0.903   0.088  13.886 -0.6336  1.4671 -0.1207
 6940SOL     OW32452   4.365   2.192  15.418  0.0802  0.1145 -0.4690
 6940SOL    HW132453   4.421   2.165  15.490  1.7501  2.0369 -1.0737
 6940SOL    HW232454   4.421   2.255  15.374 -0.5945  1.2352  0.2911
 6941SOL     OW32455   0.160   2.959   6.085 -0.1557 -0.1876  0.4260
 6941SOL    HW132456   0.166   2.934   6.177  1.6185  1.0795  0.6549
 6941SOL    HW232457   0.083   2.909   6.056  0.1674 -0.1474 -0.5002
 6942SOL     OW32458   0.241   4.344   2.322  0.5988  0.5572  0.6437
 6942SOL    HW132459   0.294   4.376   2.395 -0.9315 -0.3216  2.1338
 6942SOL    HW232460   0.156   4.337   2.366  0.8499 -1.8017  0.7694
 6943SOL     OW32461   0.856   2.938   7.743 -0.9916 -0.1879 -0.2165
 6943SOL    HW132462   0.879   3.029   7.764 -0.5323 -0.0004 -1.5717
 6943SOL    HW232463   0.761   2.947   7.744 -1.2583 -3.2802 -1.1297
 6944SOL     OW32464   1.415   1.508  12.143  0.3451 -0.1784 -0.6700
 6944SOL    HW132465   1.506   1.489  12.120 -0.1941 -0.7936 -2.3085
 6944SOL    HW232466   1.359   1.444  12.099  0.8855 -0.8157 -0.4276
 6945SOL     OW32467   4.129   3.946  10.196 -1.1170 -0.3152 -0.5251
 6945SOL    HW132468   4.108   3.909  10.110 -0.7742  2.1319 -1.6395
 6945SOL    HW232469   4.039   3.960  10.224 -0.5145 -0.4726  1.4889
 6946SOL     OW32470   2.138   3.406  11.147 -0.0979 -0.1612  0.2392
 6946SOL    HW132471   2.122   3.500  11.141 -0.4379 -0.2259  0.1359
 6946SOL    HW232472   2.222   3.400  11.193  0.4034 -1.0396 -0.7929
 6947SOL     OW32473   1.742   0.466  13.818  0.1084 -0.1029 -0.3439
 6947SOL    HW132474   1.781   0.472  13.731 -1.7332  0.0817 -1.1503
 6947SOL    HW232475   1.653   0.503  13.814 -0.6275 -1.8576 -0.0232
 6948SOL     OW32476   0.282   1.415   1.677 -0.5986 -0.2385 -0.1706
 6948SOL    HW132477   0.264   1.329   1.714  0.8336 -1.3707 -2.1445
 6948SOL    HW232478   0.377   1.418   1.668 -0.5939 -0.0589 -0.0754
 6949SOL     OW32479   4.267   3.246  13.226 -0.7184 -0.4910 -0.0338
 6949SOL    HW132480   4.200   3.242  13.295 -0.9390 -1.4044 -0.2957
 6949SOL    HW232481   4.262   3.339  13.207 -0.1698 -0.5562 -0.5064
 6950SOL     OW32482   3.349   1.494   9.664  0.3700 -0.1761 -0.0996
 6950SOL    HW132483   3.289   1.468   9.734  1.1966 -1.3933  0.1412
 6950SOL    HW232484   3.306   1.577   9.642 -1.4367 -1.5314 -1.6640
 6951SOL     OW32485   0.942   0.086   5.357  0.3812 -0.3136  0.0145
 6951SOL    HW132486   0.939   0.106   5.263  0.6325 -0.9392 -0.1252
 6951SOL    HW232487   0.930   0.178   5.381  0.5035  0.0525 -1.3055
 6952SOL     OW32488   2.483   2.171   9.203 -0.3495 -0.1129  0.1530
 6952SOL    HW132489   2.554   2.148   9.142  1.1223  1.4577  1.3063
 6952SOL    HW232490   2.457   2.089   9.246 -1.0967  0.1929  0.2747
 6953SOL     OW32491   0.634   4.505   2.679  0.2579 -0.2764  0.9306
 6953SOL    HW132492   0.645   4.596   2.705 -0.5545  0.2175 -0.4601
 6953SOL    HW232493   0.716   4.470   2.643 -1.2169 -1.3067 -1.4340
 6954SOL     OW32494   0.335   3.666   0.450 -0.4350  0.1433  0.3207
 6954SOL    HW132495   0.298   3.750   0.421 -0.7561 -0.2615 -0.4347
 6954SOL    HW232496   0.256   3.613   0.452 -0.2934 -0.0556  0.6331
 6955SOL     OW32497   4.339   3.142   3.309 -0.3460  0.1795 -0.9560
 6955SOL    HW132498   4.294   3.117   3.390  0.0148 -2.4996 -1.5711
 6955SOL    HW232499   4.370   3.056   3.282 -1.7643 -0.2352 -1.2874
 6956SOL     OW32500   0.255   0.679   8.329  0.5559 -0.0919  0.6339
 6956SOL    HW132501   0.243   0.695   8.422  2.2105  2.4317  0.4238
 6956SOL    HW232502   0.220   0.759   8.289  0.2981 -1.2807 -1.5441
 6957SOL     OW32503   1.540   4.215   6.727 -0.1089  0.2267  0.5122
 6957SOL    HW132504   1.487   4.235   6.804 -0.8449  1.6228 -0.3511
 6957SOL    HW232505   1.624   4.188   6.765 -0.0531  0.0682  0.2777
 6958SOL     OW32506   2.760   2.020   7.587  0.4951  0.1225 -0.3522
 6958SOL    HW132507   2.773   2.071   7.506  0.7720 -0.6542 -0.7974
 6958SOL    HW232508   2.829   1.955   7.596  0.0169 -0.4929 -1.0763
 6959SOL     OW32509   3.534   1.789   5.354 -0.3804  0.2818 -0.1245
 6959SOL    HW132510   3.510   1.756   5.268 -0.6348 -1.2075  0.5193
 6959SOL    HW232511   3.490   1.874   5.359 -2.7948 -0.7704 -3.7374
 6960SOL     OW32512   4.018   0.406   5.162 -0.2628 -0.1003  0.5667
 6960SOL    HW132513   4.022   0.471   5.232 -1.2319 -0.2542  0.7607
 6960SOL    HW232514   4.096   0.424   5.109 -0.2863  1.5803  1.1114
 6961SOL     OW32515   4.669   3.635  14.146 -0.1521  0.5327  0.3265
 6961SOL    HW132516   4.604   3.646  14.077 -0.8315  3.6885  1.4881
 6961SOL    HW232517   4.720   3.558  14.119 -1.6699  1.2906 -4.6453
 6962SOL     OW32518   1.626   1.711  13.292 -0.4297  0.1120 -0.2206
 6962SOL    HW132519   1.535   1.693  13.269 -0.8512  1.3208  0.4671
 6962SOL    HW232520   1.609   1.803  13.315  2.3717  0.9644 -1.5143
 6963SOL     OW32521   3.022   2.080  13.057  0.1305  0.1784  0.4326
 6963SOL    HW132522   2.990   2.118  13.139  0.2895  0.9918  0.1240
 6963SOL    HW232523   3.111   2.115  13.069 -0.2759  1.1121  0.7006
 6964SOL     OW32524   0.821   3.774   2.146  0.1557 -0.7357  0.0744
 6964SOL    HW132525   0.740   3.791   2.097  0.8714  0.9135 -0.5481
 6964SOL    HW232526   0.816   3.850   2.204 -2.7415 -1.6196  1.0182
 6965SOL     OW32527   0.485   1.264   6.345  0.3888 -0.5185  0.1055
 6965SOL    HW132528   0.471   1.223   6.430  1.0185 -1.3329 -0.1868
 6965SOL    HW232529   0.395   1.254   6.315  0.8178  0.9451 -1.6530
 6966SOL     OW32530   0.197   4.127   6.936  0.0461  0.2050 -0.4261
 6966SOL    HW132531   0.280   4.127   6.888 -0.6409  1.3872 -1.6144
 6966SOL    HW232532   0.140   4.074   6.881  0.2977 -0.2877 -0.2057
 6967SOL     OW32533   1.220   3.249   7.778  0.2188  0.2909 -0.2742
 6967SOL    HW132534   1.164   3.231   7.853  1.4695 -1.3373  0.2464
 6967SOL    HW232535   1.301   3.275   7.821 -0.7442  1.1101  1.0677
 6968SOL     OW32536   1.526   0.385  14.930 -0.1137  0.2563 -0.3240
 6968SOL    HW132537   1.561   0.298  14.912 -3.0855 -1.0481  0.3753
 6968SOL    HW232538   1.485   0.385  15.016  1.3522  1.2553  0.3806
 6969SOL     OW32539   1.365   1.274   6.511  0.4794 -0.3528  0.0341
 6969SOL    HW132540   1.289   1.324   6.542  1.5332  2.2925 -1.6839
 6969SOL    HW232541   1.427   1.273   6.584 -0.1738 -0.0383  0.5932
 6970SOL     OW32542   2.462   2.252   0.979  0.2197  0.5559 -0.2328
 6970SOL    HW132543   2.524   2.178   0.976 -0.2463  0.2531 -2.6412
 6970SOL    HW232544   2.380   2.217   0.945  0.0907  2.2261 -1.6309
 6971SOL     OW32545   0.034   1.036   4.910  0.1152 -0.5770  0.5515
 6971SOL    HW132546   0.025   1.087   4.991  2.4001  2.3768 -1.0298
 6971SOL    HW232547   0.012   0.947   4.936  0.2290 -0.5646  0.6922
 6972SOL     OW32548   1.200   3.628   2.296  0.7638  0.8706  0.3628
 6972SOL    HW132549   1.235   3.687   2.229  1.4335 -0.2554 -0.2870
 6972SOL    HW232550   1.255   3.652   2.371  2.4927  1.1419 -0.9788
 6973SOL     OW32551   3.448   4.114   1.633 -0.1238  0.4004 -0.5683
 6973SOL    HW132552   3.446   4.126   1.538 -0.0356  3.6222 -0.1703
 6973SOL    HW232553   3.530   4.066   1.640 -0.9563 -0.8347  0.6480
 6974SOL     OW32554   3.630   1.363   3.603 -0.1374  0.0077  0.0368
 6974SOL    HW132555   3.569   1.394   3.670  2.2824  1.7283  1.4467
 6974SOL    HW232556   3.651   1.445   3.557 -0.0055  0.7187  1.3574
 6975SOL     OW32557   3.614   4.578   5.005  0.1155  0.6825  0.3132
 6975SOL    HW132558   3.590   4.505   5.062 -0.4216  2.0726  1.8733
 6975SOL    HW232559   3.669   4.533   4.942  0.0997 -0.3044  1.0019
 6976SOL     OW32560   3.857   1.854   1.939 -0.0249 -0.4516  0.6771
 6976SOL    HW132561   3.890   1.944   1.944  0.7737 -0.6825 -0.3244
 6976SOL    HW232562   3.859   1.825   2.030  1.8459  1.4384  1.2389
 6977SOL     OW32563   2.292   3.608   3.672 -0.5781  0.1796  0.2623
 6977SOL    HW132564   2.322   3.699   3.676  0.2468 -0.0496 -0.5588
 6977SOL    HW232565   2.279   3.589   3.765 -0.5456 -0.2308  0.1869
 6978SOL     OW32566   1.431   2.653   6.895  0.4428  0.5087 -0.3778
 6978SOL    HW132567   1.440   2.570   6.941  1.5646 -0.7810 -2.8818
 6978SOL    HW232568   1.495   2.710   6.939  0.3426 -0.1809  0.6409
 6979SOL     OW32569   1.603   2.170   9.069  0.4975 -0.3726 -0.0273
 6979SOL    HW132570   1.641   2.167   9.156 -1.0677  1.6154  0.7285
 6979SOL    HW232571   1.615   2.260   9.039  1.4326 -0.3033  0.5545
 6980SOL     OW32572   0.566   4.283   6.418  0.7063 -0.0582  0.2079
 6980SOL    HW132573   0.617   4.346   6.367  0.8756 -1.1894 -1.0162
 6980SOL    HW232574   0.524   4.221   6.358 -2.9717  1.5428  1.1564
 6981SOL     OW32575   0.941   0.783  12.200  0.0003  0.1688  0.4715
 6981SOL    HW132576   0.863   0.819  12.242 -0.4085  1.5855 -1.5091
 6981SOL    HW232577   0.935   0.689  12.215 -0.4309  0.2008  0.5140
 6982SOL     OW32578   2.277   0.808   2.642 -0.1065  0.0743 -0.3567
 6982SOL    HW132579   2.362   0.770   2.664  0.3144  1.3425  0.1826
 6982SOL    HW232580   2.251   0.738   2.581  3.0860  0.2653 -1.9585
 6983SOL     OW32581   1.321   4.489   1.844 -0.3008  0.0370 -0.1387
 6983SOL    HW132582   1.405   4.472   1.801  0.6075  1.4451  1.0676
 6983SOL    HW232583   1.253   4.465   1.782  0.5119  1.6455 -1.6345
 6984SOL     OW32584   0.841   1.566   7.326  0.3735  0.4120  0.3373
 6984SOL    HW132585   0.899   1.584   7.400  0.6631 -0.3295  0.2935
 6984SOL    HW232586   0.755   1.587   7.362 -0.2270  0.8890 -1.3626
 6985SOL     OW32587   0.395   3.522   1.487 -0.2015 -0.3291  0.0918
 6985SOL    HW132588   0.323   3.584   1.487  0.3447  0.3179 -1.2798
 6985SOL    HW232589   0.470   3.581   1.492 -0.7614  0.3568  0.3665
 6986SOL     OW32590   1.583   2.370   5.248 -1.0031  0.3846 -0.5116
 6986SOL    HW132591   1.517   2.400   5.311 -2.0039  0.1193 -1.4362
 6986SOL    HW232592   1.617   2.455   5.220  0.2358  0.9799  2.8158
 6987SOL     OW32593   0.710   1.590   1.243 -0.1716  0.3302  0.0845
 6987SOL    HW132594   0.738   1.536   1.317  0.3605 -0.0333 -0.3831
 6987SOL    HW232595   0.789   1.604   1.191  0.3530 -0.5948  0.6443
 6988SOL     OW32596   3.259   3.127  12.622 -0.3433 -0.8749 -0.4585
 6988SOL    HW132597   3.326   3.194  12.635  0.9585 -1.9612 -1.4934
 6988SOL    HW232598   3.259   3.074  12.702 -0.1890 -0.5268 -0.2296
 6989SOL     OW32599   1.297   3.535   9.559 -0.6570  0.7066  0.4544
 6989SOL    HW132600   1.216   3.517   9.608 -1.7793  2.8276 -0.6314
 6989SOL    HW232601   1.355   3.473   9.603 -1.1011 -0.2475 -0.3034
 6990SOL     OW32602   3.326   4.092  17.046  0.3802 -0.2182  0.9654
 6990SOL    HW132603   3.378   4.170  17.065 -0.4424  0.6586 -0.4026
 6990SOL    HW232604   3.396   4.029  17.026  0.6562 -0.3226  2.2822
 6991SOL     OW32605   3.414   4.470   8.698  0.3184  0.4844  0.0914
 6991SOL    HW132606   3.325   4.499   8.719  0.4040 -0.1498  1.3613
 6991SOL    HW232607   3.387   4.378   8.696  1.5300  0.1428 -0.5212
 6992SOL     OW32608   2.535   1.693   3.883 -0.2646  0.5166  0.4896
 6992SOL    HW132609   2.565   1.638   3.810 -2.9802  0.0818 -0.3131
 6992SOL    HW232610   2.443   1.692   3.854  0.4262 -1.5874 -1.6329
 6993SOL     OW32611   1.201   4.515  14.166  0.5360 -0.2176  0.4910
 6993SOL    HW132612   1.220   4.484  14.255 -1.6126 -1.3809  0.5450
 6993SOL    HW232613   1.282   4.564  14.149 -2.0250  3.6413 -0.4662
 6994SOL     OW32614   3.767   3.951   2.112  0.1249  0.1291 -0.3054
 6994SOL    HW132615   3.696   3.970   2.173  0.6671  1.0344  0.0529
 6994SOL    HW232616   3.713   3.947   2.033  1.0971  1.1929 -1.0309
 6995SOL     OW32617   0.423   3.168   1.686  0.0525 -0.0595  0.1604
 6995SOL    HW132618   0.486   3.240   1.693 -0.0414  0.0568 -0.1899
 6995SOL    HW232619   0.404   3.147   1.777  1.6988  1.3211  0.8061
 6996SOL     OW32620   2.447   3.808   4.830  0.8183  0.6199  0.1192
 6996SOL    HW132621   2.447   3.838   4.740 -0.7778 -2.6277 -0.9735
 6996SOL    HW232622   2.453   3.713   4.820 -0.4958  0.4433  1.0008
 6997SOL     OW32623   1.732   4.502   8.006  0.2957  0.1028  0.0741
 6997SOL    HW132624   1.826   4.488   7.995  0.5737  2.5778 -0.6856
 6997SOL    HW232625   1.740   4.567   8.075 -1.4481  1.7287 -1.2284
 6998SOL     OW32626   2.306   3.433   8.471  0.0567  0.6908 -0.8040
 6998SOL    HW132627   2.295   3.404   8.381  0.7590 -0.6750 -0.4494
 6998SOL    HW232628   2.330   3.350   8.511 -2.9126  0.4259  0.4058
 6999SOL     OW32629   1.372   1.701  15.577 -0.0747 -0.2068  0.6080
 6999SOL    HW132630   1.340   1.628  15.524 -2.4029  0.5990  0.8959
 6999SOL    HW232631   1.326   1.771  15.531 -0.1064 -0.4091  0.3351
 7000SOL     OW32632   2.339   1.250   6.632 -0.4245  0.5324  0.1503
 7000SOL    HW132633   2.257   1.298   6.640  0.7644  2.9971 -2.2697
 7000SOL    HW232634   2.373   1.270   6.544  2.0301 -0.4177  0.8820
 7001SOL     OW32635   1.268   3.924  15.881 -0.5743  0.1084  0.6757
 7001SOL    HW132636   1.324   3.999  15.864 -2.4268  0.9345 -1.7808
 7001SOL    HW232637   1.189   3.953  15.836 -0.2782 -2.8917 -1.8787
 7002SOL     OW32638   3.330   2.220   3.113 -0.4891  0.6196  0.0917
 7002SOL    HW132639   3.329   2.163   3.190 -0.0345 -0.3555 -0.6349
 7002SOL    HW232640   3.242   2.199   3.082  0.5548 -0.2594 -2.2684
 7003SOL     OW32641   0.637   4.364   0.155 -1.0367 -0.7789  0.2549
 7003SOL    HW132642   0.601   4.389   0.240 -2.7394 -1.3762 -0.2881
 7003SOL    HW232643   0.620   4.439   0.098  1.9190  0.9110  1.6500
 7004SOL     OW32644   0.001   0.790   1.979  0.6270 -0.2843  0.2525
 7004SOL    HW132645   0.069   0.820   2.040  1.4654 -2.2675  0.2999
 7004SOL    HW232646   0.011   0.857   1.911  0.5331  0.1909  0.7070
 7005SOL     OW32647   0.559   1.603   3.272  0.2301 -0.2719 -0.0181
 7005SOL    HW132648   0.652   1.581   3.262 -0.0733 -2.4544  2.1165
 7005SOL    HW232649   0.543   1.583   3.364  0.0492 -1.2846 -0.2731
 7006SOL     OW32650   0.999   2.163   6.943 -0.1775 -0.1330  0.1481
 7006SOL    HW132651   1.048   2.236   6.905 -0.7306  1.3928  2.3640
 7006SOL    HW232652   1.058   2.118   7.003  0.2716  0.8028  0.4083
 7007SOL     OW32653   3.941   2.213  17.123 -0.2408 -0.8342  0.0231
 7007SOL    HW132654   3.852   2.226  17.155 -0.7656  0.5128 -1.9713
 7007SOL    HW232655   3.988   2.285  17.166  0.6138 -1.3852  0.0167
 7008SOL     OW32656   0.541   3.865   7.355 -0.3039 -0.6597  0.0460
 7008SOL    HW132657   0.532   3.935   7.289  0.9861  0.5906  1.1924
 7008SOL    HW232658   0.598   3.913   7.415  0.7739  2.4406 -3.4101
 7009SOL     OW32659   0.851   4.330   2.547  0.0973 -0.1708 -0.0779
 7009SOL    HW132660   0.813   4.318   2.459  0.3745  2.3378 -0.5343
 7009SOL    HW232661   0.900   4.248   2.554 -1.2540 -1.0563 -0.8252
 7010SOL     OW32662   4.507   1.273   0.420 -0.5985 -0.8374 -0.4277
 7010SOL    HW132663   4.546   1.303   0.338 -2.4317 -0.2190 -1.0717
 7010SOL    HW232664   4.536   1.183   0.403  3.3218  0.3701 -0.2850
 7011SOL     OW32665   4.561   1.266   2.624  0.3021  0.1497 -0.4400
 7011SOL    HW132666   4.558   1.233   2.714  0.2047 -0.7861 -0.7972
 7011SOL    HW232667   4.467   1.274   2.609  0.2633  1.0392  0.2531
 7012SOL     OW32668   0.051   2.127   8.844  0.6476  0.1898  0.0879
 7012SOL    HW132669   4.716   2.121   8.787 -0.2021 -0.6062  1.3168
 7012SOL    HW232670   0.112   2.076   8.790 -0.0338 -0.3910 -0.1391
 7013SOL     OW32671   2.342   3.561   0.140 -0.7525  0.4771  0.0021
 7013SOL    HW132672   2.436   3.578   0.143 -0.9842  1.3077  2.7452
 7013SOL    HW232673   2.316   3.650   0.117  1.2047  0.6023 -1.7662
 7014SOL     OW32674   2.218   0.712   3.157  0.6945  0.2271  0.3350
 7014SOL    HW132675   2.257   0.627   3.140  0.1636  0.3059 -1.3090
 7014SOL    HW232676   2.193   0.736   3.068  1.4061  0.2688  0.1479
 7015SOL     OW32677   2.933   2.218   2.104 -0.0166 -0.5551  0.0324
 7015SOL    HW132678   2.878   2.295   2.117 -0.4772 -1.1476  1.6387
 7015SOL    HW232679   2.945   2.210   2.009 -0.8945 -0.7429 -0.0600
 7016SOL     OW32680   1.054   4.167  10.768  0.3772  0.2355  0.0787
 7016SOL    HW132681   1.115   4.188  10.698  0.4025 -1.6219 -0.4692
 7016SOL    HW232682   0.970   4.182  10.725 -0.7011 -1.9465  1.4107
 7017SOL     OW32683   3.694   2.926  12.648 -0.0406  0.0246 -0.3647
 7017SOL    HW132684   3.790   2.928  12.646  0.0312 -2.0660  0.2425
 7017SOL    HW232685   3.675   2.899  12.738 -1.8092 -0.0158 -0.7506
 7018SOL     OW32686   0.370   3.020  11.192 -0.3243 -0.1552 -0.0510
 7018SOL    HW132687   0.323   2.942  11.164 -1.8379  0.3874  1.0163
 7018SOL    HW232688   0.390   3.065  11.110 -0.3697 -0.8149 -0.4168
 7019SOL     OW32689   4.585   2.644   7.536  0.1534 -0.1610 -0.5613
 7019SOL    HW132690   4.670   2.612   7.508  0.4833 -0.3746  0.6952
 7019SOL    HW232691   4.615   2.734   7.548 -1.7906  0.5014 -0.6392
 7020SOL     OW32692   2.025   0.724   0.856 -0.0221 -0.0596  0.3189
 7020SOL    HW132693   2.067   0.766   0.781 -0.5560  1.2610  0.7558
 7020SOL    HW232694   1.976   0.797   0.893 -0.4616 -0.6314  0.8750
 7021SOL     OW32695   3.921   3.792   4.577  0.4218  0.7811 -0.3683
 7021SOL    HW132696   3.914   3.700   4.553  0.9785  0.4786  0.6622
 7021SOL    HW232697   4.013   3.810   4.558  0.4691  0.4544 -0.4429
 7022SOL     OW32698   3.463   4.561   8.459 -0.5201  0.3427  0.4951
 7022SOL    HW132699   3.459   4.549   8.554 -3.9109  0.0264  0.3184
 7022SOL    HW232700   3.516   4.485   8.436 -0.1241 -0.0826  2.8098
 7023SOL     OW32701   0.288   3.559  16.250  0.2230 -0.6695  0.1620
 7023SOL    HW132702   0.376   3.524  16.231 -0.0880  0.2076 -2.8751
 7023SOL    HW232703   0.244   3.588  16.170 -1.3395 -0.9312  0.9257
 7024SOL     OW32704   0.804   2.715   7.162  0.6560 -0.1118  0.1843
 7024SOL    HW132705   0.738   2.659   7.122  2.4839 -1.0772 -1.4191
 7024SOL    HW232706   0.773   2.802   7.135  1.2145  0.1976  0.5262
 7025SOL     OW32707   3.361   1.502   7.668 -0.5912 -0.7030  0.0304
 7025SOL    HW132708   3.424   1.447   7.714  0.0757 -1.7957 -2.2248
 7025SOL    HW232709   3.354   1.448   7.590 -0.6923  0.0275 -0.4750
 7026SOL     OW32710   0.360   1.082   8.170  0.0995  0.0753 -0.0508
 7026SOL    HW132711   0.421   1.077   8.096 -0.8247  1.4127 -0.9158
 7026SOL    HW232712   0.318   1.164   8.144  0.3268  0.8510  1.9728
 7027SOL     OW32713   3.982   1.230   9.081 -0.2172 -0.4219 -0.1966
 7027SOL    HW132714   3.918   1.286   9.124  1.1732  0.7753  0.3142
 7027SOL    HW232715   4.072   1.263   9.090  0.3919 -1.8087 -1.1613
 7028SOL     OW32716   4.115   4.358   5.805 -0.0533 -0.1732 -0.4764
 7028SOL    HW132717   4.192   4.301   5.801  1.4328  1.7763 -0.1081
 7028SOL    HW232718   4.164   4.437   5.779  1.6672 -1.2344 -0.4668
 7029SOL     OW32719   2.707   3.632   9.964  0.0426 -0.3451  0.0381
 7029SOL    HW132720   2.676   3.584   9.888 -0.2019  0.9732 -0.6886
 7029SOL    HW232721   2.625   3.655  10.008  0.4012 -1.0834  1.0942
 7030SOL     OW32722   1.738   4.572   4.161  0.0728  0.1432 -0.3781
 7030SOL    HW132723   1.752   4.494   4.215 -1.6267  1.8828  2.5518
 7030SOL    HW232724   1.708   4.537   4.077  0.1227 -0.3598 -0.1876
 7031SOL     OW32725   0.477   3.768   1.879 -0.1461  0.2065  0.0126
 7031SOL    HW132726   0.548   3.717   1.838  0.1026  0.4135  0.1818
 7031SOL    HW232727   0.473   3.730   1.967  2.1469 -0.0430  0.0207
 7032SOL     OW32728   3.881   0.714   1.850 -0.0074 -0.2171 -0.0972
 7032SOL    HW132729   3.942   0.641   1.863  0.1425 -0.1147 -0.2316
 7032SOL    HW232730   3.868   0.691   1.758 -3.3104 -1.8423  0.7805
 7033SOL     OW32731   3.565   0.223   2.359  0.1080 -0.3318  0.0235
 7033SOL    HW132732   3.502   0.270   2.305  1.2398  2.2866  1.0110
 7033SOL    HW232733   3.642   0.278   2.373 -0.6355  0.7807 -0.2839
 7034SOL     OW32734   1.643   2.564   9.270  0.8148  0.2390 -0.0712
 7034SOL    HW132735   1.602   2.539   9.187  3.1013  1.0005 -1.4381
 7034SOL    HW232736   1.610   2.652   9.286  0.6420 -0.0426  1.0860
 7035SOL     OW32737   2.378   2.337   3.347  0.1797  0.5012 -0.6534
 7035SOL    HW132738   2.330   2.269   3.300 -3.5411  0.2470  3.5238
 7035SOL    HW232739   2.354   2.413   3.295 -0.7877 -1.3142 -2.8313
 7036SOL     OW32740   3.024   0.748  14.352  0.7574 -0.4447  0.0629
 7036SOL    HW132741   2.973   0.828  14.342 -1.7380 -1.8941  1.0893
 7036SOL    HW232742   2.986   0.705  14.276  3.5030 -0.4810 -1.2869
 7037SOL     OW32743   0.304   2.186   1.408 -0.5241 -0.1460 -0.7055
 7037SOL    HW132744   0.235   2.240   1.447  1.0192  1.0665  0.3562
 7037SOL    HW232745   0.244   2.134   1.355 -1.1039  0.1682 -0.3595
 7038SOL     OW32746   3.524   2.693   2.464 -0.7140 -0.7135  0.0173
 7038SOL    HW132747   3.472   2.646   2.529 -0.0533  0.2152  1.2086
 7038SOL    HW232748   3.452   2.702   2.401  0.4629 -1.4448 -1.4534
 7039SOL     OW32749   2.674   1.681   6.307 -0.0096 -0.2466  0.0193
 7039SOL    HW132750   2.660   1.645   6.395 -0.2444  1.0235  0.4971
 7039SOL    HW232751   2.664   1.610   6.244  1.1698  0.3038 -0.7722
 7040SOL     OW32752   3.063   4.066  16.475  0.4513  0.0955 -0.1215
 7040SOL    HW132753   3.014   4.117  16.411 -0.4580  0.5683  0.9510
 7040SOL    HW232754   3.042   4.117  16.553  1.1880  0.5847 -0.2453
 7041SOL     OW32755   0.424   0.224  14.450 -0.5065 -0.1289 -0.3693
 7041SOL    HW132756   0.335   0.189  14.459 -0.0580 -0.6577  2.0565
 7041SOL    HW232757   0.475   0.149  14.480 -0.8748  0.6233  2.1617
 7042SOL     OW32758   3.077   0.643  10.181 -0.7951 -1.0214  0.1764
 7042SOL    HW132759   3.165   0.672  10.206 -1.6558  0.3476  1.6370
 7042SOL    HW232760   3.027   0.648  10.263 -0.7496  1.2941  0.0609
 7043SOL     OW32761   1.863   2.955   8.395 -0.1046 -0.9715 -0.6364
 7043SOL    HW132762   1.950   2.982   8.427 -0.8391  0.6940 -0.0730
 7043SOL    HW232763   1.813   2.970   8.475  1.1153  1.5235 -0.3279
 7044SOL     OW32764   3.543   1.484   4.637 -0.0097 -0.0699 -0.0591
 7044SOL    HW132765   3.508   1.568   4.665 -0.2398 -0.4497  0.7740
 7044SOL    HW232766   3.519   1.483   4.544 -0.5024 -1.0497  0.0742
 7045SOL     OW32767   2.753   2.355   5.242  0.4301 -0.4536 -0.2640
 7045SOL    HW132768   2.848   2.342   5.252  0.5467  2.5763  2.6310
 7045SOL    HW232769   2.732   2.392   5.328  1.2332  2.0905 -1.1406
 7046SOL     OW32770   1.262   1.448   1.856 -0.3804 -0.1455  0.0680
 7046SOL    HW132771   1.281   1.360   1.889  1.6028 -0.3881 -1.6807
 7046SOL    HW232772   1.288   1.443   1.764 -0.5759  0.7243 -0.0295
 7047SOL     OW32773   1.261   2.780   6.318  0.5243 -0.2410  0.3923
 7047SOL    HW132774   1.173   2.776   6.282  1.3964  0.1560 -1.7468
 7047SOL    HW232775   1.272   2.687   6.335 -0.9823 -0.1644  1.7720
 7048SOL     OW32776   0.087   0.250  11.265  0.0277 -0.1110  0.0924
 7048SOL    HW132777   0.168   0.271  11.311  1.4154  0.1615 -2.4841
 7048SOL    HW232778   0.022   0.267  11.333  1.0145  2.7393  0.3314
 7049SOL     OW32779   0.618   3.458  11.833 -0.3498 -0.5597  0.1454
 7049SOL    HW132780   0.643   3.392  11.898  1.0961 -0.3027 -0.1341
 7049SOL    HW232781   0.702   3.502  11.817 -0.0505 -1.6430 -1.3141
 7050SOL     OW32782   4.681   2.236   3.667 -0.0631  0.1087 -0.5553
 7050SOL    HW132783   4.699   2.290   3.744 -3.1680 -0.5357  0.6318
 7050SOL    HW232784   4.596   2.269   3.635 -0.0322  1.1985  0.4875
 7051SOL     OW32785   0.715   0.853  10.221 -0.0807 -0.2527 -0.1782
 7051SOL    HW132786   0.685   0.872  10.310 -2.0391 -2.0267 -0.4467
 7051SOL    HW232787   0.799   0.896  10.213  0.2019 -0.9294 -0.8547
 7052SOL     OW32788   1.077   0.405   4.721 -0.0686  0.1230  0.2411
 7052SOL    HW132789   1.077   0.316   4.756 -2.9051 -0.5003 -1.3304
 7052SOL    HW232790   1.066   0.459   4.799 -1.5446 -0.6003  0.5428
 7053SOL     OW32791   3.649   1.615   1.437 -0.1878 -0.5935 -0.0142
 7053SOL    HW132792   3.619   1.614   1.346 -1.0124 -0.0575  0.2508
 7053SOL    HW232793   3.633   1.703   1.471 -0.7897 -0.6355 -0.1855
 7054SOL     OW32794   3.311   4.414   6.107  0.5786  1.0067 -0.2177
 7054SOL    HW132795   3.237   4.430   6.165  1.4404  1.9646  0.6264
 7054SOL    HW232796   3.361   4.353   6.162  1.5209  0.4242 -1.7195
 7055SOL     OW32797   2.582   3.146  10.620 -0.2192  0.3789 -0.0571
 7055SOL    HW132798   2.604   3.223  10.567 -1.5031  0.8271  0.0606
 7055SOL    HW232799   2.487   3.150  10.610 -0.3590  0.5621  1.2817
 7056SOL     OW32800   2.497   4.462   4.341 -0.5962 -0.5415  0.4299
 7056SOL    HW132801   2.479   4.542   4.390  0.1851 -0.3657  0.4383
 7056SOL    HW232802   2.588   4.458   4.373 -0.0433 -2.1944 -1.3397
 7057SOL     OW32803   1.764   2.667  13.761  0.1937 -0.1913  0.7117
 7057SOL    HW132804   1.717   2.637  13.683  3.4940 -0.3661 -1.1712
 7057SOL    HW232805   1.793   2.754  13.736 -0.8805 -0.8760 -3.0391
 7058SOL     OW32806   3.819   3.945  13.858 -0.3277  0.1194  0.1172
 7058SOL    HW132807   3.813   4.004  13.933 -2.5362  2.8130 -2.2052
 7058SOL    HW232808   3.786   4.010  13.797 -0.1150  2.3653  2.3790
 7059SOL     OW32809   1.975   2.159   8.306 -0.0279 -0.3850 -0.1318
 7059SOL    HW132810   1.970   2.252   8.328  2.5899 -0.3955  0.5313
 7059SOL    HW232811   1.908   2.148   8.239  1.9444 -1.3682 -1.9685
 7060SOL     OW32812   1.541   0.057  14.344 -0.8866  0.0650 -0.1425
 7060SOL    HW132813   1.556   0.105  14.425  1.3159 -0.5136 -0.2160
 7060SOL    HW232814   1.553   0.127  14.280  1.1135 -0.8837 -0.8093
 7061SOL     OW32815   4.592   3.723   7.110  0.0495 -0.3028  0.5209
 7061SOL    HW132816   4.627   3.780   7.179  0.6282 -0.4946  0.3912
 7061SOL    HW232817   4.661   3.659   7.092  0.2044 -0.6003  2.1080
 7062SOL     OW32818   2.786   0.227   7.763  0.0493  0.4272  0.1659
 7062SOL    HW132819   2.757   0.265   7.679  0.3987  1.4132  0.4902
 7062SOL    HW232820   2.820   0.143   7.733 -1.8160  0.0596 -0.9230
 7063SOL     OW32821   3.264   2.791   5.947 -0.2044 -0.2163 -0.3100
 7063SOL    HW132822   3.183   2.829   5.913 -1.4570 -1.1664  1.5780
 7063SOL    HW232823   3.302   2.867   5.991 -0.1254 -0.9694  0.9400
 7064SOL     OW32824   1.133   0.148   7.440 -0.0824  0.1431 -0.3233
 7064SOL    HW132825   1.219   0.184   7.461  0.0690 -2.5976  3.6516
 7064SOL    HW232826   1.139   0.064   7.484  1.6890  0.3381 -0.1916
 7065SOL     OW32827   3.181   3.664   3.265 -0.5111  0.0330 -0.0197
 7065SOL    HW132828   3.135   3.746   3.285 -0.4140 -0.2128  1.1736
 7065SOL    HW232829   3.265   3.681   3.306 -0.6096  3.0231 -1.0428
 7066SOL     OW32830   4.548   2.760   5.408 -0.4583  0.2623  0.0240
 7066SOL    HW132831   4.607   2.832   5.388 -1.3535  0.5918 -1.4323
 7066SOL    HW232832   4.549   2.714   5.324 -1.4759 -1.3122  0.8745
 7067SOL     OW32833   0.511   4.191   5.991 -0.7020 -0.0013  0.1788
 7067SOL    HW132834   0.555   4.119   5.946  1.4154  1.1340  0.4265
 7067SOL    HW232835   0.567   4.266   5.973 -3.3119  1.8320 -0.2087
 7068SOL     OW32836   1.676   3.602  16.379  0.1714 -0.2074  0.2454
 7068SOL    HW132837   1.747   3.538  16.387 -0.4126 -0.9110 -0.1847
 7068SOL    HW232838   1.664   3.625  16.472  1.7282 -0.0387  0.3965
 7069SOL     OW32839   2.938   4.252   8.300 -0.3285 -0.4026  0.1031
 7069SOL    HW132840   2.945   4.189   8.229  2.6104 -0.4008  0.3986
 7069SOL    HW232841   2.919   4.192   8.373  1.7792  2.1806  2.8064
 7070SOL     OW32842   4.074   4.215   9.137 -0.4411  0.1558  0.3312
 7070SOL    HW132843   3.991   4.200   9.092 -0.4823 -0.0190  0.4648
 7070SOL    HW232844   4.061   4.208   9.232 -0.4693 -2.9530  0.0981
 7071SOL     OW32845   2.559   3.444   4.195  0.2258 -0.0877 -0.4947
 7071SOL    HW132846   2.486   3.389   4.167  0.6912 -0.2923 -1.3182
 7071SOL    HW232847   2.518   3.530   4.185  0.9654  0.2089 -0.9983
 7072SOL     OW32848   2.774   4.259  17.640 -0.3737 -0.4613 -0.0585
 7072SOL    HW132849   2.726   4.320  17.696  4.5787  1.2929  2.2458
 7072SOL    HW232850   2.704   4.204  17.605 -1.0432  1.3981 -1.6403
 7073SOL     OW32851   1.123   2.807   6.881 -0.6416  0.1795 -1.1409
 7073SOL    HW132852   1.188   2.781   6.815 -2.0189 -2.2484 -1.5164
 7073SOL    HW232853   1.088   2.885   6.838  0.9647  1.0600 -0.8674
 7074SOL     OW32854   4.394   1.751   3.422 -0.2965 -0.3416 -0.3131
 7074SOL    HW132855   4.330   1.706   3.366 -2.1121  2.8989 -0.8912
 7074SOL    HW232856   4.477   1.724   3.383 -0.8867 -1.6109 -0.6923
 7075SOL     OW32857   1.031   3.638   0.514 -0.3739  0.2171  0.2793
 7075SOL    HW132858   0.965   3.570   0.507  1.5986 -1.6421 -0.2550
 7075SOL    HW232859   1.066   3.627   0.426  2.0532  1.1615  1.0983
 7076SOL     OW32860   4.332   1.774   1.747 -0.2620 -0.0965 -0.2420
 7076SOL    HW132861   4.319   1.754   1.654 -0.1367 -1.6180  0.0697
 7076SOL    HW232862   4.427   1.766   1.756 -0.2536 -0.1132 -0.3512
 7077SOL     OW32863   0.989   3.094  13.387 -0.3204 -0.2160 -0.1153
 7077SOL    HW132864   1.052   3.086  13.459 -0.1244 -0.9539 -0.3744
 7077SOL    HW232865   0.945   3.010  13.377 -1.0845  0.1438  0.1623
 7078SOL     OW32866   0.363   1.637   8.269 -0.1696 -0.1189  0.1961
 7078SOL    HW132867   0.355   1.697   8.195 -2.8745 -0.5392  0.1503
 7078SOL    HW232868   0.270   1.632   8.293 -0.5171 -3.1319 -1.7292
 7079SOL     OW32869   4.518   4.531   5.339 -0.9819  0.1434  0.0245
 7079SOL    HW132870   4.519   4.603   5.401 -1.0625  0.4998 -0.3870
 7079SOL    HW232871   4.602   4.497   5.370  0.0601  1.7775 -1.0121
 7080SOL     OW32872   0.138   3.999  10.896  0.0302 -0.5040 -0.3732
 7080SOL    HW132873   0.185   3.932  10.946 -1.8572  0.2297  2.4238
 7080SOL    HW232874   0.209   4.058  10.869 -0.6638  1.1354  1.3753
 7081SOL     OW32875   0.451   0.458   1.421  0.7093 -0.1382 -0.0296
 7081SOL    HW132876   0.475   0.421   1.336 -1.0019  2.6153 -1.7062
 7081SOL    HW232877   0.393   0.530   1.397 -0.9479 -1.2956  0.5277
 7082SOL     OW32878   0.119   3.552   7.961 -0.2483 -0.1142  0.0994
 7082SOL    HW132879   0.037   3.546   8.011  0.1360 -0.1865  0.7125
 7082SOL    HW232880   0.173   3.479   7.990  0.9499  1.2033  1.1816
 7083SOL     OW32881   2.784   3.917   2.039 -0.4609  0.2654 -0.4086
 7083SOL    HW132882   2.781   3.918   1.944 -1.3594  0.1996 -0.3834
 7083SOL    HW232883   2.689   3.913   2.056 -0.4338  3.0399  0.4200
 7084SOL     OW32884   0.501   1.690  13.550  0.2352 -0.3018 -0.7679
 7084SOL    HW132885   0.454   1.768  13.520  0.0236 -0.2671 -0.3370
 7084SOL    HW232886   0.426   1.649  13.593 -1.1856  2.3718 -0.7236
 7085SOL     OW32887   0.078   0.294  13.339  0.0467 -0.4355  0.4786
 7085SOL    HW132888   0.171   0.315  13.349  0.2098 -0.0047 -2.1071
 7085SOL    HW232889   0.079   0.211  13.291  1.0403 -1.4785  2.2903
 7086SOL     OW32890   1.073   2.612   3.436 -0.4311  0.0496 -0.5403
 7086SOL    HW132891   1.094   2.684   3.377  1.3756  0.1932  0.2915
 7086SOL    HW232892   1.155   2.567   3.456  0.2256  1.2638 -0.5246
 7087SOL     OW32893   4.219   3.760   3.898 -0.1497 -0.3239  0.2878
 7087SOL    HW132894   4.243   3.787   3.987 -1.2856  0.7076  0.2849
 7087SOL    HW232895   4.167   3.834   3.867 -0.4520  0.0334  1.6776
 7088SOL     OW32896   1.798   0.457   6.147 -0.4971  0.3248  0.5277
 7088SOL    HW132897   1.784   0.542   6.105 -1.6707 -0.4292 -0.5974
 7088SOL    HW232898   1.724   0.408   6.111 -0.9592  1.3348  0.1087
 7089SOL     OW32899   2.841   4.134   3.849  0.3264  0.1278  0.0700
 7089SOL    HW132900   2.838   4.092   3.935 -1.9444  0.7106  0.2682
 7089SOL    HW232901   2.924   4.182   3.851 -1.8493  3.8847  0.4810
 7090SOL     OW32902   2.674   3.432   8.098 -0.3816  0.5344  0.3254
 7090SOL    HW132903   2.580   3.429   8.076 -0.1016 -0.0053 -0.8074
 7090SOL    HW232904   2.664   3.402   8.189  1.1619 -0.0700  0.2844
 7091SOL     OW32905   0.914   1.790   4.968 -0.6669 -0.2920  0.0822
 7091SOL    HW132906   0.873   1.858   5.022 -1.1904 -0.8692  0.4039
 7091SOL    HW232907   0.973   1.846   4.916 -0.4741 -0.2655  0.3303
 7092SOL     OW32908   4.246   1.881   9.165  0.0604  0.6334 -0.0423
 7092SOL    HW132909   4.162   1.923   9.150 -0.3497  0.1178  0.8320
 7092SOL    HW232910   4.224   1.828   9.242 -0.5266  1.2866  0.2415
 7093SOL     OW32911   4.161   3.372   3.270 -0.4651  0.0142 -0.1212
 7093SOL    HW132912   4.089   3.328   3.315 -0.6530  1.0912  0.6210
 7093SOL    HW232913   4.202   3.292   3.235  0.6576  0.1095  0.9887
 7094SOL     OW32914   1.261   3.322   6.791  0.1364 -0.5481  0.3794
 7094SOL    HW132915   1.204   3.353   6.861  0.0496  0.3914 -0.0979
 7094SOL    HW232916   1.212   3.245   6.764  0.5482 -1.4644  2.2780
 7095SOL     OW32917   1.486   3.210   3.869  0.3053  0.8001  0.2028
 7095SOL    HW132918   1.476   3.124   3.830  0.2203  0.3230  1.2710
 7095SOL    HW232919   1.432   3.208   3.948  0.8627 -0.1324  0.5522
 7096SOL     OW32920   0.028   3.078  16.741 -0.6783 -0.1281  0.3092
 7096SOL    HW132921   0.052   3.114  16.655  0.3401 -0.7525  0.3246
 7096SOL    HW232922   4.728   2.998  16.710 -1.3642 -0.2421  1.5597
 7097SOL     OW32923   2.086   2.478   1.155  0.2642 -0.5914  0.4373
 7097SOL    HW132924   2.083   2.563   1.198  0.8234 -0.9451  1.1713
 7097SOL    HW232925   2.178   2.454   1.167  1.0495  1.1810 -1.8791
 7098SOL     OW32926   1.785   3.472   8.937  0.1023 -0.0956  0.2411
 7098SOL    HW132927   1.742   3.536   8.994  3.5280 -0.0979  2.8408
 7098SOL    HW232928   1.720   3.403   8.943 -0.2639  0.0333 -2.3687
 7099SOL     OW32929   2.565   0.957   3.854 -0.3463  0.3166  0.2655
 7099SOL    HW132930   2.526   0.897   3.917  1.7044 -2.6008 -1.2572
 7099SOL    HW232931   2.607   1.022   3.910 -1.3182 -2.2378  3.9453
 7100SOL     OW32932   3.878   1.591   5.282 -0.3790  0.0732 -0.5662
 7100SOL    HW132933   3.842   1.643   5.354 -1.3429  0.0501 -1.0274
 7100SOL    HW232934   3.814   1.519   5.285 -0.7519  0.3739 -1.4089
 7101SOL     OW32935   2.150   2.216  12.574  0.5288  0.4690  0.0924
 7101SOL    HW132936   2.143   2.236  12.668 -0.1559  0.3103  0.0727
 7101SOL    HW232937   2.066   2.176  12.553  0.7265 -0.8305  1.8078
 7102SOL     OW32938   0.660   2.736  11.328 -0.0958 -0.1617  0.3118
 7102SOL    HW132939   0.663   2.832  11.326 -2.8934 -0.0680  0.5345
 7102SOL    HW232940   0.662   2.715  11.421  2.6847  0.6751  0.4287
 7103SOL     OW32941   2.851   4.369   8.995  0.2172 -0.1923  0.2101
 7103SOL    HW132942   2.784   4.354   9.062 -1.4209  1.8527 -0.9433
 7103SOL    HW232943   2.836   4.297   8.935 -0.5893  1.1792 -1.2210
 7104SOL     OW32944   4.368   1.309   7.273  0.1794 -0.3712 -0.4286
 7104SOL    HW132945   4.346   1.339   7.361 -0.7242  0.0166 -0.7895
 7104SOL    HW232946   4.291   1.254   7.259  1.1947 -1.9436  0.1380
 7105SOL     OW32947   3.812   2.036   2.231 -1.0854  0.5411 -0.7233
 7105SOL    HW132948   3.827   2.094   2.155  1.5143  0.9138  0.0674
 7105SOL    HW232949   3.824   2.105   2.296 -0.3232 -4.2487  4.1415
 7106SOL     OW32950   1.829   4.598   0.469 -0.2550  0.5682  0.5235
 7106SOL    HW132951   1.752   4.542   0.482 -0.5304  1.0094  0.7701
 7106SOL    HW232952   1.879   4.586   0.549  0.2839  1.7164  0.3520
 7107SOL     OW32953   0.821   3.005  16.503  0.0697 -0.4367  0.1190
 7107SOL    HW132954   0.840   3.096  16.480  0.2381 -0.9685 -1.8187
 7107SOL    HW232955   0.860   2.995  16.590  1.5665 -0.2376 -0.5312
 7108SOL     OW32956   3.853   1.419  12.439  0.3916  0.0702  0.0530
 7108SOL    HW132957   3.923   1.391  12.381  0.6371  0.7827  0.0071
 7108SOL    HW232958   3.821   1.336  12.475 -1.1725 -0.2352 -2.0222
 7109SOL     OW32959   1.591   3.249   8.958 -0.5337 -0.6656  0.5149
 7109SOL    HW132960   1.628   3.172   8.916 -3.4179 -1.0587 -1.3224
 7109SOL    HW232961   1.607   3.227   9.050 -0.9531 -4.2515 -0.2627
 7110SOL     OW32962   2.308   3.492   2.217 -0.1307  0.2328 -0.0333
 7110SOL    HW132963   2.225   3.466   2.256 -1.3502 -0.6260 -3.2735
 7110SOL    HW232964   2.367   3.421   2.240 -1.0081 -0.5158 -0.1268
 7111SOL     OW32965   4.167   1.563   5.010 -0.1585 -0.2193 -0.4595
 7111SOL    HW132966   4.178   1.520   4.925  0.5642 -1.4773  0.2853
 7111SOL    HW232967   4.183   1.489   5.068  0.3484  0.8938  0.8064
 7112SOL     OW32968   0.900   1.400   2.691  0.7362  0.1145  0.0876
 7112SOL    HW132969   0.975   1.458   2.672 -1.2723  2.0935 -1.7865
 7112SOL    HW232970   0.909   1.358   2.606 -0.1936 -0.1021  0.1050
 7113SOL     OW32971   3.514   0.743   1.039 -0.5796  0.4041  0.9545
 7113SOL    HW132972   3.547   0.805   1.104  1.3523  1.8865 -1.4439
 7113SOL    HW232973   3.469   0.803   0.980  0.3451  0.3252  0.1620
 7114SOL     OW32974   0.314   1.533   0.116 -0.1889  0.2720  0.3178
 7114SOL    HW132975   0.355   1.587   0.049 -0.4264  0.9680  0.7365
 7114SOL    HW232976   0.369   1.551   0.192  0.9284  1.4726 -0.7718
 7115SOL     OW32977   0.580   2.718   8.127 -0.2621  0.5735 -0.0670
 7115SOL    HW132978   0.631   2.724   8.047  0.4540 -1.8897  0.1988
 7115SOL    HW232979   0.643   2.685   8.192 -1.4576 -0.8278  0.3838
 7116SOL     OW32980   0.622   3.763   0.837  0.1000  0.1188 -0.3704
 7116SOL    HW132981   0.646   3.672   0.824 -0.7612 -0.1312 -0.2240
 7116SOL    HW232982   0.544   3.762   0.781  1.0452 -2.0052 -1.6252
 7117SOL     OW32983   1.777   2.787  11.133 -0.2277 -0.0704 -0.3005
 7117SOL    HW132984   1.776   2.751  11.221  2.3050 -0.1925 -0.3278
 7117SOL    HW232985   1.814   2.711  11.088  3.3456  0.4871  1.6919
 7118SOL     OW32986   4.279   4.420   3.864  0.0938 -0.2319 -0.4589
 7118SOL    HW132987   4.350   4.402   3.802  1.9516  0.0298  1.5849
 7118SOL    HW232988   4.245   4.330   3.863 -2.0537  0.5864 -0.5826
 7119SOL     OW32989   1.858   1.396  10.498  0.0166 -0.3120 -0.2886
 7119SOL    HW132990   1.840   1.488  10.481  0.0271 -0.3269 -0.3829
 7119SOL    HW232991   1.854   1.383  10.593 -1.2508  2.2750 -0.0108
 7120SOL     OW32992   3.309   3.673   6.705 -0.7486  0.1061  0.0436
 7120SOL    HW132993   3.244   3.702   6.641  0.3191 -0.4688 -1.2822
 7120SOL    HW232994   3.274   3.721   6.781 -0.0348  0.0751  0.3916
 7121SOL     OW32995   2.597   0.249   8.735 -0.2781 -0.2837 -0.4421
 7121SOL    HW132996   2.665   0.218   8.795  0.3843  1.0650 -0.4978
 7121SOL    HW232997   2.522   0.194   8.756 -1.3593  0.8516 -1.2996
 7122SOL     OW32998   2.074   4.189  17.113 -0.1616  0.2367 -0.2491
 7122SOL    HW132999   1.987   4.228  17.121 -0.0100  0.5927 -0.3509
 7122SOL    HW233000   2.109   4.227  17.032  0.1917  3.7675  1.5882
 7123SOL     OW33001   0.975   4.425   8.016  0.5072 -0.4735 -0.4271
 7123SOL    HW133002   1.059   4.381   8.032  1.3532  1.9035  1.6071
 7123SOL    HW233003   0.914   4.354   8.037 -1.7065  1.2524 -1.0361
 7124SOL     OW33004   1.718   2.485   7.864  0.4919 -0.2435 -0.0443
 7124SOL    HW133005   1.683   2.571   7.888  0.0486 -0.3211 -0.3981
 7124SOL    HW233006   1.750   2.458   7.950 -0.4544  0.1364  0.4276
 7125SOL     OW33007   0.720   2.436  10.253  0.1258  0.5941 -0.6174
 7125SOL    HW133008   0.736   2.374  10.182  1.9370 -1.3226  1.4411
 7125SOL    HW233009   0.626   2.451  10.246 -0.0994  0.8253  2.5878
 7126SOL     OW33010   2.942   1.477  10.020  0.1664 -0.6098 -1.0270
 7126SOL    HW133011   2.980   1.535  10.086 -1.1618 -1.1639  0.2068
 7126SOL    HW233012   2.921   1.407  10.082 -0.7272 -0.1610 -0.8348
 7127SOL     OW33013   0.891   1.493   1.963 -0.1190 -0.0864  0.6489
 7127SOL    HW133014   0.911   1.583   1.937  1.4222 -0.6199 -0.0038
 7127SOL    HW233015   0.952   1.478   2.035  0.2696 -0.8928  0.1517
 7128SOL     OW33016   2.379   0.946   1.997 -0.7696  0.3140  0.2227
 7128SOL    HW133017   2.311   1.012   1.981  0.0261  1.0667 -0.0589
 7128SOL    HW233018   2.419   0.979   2.077  0.4501  1.0654 -0.6910
 7129SOL     OW33019   3.769   1.740   5.480 -0.0847  0.2044  0.3404
 7129SOL    HW133020   3.687   1.734   5.431  1.4269  0.9568 -2.2990
 7129SOL    HW233021   3.750   1.717   5.571 -1.0084  0.1223  0.1225
 7130SOL     OW33022   4.090   4.175  13.920  0.5211 -0.0128 -0.1166
 7130SOL    HW133023   4.145   4.100  13.941  0.7142  0.9414  2.8352
 7130SOL    HW233024   4.001   4.142  13.934 -0.0165  2.1494  1.5904
 7131SOL     OW33025   3.111   4.143  12.644 -0.6091 -0.5579 -0.0034
 7131SOL    HW133026   3.126   4.205  12.571 -1.0140  2.1285  2.1922
 7131SOL    HW233027   3.186   4.086  12.626  0.6793  1.3448 -0.7493
 7132SOL     OW33028   2.493   1.094   7.017  0.1376 -0.3231  0.6028
 7132SOL    HW133029   2.464   1.050   6.936  3.6260  0.6940 -1.1742
 7132SOL    HW233030   2.588   1.092   7.004  0.4660  0.0988  2.9869
 7133SOL     OW33031   1.201   4.150   5.401 -0.2948  0.1001  0.3619
 7133SOL    HW133032   1.142   4.127   5.472  0.7728  2.5313  2.0378
 7133SOL    HW233033   1.142   4.155   5.326 -1.8710 -2.2830  1.4364
 7134SOL     OW33034   1.641   4.096   5.709 -0.1870 -0.3098 -0.5096
 7134SOL    HW133035   1.688   4.138   5.781 -0.3591 -0.5145 -0.2749
 7134SOL    HW233036   1.682   4.108   5.624  0.1534  2.1047 -0.0174
 7135SOL     OW33037   0.541   0.196  13.194 -0.0866 -0.4130  0.2270
 7135SOL    HW133038   0.594   0.223  13.119 -0.2579 -2.3752 -0.6150
 7135SOL    HW233039   0.524   0.106  13.164  2.0422 -2.1285  4.2194
 7136SOL     OW33040   0.975   1.486   3.151  0.0484 -0.2449  0.4654
 7136SOL    HW133041   0.924   1.535   3.216  1.4277 -1.9446  2.8217
 7136SOL    HW233042   0.945   1.537   3.075 -0.8665  0.2334  1.1444
 7137SOL     OW33043   0.028   3.629   3.056 -0.1009 -0.0255  0.3636
 7137SOL    HW133044   0.065   3.696   3.114 -0.6018  0.1760  0.4603
 7137SOL    HW233045   4.687   3.676   3.044  0.5837  0.7645 -1.2138
 7138SOL     OW33046   2.196   1.676   2.554 -0.0870 -0.1461 -0.3771
 7138SOL    HW133047   2.269   1.719   2.510  0.0832 -1.3070 -1.2236
 7138SOL    HW233048   2.235   1.608   2.609 -3.3833 -2.1774 -0.5809
 7139SOL     OW33049   1.435   2.323   1.363 -0.1807 -0.1726  0.2975
 7139SOL    HW133050   1.439   2.238   1.319 -1.5513  0.4584 -1.0605
 7139SOL    HW233051   1.434   2.385   1.289 -2.8259 -0.5251  0.0376
 7140SOL     OW33052   3.271   0.669   4.431 -0.6016  0.1712  0.0543
 7140SOL    HW133053   3.195   0.650   4.376  0.6529  2.9249 -2.6381
 7140SOL    HW233054   3.302   0.579   4.445 -2.3596 -0.4211  0.1405
 7141SOL     OW33055   1.224   3.797  17.619 -0.7158  0.1752  0.3036
 7141SOL    HW133056   1.238   3.823  17.528 -0.0294  1.4411  0.7694
 7141SOL    HW233057   1.173   3.872  17.651  1.2302  1.7016 -0.1493
 7142SOL     OW33058   3.906   4.208   3.195  0.0158  0.6078 -0.4895
 7142SOL    HW133059   3.885   4.288   3.241 -0.7456 -1.8838  3.4765
 7142SOL    HW233060   3.867   4.232   3.111  1.0107  1.0396 -0.8233
 7143SOL     OW33061   2.322   2.919  11.621  0.2860 -0.0556  0.0326
 7143SOL    HW133062   2.347   3.008  11.644 -0.8744  0.0776  0.7620
 7143SOL    HW233063   2.292   2.894  11.709  2.6460  2.1233  1.4542
 7144SOL     OW33064   1.397   3.392   3.670 -0.7273 -0.0941  0.4513
 7144SOL    HW133065   1.311   3.409   3.709 -0.6132 -1.9989  1.5579
 7144SOL    HW233066   1.441   3.348   3.743  0.9416 -0.8275 -1.0313
 7145SOL     OW33067   1.387   0.263   0.216  0.0217  0.2893  0.1493
 7145SOL    HW133068   1.394   0.314   0.297  2.1782 -2.3753  1.6451
 7145SOL    HW233069   1.367   0.179   0.257  0.7199  0.2272  0.3700
 7146SOL     OW33070   0.854   1.799   2.755  0.4961 -0.0729  0.1084
 7146SOL    HW133071   0.822   1.825   2.668  0.2017  0.1142  0.2724
 7146SOL    HW233072   0.947   1.820   2.747  0.6613  0.0457  2.5739
 7147SOL     OW33073   1.044   2.599   4.049 -0.2808  0.2236  0.0786
 7147SOL    HW133074   0.949   2.611   4.044 -0.0511  2.1826  0.4632
 7147SOL    HW233075   1.062   2.540   3.976  0.4632 -0.3192  0.7016
 7148SOL     OW33076   0.488   4.283   3.216  0.5772  0.4207  0.1040
 7148SOL    HW133077   0.449   4.369   3.203  0.5979  0.4325  0.1196
 7148SOL    HW233078   0.518   4.281   3.307 -0.7118  0.6816  0.5293
 7149SOL     OW33079   1.326   3.910  17.001 -0.4300 -0.1195 -0.0237
 7149SOL    HW133080   1.359   3.821  16.991 -1.0582 -0.2117 -1.3681
 7149SOL    HW233081   1.246   3.896  17.053 -0.8866  0.1101 -0.6633
 7150SOL     OW33082   2.519   0.775   3.161  0.3908 -0.2517 -0.1840
 7150SOL    HW133083   2.432   0.735   3.170 -0.3295  1.0796 -1.3386
 7150SOL    HW233084   2.501   0.855   3.112 -0.6485 -0.2679  0.1641
 7151SOL     OW33085   3.504   1.021  16.921 -0.1438  0.0097 -0.0047
 7151SOL    HW133086   3.418   1.062  16.911  0.6085  0.9253 -2.7952
 7151SOL    HW233087   3.542   1.035  16.834 -0.4713  0.1586 -0.1240
 7152SOL     OW33088   1.715   2.868  15.202  0.0302  0.1885  0.1591
 7152SOL    HW133089   1.735   2.908  15.118  0.5219 -1.8583 -0.6925
 7152SOL    HW233090   1.620   2.861  15.204 -0.0113  0.6411 -0.4315
 7153SOL     OW33091   1.278   0.116   7.958 -0.0289  0.0748 -0.8530
 7153SOL    HW133092   1.246   0.028   7.939 -0.4829  0.1724 -0.5571
 7153SOL    HW233093   1.323   0.091   8.039 -0.0096 -0.1439 -0.9325
 7154SOL     OW33094   3.521   3.064   4.211  0.3689 -0.6293 -0.1306
 7154SOL    HW133095   3.433   3.028   4.198  0.7967 -1.2761 -1.2233
 7154SOL    HW233096   3.500   3.156   4.198 -0.5793 -0.4854  2.2635
 7155SOL     OW33097   2.433   1.358   3.914  0.3994 -0.0058 -0.1556
 7155SOL    HW133098   2.482   1.303   3.853  1.8064  0.9280  0.1327
 7155SOL    HW233099   2.356   1.374   3.858  1.1965  1.1119 -0.9335
 7156SOL     OW33100   4.734   2.251   6.919 -0.7353 -0.3176  0.1714
 7156SOL    HW133101   0.033   2.212   6.996  2.2458  0.2490 -1.1349
 7156SOL    HW233102   4.678   2.180   6.886  0.0248 -1.1083  0.5708
 7157SOL     OW33103   0.583   0.393  17.124 -0.6396  0.6636  0.1344
 7157SOL    HW133104   0.503   0.393  17.072 -1.1557  1.2047  0.9347
 7157SOL    HW233105   0.595   0.486  17.140 -3.4296  1.0049  0.3448
 7158SOL     OW33106   3.834   0.265   5.667  0.6544 -0.0767 -0.1058
 7158SOL    HW133107   3.810   0.204   5.598  0.1625 -0.5205  0.4518
 7158SOL    HW233108   3.753   0.268   5.718  0.9006  1.0061  0.2136
 7159SOL     OW33109   4.435   3.076   7.746 -0.1285 -0.2834 -0.0297
 7159SOL    HW133110   4.430   3.171   7.755 -2.5264 -0.4845  0.7592
 7159SOL    HW233111   4.341   3.057   7.753 -0.4742  1.3931  0.0190
 7160SOL     OW33112   4.582   1.366   7.847  0.0435 -0.0531 -0.2042
 7160SOL    HW133113   4.676   1.378   7.862  0.3547  0.0448 -2.3560
 7160SOL    HW233114   4.564   1.404   7.762 -2.8245  0.4320  0.6329
 7161SOL     OW33115   4.566   3.588   5.782 -0.7568 -0.1794 -0.0896
 7161SOL    HW133116   4.482   3.548   5.756 -2.4159  2.5425  1.0422
 7161SOL    HW233117   4.549   3.636   5.864 -0.5312  1.2329 -0.8691
 7162SOL     OW33118   2.478   2.456   5.998  0.2835 -0.2797  0.1732
 7162SOL    HW133119   2.452   2.379   5.948  0.1069  0.1384 -0.3828
 7162SOL    HW233120   2.536   2.504   5.939  0.4106  0.2491  0.7256
 7163SOL     OW33121   3.891   3.458   8.884  0.3764 -0.0480 -0.3377
 7163SOL    HW133122   3.985   3.443   8.896  0.1154 -0.8952  0.7091
 7163SOL    HW233123   3.852   3.406   8.955 -0.1376  1.7878  0.7109
 7164SOL     OW33124   1.017   2.785   0.029 -0.2067  0.1115  0.3978
 7164SOL    HW133125   0.934   2.762  17.753  1.6060 -2.0317 -2.0477
 7164SOL    HW233126   1.079   2.720  17.763 -1.3600 -0.0053 -1.6542
 7165SOL     OW33127   3.784   2.274   8.663  0.1619  0.4142  0.2770
 7165SOL    HW133128   3.724   2.333   8.708  0.5486  0.6874  0.4385
 7165SOL    HW233129   3.719   2.232   8.606  1.9981 -2.7275  0.4846
 7166SOL     OW33130   2.405   4.198   9.427 -0.2232  0.0223 -0.1275
 7166SOL    HW133131   2.329   4.251   9.405 -0.0979 -0.2347 -1.2034
 7166SOL    HW233132   2.421   4.216   9.519 -0.6142 -1.2272  0.1885
 7167SOL     OW33133   1.535   1.704  10.582  0.1409 -0.0658 -0.0885
 7167SOL    HW133134   1.571   1.648  10.513 -0.8777 -2.2912  1.2223
 7167SOL    HW233135   1.519   1.646  10.656 -1.3010  1.6068  0.9172
 7168SOL     OW33136   0.015   3.756   3.461  0.2292  0.8491  0.5504
 7168SOL    HW133137   4.719   3.808   3.532 -2.3620  0.6308 -0.6661
 7168SOL    HW233138   4.682   3.715   3.417 -1.8760  4.2936  1.0038
 7169SOL     OW33139   4.715   4.606  13.593  0.0106  0.2348  0.2727
 7169SOL    HW133140   0.006   4.519  13.616  1.1153  1.2662  2.5606
 7169SOL    HW233141   0.048   4.664  13.602  1.5268 -1.5167 -0.9519
 7170SOL     OW33142   0.940   2.205  13.995  0.2502 -0.0321 -0.2262
 7170SOL    HW133143   0.998   2.133  14.020 -1.0397 -0.9720  0.0555
 7170SOL    HW233144   0.955   2.201  13.900 -0.1875  0.0022 -0.2956
 7171SOL     OW33145   3.981   3.678   2.179 -0.0351  0.0792  0.1484
 7171SOL    HW133146   4.065   3.723   2.190 -0.2636  0.0812  1.8932
 7171SOL    HW233147   3.919   3.749   2.164 -0.3560 -0.6214 -1.8275
 7172SOL     OW33148   2.559   0.505   9.281 -0.1848 -0.0065 -0.0334
 7172SOL    HW133149   2.510   0.570   9.332  1.2949  1.8152 -0.8888
 7172SOL    HW233150   2.489   0.460   9.235 -0.2887 -1.7995  1.8537
 7173SOL     OW33151   2.236   4.007   4.911 -0.1759  0.1586  0.6560
 7173SOL    HW133152   2.232   4.097   4.880 -0.1345  0.0413  0.2978
 7173SOL    HW233153   2.322   3.988   4.874  0.7408  2.0081  1.8849
 7174SOL     OW33154   3.726   0.202   3.235 -0.4103 -0.1035 -0.2192
 7174SOL    HW133155   3.777   0.135   3.281  0.5048  1.3767  0.9077
 7174SOL    HW233156   3.768   0.279   3.273  4.1895 -2.5576 -0.4119
 7175SOL     OW33157   4.161   1.894   4.931  0.2674  0.4870 -0.4202
 7175SOL    HW133158   4.186   1.865   4.843  1.4349 -0.3532  0.1919
 7175SOL    HW233159   4.106   1.820   4.955 -0.6146  0.4682 -2.5186
 7176SOL     OW33160   2.974   2.143   7.004 -0.0411 -0.5527 -0.0287
 7176SOL    HW133161   2.957   2.049   7.014 -0.0309 -0.2537  2.7777
 7176SOL    HW233162   3.055   2.142   6.952 -0.1873  1.3869 -0.2845
 7177SOL     OW33163   1.208   1.622   0.510  0.2579 -0.1686 -0.4221
 7177SOL    HW133164   1.144   1.674   0.558  1.4988  1.0606 -0.0840
 7177SOL    HW233165   1.289   1.658   0.547  0.6064  0.9194 -2.2295
 7178SOL     OW33166   1.859   2.656   7.628 -0.3393 -0.1448  0.3141
 7178SOL    HW133167   1.804   2.733   7.642 -1.8637 -1.4312  1.4257
 7178SOL    HW233168   1.902   2.647   7.714 -0.5864 -1.2158  0.3189
 7179SOL     OW33169   4.088   2.427   2.300  0.2343 -0.5609 -0.0971
 7179SOL    HW133170   4.101   2.519   2.323 -1.0402 -0.3932 -0.0940
 7179SOL    HW233171   4.161   2.417   2.238 -0.7617  1.3945 -1.5972
 7180SOL     OW33172   1.540   2.154  16.611  0.4250 -0.0686 -0.1734
 7180SOL    HW133173   1.525   2.229  16.668 -2.8995 -1.3342  0.6225
 7180SOL    HW233174   1.487   2.081  16.643 -1.7605  1.8495  0.5397
 7181SOL     OW33175   1.678   4.109  17.099  0.1814 -0.1250 -0.0722
 7181SOL    HW133176   1.710   4.043  17.160  0.9298 -0.6900 -1.0739
 7181SOL    HW233177   1.718   4.189  17.132 -0.7833 -0.6667  2.4481
 7182SOL     OW33178   4.345   3.342   2.662  0.0860  0.2575  0.1217
 7182SOL    HW133179   4.268   3.292   2.688 -0.9130  0.5886 -2.1945
 7182SOL    HW233180   4.300   3.421   2.631  2.3075  1.3962 -0.2290
 7183SOL     OW33181   4.489   0.332   6.348  0.2247  0.6478  0.4413
 7183SOL    HW133182   4.513   0.266   6.282 -0.7444  0.3997  0.3364
 7183SOL    HW233183   4.501   0.412   6.297  0.8735  0.8713  0.9329
 7184SOL     OW33184   0.854   0.576   4.030 -0.2334 -0.1372  0.1417
 7184SOL    HW133185   0.944   0.549   4.014 -0.5343  0.1526 -2.1041
 7184SOL    HW233186   0.855   0.646   3.964  1.8636  1.0963  1.4922
 7185SOL     OW33187   2.111   0.889   4.753 -0.0489 -0.1771 -0.2494
 7185SOL    HW133188   2.078   0.907   4.665  0.2871  1.6311 -0.0217
 7185SOL    HW233189   2.110   0.978   4.790  0.2627  0.0720 -0.8526
 7186SOL     OW33190   0.210   1.820   3.200 -0.4268 -0.1150  0.2071
 7186SOL    HW133191   0.187   1.748   3.141 -2.4513  1.1300 -0.5161
 7186SOL    HW233192   0.306   1.826   3.195 -0.3379 -0.8389  1.0617
 7187SOL     OW33193   2.928   2.922  16.452 -0.4007  0.2634 -0.2198
 7187SOL    HW133194   2.853   2.925  16.393  2.2476  0.6956 -3.5386
 7187SOL    HW233195   2.888   2.881  16.529 -1.0015 -0.8645 -1.1361
 7188SOL     OW33196   0.045   1.916   5.959  0.2323 -0.1674  0.8456
 7188SOL    HW133197   0.117   1.889   5.902 -0.6203 -0.0451 -0.2817
 7188SOL    HW233198   0.079   2.000   5.990  0.2120  0.7787 -1.7404
 7189SOL     OW33199   2.534   2.615   0.312  0.1745 -0.3565 -0.1387
 7189SOL    HW133200   2.549   2.676   0.240  0.1660 -2.1994 -1.6993
 7189SOL    HW233201   2.568   2.535   0.273  1.1170  0.2198 -0.4866
 7190SOL     OW33202   0.479   4.205   7.760 -0.0961  0.1428  0.0861
 7190SOL    HW133203   0.456   4.129   7.705  0.9118 -0.3650  0.3630
 7190SOL    HW233204   0.429   4.182   7.838 -0.4929  2.6743  0.5617
 7191SOL     OW33205   2.421   1.779  10.269  0.3875 -0.5887 -0.0148
 7191SOL    HW133206   2.367   1.753  10.194  0.2317  3.0938 -1.1839
 7191SOL    HW233207   2.504   1.732  10.260  0.2730 -0.2604 -2.6006
 7192SOL     OW33208   1.474   3.258   0.811 -0.2202  0.2236  0.6783
 7192SOL    HW133209   1.432   3.178   0.841  3.0853 -1.2502  1.3847
 7192SOL    HW233210   1.510   3.309   0.884  0.6515 -0.0336  0.4337
 7193SOL     OW33211   0.320   1.099   7.473 -0.1776 -0.4525  0.4141
 7193SOL    HW133212   0.242   1.057   7.509  0.0318 -0.6582  0.6226
 7193SOL    HW233213   0.285   1.166   7.415  0.8793 -1.0801 -0.9378
 7194SOL     OW33214   0.925   1.275   3.944  0.1490  0.1022  0.0784
 7194SOL    HW133215   0.867   1.207   3.910  1.7224 -1.5463  0.7552
 7194SOL    HW233216   0.912   1.344   3.878 -2.1679  0.8349  1.3029
 7195SOL     OW33217   3.476   0.290   5.380  0.2645  0.5298  0.2456
 7195SOL    HW133218   3.480   0.214   5.439 -1.0724  0.9258  0.8395
 7195SOL    HW233219   3.400   0.341   5.407 -0.7471 -1.0008  0.3391
 7196SOL     OW33220   2.498   1.369  10.095  0.4461  0.3381 -0.1777
 7196SOL    HW133221   2.459   1.321  10.022 -0.2324 -0.0357  0.4329
 7196SOL    HW233222   2.577   1.325  10.125  0.4595  1.6143  1.7099
 7197SOL     OW33223   2.812   3.383   4.085  0.3177 -0.3522 -0.7948
 7197SOL    HW133224   2.822   3.333   4.167 -0.3165  1.9250  0.6594
 7197SOL    HW233225   2.721   3.409   4.099  0.0152 -0.5814 -2.4140
 7198SOL     OW33226   0.399   0.200   2.734 -0.0700  0.6006 -0.3139
 7198SOL    HW133227   0.381   0.126   2.792  0.8588  0.2751 -0.4353
 7198SOL    HW233228   0.319   0.208   2.683 -0.0096  1.6150 -0.2522
 7199SOL     OW33229   1.313   0.144   0.449 -0.1514 -0.3625 -0.6360
 7199SOL    HW133230   1.354   0.106   0.527  0.4169  0.5538 -0.4918
 7199SOL    HW233231   1.221   0.118   0.455 -0.4653  0.4936 -1.7343
 7200SOL     OW33232   3.654   4.023   5.298  0.0942 -0.6478  0.1562
 7200SOL    HW133233   3.742   4.022   5.335  0.1156 -0.8298  0.0985
 7200SOL    HW233234   3.676   4.044   5.207 -2.1949  0.0471 -0.2393
 7201SOL     OW33235   3.261   2.614   9.648  0.0591  0.1944 -0.0338
 7201SOL    HW133236   3.223   2.684   9.594 -2.5507  0.3703  2.0848
 7201SOL    HW233237   3.185   2.582   9.695  0.4255  1.7263  1.6098
 7202SOL     OW33238   1.276   0.929  11.706 -0.0079  0.4942  0.0163
 7202SOL    HW133239   1.312   0.879  11.633  1.6235 -2.2107  2.6707
 7202SOL    HW233240   1.184   0.903  11.700  0.7809 -2.3134  0.1679
 7203SOL     OW33241   3.489   2.089   2.930 -0.4075 -0.0035 -0.1531
 7203SOL    HW133242   3.427   2.144   2.977 -0.0787 -0.8164  1.2355
 7203SOL    HW233243   3.532   2.043   3.002 -0.7743 -1.0525 -0.5948
 7204SOL     OW33244   0.039   4.473   5.443  0.6815  0.0891  0.0519
 7204SOL    HW133245   0.099   4.508   5.377 -0.1950 -0.4571 -1.0314
 7204SOL    HW233246   0.078   4.390   5.468 -2.1194 -1.0651  0.5498
 7205SOL     OW33247   2.183   0.003  16.824  0.1184 -0.4966 -0.5135
 7205SOL    HW133248   2.203   4.695  16.745  0.5626  0.3117 -0.9209
 7205SOL    HW233249   2.199   0.095  16.800  3.1867 -1.1386 -0.8918
 7206SOL     OW33250   2.784   1.304   7.102 -0.1275  0.0336  0.8095
 7206SOL    HW133251   2.757   1.213   7.093 -1.9154  0.5258  1.0171
 7206SOL    HW233252   2.767   1.308   7.197  0.0126 -4.1447  0.9717
 7207SOL     OW33253   3.770   0.381  11.196 -0.6556 -0.7266  0.2165
 7207SOL    HW133254   3.768   0.438  11.119 -0.4820  1.6260  1.9700
 7207SOL    HW233255   3.816   0.435  11.259 -0.1191 -0.1943 -0.6216
 7208SOL     OW33256   3.435   3.069   5.085 -0.0153 -0.2910 -0.6984
 7208SOL    HW133257   3.433   3.010   5.010  2.4400  0.4925 -1.3764
 7208SOL    HW233258   3.483   3.145   5.050  1.1668 -0.1973  1.0933
 7209SOL     OW33259   3.568   3.993   8.518  0.3945 -0.4872 -0.5754
 7209SOL    HW133260   3.590   3.962   8.606  0.4210  0.2078 -0.3413
 7209SOL    HW233261   3.639   4.050   8.488 -0.7463  0.1387 -2.0646
 7210SOL     OW33262   3.282   3.959  16.737 -0.5127  0.2551  0.6557
 7210SOL    HW133263   3.301   3.927  16.649  1.0848 -1.7644  1.7492
 7210SOL    HW233264   3.365   4.005  16.748  0.8152 -1.8440 -0.5964
 7211SOL     OW33265   3.845   1.851   0.238 -0.0289  0.8811  0.1098
 7211SOL    HW133266   3.802   1.840   0.323 -0.7584  1.7386 -0.1555
 7211SOL    HW233267   3.936   1.860   0.267  0.5686 -0.1447 -1.4651
 7212SOL     OW33268   4.340   0.729   8.678 -0.0500  0.0077  0.0134
 7212SOL    HW133269   4.357   0.763   8.590  1.0575  1.8545  0.9492
 7212SOL    HW233270   4.420   0.756   8.724 -0.2055  1.7168 -0.7170
 7213SOL     OW33271   1.691   1.527   6.346 -0.0750 -0.0626  0.1374
 7213SOL    HW133272   1.682   1.439   6.382  1.5964 -0.0453  0.6090
 7213SOL    HW233273   1.748   1.567   6.412  0.4607  0.9233 -0.9077
 7214SOL     OW33274   1.238   3.429   4.122 -1.0188 -0.0089 -0.4087
 7214SOL    HW133275   1.187   3.354   4.091  0.7147 -1.6401  0.6938
 7214SOL    HW233276   1.313   3.380   4.157 -1.4615 -0.5662 -0.2313
 7215SOL     OW33277   3.671   1.549   0.676 -0.5011 -0.6371  0.5015
 7215SOL    HW133278   3.756   1.585   0.702 -1.6820  1.1437  1.9486
 7215SOL    HW233279   3.693   1.458   0.656 -1.3157 -0.8039  0.3656
 7216SOL     OW33280   3.145   3.077  14.547  0.2310  0.3041 -0.2276
 7216SOL    HW133281   3.139   3.157  14.599 -0.1995  0.4422 -0.4928
 7216SOL    HW233282   3.054   3.047  14.550  0.4855 -0.5041 -0.4796
 7217SOL     OW33283   0.822   2.823   2.969 -0.1321  0.3064  0.4886
 7217SOL    HW133284   0.900   2.819   2.913 -0.2426 -1.0165  0.4312
 7217SOL    HW233285   0.829   2.740   3.015 -1.9933  0.9756  2.0040
 7218SOL     OW33286   3.407   3.740   4.318  0.7840 -0.7691 -0.1454
 7218SOL    HW133287   3.358   3.812   4.357  0.0965 -1.7002  0.6939
 7218SOL    HW233288   3.438   3.688   4.393 -0.9292 -2.2993 -0.5239
 7219SOL     OW33289   0.267   3.173   4.684 -0.1677  0.3545 -0.3869
 7219SOL    HW133290   0.331   3.132   4.626  1.1556 -0.1506  1.4329
 7219SOL    HW233291   0.284   3.108   4.752  2.0688 -1.0444 -2.2781
 7220SOL     OW33292   0.442   4.686   7.102 -0.1512 -0.6658 -0.0732
 7220SOL    HW133293   0.403   4.657   7.020  1.0386 -1.3364 -0.4022
 7220SOL    HW233294   0.385   4.641   7.165 -1.9801  0.0973 -1.1887
 7221SOL     OW33295   4.183   0.584  13.874  0.3456 -0.2601 -0.4191
 7221SOL    HW133296   4.196   0.546  13.787  1.1924  1.2946 -0.9720
 7221SOL    HW233297   4.270   0.580  13.913  0.0856 -1.0597  0.0706
 7222SOL     OW33298   2.041   1.040  17.298 -0.0212  0.4801 -0.1537
 7222SOL    HW133299   2.078   0.955  17.324 -0.2478  0.0795 -1.1371
 7222SOL    HW233300   2.096   1.072  17.227 -0.5482  0.1029 -0.7386
 7223SOL     OW33301   2.328   3.276  10.062 -0.0042 -0.0061  0.8358
 7223SOL    HW133302   2.354   3.185  10.072  0.1884  0.0420  0.7764
 7223SOL    HW233303   2.332   3.303  10.154 -0.0665 -1.3893  1.2366
 7224SOL     OW33304   2.830   3.737   8.483 -0.1125  0.6272  0.1347
 7224SOL    HW133305   2.889   3.738   8.408  0.5940 -0.1676  0.6742
 7224SOL    HW233306   2.852   3.657   8.532  0.1397 -0.4614 -1.7703
 7225SOL     OW33307   1.634   0.885   1.590 -0.4893  0.1471 -1.1115
 7225SOL    HW133308   1.614   0.830   1.514 -0.1167  2.7468 -3.1005
 7225SOL    HW233309   1.555   0.867   1.640  0.4366 -1.4890 -0.2199
 7226SOL     OW33310   1.500   4.456   7.476  0.3015 -0.3350 -0.7158
 7226SOL    HW133311   1.578   4.402   7.489  1.2476  1.6432  1.7734
 7226SOL    HW233312   1.459   4.468   7.562  0.3702 -2.3688 -0.3976
 7227SOL     OW33313   1.386   1.374  15.728  0.0952  0.4754 -0.0289
 7227SOL    HW133314   1.313   1.431  15.750  0.5829  1.0307  0.1568
 7227SOL    HW233315   1.381   1.347  15.636 -1.2136 -0.5073  0.3274
 7228SOL     OW33316   4.280   2.246   5.081  0.2373  0.4660 -0.4858
 7228SOL    HW133317   4.374   2.244   5.100  0.3422 -4.8201 -1.6505
 7228SOL    HW233318   4.283   2.276   4.990 -0.7358 -0.2051 -0.7409
 7229SOL     OW33319   1.385   2.006   6.198  0.3294  0.5671 -0.0103
 7229SOL    HW133320   1.413   1.931   6.249 -1.0019 -0.9117 -1.4336
 7229SOL    HW233321   1.408   1.978   6.109 -2.8066 -0.7739 -0.4038
 7230SOL     OW33322   0.106   4.324   2.848 -0.1278 -0.4246 -0.5610
 7230SOL    HW133323   0.013   4.344   2.860  0.1935 -0.9663  3.0467
 7230SOL    HW233324   0.096   4.240   2.894  0.8838 -1.0732 -1.5024
 7231SOL     OW33325   3.478   2.892   5.496  0.2362 -0.0068  0.4120
 7231SOL    HW133326   3.502   2.843   5.575  0.8211 -2.8523 -1.5476
 7231SOL    HW233327   3.490   2.828   5.427  2.1621  0.1051  0.6342
 7232SOL     OW33328   2.903   3.727   3.886  0.1968 -0.2910  0.3611
 7232SOL    HW133329   2.964   3.769   3.825 -0.8632 -1.3840 -1.4562
 7232SOL    HW233330   2.852   3.795   3.929 -1.4460 -1.2599 -0.0618
 7233SOL     OW33331   3.124   1.547  14.093 -0.1651 -0.8714  0.2493
 7233SOL    HW133332   3.084   1.548  14.006 -0.0575  0.0088  0.2115
 7233SOL    HW233333   3.049   1.539  14.151 -0.5012  0.6311  0.0032
 7234SOL     OW33334   4.239   0.489   4.599  0.3978 -0.3189  0.3941
 7234SOL    HW133335   4.168   0.550   4.619  1.7426  1.8077 -1.2900
 7234SOL    HW233336   4.191   0.408   4.609 -0.9737 -0.0043 -3.7662
 7235SOL     OW33337   4.180   1.960  14.957  0.1929 -0.1963 -0.1397
 7235SOL    HW133338   4.112   1.940  14.892 -0.2677  1.0937 -0.0461
 7235SOL    HW233339   4.250   1.901  14.928  1.1135  1.2146 -0.7539
 7236SOL     OW33340   1.068   2.046   3.576  0.2304 -0.4586  0.1891
 7236SOL    HW133341   1.044   2.128   3.618  1.2863  0.7422 -1.5316
 7236SOL    HW233342   1.134   2.067   3.509 -0.6830 -0.6550 -0.7669
 7237SOL     OW33343   3.186   0.178   5.920 -0.1861 -0.1349  0.7320
 7237SOL    HW133344   3.196   0.105   5.982 -0.9499  0.2480  1.3037
 7237SOL    HW233345   3.248   0.149   5.852  0.5992 -1.5989  2.0628
 7238SOL     OW33346   1.351   2.277   3.694  0.6345 -0.1751 -0.1386
 7238SOL    HW133347   1.343   2.321   3.610  0.0639 -2.1109 -1.0857
 7238SOL    HW233348   1.422   2.324   3.738  0.8285 -1.1750  0.6432
 7239SOL     OW33349   1.345   0.558   0.631 -0.3698  0.1464  0.0918
 7239SOL    HW133350   1.285   0.498   0.674  3.9123 -2.0442  3.0142
 7239SOL    HW233351   1.297   0.641   0.631 -1.2181 -0.3577  1.2080
 7240SOL     OW33352   3.466   4.631   3.063  0.0388 -0.3812  0.2497
 7240SOL    HW133353   3.384   4.676   3.046 -0.0893 -0.6381  0.1846
 7240SOL    HW233354   3.443   4.542   3.034 -1.9045  0.1364  0.1918
 7241SOL     OW33355   0.195   3.480   4.410  0.0611  0.8498 -0.0912
 7241SOL    HW133356   0.121   3.435   4.370 -1.5096  2.0631  1.4525
 7241SOL    HW233357   0.189   3.457   4.503  1.1820 -0.0200 -0.2380
 7242SOL     OW33358   2.824   2.952   3.326 -0.2167 -0.3039 -0.4566
 7242SOL    HW133359   2.730   2.942   3.317 -0.8107  1.9046  3.2329
 7242SOL    HW233360   2.837   3.046   3.337 -2.7573  0.1337 -1.4093
 7243SOL     OW33361   1.286   3.450   7.364  0.2365  0.0486 -0.0232
 7243SOL    HW133362   1.281   3.483   7.274  1.0568 -1.9546 -0.8198
 7243SOL    HW233363   1.196   3.463   7.393  0.5372 -0.9960  1.3815
 7244SOL     OW33364   0.323   2.699   7.434  0.0782 -0.1608 -0.7242
 7244SOL    HW133365   0.331   2.648   7.354  0.1957 -4.9650  2.3952
 7244SOL    HW233366   0.261   2.645   7.483  1.4176 -1.8714 -0.9171
 7245SOL     OW33367   2.460   3.937   9.533 -0.4470 -0.6581 -0.4678
 7245SOL    HW133368   2.442   4.021   9.491  0.6823  0.2632  0.8911
 7245SOL    HW233369   2.434   3.950   9.624 -0.8356  0.3313 -0.7235
 7246SOL     OW33370   2.647   1.987  10.294  0.3995  0.5188  0.8757
 7246SOL    HW133371   2.660   2.003  10.201  1.6814  0.0069  0.9598
 7246SOL    HW233372   2.564   1.940  10.305  0.5266  0.3880  1.2948
 7247SOL     OW33373   1.218   4.243   4.177  0.1985  0.0855 -0.5841
 7247SOL    HW133374   1.251   4.190   4.105  2.6044  2.1262 -0.9745
 7247SOL    HW233375   1.131   4.268   4.146 -1.0107 -1.6934  1.3412
 7248SOL     OW33376   2.585   0.604   5.249  0.5321 -0.2645  0.3116
 7248SOL    HW133377   2.620   0.597   5.338 -2.0003  1.7739  1.4598
 7248SOL    HW233378   2.617   0.521   5.214 -0.7010  0.7786 -3.2572
 7249SOL     OW33379   2.908   3.496  13.413  0.0364 -0.0004 -0.0250
 7249SOL    HW133380   2.833   3.541  13.452 -0.3313 -0.8705  0.2937
 7249SOL    HW233381   2.925   3.550  13.336  0.4609  0.4537  0.3916
 7250SOL     OW33382   3.650   0.573   1.855 -0.2759  0.3249 -0.0125
 7250SOL    HW133383   3.638   0.486   1.893  1.4834 -1.0512 -2.6173
 7250SOL    HW233384   3.638   0.620   1.937 -0.4582 -0.4075  0.3763
 7251SOL     OW33385   1.426   0.994   7.101  0.2938 -0.0937  0.5288
 7251SOL    HW133386   1.424   0.922   7.038 -0.0046  0.8861 -0.5772
 7251SOL    HW233387   1.352   1.048   7.075  1.0303  1.2154  1.1617
 7252SOL     OW33388   2.812   2.042  16.841 -0.3345  0.1472  0.1931
 7252SOL    HW133389   2.804   2.125  16.887 -0.4227  0.4399 -0.3461
 7252SOL    HW233390   2.778   1.979  16.904  0.4137  1.3034  1.7326
 7253SOL     OW33391   0.033   3.881  17.648  0.6212  0.6525 -0.4963
 7253SOL    HW133392   4.724   3.821  17.594 -0.5020 -0.4646  1.8026
 7253SOL    HW233393   4.709   3.898  17.715  2.9485  2.1171  1.4351
 7254SOL     OW33394   1.167   1.931   3.809  0.1448  0.0962 -0.2169
 7254SOL    HW133395   1.100   1.865   3.827 -0.7963  0.4094 -2.6633
 7254SOL    HW233396   1.112   1.999   3.770 -0.3718 -0.3913 -0.3331
 7255SOL     OW33397   3.497   0.676   2.375  0.1873  0.2764 -0.1237
 7255SOL    HW133398   3.430   0.627   2.423 -0.5698  0.1967 -1.2629
 7255SOL    HW233399   3.496   0.754   2.431  0.1714  0.4161 -0.3174
 7256SOL     OW33400   1.932   1.198  13.667  0.1426  0.1989 -0.3370
 7256SOL    HW133401   1.935   1.254  13.589 -0.2289 -0.8849 -1.1317
 7256SOL    HW233402   1.984   1.123  13.639 -1.3999  0.0352 -2.8263
 7257SOL     OW33403   0.138   1.218   4.148 -1.1379 -0.0227  0.0422
 7257SOL    HW133404   0.217   1.255   4.110 -1.3358 -1.1672 -1.4765
 7257SOL    HW233405   0.072   1.267   4.098 -1.8112 -2.0176 -1.0163
 7258SOL     OW33406   1.168   2.091   7.832  0.3497 -0.3675 -0.0262
 7258SOL    HW133407   1.087   2.050   7.865 -0.1466  0.2273 -0.4985
 7258SOL    HW233408   1.131   2.141   7.760 -0.7141  2.1347  2.2515
 7259SOL     OW33409   1.510   1.146   8.282 -0.1759 -0.6462  0.0037
 7259SOL    HW133410   1.571   1.158   8.355 -0.5717  0.4934  0.1471
 7259SOL    HW233411   1.431   1.126   8.331 -0.8399  2.6246  0.2275
 7260SOL     OW33412   1.345   4.258   1.983  1.0686  0.4595  0.5801
 7260SOL    HW133413   1.281   4.278   2.051  0.7062 -0.1451  0.4266
 7260SOL    HW233414   1.361   4.342   1.941 -0.6944  0.4797 -0.0681
 7261SOL     OW33415   0.773   3.989   0.890  0.0117  0.4131 -0.4411
 7261SOL    HW133416   0.706   4.004   0.957  0.3647  0.5724 -0.1296
 7261SOL    HW233417   0.745   3.898   0.874 -0.0529  0.7722 -2.4383
 7262SOL     OW33418   1.747   3.057   7.102 -0.2599  0.1819 -0.0740
 7262SOL    HW133419   1.665   3.030   7.061  0.2581 -0.2059 -0.8371
 7262SOL    HW233420   1.751   3.035   7.195  0.8149 -1.5972 -0.5486
 7263SOL     OW33421   4.422   3.554   0.896 -0.1299  0.0098  0.0211
 7263SOL    HW133422   4.462   3.478   0.854  0.7011  0.7047 -0.4650
 7263SOL    HW233423   4.340   3.522   0.931  1.3016  0.1524  3.4550
 7264SOL     OW33424   0.124   2.609   5.929  0.2685  0.0880  0.5083
 7264SOL    HW133425   0.151   2.528   5.972 -3.4227 -0.0341  2.6411
 7264SOL    HW233426   0.090   2.672   5.992  1.2314  2.0623 -0.9703
 7265SOL     OW33427   3.740   2.477  10.731  0.0728 -0.2655 -0.3972
 7265SOL    HW133428   3.818   2.530  10.748  0.1436 -0.8413  1.0687
 7265SOL    HW233429   3.775   2.412  10.670  1.1587 -0.9738  0.9840
 7266SOL     OW33430   2.615   4.522   2.294  1.2022  0.9085 -0.4077
 7266SOL    HW133431   2.638   4.434   2.323 -0.1911  1.3725  2.1211
 7266SOL    HW233432   2.520   4.513   2.281  1.4526  1.1055 -2.4075
 7267SOL     OW33433   0.437   1.481  15.648 -0.5948 -0.4178 -1.0159
 7267SOL    HW133434   0.374   1.535  15.694  0.3126  0.0786 -0.3672
 7267SOL    HW233435   0.449   1.422  15.723  1.6116 -0.5898 -1.4983
 7268SOL     OW33436   1.544   2.303   3.270 -0.0949 -0.1210 -0.2209
 7268SOL    HW133437   1.591   2.386   3.267  1.9188 -1.2112  0.7229
 7268SOL    HW233438   1.454   2.334   3.263 -0.6436 -1.6210  0.2197
 7269SOL     OW33439   4.540   2.035   0.782 -0.0010  0.0861  0.5479
 7269SOL    HW133440   4.471   2.023   0.717  0.3326 -1.4956  0.4727
 7269SOL    HW233441   4.608   1.979   0.744 -0.3824 -0.0623  0.0907
 7270SOL     OW33442   2.503   2.691   7.015 -0.3381 -0.5746 -0.5727
 7270SOL    HW133443   2.478   2.704   7.106 -0.0369  1.0052 -0.7101
 7270SOL    HW233444   2.461   2.606   7.008  1.0843 -1.5635  2.8483
 7271SOL     OW33445   4.210   2.805   4.728 -0.0759  0.1251  0.0669
 7271SOL    HW133446   4.285   2.795   4.670 -0.2869  3.7917 -0.8387
 7271SOL    HW233447   4.154   2.737   4.689 -0.0551  0.1857 -0.0698
 7272SOL     OW33448   0.330   4.263   4.986  0.4969  0.2356 -0.2732
 7272SOL    HW133449   0.304   4.257   4.894 -1.0177  1.5468  0.0713
 7272SOL    HW233450   0.282   4.340   5.017  1.4476  0.1412  1.4364
 7273SOL     OW33451   2.057   0.949   4.506  0.3153 -0.0896 -0.0584
 7273SOL    HW133452   2.008   1.030   4.520 -0.6205 -0.5792 -0.5086
 7273SOL    HW233453   2.140   0.975   4.467  0.9093 -0.2238  1.0981
 7274SOL     OW33454   1.740   2.981   9.035 -0.3344  0.2858  0.3725
 7274SOL    HW133455   1.787   2.911   9.080 -1.8869 -0.2349  1.2147
 7274SOL    HW233456   1.698   3.026   9.109 -2.1058 -0.9800  0.1525
 7275SOL     OW33457   1.025   3.703   2.590 -0.0052 -0.0906  0.1132
 7275SOL    HW133458   0.949   3.682   2.645 -0.7489  0.2109 -0.7992
 7275SOL    HW233459   1.092   3.706   2.658  0.4212  0.6338 -0.3498
 7276SOL     OW33460   1.438   3.028   6.410  0.1441 -0.4361  0.5636
 7276SOL    HW133461   1.523   2.983   6.411 -1.2840 -3.1024  3.6575
 7276SOL    HW233462   1.384   2.962   6.367  1.5139 -2.1733  1.5245
 7277SOL     OW33463   4.723   1.804   2.438  0.6051 -0.6984 -0.5923
 7277SOL    HW133464   4.691   1.827   2.350  0.7584  0.6735 -0.2929
 7277SOL    HW233465   4.659   1.859   2.484  0.4362 -1.3202 -0.0898
 7278SOL     OW33466   2.195   1.885  16.333 -0.1180  0.0534 -0.0296
 7278SOL    HW133467   2.149   1.803  16.318  0.2017 -0.2376  0.5715
 7278SOL    HW233468   2.207   1.894  16.428  3.1242 -1.0319 -0.3520
 7279SOL     OW33469   2.151   0.424   4.095 -0.0317  0.0111  0.0344
 7279SOL    HW133470   2.080   0.396   4.153  0.7400 -2.5530 -0.2946
 7279SOL    HW233471   2.118   0.422   4.006 -2.3346  0.0176  0.8897
 7280SOL     OW33472   0.634   3.924   7.018  0.0633 -0.0291 -0.1684
 7280SOL    HW133473   0.552   3.959   7.052 -0.1159 -0.2092 -0.4239
 7280SOL    HW233474   0.708   3.985   7.029 -0.2078  0.6697 -2.1953
 7281SOL     OW33475   3.310   2.667   2.264  0.0508 -0.0081  0.3277
 7281SOL    HW133476   3.344   2.658   2.175  0.1337  1.1441  0.2390
 7281SOL    HW233477   3.292   2.575   2.283  0.2361 -0.2220 -0.5642
 7282SOL     OW33478   1.492   4.001   9.822  0.3399 -0.1947  0.2639
 7282SOL    HW133479   1.497   4.006   9.726 -0.7543 -0.7384  0.1782
 7282SOL    HW233480   1.499   3.910   9.850 -1.2089 -0.9381 -1.7360
 7283SOL     OW33481   1.148   2.260   2.325 -0.7339  0.6639  0.2815
 7283SOL    HW133482   1.216   2.271   2.391  0.3743 -0.9465 -0.6299
 7283SOL    HW233483   1.182   2.191   2.269 -0.3375  0.0947  1.2200
 7284SOL     OW33484   4.105   4.340   6.123  0.0157 -1.0519  0.2272
 7284SOL    HW133485   4.181   4.285   6.142  1.2131  0.9988  1.3987
 7284SOL    HW233486   4.137   4.429   6.106 -2.1334  0.2623  2.9942
 7285SOL     OW33487   3.265   2.054   6.614  0.0255  0.3619 -0.1927
 7285SOL    HW133488   3.226   1.987   6.670  1.0388 -1.5665 -1.7907
 7285SOL    HW233489   3.348   2.016   6.587  1.1906  1.6416  1.6226
 7286SOL     OW33490   3.107   1.745   3.395 -0.2336  0.5577  0.1402
 7286SOL    HW133491   3.159   1.792   3.460 -0.9231  0.3413  0.8511
 7286SOL    HW233492   3.129   1.796   3.317 -1.2463  0.0507 -0.4762
 7287SOL     OW33493   3.585   2.888   2.986  0.3201  0.0358  0.0251
 7287SOL    HW133494   3.576   2.816   3.049  1.2538 -2.1648 -2.3236
 7287SOL    HW233495   3.552   2.959   3.040  0.0981 -1.1386  1.4497
 7288SOL     OW33496   1.408   2.800   8.336 -0.1708  0.0111  0.2322
 7288SOL    HW133497   1.378   2.860   8.268 -0.1776 -1.3627 -0.9638
 7288SOL    HW233498   1.419   2.723   8.281 -1.0579 -0.6617  0.9945
 7289SOL     OW33499   3.703   2.580  11.978 -0.0577  0.0976 -1.0281
 7289SOL    HW133500   3.732   2.668  11.953  3.1954  0.1025  2.6504
 7289SOL    HW233501   3.666   2.591  12.066 -0.9209  1.2596 -1.5408
 7290SOL     OW33502   4.695   4.528   2.239 -0.6508 -0.2326 -0.1816
 7290SOL    HW133503   4.698   4.479   2.157  0.6173  0.5575 -0.6087
 7290SOL    HW233504   4.717   4.456   2.298 -0.0076  0.7686  0.8006
 7291SOL     OW33505   2.617   4.737  15.373  0.2116  0.1363 -0.5577
 7291SOL    HW133506   2.554   0.032  15.435  0.1916 -0.8234 -0.0165
 7291SOL    HW233507   2.695   4.702  15.417  1.6797  0.9287 -2.4811
 7292SOL     OW33508   2.861   2.881   4.779  0.1292 -0.7145 -0.6917
 7292SOL    HW133509   2.933   2.856   4.721 -0.3592  0.1165 -1.6440
 7292SOL    HW233510   2.892   2.838   4.859 -0.0086  0.9795  0.2581
 7293SOL     OW33511   1.054   2.534   6.687 -0.0710  0.4001 -0.0500
 7293SOL    HW133512   1.112   2.593   6.639 -0.7813  1.7231  0.6864
 7293SOL    HW233513   0.986   2.592   6.722 -0.4894 -0.6072  0.7842
 7294SOL     OW33514   3.388   4.401   7.224  0.6789 -0.1894 -0.0264
 7294SOL    HW133515   3.468   4.352   7.204  0.6787  0.5403 -1.8091
 7294SOL    HW233516   3.413   4.492   7.238 -0.6044  0.0791  0.5108
 7295SOL     OW33517   4.074   0.172  12.662  0.3503  0.5726 -0.2285
 7295SOL    HW133518   4.137   0.193  12.731 -2.5126  0.3655  2.4266
 7295SOL    HW233519   4.057   0.255  12.617 -0.2921  0.3553 -0.3804
 7296SOL     OW33520   0.135   3.964   1.570 -0.0930  0.5201 -0.4193
 7296SOL    HW133521   0.156   3.987   1.479 -0.0623 -1.2326 -0.8454
 7296SOL    HW233522   0.118   4.048   1.613  0.4413 -0.0806  0.9550
 7297SOL     OW33523   0.906   3.895   5.616  0.3759 -0.4126  0.4587
 7297SOL    HW133524   0.849   3.966   5.588 -0.5620 -0.9733  0.9470
 7297SOL    HW233525   0.964   3.904   5.541 -1.7924  2.7146 -0.8297
 7298SOL     OW33526   3.745   4.565   1.459  0.0362  0.1642 -0.1812
 7298SOL    HW133527   3.717   4.657   1.456  0.0432  0.2090  1.0102
 7298SOL    HW233528   3.714   4.537   1.373  2.7163  0.6506 -1.2899
 7299SOL     OW33529   3.636   4.482   7.826  0.5803  0.3713 -0.6009
 7299SOL    HW133530   3.557   4.534   7.810 -0.0872 -1.0870 -1.9641
 7299SOL    HW233531   3.675   4.538   7.894 -1.2220  0.9654 -0.0634
 7300SOL     OW33532   2.001   0.322   1.397  0.3904 -0.0074 -0.7158
 7300SOL    HW133533   1.934   0.318   1.465  1.5721 -2.2017  0.3231
 7300SOL    HW233534   2.077   0.329   1.455 -0.6246 -0.1827  0.6417
 7301SOL     OW33535   1.397   0.059   0.723 -0.2887 -0.0212 -0.1943
 7301SOL    HW133536   1.369   4.710   0.727 -0.1451 -0.0435  0.2940
 7301SOL    HW233537   1.324   0.096   0.771  0.2536  1.3035 -0.3797
 7302SOL     OW33538   3.234   2.527   5.936  0.5371 -0.1254 -0.0893
 7302SOL    HW133539   3.254   2.620   5.934  3.0274 -0.6509  0.3587
 7302SOL    HW233540   3.184   2.512   6.017  2.0102  2.8470  1.3671
 7303SOL     OW33541   2.135   0.708   1.282 -0.4441 -0.5309  0.3788
 7303SOL    HW133542   2.196   0.772   1.245  0.9132 -1.8177  0.3694
 7303SOL    HW233543   2.179   0.625   1.265 -0.7704 -0.3580 -1.2803
 7304SOL     OW33544   2.678   1.028  14.926  0.1141  0.4141  0.0426
 7304SOL    HW133545   2.727   1.049  14.847 -0.3295  2.3413  0.2783
 7304SOL    HW233546   2.593   1.017  14.885  1.1539 -0.4065 -1.9090
 7305SOL     OW33547   4.495   3.080   8.880  0.0102 -0.6436  0.0276
 7305SOL    HW133548   4.538   3.074   8.965  1.1249 -1.9695 -0.6342
 7305SOL    HW233549   4.456   3.167   8.875  1.0797 -0.0930  1.4563
 7306SOL     OW33550   2.382   4.018   8.863 -0.1215  0.0098 -0.5979
 7306SOL    HW133551   2.362   4.040   8.772  0.3558 -1.3124 -1.0310
 7306SOL    HW233552   2.412   3.927   8.856  2.3650  0.7897  0.0753
 7307SOL     OW33553   2.697   2.422   2.597  0.1311  0.6202  0.0489
 7307SOL    HW133554   2.731   2.398   2.683 -0.2363  2.6422  0.7492
 7307SOL    HW233555   2.763   2.405   2.530 -1.6415  0.3731 -1.6384
 7308SOL     OW33556   0.110   3.820  10.063  0.0201 -0.2320 -0.3182
 7308SOL    HW133557   0.064   3.758  10.007 -0.6487  0.0442 -0.0759
 7308SOL    HW233558   0.129   3.757  10.133 -0.7402 -0.3191 -0.1837
 7309SOL     OW33559   2.531   2.605   6.502 -0.0106  0.5928  0.0897
 7309SOL    HW133560   2.611   2.645   6.536 -0.2021 -0.1132  1.3805
 7309SOL    HW233561   2.518   2.651   6.419  0.1065 -0.1697 -0.3499
 7310SOL     OW33562   4.113   3.681  12.429  0.7061  0.1337  0.5170
 7310SOL    HW133563   4.182   3.615  12.435  0.9529  0.3174 -0.2456
 7310SOL    HW233564   4.153   3.765  12.406  0.8426 -0.9321 -3.1432
 7311SOL     OW33565   3.920   3.788   8.075  0.0508 -0.9982  0.2919
 7311SOL    HW133566   3.865   3.732   8.021  1.4664 -1.1208 -1.0166
 7311SOL    HW233567   4.006   3.756   8.048  0.0582 -0.1140 -0.7145
 7312SOL     OW33568   0.708   2.959   5.070 -0.1389 -0.1701 -0.3483
 7312SOL    HW133569   0.786   2.933   5.119 -1.5176  0.8364  2.3934
 7312SOL    HW233570   0.635   2.950   5.132 -0.2119  2.9497  0.0049
 7313SOL     OW33571   1.854   3.204   5.399 -0.1335 -0.0719 -0.5921
 7313SOL    HW133572   1.773   3.252   5.411  0.6007  1.1503 -0.4902
 7313SOL    HW233573   1.834   3.128   5.452  1.5798 -0.0480  0.0874
 7314SOL     OW33574   2.582   0.912   5.913  0.5422 -0.1860 -0.2421
 7314SOL    HW133575   2.554   0.946   5.998 -3.5916  1.8924 -2.4026
 7314SOL    HW233576   2.665   0.960   5.915 -0.0752  0.8432  0.8715
 7315SOL     OW33577   1.565   4.239  11.520  0.1412  0.5406 -0.0011
 7315SOL    HW133578   1.647   4.288  11.528  0.6983 -0.5057  0.7351
 7315SOL    HW233579   1.553   4.226  11.614  0.4844 -0.6089 -0.1248
 7316SOL     OW33580   0.712   3.802   7.939 -0.3069  0.1478  0.2084
 7316SOL    HW133581   0.678   3.833   7.855  0.8999  0.3756 -0.1987
 7316SOL    HW233582   0.805   3.788   7.921 -0.2493  0.2203  0.4475
 7317SOL     OW33583   2.336   3.724   1.613 -0.3548  0.2433 -0.8243
 7317SOL    HW133584   2.362   3.788   1.680 -2.7710  0.6566 -0.2632
 7317SOL    HW233585   2.290   3.767   1.541 -2.4083  1.0527  0.9619
 7318SOL     OW33586   0.462   3.586   2.480 -0.2326  0.2601  0.3848
 7318SOL    HW133587   0.513   3.619   2.406 -0.3280  1.2888  0.7701
 7318SOL    HW233588   0.519   3.624   2.547  2.1879  0.2382 -1.6538
 7319SOL     OW33589   3.320   0.524  13.464 -0.4512 -0.1316  0.4912
 7319SOL    HW133590   3.378   0.588  13.423  2.9201 -2.5349  1.4442
 7319SOL    HW233591   3.257   0.588  13.498 -0.5229 -0.5044  1.0673
 7320SOL     OW33592   2.468   4.114   5.630  0.5747  0.0152  0.0784
 7320SOL    HW133593   2.529   4.053   5.590  1.5116  0.3195  1.0384
 7320SOL    HW233594   2.388   4.097   5.580 -0.1700  0.1799  1.1859
 7321SOL     OW33595   3.852   3.941   6.470 -0.1184 -0.9829 -0.6467
 7321SOL    HW133596   3.888   3.852   6.469 -0.5871 -1.1709 -1.3902
 7321SOL    HW233597   3.761   3.919   6.490  0.1738  0.0630  1.7565
 7322SOL     OW33598   0.457   2.806  13.559 -0.1963  0.2195 -0.2677
 7322SOL    HW133599   0.549   2.789  13.577 -0.3073 -1.3472 -1.2033
 7322SOL    HW233600   0.421   2.747  13.626  0.3286 -0.3330 -0.4702
 7323SOL     OW33601   2.115   3.692   4.160  0.5421  0.1728  0.0659
 7323SOL    HW133602   2.078   3.777   4.181  0.0271  0.1683 -0.8117
 7323SOL    HW233603   2.208   3.702   4.179  0.5579  0.0600  0.0512
 7324SOL     OW33604   0.331   1.987  17.628  0.3998 -0.1726 -0.1259
 7324SOL    HW133605   0.362   1.900  17.603 -0.1491 -0.6721  0.9129
 7324SOL    HW233606   0.410   2.030  17.660  1.0571 -1.6222  0.2411
 7325SOL     OW33607   1.617   4.010   7.833  0.1763  0.5186  0.3524
 7325SOL    HW133608   1.616   4.058   7.915 -1.3159 -0.2195  0.7712
 7325SOL    HW233609   1.534   4.032   7.790  0.2997  0.8617  0.2967
 7326SOL     OW33610   1.987   0.596  11.710 -0.3216 -0.1792 -0.3643
 7326SOL    HW133611   2.041   0.564  11.782  0.2056  1.6962  0.0704
 7326SOL    HW233612   2.008   0.545  11.632  0.6284 -0.3507  0.0055
 7327SOL     OW33613   1.423   1.447   2.396  0.0590 -0.2680  0.4765
 7327SOL    HW133614   1.446   1.382   2.330  1.6881  0.7239  0.0623
 7327SOL    HW233615   1.454   1.533   2.367 -0.5034 -1.2158 -3.0112
 7328SOL     OW33616   0.698   2.693   4.631  0.5647  0.2818  0.0312
 7328SOL    HW133617   0.785   2.655   4.639 -0.3117 -2.0958 -1.5986
 7328SOL    HW233618   0.681   2.742   4.711  0.9957  0.5623 -0.0504
 7329SOL     OW33619   3.931   1.927  17.756 -0.3907  0.2419 -0.1173
 7329SOL    HW133620   3.905   1.908   0.081  0.6249  0.7532  0.2802
 7329SOL    HW233621   4.024   1.908  17.759 -0.8476 -2.0189 -0.2061
 7330SOL     OW33622   0.089   2.973  14.220  0.0083  0.4129  0.5810
 7330SOL    HW133623   0.003   2.945  14.252 -1.4078  3.4298 -0.6364
 7330SOL    HW233624   0.071   3.052  14.170 -2.5681  0.3381  1.3948
 7331SOL     OW33625   0.121   1.529   6.681 -0.7784 -0.0481  0.3360
 7331SOL    HW133626   0.191   1.590   6.659 -1.6574  0.6203 -0.5954
 7331SOL    HW233627   0.086   1.560   6.764 -0.9563  4.0247 -1.2971
 7332SOL     OW33628   3.904   4.232   5.870 -0.3060  0.2346 -0.8231
 7332SOL    HW133629   3.989   4.249   5.829  0.6282  0.2074  1.0985
 7332SOL    HW233630   3.913   4.278   5.954 -2.6465 -1.5054  0.3730
 7333SOL     OW33631   2.900   3.272  11.628  0.5399 -0.3607 -0.6864
 7333SOL    HW133632   2.952   3.323  11.565  2.8494 -0.4946  1.1070
 7333SOL    HW233633   2.927   3.308  11.713 -0.2495  2.2041 -1.5039
 7334SOL     OW33634   3.032   2.332   4.846 -0.2791  0.6480 -0.0036
 7334SOL    HW133635   3.015   2.301   4.935 -3.9924 -0.0536 -0.9588
 7334SOL    HW233636   3.119   2.374   4.845  0.6699 -1.3420 -0.5427
 7335SOL     OW33637   3.574   3.111  12.240 -0.0717 -0.3331 -0.4384
 7335SOL    HW133638   3.497   3.168  12.240  1.0289  1.1844  0.4714
 7335SOL    HW233639   3.539   3.043  12.296 -0.8171 -0.3879 -0.9809
 7336SOL     OW33640   2.534   3.704  11.018  0.3448  0.7893  0.0906
 7336SOL    HW133641   2.563   3.778  11.071 -1.2441  1.1421  0.4525
 7336SOL    HW233642   2.456   3.740  10.977 -0.3311  0.1938  0.8672
 7337SOL     OW33643   1.516   0.063  14.823  0.2243  0.6254  0.1154
 7337SOL    HW133644   1.577   0.004  14.779 -1.8858 -1.5138  0.0561
 7337SOL    HW233645   1.548   0.076  14.912 -0.2874 -2.3450  0.7366
 7338SOL     OW33646   1.135   1.826   7.322 -0.1986 -0.1090 -0.3947
 7338SOL    HW133647   1.177   1.740   7.314  0.7679  0.1661  1.5654
 7338SOL    HW233648   1.100   1.828   7.411  1.7338  4.1448  0.2681
 7339SOL     OW33649   4.355   0.507   2.954 -0.1297 -0.0573 -0.3843
 7339SOL    HW133650   4.439   0.461   2.948  0.2859  0.8336 -1.3952
 7339SOL    HW233651   4.379   0.599   2.944 -0.6504  0.1190 -0.0360
 7340SOL     OW33652   3.019   1.559   4.715 -0.2198  0.0458  0.0109
 7340SOL    HW133653   3.022   1.640   4.664 -2.5530 -0.9363 -1.6420
 7340SOL    HW233654   3.040   1.591   4.803 -2.6351  0.6996  0.3382
 7341SOL     OW33655   0.577   4.223   2.130  0.3024  0.0841  0.2870
 7341SOL    HW133656   0.582   4.287   2.059  3.1081 -0.2484  0.1778
 7341SOL    HW233657   0.485   4.201   2.141  0.3576  0.0658  0.7429
 7342SOL     OW33658   3.088   3.193   4.727 -1.1244  0.0762 -0.0017
 7342SOL    HW133659   3.104   3.201   4.821 -1.1534 -0.6768  0.0662
 7342SOL    HW233660   3.142   3.114   4.722  0.7100  1.3006  0.1759
 7343SOL     OW33661   3.938   0.804  17.267  0.1224 -0.3361  0.7479
 7343SOL    HW133662   3.926   0.711  17.284 -0.3216 -0.4826 -0.3399
 7343SOL    HW233663   3.885   0.815  17.188  1.1090  0.1749  0.1574
 7344SOL     OW33664   0.251   0.511   0.708  0.8110  0.0295  0.4089
 7344SOL    HW133665   0.230   0.562   0.630 -0.0059 -0.4146  0.3395
 7344SOL    HW233666   0.157   0.495   0.720  0.3617  1.1887 -1.5230
 7345SOL     OW33667   2.723   4.338   3.502  0.0737 -0.4430 -0.6555
 7345SOL    HW133668   2.755   4.422   3.467  1.5904 -0.4028  0.8061
 7345SOL    HW233669   2.799   4.283   3.520 -0.3245 -0.2632  1.5668
 7346SOL     OW33670   0.772   1.790   6.529 -0.2671  0.4027 -0.3124
 7346SOL    HW133671   0.732   1.875   6.548  1.5301  1.0813  0.4387
 7346SOL    HW233672   0.711   1.725   6.563  0.0262 -0.2105 -0.9714
 7347SOL     OW33673   3.497   2.270  11.789  0.1081  0.2522 -0.1128
 7347SOL    HW133674   3.570   2.222  11.828  0.4489  1.8006  1.1870
 7347SOL    HW233675   3.433   2.199  11.791 -1.3078  1.5967  2.7268
 7348SOL     OW33676   3.945   2.784  15.025 -0.2447  0.1379  0.1287
 7348SOL    HW133677   4.005   2.723  14.981  0.5269  0.7792  0.2988
 7348SOL    HW233678   4.003   2.854  15.055  0.6156 -0.5757  0.1417
 7349SOL     OW33679   0.966   2.674   2.752  0.0730 -0.3580 -0.1966
 7349SOL    HW133680   0.985   2.711   2.665  0.7504  0.4246  0.2872
 7349SOL    HW233681   0.875   2.654   2.733  0.2244  1.7914 -3.3461
 7350SOL     OW33682   1.649   2.303   9.701 -0.2014  0.0790 -0.0019
 7350SOL    HW133683   1.733   2.275   9.735 -0.1220  0.6542  0.2723
 7350SOL    HW233684   1.684   2.359   9.631  0.0143 -0.8150 -0.6170
 7351SOL     OW33685   3.216   3.721   1.130  0.0082 -0.2800 -0.5378
 7351SOL    HW133686   3.142   3.686   1.080 -0.7684  1.3917 -0.5475
 7351SOL    HW233687   3.282   3.744   1.064 -2.6737  0.8901 -2.8314
 7352SOL     OW33688   3.864   3.993  16.176  0.5279  0.4114  0.6378
 7352SOL    HW133689   3.897   4.083  16.171 -1.3684  0.9497 -2.1717
 7352SOL    HW233690   3.837   3.983  16.268 -0.3774 -0.3934  0.2846
 7353SOL     OW33691   4.482   1.863  10.745 -0.0836 -0.3598 -0.1911
 7353SOL    HW133692   4.535   1.806  10.801  0.4103  0.7656  0.4835
 7353SOL    HW233693   4.494   1.812  10.665 -0.2820 -1.2806  0.3572
 7354SOL     OW33694   3.970   3.608   8.558  0.3096 -0.1931  0.3203
 7354SOL    HW133695   3.900   3.569   8.505 -0.5780  0.9171  0.6796
 7354SOL    HW233696   4.004   3.676   8.501  0.2659 -0.6217 -0.2147
 7355SOL     OW33697   4.560   1.449   1.855  0.0280  0.2297  0.7053
 7355SOL    HW133698   4.582   1.509   1.784 -2.7569 -0.7039 -0.9380
 7355SOL    HW233699   4.551   1.366   1.809  1.4339  0.1807  0.5287
 7356SOL     OW33700   3.229   4.020   3.043 -0.1465  0.3131 -0.1883
 7356SOL    HW133701   3.184   3.983   3.118 -1.2264  2.2882  0.1377
 7356SOL    HW233702   3.310   3.969   3.040 -0.7682 -0.6829  0.0168
 7357SOL     OW33703   0.366   3.550   3.991 -0.1569  0.0942 -0.3781
 7357SOL    HW133704   0.277   3.558   4.024 -0.5774 -1.2603 -1.2051
 7357SOL    HW233705   0.362   3.540   3.896  1.4341 -1.0707 -0.3329
 7358SOL     OW33706   0.148   3.092  14.479 -0.1703  0.1256  0.0331
 7358SOL    HW133707   0.098   3.046  14.547  0.9299 -1.2664 -0.1092
 7358SOL    HW233708   0.087   3.080  14.407  1.3491  2.4488 -1.6229
 7359SOL     OW33709   2.370   4.731  12.644  0.0087  0.5116 -0.0348
 7359SOL    HW133710   2.440   4.705  12.585 -1.7621  0.0993 -1.9666
 7359SOL    HW233711   2.328   0.059  12.594 -1.3687 -0.2503  0.0595
 7360SOL     OW33712   2.335   1.818   5.089  0.1566 -0.0173 -0.1967
 7360SOL    HW133713   2.302   1.905   5.065 -1.5243 -0.0285  2.0649
 7360SOL    HW233714   2.257   1.783   5.134  0.7235 -0.2444  0.6080
 7361SOL     OW33715   1.378   0.873   9.414 -0.4260 -0.3710  0.0932
 7361SOL    HW133716   1.446   0.818   9.454 -0.1853 -0.4297 -0.4025
 7361SOL    HW233717   1.341   0.807   9.357 -0.7871  0.4291 -0.6024
 7362SOL     OW33718   2.498   3.115  17.449  0.3381  0.4176 -0.1779
 7362SOL    HW133719   2.559   3.164  17.504  0.3879 -0.5224  0.5996
 7362SOL    HW233720   2.414   3.145  17.484  0.0500 -0.3222 -0.2220
 7363SOL     OW33721   2.268   2.999  13.003 -0.0685 -0.2334 -0.0158
 7363SOL    HW133722   2.282   3.080  13.052 -1.7327 -0.0185  0.1050
 7363SOL    HW233723   2.276   3.028  12.912 -1.1083  2.4616  0.7440
 7364SOL     OW33724   2.250   2.958   4.268 -0.2390 -0.0397 -0.0222
 7364SOL    HW133725   2.279   2.907   4.344  0.1510 -0.3056 -0.3490
 7364SOL    HW233726   2.159   2.928   4.274 -0.6822  0.8528 -2.5673
 7365SOL     OW33727   2.983   0.382  12.301  0.6414  0.2794  0.2107
 7365SOL    HW133728   3.054   0.420  12.249 -0.4091  1.3261 -0.4559
 7365SOL    HW233729   2.965   0.460  12.354  0.0419 -0.6592  1.3917
 7366SOL     OW33730   3.525   3.551   2.621 -0.3480  0.1527 -0.2892
 7366SOL    HW133731   3.563   3.577   2.705  1.0681 -2.3474 -0.1417
 7366SOL    HW233732   3.450   3.609   2.621 -0.8093 -0.4323  1.3605
 7367SOL     OW33733   1.157   2.650  11.828 -0.3127 -0.2681  0.4969
 7367SOL    HW133734   1.205   2.675  11.907  0.9859 -1.1458 -0.0162
 7367SOL    HW233735   1.173   2.725  11.771  1.4299 -1.4667 -0.5970
 7368SOL     OW33736   3.370   0.273  13.110  0.2745  0.2321 -0.6010
 7368SOL    HW133737   3.368   0.336  13.038 -0.6899  0.1667 -0.6286
 7368SOL    HW233738   3.433   0.208  13.078  1.1650  1.5563 -1.5484
 7369SOL     OW33739   2.168   2.633  17.180 -0.0131  0.1023  0.4849
 7369SOL    HW133740   2.258   2.649  17.208  0.0249 -2.1688  1.6800
 7369SOL    HW233741   2.174   2.686  17.100 -0.1478 -0.2511  0.2383
 7370SOL     OW33742   1.202   3.052  15.889 -0.3073 -0.0481  0.5736
 7370SOL    HW133743   1.211   3.043  15.984 -1.8075 -1.2539  0.6123
 7370SOL    HW233744   1.134   3.118  15.879 -1.7448 -1.7086 -0.7784
 7371SOL     OW33745   2.552   3.790   2.102  0.6617 -0.1875  0.1357
 7371SOL    HW133746   2.492   3.864   2.091 -0.0555 -1.0999 -2.1392
 7371SOL    HW233747   2.560   3.801   2.197 -0.0075  2.3095 -0.0819
 7372SOL     OW33748   3.835   4.023  12.330 -0.1666  0.2674 -0.2105
 7372SOL    HW133749   3.896   4.009  12.258 -1.6653  2.6860 -1.9597
 7372SOL    HW233750   3.914   4.033  12.384  0.0923 -0.1916 -0.5103
 7373SOL     OW33751   1.949   1.792   5.681  0.0794  0.4752 -0.5987
 7373SOL    HW133752   1.884   1.731   5.645 -1.2190  1.6462 -0.2456
 7373SOL    HW233753   1.917   1.818   5.768  0.0236  1.1677 -0.8283
 7374SOL     OW33754   0.961   0.955  11.955  0.1091 -0.1636 -0.0649
 7374SOL    HW133755   0.878   0.927  11.916  0.4280 -2.5389  1.0107
 7374SOL    HW233756   0.958   0.903  12.035 -0.9323  0.5480  0.3606
 7375SOL     OW33757   1.069   2.233   7.601 -0.7585  0.3662 -0.0725
 7375SOL    HW133758   1.067   2.199   7.512 -2.5242 -0.2919  0.2248
 7375SOL    HW233759   1.042   2.325   7.593  0.7422  0.7333 -0.9898
 7376SOL     OW33760   2.868   2.434   1.711  0.1294 -0.0586  0.2012
 7376SOL    HW133761   2.821   2.508   1.751  0.2391  0.1834 -0.1204
 7376SOL    HW233762   2.874   2.381   1.791 -0.8882  1.3081  1.1900
 7377SOL     OW33763   3.779   1.735   4.489 -0.0530  0.6661  0.5255
 7377SOL    HW133764   3.845   1.742   4.420 -1.0295 -2.2490 -0.6978
 7377SOL    HW233765   3.706   1.785   4.453  0.6610  0.9456 -0.5450
 7378SOL     OW33766   2.224   4.267   1.255 -0.1886  0.1902  0.0651
 7378SOL    HW133767   2.135   4.280   1.287  0.3276  0.8390  1.2391
 7378SOL    HW233768   2.273   4.321   1.318 -1.1541  1.5708 -0.3713
 7379SOL     OW33769   0.428   3.885   8.965 -0.2449 -0.1966 -0.2381
 7379SOL    HW133770   0.393   3.961   9.012  1.9378  1.7504 -1.7405
 7379SOL    HW233771   0.506   3.918   8.921 -0.5188 -0.9265 -1.2711
 7380SOL     OW33772   3.177   1.692   7.230  0.5965 -0.2583  0.2658
 7380SOL    HW133773   3.166   1.728   7.319  2.1942  4.5411 -1.4481
 7380SOL    HW233774   3.273   1.692   7.228  0.6244 -1.0366  1.6450
 7381SOL     OW33775   0.771   1.591   4.474 -0.1749  0.1163 -0.2952
 7381SOL    HW133776   0.742   1.629   4.557 -0.5857  0.4676 -0.5986
 7381SOL    HW233777   0.787   1.664   4.414  0.5377  0.5408  0.4152
 7382SOL     OW33778   1.133   3.398   3.772 -0.0197 -0.2149 -0.2662
 7382SOL    HW133779   1.067   3.445   3.824  0.7508 -1.7348  2.1084
 7382SOL    HW233780   1.079   3.326   3.740 -0.4525  0.2894 -0.6779
 7383SOL     OW33781   4.335   1.687   6.574 -0.2103 -0.0762  0.8717
 7383SOL    HW133782   4.292   1.772   6.573  2.9004  1.4285 -1.5681
 7383SOL    HW233783   4.421   1.728   6.568 -0.0449 -0.2897  1.7227
 7384SOL     OW33784   0.532   1.864   1.532  0.5048 -0.2518  0.7994
 7384SOL    HW133785   0.596   1.840   1.600  2.2084 -0.8084 -1.0077
 7384SOL    HW233786   0.594   1.849   1.460  2.4386 -0.8710  2.5810
 7385SOL     OW33787   1.528   4.588   0.268 -0.2515  0.8083  0.5023
 7385SOL    HW133788   1.583   4.663   0.244 -0.3628  2.0230  3.9374
 7385SOL    HW233789   1.574   4.553   0.344 -1.3374  0.3753  0.9639
 7386SOL     OW33790   4.483   0.814   4.269  0.3763 -0.3464 -0.3547
 7386SOL    HW133791   4.476   0.872   4.345 -0.4428  0.6793 -1.2203
 7386SOL    HW233792   4.446   0.732   4.301 -1.8002 -0.1226 -2.3116
 7387SOL     OW33793   1.091   3.183   4.152  0.1636  0.4066  0.0216
 7387SOL    HW133794   0.996   3.178   4.164  0.2365  3.9775  2.1821
 7387SOL    HW233795   1.120   3.124   4.221  0.8220  0.3294 -0.3202
 7388SOL     OW33796   1.941   3.773  10.370 -0.0743 -0.0061 -0.2287
 7388SOL    HW133797   1.887   3.833  10.420  0.1662  0.1350 -0.1369
 7388SOL    HW233798   2.017   3.769  10.428 -2.4309  0.4519  2.8672
 7389SOL     OW33799   2.911   0.748   7.120  0.5923  0.2828  0.0751
 7389SOL    HW133800   2.883   0.699   7.043 -0.2414  0.6460  0.1557
 7389SOL    HW233801   2.828   0.769   7.163 -0.1560  1.1537 -1.8138
 7390SOL     OW33802   1.143   0.215   6.287  0.1584  0.2174 -0.4276
 7390SOL    HW133803   1.152   0.300   6.330 -0.2211  0.1033 -0.1150
 7390SOL    HW233804   1.181   0.161   6.357  1.9255  0.9330 -0.8449
 7391SOL     OW33805   2.002   1.943  12.831 -0.0823  0.5548  0.1085
 7391SOL    HW133806   2.052   1.960  12.910 -0.6417  0.1847  0.5452
 7391SOL    HW233807   2.009   2.025  12.782 -1.2543  0.3101 -0.4854
 7392SOL     OW33808   1.420   2.671   3.832 -0.1381 -0.1994  0.0448
 7392SOL    HW133809   1.374   2.623   3.762  0.8194 -1.8523  0.5432
 7392SOL    HW233810   1.400   2.603   3.897  4.3619 -0.6869  0.8781
 7393SOL     OW33811   3.640   2.650   4.421 -0.0005 -0.4237 -0.3022
 7393SOL    HW133812   3.602   2.711   4.357 -0.1292 -0.2124 -0.0266
 7393SOL    HW233813   3.558   2.616   4.455 -0.0451  1.3935  1.3932
 7394SOL     OW33814   3.499   1.640   6.347  0.2574 -0.6702 -0.0768
 7394SOL    HW133815   3.550   1.713   6.312 -0.5552  0.5998  1.3783
 7394SOL    HW233816   3.549   1.563   6.323  1.8234  0.7848 -1.4020
 7395SOL     OW33817   0.178   3.773   1.201  0.3067 -0.1032 -0.4493
 7395SOL    HW133818   0.166   3.770   1.296 -3.5696 -0.4697 -0.9366
 7395SOL    HW233819   0.237   3.700   1.182  0.2751 -0.8115  2.1882
 7396SOL     OW33820   0.943   2.068   5.403 -0.1513 -0.4142  0.0618
 7396SOL    HW133821   1.005   2.039   5.469  0.1955  2.2997  0.9446
 7396SOL    HW233822   0.861   2.066   5.452 -0.1174  0.7393  0.1621
 7397SOL     OW33823   0.051   3.607   7.675  0.5113  0.3116 -0.2586
 7397SOL    HW133824   0.063   3.533   7.734 -1.6556  0.4439  0.3317
 7397SOL    HW233825   4.703   3.591   7.647 -0.1065  0.8656  1.4255
 7398SOL     OW33826   4.598   3.806   0.450 -0.3969 -0.2380  0.7947
 7398SOL    HW133827   4.517   3.805   0.400  0.0493 -0.4638  0.0836
 7398SOL    HW233828   4.580   3.737   0.514  1.3124 -1.0250  0.4244
 7399SOL     OW33829   0.083   3.286   2.645 -0.4978 -0.3156  0.1811
 7399SOL    HW133830   0.115   3.267   2.557 -0.2620 -1.4333  0.5055
 7399SOL    HW233831   4.739   3.260   2.611  0.4622  0.5361 -2.8844
 7400SOL     OW33832   1.738   4.327   7.472  0.1100 -0.0144  0.1449
 7400SOL    HW133833   1.755   4.243   7.429 -0.2746  0.0139 -0.0685
 7400SOL    HW233834   1.814   4.324   7.530 -0.7990  0.2840  1.3518
 7401SOL     OW33835   2.569   4.605  14.833 -0.2066 -0.1338 -0.0262
 7401SOL    HW133836   2.532   4.577  14.750  0.7585  1.4274 -0.9779
 7401SOL    HW233837   2.639   4.543  14.851 -0.4532  0.5411  3.4312
 7402SOL     OW33838   2.161   0.899   6.868 -0.3406  0.3725 -0.7335
 7402SOL    HW133839   2.082   0.847   6.852  1.2042 -1.8294 -1.1782
 7402SOL    HW233840   2.144   0.910   6.962  2.4430 -0.4115 -0.1366
 7403SOL     OW33841   1.232   4.278   0.284  0.4673 -0.9703 -0.1709
 7403SOL    HW133842   1.230   4.367   0.248  2.5168 -0.5483  0.7904
 7403SOL    HW233843   1.289   4.248   0.213  3.2513 -0.2188  1.7544
 7404SOL     OW33844   4.282   4.118   5.309 -0.3195 -0.2989 -0.5889
 7404SOL    HW133845   4.353   4.142   5.250 -1.4956  2.1498 -0.9872
 7404SOL    HW233846   4.297   4.180   5.380 -2.3204 -0.9765  0.4273
 7405SOL     OW33847   2.666   3.917   5.553 -0.7757 -0.0830  0.4701
 7405SOL    HW133848   2.707   3.896   5.469 -0.9612 -1.4171  0.7265
 7405SOL    HW233849   2.747   3.957   5.586  0.4745 -0.2014 -2.4716
 7406SOL     OW33850   2.401   2.600  17.273 -0.2297  0.2858 -0.1681
 7406SOL    HW133851   2.416   2.669  17.338 -2.3525  0.0351  0.5579
 7406SOL    HW233852   2.351   2.538  17.326 -0.4002  0.5496 -0.0228
 7407SOL     OW33853   1.483   4.133  15.529  0.8203 -0.1015  0.0536
 7407SOL    HW133854   1.508   4.046  15.561  1.6172  1.0104  2.4286
 7407SOL    HW233855   1.415   4.110  15.464 -2.3896  0.4341  3.2241
 7408SOL     OW33856   0.237   2.223   6.603  0.3478  0.0426  0.1842
 7408SOL    HW133857   0.314   2.171   6.583  0.5488 -0.9278  3.4556
 7408SOL    HW233858   0.285   2.287   6.655 -0.7539  1.0062  0.0090
 7409SOL     OW33859   1.973   4.672  10.606 -0.9778  0.1803 -0.6128
 7409SOL    HW133860   1.971   0.026  10.608 -0.0172  0.2015 -0.6208
 7409SOL    HW233861   1.959   4.658  10.513 -0.5784  0.9312 -0.7889
 7410SOL     OW33862   0.185   1.148   0.999  0.1594  0.7779 -0.1455
 7410SOL    HW133863   0.124   1.088   1.043 -0.6380  2.9398  1.6943
 7410SOL    HW233864   0.269   1.103   1.005  0.3045  0.6814 -3.3022
 7411SOL     OW33865   3.898   3.211  13.404  0.1821  0.6001 -0.3588
 7411SOL    HW133866   3.841   3.176  13.472  1.2315  1.6518  1.0627
 7411SOL    HW233867   3.983   3.184  13.437 -0.1047 -1.1623 -1.0415
 7412SOL     OW33868   1.158   3.833   7.156  0.2210  0.0543  0.1082
 7412SOL    HW133869   1.067   3.806   7.157  0.8508 -2.1000  0.1140
 7412SOL    HW233870   1.154   3.928   7.167 -0.9718 -0.1699  1.6446
 7413SOL     OW33871   2.225   1.782   8.394 -0.4520  0.3117  0.1816
 7413SOL    HW133872   2.196   1.763   8.305 -0.4375  2.6919 -0.3196
 7413SOL    HW233873   2.209   1.876   8.404 -0.5728 -0.0973  3.9923
 7414SOL     OW33874   0.107   0.989  12.375  0.3627  0.2057 -0.7023
 7414SOL    HW133875   0.080   0.909  12.419  1.1500  1.1834  1.5605
 7414SOL    HW233876   0.077   1.053  12.440  0.0113  0.1126 -0.7704
 7415SOL     OW33877   0.530   4.467  15.601  0.1486  0.3865 -0.7593
 7415SOL    HW133878   0.601   4.440  15.660 -1.0857  0.2969  0.6678
 7415SOL    HW233879   0.515   4.379  15.567 -1.4380  0.8085 -1.1155
 7416SOL     OW33880   3.910   0.710  12.402 -0.1022 -0.1538 -0.0541
 7416SOL    HW133881   3.875   0.637  12.453 -2.1241  0.5566 -0.3915
 7416SOL    HW233882   4.002   0.696  12.382 -0.1820  0.7005 -1.0240
 7417SOL     OW33883   3.289   3.389   5.519  0.1502  0.0435  0.7775
 7417SOL    HW133884   3.285   3.294   5.533  1.2179 -0.2845 -1.1855
 7417SOL    HW233885   3.280   3.421   5.609  0.0294  1.3777  0.2864
 7418SOL     OW33886   2.850   2.732  16.634  0.3182  0.2774  0.2203
 7418SOL    HW133887   2.904   2.786  16.692 -1.3823  1.2713  0.8689
 7418SOL    HW233888   2.789   2.685  16.691 -1.0493  0.7133 -0.8903
 7419SOL     OW33889   1.680   1.255  12.271 -0.0651 -0.3013  0.5574
 7419SOL    HW133890   1.672   1.328  12.209  0.5910 -0.7173 -0.0222
 7419SOL    HW233891   1.766   1.217  12.249  0.3003  1.8463 -1.7671
 7420SOL     OW33892   1.057   4.551  14.481 -0.4574 -0.1737 -0.2304
 7420SOL    HW133893   1.145   4.587  14.478 -1.0142  1.3070  0.7749
 7420SOL    HW233894   1.059   4.480  14.545 -0.0481 -1.8271 -2.0751
 7421SOL     OW33895   1.987   3.972  14.905  0.5943  0.0347  0.4069
 7421SOL    HW133896   1.962   3.884  14.877  1.9117 -0.7034  1.5385
 7421SOL    HW233897   2.082   3.964  14.893  0.2197  2.3034 -4.2269
 7422SOL     OW33898   3.143   1.137   2.973  0.2486  0.0564 -0.6366
 7422SOL    HW133899   3.168   1.224   3.006 -0.7094 -1.0675  3.1070
 7422SOL    HW233900   3.227   1.093   2.987  0.2362  0.2983  0.1901
 7423SOL     OW33901   4.125   1.263  11.064  0.3468  0.1372 -0.3662
 7423SOL    HW133902   4.044   1.274  11.113  0.2284  2.9813 -1.2363
 7423SOL    HW233903   4.114   1.172  11.035 -4.4773  0.1875  1.3178
 7424SOL     OW33904   4.103   1.655   0.894 -0.1786 -0.4468 -0.5593
 7424SOL    HW133905   4.136   1.588   0.834 -1.5872 -1.8212  0.1898
 7424SOL    HW233906   4.010   1.665   0.873 -0.2547 -0.3510 -0.1737
 7425SOL     OW33907   1.452   1.531   6.742 -0.3974  0.1313  0.1102
 7425SOL    HW133908   1.403   1.532   6.660 -0.1977  2.7723  0.0528
 7425SOL    HW233909   1.457   1.626   6.749  0.3612  0.2301 -1.7100
 7426SOL     OW33910   0.625   3.300   6.353  0.3894 -0.3118  0.5236
 7426SOL    HW133911   0.592   3.347   6.429  1.8111  2.0445 -0.3326
 7426SOL    HW233912   0.643   3.379   6.303  0.1330  0.0544  1.0146
 7427SOL     OW33913   2.068   4.353   5.094 -0.0628 -0.0660  0.2852
 7427SOL    HW133914   2.151   4.400   5.080  1.1442 -2.2738  0.0723
 7427SOL    HW233915   2.097   4.273   5.137 -2.2993 -1.2756 -0.5004
 7428SOL     OW33916   1.476   0.110  17.381 -0.5634  0.2816  0.2165
 7428SOL    HW133917   1.490   0.020  17.352 -0.2149 -0.0235  1.2996
 7428SOL    HW233918   1.553   0.152  17.343  0.4647  0.5670  2.5576
 7429SOL     OW33919   4.140   3.846  13.564 -0.5452 -0.4441  0.4456
 7429SOL    HW133920   4.083   3.905  13.516 -0.5358 -1.7023 -1.1295
 7429SOL    HW233921   4.217   3.903  13.563 -1.0712  0.2526 -0.5840
 7430SOL     OW33922   1.677   4.250   8.565  0.1130 -0.2147  0.1219
 7430SOL    HW133923   1.762   4.228   8.527  1.3677  0.9965  2.1928
 7430SOL    HW233924   1.701   4.307   8.638  1.1364 -0.6705  0.1400
 7431SOL     OW33925   4.576   2.501   4.928 -0.8132  0.6798 -0.0370
 7431SOL    HW133926   4.524   2.491   4.848  1.5951 -0.5036 -1.4749
 7431SOL    HW233927   4.649   2.555   4.898  1.8486 -2.1264  1.2707
 7432SOL     OW33928   3.024   2.449   7.554 -0.3329 -0.0193 -0.0158
 7432SOL    HW133929   2.932   2.476   7.565 -0.9454 -2.3416  0.5648
 7432SOL    HW233930   3.021   2.362   7.593  0.4125 -0.7371 -1.5450
 7433SOL     OW33931   0.040   4.518   1.178 -0.3932 -0.6593 -0.2818
 7433SOL    HW133932   0.006   4.555   1.097 -2.1480 -0.2228  0.6450
 7433SOL    HW233933   0.072   4.438   1.137 -2.5020 -1.2905 -0.6740
 7434SOL     OW33934   2.481   0.099   8.003  0.7188  0.2805 -0.0700
 7434SOL    HW133935   2.478   0.023   8.061  1.0409 -0.2488 -0.7453
 7434SOL    HW233936   2.440   0.160   8.064  3.1844  2.5203 -0.6551
 7435SOL     OW33937   0.402   4.105   9.677  0.3318  0.2722 -0.7056
 7435SOL    HW133938   0.339   4.092   9.748  0.7258  2.1290 -0.0049
 7435SOL    HW233939   0.452   4.173   9.723  0.4530 -2.1147  2.6657
 7436SOL     OW33940   4.206   1.366  13.912 -0.4481 -0.4425  0.5439
 7436SOL    HW133941   4.277   1.355  13.849 -0.8830 -2.3656  0.4001
 7436SOL    HW233942   4.250   1.412  13.984  0.8572 -1.0805  0.1464
 7437SOL     OW33943   2.789   2.971   7.976  0.0176  0.4206  0.3595
 7437SOL    HW133944   2.786   3.065   7.995  0.7693  0.3175  0.9635
 7437SOL    HW233945   2.884   2.959   7.971 -0.0901  1.3778 -3.5031
 7438SOL     OW33946   0.393   1.232   8.803  0.0269 -1.0267  0.1602
 7438SOL    HW133947   0.381   1.144   8.768  0.7345 -0.4763 -1.4714
 7438SOL    HW233948   0.313   1.272   8.768  0.0598 -0.2545  0.9722
 7439SOL     OW33949   2.801   2.294   8.098  0.7759  0.1276 -0.7189
 7439SOL    HW133950   2.795   2.203   8.069 -1.0107  0.9824 -2.9994
 7439SOL    HW233951   2.894   2.314   8.109  0.9959 -1.7719  1.0800
 7440SOL     OW33952   2.295   0.988   5.850  0.5261  0.0470  0.4903
 7440SOL    HW133953   2.386   0.970   5.825  0.4593  0.4342 -0.0478
 7440SOL    HW233954   2.305   0.962   5.942  1.0871  0.0467  0.4337
 7441SOL     OW33955   0.180   0.233   2.569 -0.5003 -0.5554 -0.3270
 7441SOL    HW133956   0.151   0.197   2.486  1.0619  0.4704 -1.3095
 7441SOL    HW233957   0.097   0.232   2.617 -0.6587  0.2994 -0.5877
 7442SOL     OW33958   1.434   3.118  10.937  0.1571 -0.0343  0.5276
 7442SOL    HW133959   1.382   3.043  10.967 -0.0017  0.8931  2.4982
 7442SOL    HW233960   1.428   3.168  11.018 -0.7579 -0.2900  0.6166
 7443SOL     OW33961   4.049   0.426   5.636  0.1462 -0.0950 -0.6007
 7443SOL    HW133962   4.101   0.426   5.716 -3.1317  0.2962  1.4941
 7443SOL    HW233963   3.971   0.387   5.673  1.3816 -0.2862  1.7769
 7444SOL     OW33964   2.122   4.392  16.225 -0.4948 -0.0542  0.0575
 7444SOL    HW133965   2.072   4.465  16.187 -0.1835 -0.3594 -0.9432
 7444SOL    HW233966   2.049   4.337  16.253 -0.8365 -0.8136 -2.3103
 7445SOL     OW33967   1.434   0.344  12.142 -0.4625 -0.4479  0.1805
 7445SOL    HW133968   1.387   0.356  12.060  0.1593  2.0399  0.1680
 7445SOL    HW233969   1.491   0.420  12.131  1.0001 -1.4579  0.8658
 7446SOL     OW33970   0.519   1.472   0.353 -0.2791 -0.1101  0.5099
 7446SOL    HW133971   0.597   1.439   0.309 -1.1320 -2.5833  0.8248
 7446SOL    HW233972   0.506   1.414   0.428 -0.6608  0.5570  0.9593
 7447SOL     OW33973   1.955   1.396  13.849 -0.2288  0.8120  0.3871
 7447SOL    HW133974   1.950   1.323  13.787  0.2069 -0.2013  1.5375
 7447SOL    HW233975   1.904   1.465  13.807 -0.0057  0.6814 -0.0947
 7448SOL     OW33976   2.316   4.062   2.741  0.6180  0.0354 -0.1875
 7448SOL    HW133977   2.240   4.007   2.760  0.2484  0.3670 -0.6942
 7448SOL    HW233978   2.278   4.149   2.742  1.2529  0.3509 -2.3889
 7449SOL     OW33979   1.187   4.562   2.256  0.1328  0.3293  0.7349
 7449SOL    HW133980   1.205   4.614   2.334 -0.8770  1.4139  0.2385
 7449SOL    HW233981   1.129   4.625   2.212 -0.5244 -1.1397 -0.5345
 7450SOL     OW33982   1.702   4.289   6.514 -0.0322 -0.3697  0.2758
 7450SOL    HW133983   1.657   4.261   6.593  2.0265 -0.7471  1.3256
 7450SOL    HW233984   1.755   4.352   6.563 -0.5415  0.6579 -0.4936
 7451SOL     OW33985   1.010   4.309   3.966 -0.3764 -0.1295  0.1891
 7451SOL    HW133986   0.983   4.349   4.049 -0.2437 -0.3536  0.3390
 7451SOL    HW233987   1.000   4.386   3.909  2.1384 -0.1618 -0.3027
 7452SOL     OW33988   0.427   0.076   5.800  0.0694 -0.5493 -0.0162
 7452SOL    HW133989   0.334   0.078   5.775 -0.5545 -1.3202  2.2552
 7452SOL    HW233990   0.480   0.068   5.721 -1.1287  0.9552 -0.9778
 7453SOL     OW33991   2.763   0.661   7.528 -0.7583 -0.3905  0.4739
 7453SOL    HW133992   2.799   0.586   7.480 -1.6659  0.2323 -1.1777
 7453SOL    HW233993   2.764   0.725   7.457  1.7446 -1.2209 -0.2413
 7454SOL     OW33994   2.789   2.038   8.350  0.2319  0.7386  0.1201
 7454SOL    HW133995   2.821   2.033   8.440  0.8791 -1.8556 -0.2596
 7454SOL    HW233996   2.868   2.030   8.297  0.9829  0.2037  1.3229
 7455SOL     OW33997   4.579   0.369   2.965 -0.4208 -0.2977 -0.0862
 7455SOL    HW133998   4.673   0.359   2.947 -0.2096 -0.3367  1.0229
 7455SOL    HW233999   4.563   0.278   2.992 -0.9828 -0.8705 -2.3396
 7456SOL     OW34000   1.582   0.502  11.794 -0.5544  0.0745  0.1968
 7456SOL    HW134001   1.629   0.422  11.773 -0.0392  0.2497  0.6713
 7456SOL    HW234002   1.630   0.569  11.745 -0.1978 -0.9334 -0.8206
 7457SOL     OW34003   3.362   1.205   9.648  0.7221  0.3895  0.0365
 7457SOL    HW134004   3.418   1.280   9.668 -0.0295  0.4778  1.7760
 7457SOL    HW234005   3.422   1.136   9.677 -0.2225 -0.4746 -0.1029
 7458SOL     OW34006   4.412   2.264   6.660  0.3087 -0.1469 -0.2227
 7458SOL    HW134007   4.442   2.309   6.739 -3.5904  0.5030  0.8929
 7458SOL    HW234008   4.412   2.336   6.597  0.7639 -0.4205 -0.5300
 7459SOL     OW34009   4.706   2.873   1.865 -0.7114  0.1659  0.3921
 7459SOL    HW134010   4.654   2.846   1.790  0.4266  2.0148 -1.0501
 7459SOL    HW234011   4.650   2.846   1.939  0.8116 -1.5069  0.9352
 7460SOL     OW34012   2.477   0.847  12.948 -0.2866 -0.3814  0.0399
 7460SOL    HW134013   2.500   0.817  12.860 -0.4736 -0.4341  0.0098
 7460SOL    HW234014   2.550   0.805  12.994 -0.8718 -1.8049 -0.3369
 7461SOL     OW34015   0.996   3.330   7.082 -0.1671  0.1026  0.0272
 7461SOL    HW134016   1.067   3.394   7.085  0.3927 -0.5080 -0.2902
 7461SOL    HW234017   0.929   3.394   7.056  1.3025 -0.4154 -5.0064
 7462SOL     OW34018   3.839   3.265   2.849  0.5914  0.1152  0.5006
 7462SOL    HW134019   3.878   3.226   2.771 -0.5204  0.1172 -0.0517
 7462SOL    HW234020   3.862   3.357   2.845 -1.4117  0.5949 -0.1255
 7463SOL     OW34021   2.588   4.139   4.289  0.0024  0.1239  0.3112
 7463SOL    HW134022   2.564   4.178   4.205  0.5591  1.0066  0.5769
 7463SOL    HW234023   2.649   4.204   4.324  1.0016  0.5818 -2.2903
 7464SOL     OW34024   2.652   2.887  11.937  0.6272  0.7173  0.3820
 7464SOL    HW134025   2.674   2.966  11.889  0.3391 -0.1574 -1.1952
 7464SOL    HW234026   2.696   2.821  11.883 -1.2291 -0.9381  0.8534
 7465SOL     OW34027   4.423   1.828  16.517 -0.8109 -0.3633  0.2492
 7465SOL    HW134028   4.428   1.743  16.562 -0.4026 -0.2256  0.4577
 7465SOL    HW234029   4.487   1.815  16.448  1.0514 -0.8004  2.0702
 7466SOL     OW34030   0.298   4.008   2.717 -0.1783 -0.0197  0.5309
 7466SOL    HW134031   0.312   3.919   2.748  0.1810 -0.6170 -1.3983
 7466SOL    HW234032   0.219   4.027   2.768 -0.8542 -2.5530  0.4081
 7467SOL     OW34033   1.313   0.380   8.836  0.0700 -0.0798  0.0165
 7467SOL    HW134034   1.258   0.316   8.881  0.3777  0.1808  0.7658
 7467SOL    HW234035   1.390   0.324   8.837  0.5888  0.6620  1.4118
 7468SOL     OW34036   1.500   3.874  15.433 -0.5969  0.1948  0.1292
 7468SOL    HW134037   1.415   3.889  15.393 -0.5767  0.6756  0.2621
 7468SOL    HW234038   1.498   3.780  15.412 -1.3679  0.2240  0.0629
 7469SOL     OW34039   2.262   1.120   1.652  0.2487 -0.5040 -0.5767
 7469SOL    HW134040   2.176   1.090   1.682  0.5323 -0.4200  0.3116
 7469SOL    HW234041   2.318   1.043   1.663 -0.1711 -0.7097  0.1386
 7470SOL     OW34042   0.350   4.258  15.673  0.3845  0.1582 -0.3888
 7470SOL    HW134043   0.338   4.343  15.717 -0.1655  0.6687 -1.5254
 7470SOL    HW234044   0.290   4.209  15.729 -2.2186 -0.8412 -4.0775
 7471SOL     OW34045   0.666   0.246   5.854  0.0703  0.4849 -0.1976
 7471SOL    HW134046   0.601   0.177   5.845  2.4598 -1.8178  0.0281
 7471SOL    HW234047   0.664   0.263   5.948 -0.8693 -3.1583  0.4269
 7472SOL     OW34048   4.570   4.311   6.744  0.5017 -0.5657  0.4748
 7472SOL    HW134049   4.614   4.318   6.659 -0.2484  0.1248  0.1383
 7472SOL    HW234050   4.515   4.389   6.738  2.0340  0.4383 -0.5776
 7473SOL     OW34051   4.509   1.042   1.966 -0.5720  0.5340 -0.4624
 7473SOL    HW134052   4.597   1.076   1.984 -0.3934 -0.7353  1.1771
 7473SOL    HW234053   4.540   0.969   1.912  0.3980  2.8698 -3.0633
 7474SOL     OW34054   4.218   0.759   1.505  0.4108  0.0015  0.2503
 7474SOL    HW134055   4.235   0.853   1.507 -1.0675  0.2095  4.3133
 7474SOL    HW234056   4.209   0.747   1.411  1.8756 -2.9179  0.4800
 7475SOL     OW34057   1.301   2.740  12.036  0.1437 -0.0133 -0.0794
 7475SOL    HW134058   1.269   2.692  12.113  3.1371 -1.2060  0.4303
 7475SOL    HW234059   1.396   2.747  12.046  0.2158  0.8308 -1.3670
 7476SOL     OW34060   3.179   4.670  12.031  0.0326  0.2254  0.8150
 7476SOL    HW134061   3.154   4.720  11.953 -1.7796 -0.8092  0.7424
 7476SOL    HW234062   3.136   4.715  12.104 -0.0020 -1.2587  1.6891
 7477SOL     OW34063   1.406   4.576   9.115  0.3350 -0.2940  0.6781
 7477SOL    HW134064   1.323   4.619   9.096  0.6586  0.6591  1.4213
 7477SOL    HW234065   1.382   4.497   9.165  2.6476 -1.3550  0.1221
 7478SOL     OW34066   2.134   1.101   4.254  0.2748 -0.5633 -0.1205
 7478SOL    HW134067   2.210   1.137   4.300  0.0825  0.0557 -0.2847
 7478SOL    HW234068   2.149   1.109   4.160 -1.8457 -0.5086 -0.4460
 7479SOL     OW34069   2.525   3.147   5.348  0.0564 -0.1511  0.0179
 7479SOL    HW134070   2.568   3.069   5.385 -1.1811 -0.3159  1.0877
 7479SOL    HW234071   2.582   3.218   5.378  1.2662 -0.9639 -0.3598
 7480SOL     OW34072   0.778   2.616  15.971 -0.4523  0.0361  0.0158
 7480SOL    HW134073   0.803   2.524  15.960  1.2002  0.6541 -1.2720
 7480SOL    HW234074   0.799   2.659  15.889  1.7902  1.4106  1.3226
 7481SOL     OW34075   3.521   1.726   5.674 -0.0719  0.0995  0.4184
 7481SOL    HW134076   3.488   1.804   5.718  1.7679  0.8573  0.4654
 7481SOL    HW234077   3.487   1.731   5.584 -0.3328 -0.2789  0.4951
 7482SOL     OW34078   0.729   1.151   2.280  0.0975 -0.1847 -0.8543
 7482SOL    HW134079   0.697   1.210   2.213  0.9018 -1.9987 -2.8418
 7482SOL    HW234080   0.795   1.096   2.238  2.1244  1.6050 -0.0183
 7483SOL     OW34081   1.650   0.428   4.831 -0.5743 -0.0373  0.5265
 7483SOL    HW134082   1.674   0.504   4.778  2.8852 -0.3249  1.7112
 7483SOL    HW234083   1.575   0.463   4.880 -1.0311 -1.6234  0.9659
 7484SOL     OW34084   0.038   3.238  11.395  0.1414  0.1095 -0.6894
 7484SOL    HW134085   0.107   3.235  11.461 -1.1652  1.2256  0.7200
 7484SOL    HW234086   4.708   3.237  11.458  1.2258 -1.5592  0.4987
 7485SOL     OW34087   1.196   0.178   6.566  0.0476 -0.1409  0.5206
 7485SOL    HW134088   1.237   0.178   6.652 -0.0055 -0.2375  0.5465
 7485SOL    HW234089   1.118   0.129   6.589 -1.7393  2.4453 -0.0310
 7486SOL     OW34090   0.633   2.154   1.396  0.5706 -0.1721 -0.6425
 7486SOL    HW134091   0.577   2.167   1.320  0.8785  0.8551 -0.6828
 7486SOL    HW234092   0.578   2.120   1.467 -0.1460 -0.9161 -1.5559
 7487SOL     OW34093   2.927   0.500   5.830 -1.0860 -0.3498 -0.2035
 7487SOL    HW134094   2.913   0.410   5.800 -0.2284 -0.1935 -1.0807
 7487SOL    HW234095   2.988   0.498   5.903  0.3197 -0.0732 -1.3705
 7488SOL     OW34096   1.541   3.064   1.275  0.5314 -0.3510 -0.3818
 7488SOL    HW134097   1.597   3.067   1.353  0.8691  1.1621 -0.6786
 7488SOL    HW234098   1.498   2.980   1.290  2.7749 -1.3983  0.2249
 7489SOL     OW34099   1.582   1.831   5.406  0.4214  0.3512 -0.4541
 7489SOL    HW134100   1.504   1.806   5.356  0.2108  1.5897 -0.7329
 7489SOL    HW234101   1.535   1.847   5.489  2.0610 -1.5459  0.8480
 7490SOL     OW34102   2.721   1.582   9.664  0.0550 -0.6693  0.0085
 7490SOL    HW134103   2.664   1.567   9.740  1.2565  1.5995  1.3551
 7490SOL    HW234104   2.697   1.671   9.641 -0.4079 -0.1771  2.4015
 7491SOL     OW34105   0.798   3.455   1.987  0.0161 -0.6693  0.0307
 7491SOL    HW134106   0.892   3.459   1.968  0.1421  1.7387  1.2147
 7491SOL    HW234107   0.803   3.470   2.081  0.1617  1.8537 -0.3858
 7492SOL     OW34108   4.022   3.988  12.136  0.0194 -0.0560 -0.1526
 7492SOL    HW134109   4.107   3.946  12.146  1.0160  1.9701 -0.0067
 7492SOL    HW234110   4.029   4.000  12.041 -2.3247  2.9552  0.0333
 7493SOL     OW34111   4.273   0.671   5.374  0.2130 -0.2919  0.3940
 7493SOL    HW134112   4.180   0.687   5.355 -0.0486 -0.9273  1.1474
 7493SOL    HW234113   4.277   0.576   5.380 -1.9728 -0.4509 -0.5669
 7494SOL     OW34114   0.012   1.119  15.877  0.0331 -0.1791 -0.4125
 7494SOL    HW134115   0.086   1.060  15.865  0.5477  0.3073  0.3531
 7494SOL    HW234116   0.014   1.164  15.792 -1.5011  1.0998  0.2183
 7495SOL     OW34117   1.740   0.743   3.529  0.2419  0.0771 -0.1518
 7495SOL    HW134118   1.791   0.775   3.454  0.1531 -2.0152 -1.1155
 7495SOL    HW234119   1.705   0.665   3.487 -2.1074  1.0946 -0.1047
 7496SOL     OW34120   2.909   0.690  17.505 -0.1408  0.1629 -0.8550
 7496SOL    HW134121   2.834   0.743  17.479  0.1222  1.1379  0.3326
 7496SOL    HW234122   2.986   0.723  17.459  0.7403 -0.4975  0.1625
 7497SOL     OW34123   1.352   2.454  11.811  0.9310  0.2491  0.6726
 7497SOL    HW134124   1.382   2.461  11.902 -0.3281 -1.8291  1.2440
 7497SOL    HW234125   1.280   2.517  11.802  1.2660  0.6773  1.0326
 7498SOL     OW34126   0.848   3.963   3.925  0.1481  0.7407 -1.1127
 7498SOL    HW134127   0.836   3.869   3.912  0.7086  0.5147  0.0353
 7498SOL    HW234128   0.763   4.000   3.898 -1.1674  0.9862  3.3444
 7499SOL     OW34129   4.035   2.228  10.869  0.0367 -0.4864  0.1262
 7499SOL    HW134130   3.986   2.147  10.852 -0.5108 -0.0741 -0.2387
 7499SOL    HW234131   4.110   2.202  10.922 -1.1830 -2.1907  1.0431
 7500SOL     OW34132   0.254   0.113   5.274  0.0334  0.0365  0.0911
 7500SOL    HW134133   0.348   0.133   5.268  1.0639 -4.6377  0.8931
 7500SOL    HW234134   0.233   0.118   5.180 -2.2190 -1.4252  0.5389
 7501SOL     OW34135   4.000   0.362   0.187 -0.1412 -0.5864 -0.0559
 7501SOL    HW134136   4.000   0.458   0.193 -2.2182 -0.6020  0.1808
 7501SOL    HW234137   3.925   0.352   0.129 -0.7224  4.9011 -0.2458
 7502SOL     OW34138   0.968   3.955   7.510  0.6939  0.0081  0.0386
 7502SOL    HW134139   0.924   3.873   7.531  1.9240 -0.9191 -1.0455
 7502SOL    HW234140   0.900   4.012   7.547 -0.7361 -1.9241  0.3712
 7503SOL     OW34141   1.108   3.497   8.283 -0.5575  0.2308  0.0381
 7503SOL    HW134142   1.193   3.461   8.306 -0.9351 -0.1057  0.8978
 7503SOL    HW234143   1.057   3.486   8.363  0.1469  0.6895  0.5439
 7504SOL     OW34144   1.371   3.561   7.881  0.3715  0.0809 -0.6074
 7504SOL    HW134145   1.451   3.613   7.872  0.7422 -0.0311  1.9987
 7504SOL    HW234146   1.398   3.482   7.927 -0.2700 -0.0319 -0.4275
 7505SOL     OW34147   0.796   2.730   7.438 -0.4373 -0.2324  0.2376
 7505SOL    HW134148   0.848   2.810   7.450 -2.1354  0.4843  2.8823
 7505SOL    HW234149   0.815   2.701   7.349 -1.3330  2.5751 -0.8866
 7506SOL     OW34150   2.401   1.279   0.812  0.6351 -0.0297 -0.3240
 7506SOL    HW134151   2.377   1.344   0.746  0.3231  0.3918  0.2005
 7506SOL    HW234152   2.323   1.223   0.810  1.2060 -0.9383  2.0379
 7507SOL     OW34153   0.159   1.258   7.275 -0.4720  0.4473 -0.3102
 7507SOL    HW134154   0.100   1.321   7.315  1.6087  1.4443  1.2167
 7507SOL    HW234155   0.205   1.317   7.215  2.1638 -3.0637 -1.7892
 7508SOL     OW34156   1.941   4.637   4.482 -0.3078 -0.4033 -0.2744
 7508SOL    HW134157   1.946   4.731   4.500  1.7190 -0.4635 -0.4704
 7508SOL    HW234158   2.033   4.614   4.471  0.9860  3.7675  1.6197
 7509SOL     OW34159   0.420   4.082   4.127 -0.2514  0.5588 -0.4274
 7509SOL    HW134160   0.501   4.132   4.126  1.1471 -1.7276 -0.0655
 7509SOL    HW234161   0.450   3.995   4.154  1.4429 -0.1244 -4.4914
 7510SOL     OW34162   0.534   0.546   2.720 -0.3704 -0.0874 -0.1552
 7510SOL    HW134163   0.612   0.528   2.667  1.7115 -0.1739  2.9550
 7510SOL    HW234164   0.511   0.628   2.676 -0.6530  0.4377  0.9815
 7511SOL     OW34165   1.916   2.104   5.080  0.3510 -0.5216 -0.0958
 7511SOL    HW134166   1.938   2.097   5.173  2.5310  0.6837 -0.5062
 7511SOL    HW234167   1.999   2.077   5.040 -0.5890 -1.4964 -1.3747
 7512SOL     OW34168   3.037   0.475   6.474  0.0410 -0.2312  0.3268
 7512SOL    HW134169   2.946   0.474   6.501  0.2647  0.2242  1.1030
 7512SOL    HW234170   3.030   0.423   6.395 -1.4396 -0.9190  0.9300
 7513SOL     OW34171   3.892   4.453   5.022  0.1778 -0.3911  0.3003
 7513SOL    HW134172   3.957   4.445   4.952 -0.7260  0.1590 -0.6025
 7513SOL    HW234173   3.941   4.445   5.104 -0.3793  1.2841  0.7856
 7514SOL     OW34174   2.967   0.470   7.428 -0.4253  0.4234  0.1239
 7514SOL    HW134175   3.044   0.474   7.485  0.0537  1.5976 -0.6155
 7514SOL    HW234176   3.011   0.524   7.362 -0.1692 -0.1171 -0.1461
 7515SOL     OW34177   0.748   1.790   4.244 -0.3175  0.0203 -0.2852
 7515SOL    HW134178   0.673   1.737   4.216 -1.4834  1.4096  0.2319
 7515SOL    HW234179   0.710   1.865   4.291 -1.8111 -0.0717 -1.3547
 7516SOL     OW34180   3.510   3.658   4.559 -0.3641  0.4829 -0.5484
 7516SOL    HW134181   3.602   3.666   4.585  0.3539 -1.4859 -2.4765
 7516SOL    HW234182   3.464   3.717   4.618  1.5599 -0.8001  2.2115
 7517SOL     OW34183   4.141   3.370  14.268  0.1444 -0.0382  0.5038
 7517SOL    HW134184   4.218   3.416  14.299 -0.4070  1.9362 -1.0292
 7517SOL    HW234185   4.181   3.294  14.225 -0.8112  0.4186 -1.1762
 7518SOL     OW34186   2.569   0.008   6.112 -0.0765 -0.2160 -0.1646
 7518SOL    HW134187   2.533   0.088   6.149 -0.7142 -0.0261 -1.1865
 7518SOL    HW234188   2.654   0.005   6.156  0.5015  0.5261 -1.2074
 7519SOL     OW34189   0.362   3.570   1.144 -0.1201  0.2995 -0.4050
 7519SOL    HW134190   0.361   3.492   1.199  0.4663 -0.9963 -2.2378
 7519SOL    HW234191   0.449   3.595   1.176  0.8604 -0.7414 -2.2891
 7520SOL     OW34192   4.715   2.327   6.480 -0.4926  0.6329  0.0189
 7520SOL    HW134193   4.713   2.400   6.543  1.4685 -0.0156  0.8336
 7520SOL    HW234194   0.044   2.277   6.520 -0.2247  0.0027 -1.2699
 7521SOL     OW34195   1.695   0.248  13.995 -0.0284  0.1302  0.1162
 7521SOL    HW134196   1.769   0.268  14.052  0.7859  0.9535 -1.2195
 7521SOL    HW234197   1.694   0.319  13.931 -0.9109  1.6812  1.8441
 7522SOL     OW34198   3.960   2.188   3.925  0.0668 -0.0072  0.4080
 7522SOL    HW134199   3.948   2.102   3.964 -2.1591 -0.4577 -1.2865
 7522SOL    HW234200   3.889   2.200   3.861  1.0359  3.4341 -0.0379
 7523SOL     OW34201   2.045   1.910   1.966 -0.3155  0.1094 -0.3504
 7523SOL    HW134202   2.093   1.828   1.974  1.3730  1.1269  0.0056
 7523SOL    HW234203   2.065   1.944   2.053 -0.0310 -0.1450 -0.3161
 7524SOL     OW34204   3.655   0.536   8.564 -0.0185  0.2929  0.7793
 7524SOL    HW134205   3.706   0.505   8.490  1.1251 -1.9677  2.5064
 7524SOL    HW234206   3.636   0.448   8.596  0.3812  1.2365  3.6394
 7525SOL     OW34207   3.259   3.466  15.146  0.0816 -0.6750  0.3457
 7525SOL    HW134208   3.228   3.376  15.143 -0.9483 -0.3396  0.9663
 7525SOL    HW234209   3.208   3.513  15.080  1.4477 -0.5980 -0.6627
 7526SOL     OW34210   4.319   3.870   6.594  0.2636  0.5122 -0.3949
 7526SOL    HW134211   4.282   3.881   6.507  1.0891 -1.1113 -0.9606
 7526SOL    HW234212   4.368   3.788   6.585 -0.0621  0.4687 -1.6806
 7527SOL     OW34213   0.187   4.174   5.336  0.3228 -0.6676  0.2391
 7527SOL    HW134214   0.242   4.223   5.397 -2.9430  2.2628  0.8492
 7527SOL    HW234215   0.249   4.122   5.285  0.5639  2.5586 -2.7578
 7528SOL     OW34216   3.580   0.029   4.715 -0.1039 -0.0235 -0.2099
 7528SOL    HW134217   3.564   0.117   4.682 -0.7287 -0.4906 -1.1712
 7528SOL    HW234218   3.639   0.050   4.787  1.4375 -0.8255 -1.2299
 7529SOL     OW34219   3.417   3.828   3.068  0.1468  0.4632  0.2656
 7529SOL    HW134220   3.474   3.870   3.133  1.8320 -1.5948  0.1179
 7529SOL    HW234221   3.472   3.763   3.025 -0.0566  0.6411 -0.2603
 7530SOL     OW34222   4.448   3.248  14.819 -0.2779 -0.0694  0.1124
 7530SOL    HW134223   4.399   3.328  14.800 -1.4311 -0.7723  0.1551
 7530SOL    HW234224   4.376   3.197  14.857  1.2033 -1.6039  0.8618
 7531SOL     OW34225   3.455   0.528   1.552  0.0132  0.0112 -0.0757
 7531SOL    HW134226   3.474   0.498   1.462 -0.4558  2.2726 -0.9213
 7531SOL    HW234227   3.521   0.482   1.605 -0.1555 -1.2298 -0.9367
 7532SOL     OW34228   1.690   1.412   1.669 -0.1923 -0.6653 -0.2615
 7532SOL    HW134229   1.741   1.335   1.694  0.0917 -0.4807 -0.2718
 7532SOL    HW234230   1.745   1.471   1.720 -0.5331 -2.2460  1.9354
 7533SOL     OW34231   3.821   4.355  17.519 -0.1817 -0.1932 -0.0724
 7533SOL    HW134232   3.776   4.439  17.528  2.0565  1.1271 -0.9348
 7533SOL    HW234233   3.754   4.288  17.511  0.6403 -0.9270 -0.8355
 7534SOL     OW34234   1.754   3.688   3.747 -0.2335 -0.2914 -0.3546
 7534SOL    HW134235   1.686   3.641   3.796 -0.0154  1.2417  1.4731
 7534SOL    HW234236   1.797   3.733   3.820 -0.6220 -2.1400  1.0194
 7535SOL     OW34237   1.895   2.460  16.031 -0.4186 -0.2626  0.1675
 7535SOL    HW134238   1.989   2.443  16.031 -0.8307 -2.5600 -1.6259
 7535SOL    HW234239   1.902   2.525  16.101 -0.1347  0.8781 -0.9187
 7536SOL     OW34240   2.021   1.157  16.806  0.1244 -0.7733  0.0434
 7536SOL    HW134241   2.051   1.146  16.715 -0.9045  1.0228 -0.5114
 7536SOL    HW234242   1.962   1.082  16.813 -0.1833 -0.4898  0.4497
 7537SOL     OW34243   4.016   2.570  10.470  0.2306 -0.5297 -0.1014
 7537SOL    HW134244   4.056   2.489  10.436 -0.2864 -0.1024 -1.6931
 7537SOL    HW234245   4.071   2.632  10.423 -3.2932  0.6812 -2.5525
 7538SOL     OW34246   0.130   0.924   2.795  0.2469 -0.3384  0.0557
 7538SOL    HW134247   0.068   0.975   2.848 -0.1922 -1.4356  0.5893
 7538SOL    HW234248   0.215   0.962   2.817 -0.1200 -1.2195  2.9288
 7539SOL     OW34249   1.936   3.122   9.428 -0.9388 -0.3458  0.7480
 7539SOL    HW134250   1.942   3.190   9.362  1.0029 -1.9009 -0.6722
 7539SOL    HW234251   1.936   3.171   9.510 -1.8053  0.7358  0.0946
 7540SOL     OW34252   2.618   2.743   4.677  0.2815 -0.0812 -0.3773
 7540SOL    HW134253   2.671   2.733   4.598  0.5208  0.4582 -0.2926
 7540SOL    HW234254   2.617   2.839   4.685 -0.4084 -0.2939  1.9200
 7541SOL     OW34255   4.095   0.795   5.185 -0.0359  0.0192 -0.3640
 7541SOL    HW134256   4.012   0.831   5.152 -0.3387 -0.9169 -0.6143
 7541SOL    HW234257   4.152   0.870   5.164 -0.0274  0.0596 -0.1920
 7542SOL     OW34258   1.523   4.458   7.812 -0.6172  0.9637  0.0030
 7542SOL    HW134259   1.586   4.513   7.860  1.1426 -0.3490 -0.8349
 7542SOL    HW234260   1.528   4.385   7.874  0.0053  1.4036  0.4739
 7543SOL     OW34261   2.375   1.341   6.997  0.0224 -0.2651  0.5014
 7543SOL    HW134262   2.326   1.322   7.077  3.4893 -1.0115  2.4562
 7543SOL    HW234263   2.427   1.261   7.001  0.7806  0.1908 -0.2946
 7544SOL     OW34264   4.537   1.807  12.854  0.1632 -0.3103 -0.0351
 7544SOL    HW134265   4.537   1.834  12.763 -1.9009 -0.2474 -0.0151
 7544SOL    HW234266   4.631   1.797  12.866  0.2542  0.9130  0.2195
 7545SOL     OW34267   2.636   2.727  17.682 -0.0993  0.1471 -0.2345
 7545SOL    HW134268   2.648   2.720  17.588  1.2812 -1.0401  0.0388
 7545SOL    HW234269   2.628   2.822  17.691  0.9510  0.0917  1.3690
 7546SOL     OW34270   3.760   1.667   1.768  0.7429 -0.4029  0.1158
 7546SOL    HW134271   3.788   1.749   1.808  0.0619  1.0499 -2.3803
 7546SOL    HW234272   3.675   1.697   1.735  1.2829 -0.3185 -1.2282
 7547SOL     OW34273   0.711   3.795   0.473  0.7376 -0.5442 -0.1856
 7547SOL    HW134274   0.649   3.734   0.514 -0.9606  0.0734 -1.8414
 7547SOL    HW234275   0.747   3.726   0.418  3.0018  0.6544 -0.1789
 7548SOL     OW34276   0.084   2.883   8.799 -0.3940 -0.0263  0.5582
 7548SOL    HW134277   0.008   2.849   8.751 -0.5996  0.7692  0.3165
 7548SOL    HW234278   0.126   2.799   8.814 -0.1732 -0.2430 -1.2737
 7549SOL     OW34279   1.774   2.209   3.402  0.4550  0.3638  0.4896
 7549SOL    HW134280   1.696   2.227   3.349  0.4536 -0.7899  0.0799
 7549SOL    HW234281   1.734   2.197   3.488  0.8958 -1.1854  0.4786
 7550SOL     OW34282   1.924   3.309   6.966 -0.3660  0.1693  0.0125
 7550SOL    HW134283   1.842   3.307   7.016  0.0878  0.0854  0.7568
 7550SOL    HW234284   1.964   3.231   7.005 -1.9274 -0.0495  1.1568
 7551SOL     OW34285   4.270   1.702   7.629 -0.6385  0.1077 -0.4307
 7551SOL    HW134286   4.208   1.744   7.569 -0.8427  0.4044 -0.0139
 7551SOL    HW234287   4.211   1.645   7.678  0.9699 -0.1820  1.1332
 7552SOL     OW34288   4.645   3.039   4.754 -0.2922  0.1571  0.2724
 7552SOL    HW134289   4.722   3.052   4.809  0.6561 -2.4881 -0.4223
 7552SOL    HW234290   4.640   3.121   4.706 -1.0090  0.0027  0.0799
 7553SOL     OW34291   4.672   2.950  11.284 -0.0040  0.2663 -0.2593
 7553SOL    HW134292   4.727   3.025  11.262 -1.0428  1.3213  0.7846
 7553SOL    HW234293   4.606   2.992  11.339  0.1588  0.4231 -0.1851
 7554SOL     OW34294   3.293   4.653   5.993  1.0823 -0.2113  0.1684
 7554SOL    HW134295   3.278   4.629   5.902 -2.2566 -1.1274  0.9413
 7554SOL    HW234296   3.314   4.570   6.035  1.0697 -0.2788  0.0422
 7555SOL     OW34297   2.020   2.513   3.803 -0.2504  0.1170 -0.0699
 7555SOL    HW134298   1.958   2.477   3.867 -0.4247 -1.9236 -1.3894
 7555SOL    HW234299   1.968   2.496   3.725  0.9048 -0.8226 -0.6256
 7556SOL     OW34300   0.742   3.428   4.837  0.1456 -0.3033  0.4278
 7556SOL    HW134301   0.835   3.423   4.862  0.1022 -3.3066  0.0721
 7556SOL    HW234302   0.718   3.335   4.837 -1.2899  0.0690 -0.3245
 7557SOL     OW34303   4.535   0.428   7.251  0.3632 -0.6946  0.4876
 7557SOL    HW134304   4.582   0.371   7.312  1.7170 -0.4403 -0.3162
 7557SOL    HW234305   4.449   0.386   7.249 -0.6634  1.3309  1.8656
 7558SOL     OW34306   0.688   0.518   0.966 -0.2355  0.4568 -0.1160
 7558SOL    HW134307   0.747   0.444   0.980 -1.5756 -0.8145 -1.2252
 7558SOL    HW234308   0.620   0.478   0.912  0.3618 -0.5132 -0.1541
 7559SOL     OW34309   1.970   3.689   8.620  0.1397  0.2922  0.3199
 7559SOL    HW134310   1.906   3.636   8.669  0.3585 -0.2788 -0.0110
 7559SOL    HW234311   2.043   3.692   8.683 -0.7107 -1.3724  1.3885
 7560SOL     OW34312   3.444   3.521  14.131  0.0753 -0.5865 -0.3395
 7560SOL    HW134313   3.440   3.572  14.212 -1.6531 -3.1739  1.2009
 7560SOL    HW234314   3.535   3.534  14.103  0.1836  0.6595  0.6057
 7561SOL     OW34315   1.142   0.778   4.045 -0.1516 -0.4954 -0.0061
 7561SOL    HW134316   1.101   0.778   3.959  3.0964 -0.1975 -1.5697
 7561SOL    HW234317   1.077   0.826   4.096  0.5939  2.3763 -1.7697
 7562SOL     OW34318   1.640   1.357  12.536  0.2726  0.4188  0.0037
 7562SOL    HW134319   1.658   1.315  12.452 -0.5276  1.5258 -0.7153
 7562SOL    HW234320   1.729   1.379  12.564  0.9141 -2.8306  0.5046
 7563SOL     OW34321   0.837   3.235  10.039  0.1288  0.5290  0.2555
 7563SOL    HW134322   0.772   3.176  10.001  3.0797 -1.3312 -1.9252
 7563SOL    HW234323   0.918   3.193  10.009 -0.7826 -1.4258  0.5398
 7564SOL     OW34324   4.291   2.008   0.648  0.0848 -0.1041 -0.5364
 7564SOL    HW134325   4.293   1.965   0.563 -0.6172  1.4426 -1.3335
 7564SOL    HW234326   4.233   2.082   0.630 -0.9725 -0.8015 -0.0229
 7565SOL     OW34327   3.772   4.103   7.890  0.0279  0.1918 -0.8554
 7565SOL    HW134328   3.725   4.156   7.825 -2.5572  0.1864  1.0159
 7565SOL    HW234329   3.831   4.167   7.929 -0.7422 -0.7301  1.7959
 7566SOL     OW34330   4.080   0.129   5.648  0.6048 -0.2380 -0.4313
 7566SOL    HW134331   4.144   0.193   5.680  2.7205 -2.3903 -0.3844
 7566SOL    HW234332   4.002   0.183   5.656  1.4143  0.9707 -0.6159
 7567SOL     OW34333   2.985   2.613   8.248 -0.4554  0.1440 -0.0450
 7567SOL    HW134334   2.933   2.647   8.175 -0.0440 -1.3573 -1.0571
 7567SOL    HW234335   2.917   2.609   8.314 -2.2810 -2.3104 -2.0446
 7568SOL     OW34336   3.583   3.388   5.658 -0.1337  0.1737  0.1322
 7568SOL    HW134337   3.491   3.402   5.681 -0.7882 -1.7727 -1.2693
 7568SOL    HW234338   3.631   3.418   5.736  0.0529  1.3748 -0.4367
 7569SOL     OW34339   3.473   0.079   5.606  0.2447 -0.3898 -0.2479
 7569SOL    HW134340   3.565   0.068   5.582 -0.0186  0.0889 -1.5097
 7569SOL    HW234341   3.471   0.165   5.648  0.1217 -0.6553  0.2847
 7570SOL     OW34342   2.287   3.998  11.428 -0.4763  0.1185 -0.2348
 7570SOL    HW134343   2.218   3.953  11.379 -0.4882 -0.9409  0.7718
 7570SOL    HW234344   2.225   4.044  11.486  2.2415  1.8457  1.2695
 7571SOL     OW34345   1.130   4.158   4.426  0.1975  0.2027 -0.5322
 7571SOL    HW134346   1.148   4.072   4.465 -0.9663 -0.0096 -0.4827
 7571SOL    HW234347   1.166   4.155   4.337 -0.8050  1.1660 -0.9664
 7572SOL     OW34348   4.546   4.439   3.191 -0.8388 -0.3710  0.0524
 7572SOL    HW134349   4.537   4.459   3.098 -1.5456 -0.4400  0.1032
 7572SOL    HW234350   4.596   4.358   3.183  0.8115  0.6894 -0.1528
 7573SOL     OW34351   2.175   3.096   7.686 -0.2958  0.2047  0.5842
 7573SOL    HW134352   2.264   3.127   7.699  0.4636 -1.1199 -1.4528
 7573SOL    HW234353   2.171   3.026   7.752 -1.4486  0.5308  0.8653
 7574SOL     OW34354   0.776   4.319   5.169 -0.0902  0.0007  0.0268
 7574SOL    HW134355   0.711   4.325   5.099  0.1987 -1.6559 -0.3764
 7574SOL    HW234356   0.808   4.409   5.163 -1.1359  0.3221 -0.6555
 7575SOL     OW34357   3.495   4.241   7.936 -0.1569 -0.2899  0.1107
 7575SOL    HW134358   3.509   4.207   8.024 -0.2379  0.6682  0.4887
 7575SOL    HW234359   3.529   4.331   7.934  0.3017 -0.4174  2.2849
 7576SOL     OW34360   3.593   1.007   4.248 -0.3808  0.0527  0.0861
 7576SOL    HW134361   3.625   1.030   4.336  1.6479  0.8793 -0.8754
 7576SOL    HW234362   3.512   1.057   4.240 -0.2245  0.0595 -1.4203
 7577SOL     OW34363   1.053   2.957   1.313 -0.3162 -0.4100  0.1273
 7577SOL    HW134364   0.966   2.994   1.333  0.1360  0.2735  0.8456
 7577SOL    HW234365   1.085   3.002   1.236  2.9481 -1.4613  0.8652
 7578SOL     OW34366   2.565   0.520   3.275 -0.0832  0.2747 -0.0414
 7578SOL    HW134367   2.642   0.513   3.331 -1.1744 -0.5151  1.3523
 7578SOL    HW234368   2.563   0.613   3.255  3.2962  0.4329  0.3209
 7579SOL     OW34369   3.304   4.655   1.228 -0.0601 -0.6702 -0.1824
 7579SOL    HW134370   3.348   4.738   1.210  0.8054 -1.0220  0.2798
 7579SOL    HW234371   3.283   4.621   1.141  0.5242 -0.5907 -0.3548
 7580SOL     OW34372   3.261   3.398  13.225  0.5324 -0.3705 -0.4765
 7580SOL    HW134373   3.250   3.400  13.130  0.4641 -1.4672 -0.4886
 7580SOL    HW234374   3.354   3.411  13.245  0.3901 -1.7211  1.0662
 7581SOL     OW34375   1.328   0.406  11.875  0.1629 -0.0081 -0.3800
 7581SOL    HW134376   1.322   0.433  11.783 -0.7598 -0.9164 -0.5932
 7581SOL    HW234377   1.422   0.419  11.888  0.4286 -2.9594  0.7513
 7582SOL     OW34378   0.935   1.442   3.733  0.4881  0.0004 -0.0494
 7582SOL    HW134379   0.867   1.491   3.687 -1.2328 -1.4719  0.9167
 7582SOL    HW234380   1.020   1.479   3.712  0.8401  0.9471  3.0861
 7583SOL     OW34381   3.628   3.022   7.690 -0.2116 -0.3887 -0.2143
 7583SOL    HW134382   3.666   3.097   7.737  0.1040 -1.5085  1.3218
 7583SOL    HW234383   3.652   3.036   7.598  2.1484  1.9689  0.7295
 7584SOL     OW34384   1.119   2.243   3.107 -0.2530 -0.5111  0.2477
 7584SOL    HW134385   1.079   2.157   3.092  0.7017 -0.9940  0.4858
 7584SOL    HW234386   1.076   2.297   3.040  0.9983 -0.2268 -0.3177
 7585SOL     OW34387   4.013   3.390   2.122 -0.0854  0.1026 -0.0758
 7585SOL    HW134388   4.012   3.479   2.157  0.1152  0.6113 -1.3717
 7585SOL    HW234389   4.045   3.346   2.201  0.9823 -2.1381 -1.7241
 7586SOL     OW34390   2.196   1.738   7.989 -0.0638 -0.3499 -0.5200
 7586SOL    HW134391   2.147   1.782   8.059 -0.0215  0.1843 -0.8296
 7586SOL    HW234392   2.260   1.804   7.964 -0.0929 -0.6276 -1.3051
 7587SOL     OW34393   0.465   4.632  16.538 -0.0652 -0.1404 -0.0054
 7587SOL    HW134394   0.381   4.663  16.505 -0.7630 -1.7197  0.2560
 7587SOL    HW234395   0.517   4.613  16.459  0.1245 -0.3466  0.1682
 7588SOL     OW34396   1.547   3.865   8.766  0.2782 -0.3283  0.1326
 7588SOL    HW134397   1.580   3.865   8.856 -1.4147  0.8095  0.7404
 7588SOL    HW234398   1.627   3.848   8.717  0.2914  1.2007 -0.3682
 7589SOL     OW34399   3.553   2.055   5.558  0.4440  0.9060  0.5350
 7589SOL    HW134400   3.480   2.025   5.504 -0.5631 -0.2203  2.5456
 7589SOL    HW234401   3.622   2.040   5.493  0.3977 -1.4945  1.0433
 7590SOL     OW34402   2.459   1.268   4.978 -0.2343 -0.0387  0.1640
 7590SOL    HW134403   2.411   1.349   4.960  0.0386 -0.5643 -2.8062
 7590SOL    HW234404   2.474   1.236   4.890 -1.5598  1.4649 -0.6185
 7591SOL     OW34405   0.318   0.823   4.980  0.2482  0.1694 -0.0696
 7591SOL    HW134406   0.231   0.838   4.945  0.3974  2.6650  0.6024
 7591SOL    HW234407   0.311   0.859   5.069 -0.2221 -0.4022  0.1235
 7592SOL     OW34408   2.966   3.555   0.821  0.0932 -0.6776 -0.2374
 7592SOL    HW134409   2.926   3.589   0.901 -1.2687 -0.9252 -0.7960
 7592SOL    HW234410   3.057   3.580   0.837 -0.4320 -0.1030  1.8615
 7593SOL     OW34411   0.887   0.076  10.181  0.4887  0.4399  0.5703
 7593SOL    HW134412   0.884   0.076  10.276  2.0708  2.0352  0.6058
 7593SOL    HW234413   0.830   0.150  10.160  0.3224 -0.0146 -0.5950
 7594SOL     OW34414   4.710   1.291   4.751  0.0372 -0.5870 -0.2560
 7594SOL    HW134415   4.649   1.351   4.793 -0.1731 -2.1637  1.6919
 7594SOL    HW234416   4.692   1.209   4.797 -1.9672 -0.0861 -0.1126
 7595SOL     OW34417   2.287   4.224   2.388 -0.2304  0.6352  0.5620
 7595SOL    HW134418   2.213   4.237   2.329 -0.1721  1.7442  0.7359
 7595SOL    HW234419   2.246   4.216   2.474 -1.3290  1.4493  0.1051
 7596SOL     OW34420   2.717   1.050   5.313  0.1472  0.1470  0.2472
 7596SOL    HW134421   2.743   1.116   5.378 -2.1007  0.5343  0.7769
 7596SOL    HW234422   2.621   1.052   5.320 -0.0323 -0.8308 -2.0231
 7597SOL     OW34423   3.386   1.231  14.020 -0.3755  0.1850 -0.1690
 7597SOL    HW134424   3.459   1.173  13.996 -0.4349  0.0751 -0.0790
 7597SOL    HW234425   3.431   1.259  14.100  0.3394  0.1162 -0.5411
 7598SOL     OW34426   0.964   0.540  13.786  0.4664 -0.5133  0.0945
 7598SOL    HW134427   1.012   0.484  13.725 -1.7998 -0.4642 -1.7232
 7598SOL    HW234428   0.894   0.478  13.809  0.9479 -0.6335  1.2237
 7599SOL     OW34429   2.404   0.699  13.301 -0.0313  0.0802 -0.3273
 7599SOL    HW134430   2.341   0.635  13.268 -1.8770  1.6070  0.2148
 7599SOL    HW234431   2.347   0.775  13.313 -0.3049 -0.1678 -0.0737
 7600SOL     OW34432   1.125   1.071   3.837  0.6719 -0.1946  0.5008
 7600SOL    HW134433   1.090   0.982   3.829 -2.8445  1.2016  0.0531
 7600SOL    HW234434   1.048   1.111   3.879 -0.1902  0.0672 -1.3208
 7601SOL     OW34435   1.956   0.293   6.339 -0.0246  1.1840  0.1992
 7601SOL    HW134436   1.897   0.324   6.270  1.2863 -1.1130 -1.9190
 7601SOL    HW234437   1.924   0.354   6.406  0.0285  1.4285  0.0036
 7602SOL     OW34438   3.036   2.030   3.526  0.2007 -0.2014 -0.8094
 7602SOL    HW134439   3.040   2.078   3.443 -1.0045  1.4089  0.0500
 7602SOL    HW234440   2.942   2.025   3.544 -0.1550  0.3467 -2.4342
 7603SOL     OW34441   2.691   0.266   4.738 -0.0248  0.2387  0.1164
 7603SOL    HW134442   2.630   0.318   4.685 -1.3746 -0.0268  1.4139
 7603SOL    HW234443   2.735   0.335   4.787  0.0582  0.9383 -0.9233
 7604SOL     OW34444   1.236   2.572   0.009 -0.6789 -0.7549  0.3952
 7604SOL    HW134445   1.303   2.512   0.043 -2.4400 -2.1410  1.4191
 7604SOL    HW234446   1.248   2.643   0.071 -1.1664 -1.7635  1.6617
 7605SOL     OW34447   0.390   1.446   5.112 -0.0539  0.1793 -0.6728
 7605SOL    HW134448   0.431   1.512   5.056  3.2065 -0.2635  1.2507
 7605SOL    HW234449   0.440   1.371   5.080  0.9893 -0.1738  1.7925
 7606SOL     OW34450   4.576   0.157   4.554  0.3832 -0.5232 -0.5569
 7606SOL    HW134451   4.629   0.092   4.507  0.3498  0.7247 -2.3473
 7606SOL    HW234452   4.632   0.172   4.630  0.4842 -2.7318 -0.2149
 7607SOL     OW34453   0.453   0.277   3.987  0.5689  0.2130  0.0244
 7607SOL    HW134454   0.544   0.291   3.962  0.0874  2.9941 -0.2066
 7607SOL    HW234455   0.413   0.313   3.907  0.4702  1.0775  0.4567
 7608SOL     OW34456   1.304   0.293   2.387  0.3383 -0.5481 -0.2334
 7608SOL    HW134457   1.259   0.360   2.335  0.5439 -0.0097  0.2889
 7608SOL    HW234458   1.386   0.323   2.423 -0.8760  0.5737  1.5663
 7609SOL     OW34459   3.612   4.234   4.763 -0.3500 -0.4570  0.5230
 7609SOL    HW134460   3.657   4.317   4.747 -1.0667 -0.0316  0.7224
 7609SOL    HW234461   3.657   4.175   4.702 -0.2084 -0.0681  0.2460
 7610SOL     OW34462   2.194   1.286  17.496  0.0149 -0.7911 -0.9445
 7610SOL    HW134463   2.252   1.361  17.483 -0.3907 -0.1940  0.6833
 7610SOL    HW234464   2.132   1.336  17.549  0.8436 -1.3068  0.5009
 7611SOL     OW34465   2.039   0.613  16.794  0.2114  0.4622 -0.7964
 7611SOL    HW134466   2.001   0.537  16.839 -0.4205  1.0231 -0.3798
 7611SOL    HW234467   2.082   0.566  16.723  0.6931 -0.2415 -0.0344
 7612SOL     OW34468   2.578   1.133   9.776 -0.1921  0.2930 -0.2226
 7612SOL    HW134469   2.584   1.069   9.847 -1.6609 -0.0022 -0.3643
 7612SOL    HW234470   2.500   1.183   9.799 -0.9384 -1.7830  1.6855
 7613SOL     OW34471   3.343   2.095   4.903  0.5819  0.0373  0.3771
 7613SOL    HW134472   3.306   2.101   4.991  2.3031  2.9113  0.9142
 7613SOL    HW234473   3.434   2.075   4.925  1.4414  1.8527 -1.5785
 7614SOL     OW34474   3.037   2.752   7.550 -1.1462  0.0459  0.7057
 7614SOL    HW134475   3.051   2.662   7.522  2.2494  0.4112  1.1816
 7614SOL    HW234476   3.042   2.805   7.471  0.6469 -1.6384 -0.3027
 7615SOL     OW34477   1.432   0.624   0.929  0.1016 -0.3844 -0.7529
 7615SOL    HW134478   1.463   0.538   0.955  2.8952  1.2897  1.5059
 7615SOL    HW234479   1.483   0.678   0.990 -0.2458  0.2660 -1.0408
 7616SOL     OW34480   1.909   2.124  12.540  0.8332 -0.1339 -0.2454
 7616SOL    HW134481   1.853   2.067  12.488  0.3467 -0.3037  0.4576
 7616SOL    HW234482   1.845   2.167  12.598  1.2232 -0.5368  0.4811
 7617SOL     OW34483   3.878   3.697   5.667 -0.1123  0.0130  0.0352
 7617SOL    HW134484   3.889   3.764   5.734  0.5017  0.5939 -0.6380
 7617SOL    HW234485   3.931   3.626   5.702  1.8619  0.5521 -1.8345
 7618SOL     OW34486   0.507   0.323   8.880  0.2579  0.1491  0.0545
 7618SOL    HW134487   0.548   0.248   8.924 -0.8396  0.3934  1.4887
 7618SOL    HW234488   0.502   0.288   8.792  0.1366 -1.6978  0.7902
 7619SOL     OW34489   3.787   2.240   4.758 -0.2241 -0.3296  0.4124
 7619SOL    HW134490   3.808   2.192   4.678 -0.3131  1.2063 -0.5359
 7619SOL    HW234491   3.871   2.233   4.803  1.2246  0.4915 -2.1721
 7620SOL     OW34492   0.292   3.887   8.169 -0.2110  0.3565 -0.2433
 7620SOL    HW134493   0.341   3.806   8.158 -2.3201 -0.7773 -1.3084
 7620SOL    HW234494   0.207   3.849   8.191  0.4296 -1.1645 -0.4242
 7621SOL     OW34495   1.180   4.725   4.419  0.1724  0.7329 -0.2774
 7621SOL    HW134496   1.131   4.736   4.500 -1.5293  1.4217 -1.3895
 7621SOL    HW234497   1.261   4.689   4.456  0.2945  0.5560 -0.7201
 7622SOL     OW34498   4.304   4.631   4.720  0.4528  0.1277  0.1686
 7622SOL    HW134499   4.283   4.609   4.811  1.0461  2.2524  0.8225
 7622SOL    HW234500   4.381   4.683   4.743  1.8156 -2.5757  1.7105
 7623SOL     OW34501   3.382   1.092   9.329  0.2338  0.0517 -0.0332
 7623SOL    HW134502   3.382   1.133   9.415  2.2923 -0.8665  0.4010
 7623SOL    HW234503   3.287   1.085   9.315 -0.1241  0.3218  2.2677
 7624SOL     OW34504   0.414   2.016   3.381  0.1047 -1.0081  0.0147
 7624SOL    HW134505   0.418   1.920   3.376 -0.0733 -0.8988 -2.1515
 7624SOL    HW234506   0.464   2.022   3.299 -2.3256  0.8453 -1.3074
 7625SOL     OW34507   2.828   1.943  14.924  0.4929  0.5973 -0.3899
 7625SOL    HW134508   2.736   1.965  14.912  0.7575  2.0979  0.3319
 7625SOL    HW234509   2.853   1.940  14.832  1.2969  0.4123 -0.1659
 7626SOL     OW34510   2.375   2.140   8.863  0.1133 -0.1754  0.2649
 7626SOL    HW134511   2.457   2.111   8.904 -0.6136 -1.8288  0.5393
 7626SOL    HW234512   2.411   2.194   8.793  3.5536 -0.7644  1.5525
 7627SOL     OW34513   1.657   3.074   5.557 -0.0623 -0.4903 -0.1786
 7627SOL    HW134514   1.583   3.041   5.506 -2.3886  0.8526  2.2817
 7627SOL    HW234515   1.628   3.162   5.581  0.0393 -0.7377  0.8680
 7628SOL     OW34516   2.196   4.504  11.819  0.5996 -0.0234 -0.0766
 7628SOL    HW134517   2.137   4.578  11.826  1.7723  0.7480  1.7284
 7628SOL    HW234518   2.131   4.434  11.824 -0.8971  1.3288 -0.5495
 7629SOL     OW34519   4.172   0.803   8.893  0.2730 -0.5321 -0.1059
 7629SOL    HW134520   4.205   0.778   8.807  0.1627 -1.2225  0.0524
 7629SOL    HW234521   4.119   0.880   8.869  0.3515 -0.0744  1.1600
 7630SOL     OW34522   0.791   1.036   4.563 -0.2298 -1.1571  1.0261
 7630SOL    HW134523   0.886   1.035   4.556 -0.1204  3.2684  1.7501
 7630SOL    HW234524   0.769   1.127   4.541  0.7458 -1.7574 -2.4198
 7631SOL     OW34525   0.053   1.849  12.839  0.0712 -0.0686 -0.7951
 7631SOL    HW134526   0.139   1.891  12.847  0.3398 -0.7038 -0.3980
 7631SOL    HW234527   0.038   1.875  12.748  1.5908  1.6661 -0.5626
 7632SOL     OW34528   3.746   1.808   7.331  0.4156 -0.6086 -0.4056
 7632SOL    HW134529   3.822   1.818   7.275 -0.8332  1.3022 -1.7614
 7632SOL    HW234530   3.791   1.837   7.410  0.6779 -1.7468 -0.1345
 7633SOL     OW34531   3.513   1.241   3.207 -0.3443 -0.2839 -0.5728
 7633SOL    HW134532   3.569   1.211   3.279  1.5349  1.0806 -1.4533
 7633SOL    HW234533   3.563   1.221   3.127 -0.7633 -0.5715 -0.7586
 7634SOL     OW34534   2.314   2.338   5.569  0.1790  0.1950  0.5323
 7634SOL    HW134535   2.292   2.426   5.537  0.8125 -0.0942 -0.7290
 7634SOL    HW234536   2.236   2.302   5.610 -0.2760  1.0678  0.4299
 7635SOL     OW34537   0.259   4.700  15.215  0.2174 -0.6351 -0.1470
 7635SOL    HW134538   0.337   4.646  15.201  0.2961  0.2457 -2.9765
 7635SOL    HW234539   0.260   4.688  15.310  2.2039  0.6768  0.0014
 7636SOL     OW34540   2.393   2.056   9.599 -0.4107 -0.4637 -0.4281
 7636SOL    HW134541   2.305   2.089   9.577 -1.1321 -1.0183  1.6068
 7636SOL    HW234542   2.406   1.976   9.548 -2.5996 -1.3808  0.4148
 7637SOL     OW34543   3.858   0.653   3.172 -0.3991  0.3819 -0.1824
 7637SOL    HW134544   3.798   0.594   3.126  0.3631  0.2250 -0.9859
 7637SOL    HW234545   3.941   0.643   3.124 -0.2467 -0.4488  0.2563
 7638SOL     OW34546   1.986   1.385   7.224  0.3602  0.0883  0.1898
 7638SOL    HW134547   2.008   1.449   7.291 -1.7963  0.9746  0.0438
 7638SOL    HW234548   2.008   1.436   7.146 -1.4183 -1.0942 -1.0786
 7639SOL     OW34549   1.715   4.437   5.854  0.0423  0.3108 -0.6607
 7639SOL    HW134550   1.810   4.452   5.860 -0.2277  1.4519  0.8480
 7639SOL    HW234551   1.683   4.476   5.936  2.1362  1.5324 -0.4042
 7640SOL     OW34552   2.702   2.471   8.995 -0.3580  0.5613  0.1448
 7640SOL    HW134553   2.681   2.542   9.055 -2.9822  0.5859 -0.8149
 7640SOL    HW234554   2.619   2.430   8.973 -0.1737  0.6073 -0.6549
 7641SOL     OW34555   4.071   0.858   4.040  0.4299  0.1943 -0.1668
 7641SOL    HW134556   4.056   0.949   4.014  1.3828  0.2123 -0.6283
 7641SOL    HW234557   4.129   0.886   4.110  0.1546 -0.8180  0.4719
 7642SOL     OW34558   3.140   2.962   0.289  0.2270 -0.4286 -0.5011
 7642SOL    HW134559   3.062   2.932   0.241 -0.1492  2.6991 -1.8348
 7642SOL    HW234560   3.130   2.936   0.380  0.1307  3.0055  0.4834
 7643SOL     OW34561   3.931   4.590   6.550  0.8089  0.4181 -0.3960
 7643SOL    HW134562   3.875   4.601   6.627  2.4494  2.7267  0.4546
 7643SOL    HW234563   3.857   4.577   6.490  1.0917 -1.2312 -0.3892
 7644SOL     OW34564   2.047   0.392   2.627  0.2196  0.0746 -0.1729
 7644SOL    HW134565   1.994   0.334   2.571 -1.5568  0.7878  0.7718
 7644SOL    HW234566   2.008   0.381   2.714 -0.1461 -0.0185 -0.3449
 7645SOL     OW34567   3.361   3.347   2.726 -0.3330 -0.4498 -0.0551
 7645SOL    HW134568   3.438   3.305   2.762 -2.4371 -2.1075  2.4937
 7645SOL    HW234569   3.392   3.421   2.674 -1.9926 -0.6810 -1.3900
 7646SOL     OW34570   1.596   1.818  16.876  0.5329  0.0792  0.2518
 7646SOL    HW134571   1.506   1.845  16.896  0.6016  0.8126 -0.4158
 7646SOL    HW234572   1.638   1.876  16.939 -0.3817 -1.9200  2.6759
 7647SOL     OW34573   3.008   1.667   7.944  0.0959  0.6687  0.1190
 7647SOL    HW134574   3.012   1.708   8.030 -1.3889  1.4450 -0.1917
 7647SOL    HW234575   3.079   1.602   7.940 -1.3897 -0.8238 -2.2237
 7648SOL     OW34576   2.589   3.845   8.508  0.3275  0.4505  0.1974
 7648SOL    HW134577   2.661   3.785   8.488 -1.6492 -0.8656 -3.0931
 7648SOL    HW234578   2.522   3.782   8.481 -0.0397  1.1892 -0.6068
 7649SOL     OW34579   1.980   4.011  13.230 -0.0222 -0.5940  0.0123
 7649SOL    HW134580   1.980   3.933  13.174  0.2557  0.7604 -1.8927
 7649SOL    HW234581   1.959   4.087  13.174 -1.5963 -0.3531  0.9132
 7650SOL     OW34582   3.927   3.774   2.971 -0.1202  0.5724 -0.1892
 7650SOL    HW134583   3.915   3.837   3.042  1.3879 -0.1665  0.7318
 7650SOL    HW234584   3.967   3.820   2.897  2.9190  2.3615  2.5818
 7651SOL     OW34585   3.611   4.212   3.904 -0.2932  0.1487  0.1372
 7651SOL    HW134586   3.684   4.273   3.900 -0.7158  0.5624 -1.4360
 7651SOL    HW234587   3.657   4.132   3.929  1.1892  1.3340  1.1745
 7652SOL     OW34588   1.114   0.075  17.204  0.2357  0.2561 -0.3136
 7652SOL    HW134589   1.195   0.072  17.152  0.0716 -0.0257 -0.5505
 7652SOL    HW234590   1.057   0.022  17.148 -2.6144  2.3294  0.6818
 7653SOL     OW34591   1.949   4.662   8.547 -0.2210 -0.1673 -0.7683
 7653SOL    HW134592   1.912   4.697   8.627  2.6001  0.7334  0.1634
 7653SOL    HW234593   1.911   4.720   8.481  0.0749  1.6662  0.6657
 7654SOL     OW34594   3.198   4.654   4.193 -0.2657 -0.6050  0.4145
 7654SOL    HW134595   3.280   4.647   4.144 -0.0642  1.8064  0.4187
 7654SOL    HW234596   3.206   0.000   4.229  4.4445 -1.0188  0.3220
 7655SOL     OW34597   3.303   3.153   2.100  0.2075  0.7279  0.5718
 7655SOL    HW134598   3.213   3.120   2.095  0.0727  1.1529  0.2808
 7655SOL    HW234599   3.317   3.120   2.189 -2.2633  0.0357  0.7150
 7656SOL     OW34600   2.651   1.862  12.899  0.1607  0.3945  0.1514
 7656SOL    HW134601   2.712   1.788  12.902 -0.8200 -0.4771 -2.3517
 7656SOL    HW234602   2.680   1.898  12.815  0.6585  0.3057  0.2834
 7657SOL     OW34603   2.595   4.017  13.850  0.2838  0.0268  0.0290
 7657SOL    HW134604   2.544   3.945  13.888 -0.9035  1.0528  0.3690
 7657SOL    HW234605   2.532   4.088  13.857  2.0131  1.5779 -0.3230
 7658SOL     OW34606   1.624   3.376   5.588  0.2431  0.1985  0.4810
 7658SOL    HW134607   1.532   3.390   5.609  0.5602  1.1517  1.2105
 7658SOL    HW234608   1.670   3.430   5.653  1.8220  1.1619 -1.4537
 7659SOL     OW34609   1.166   0.393   0.734 -0.3592 -0.4209 -0.1348
 7659SOL    HW134610   1.129   0.409   0.821  1.6162 -2.1913  1.0283
 7659SOL    HW234611   1.189   0.303   0.755 -0.2434 -0.0706  1.2195
 7660SOL     OW34612   2.875   0.986  17.670 -0.5982 -0.3988 -0.1014
 7660SOL    HW134613   2.876   1.070  17.624  1.4800 -0.1229  0.4753
 7660SOL    HW234614   2.780   0.971  17.679 -0.6823  0.3465  0.2168
 7661SOL     OW34615   0.585   0.607  15.466 -0.0019 -0.4586  0.3990
 7661SOL    HW134616   0.649   0.614  15.395 -0.6506 -0.6985 -0.2094
 7661SOL    HW234617   0.623   0.646  15.545 -2.0281  2.0856  0.1263
 7662SOL     OW34618   1.471   3.659   4.024  0.1262  0.0667 -0.2614
 7662SOL    HW134619   1.385   3.624   4.002 -0.1425 -0.0052  0.9171
 7662SOL    HW234620   1.534   3.598   3.985  0.3597 -0.8948  1.6140
 7663SOL     OW34621   0.897   2.589   3.093  0.1500 -0.7902  0.9756
 7663SOL    HW134622   0.926   2.533   3.021 -0.1536 -0.4562  0.5953
 7663SOL    HW234623   0.978   2.638   3.108 -0.1138  0.1576 -0.7554
 7664SOL     OW34624   3.285   1.399   2.837  0.0159  0.0409  0.0715
 7664SOL    HW134625   3.306   1.435   2.923  2.5466 -0.3257 -0.3910
 7664SOL    HW234626   3.191   1.385   2.839 -0.2729  1.8477 -1.4129
 7665SOL     OW34627   1.761   2.766   1.837 -0.4003 -0.0450  0.0888
 7665SOL    HW134628   1.684   2.767   1.780 -0.4935  0.6114  0.2290
 7665SOL    HW234629   1.802   2.842   1.798 -1.1148 -0.2503 -1.0538
 7666SOL     OW34630   3.489   0.941   1.281 -0.1966 -0.2990  0.5147
 7666SOL    HW134631   3.415   0.894   1.319  0.0102 -3.0370 -2.4005
 7666SOL    HW234632   3.501   1.008   1.348  0.1227 -3.5021  3.5976
 7667SOL     OW34633   1.393   2.477   5.897  0.4408  0.1281 -0.2786
 7667SOL    HW134634   1.401   2.390   5.937  1.2853  0.3743  0.0875
 7667SOL    HW234635   1.479   2.508   5.924 -0.0194  1.4970 -0.4127
 7668SOL     OW34636   3.329   1.272  11.394 -0.1798 -0.1207 -0.3174
 7668SOL    HW134637   3.310   1.219  11.471  0.3506 -1.8993 -1.4061
 7668SOL    HW234638   3.245   1.263  11.349  0.0200 -0.7651 -0.5643
 7669SOL     OW34639   0.163   0.117   3.161  0.3799  0.7418 -0.0710
 7669SOL    HW134640   0.257   0.105   3.172  0.3900  1.3853  0.5308
 7669SOL    HW234641   0.139   0.136   3.251 -1.4692 -0.4581 -0.3179
 7670SOL     OW34642   1.508   3.805   8.441  0.2194 -0.5407  0.1567
 7670SOL    HW134643   1.516   3.888   8.393  1.8146 -1.2881 -0.8635
 7670SOL    HW234644   1.572   3.818   8.512  2.1317  0.4234 -1.7604
 7671SOL     OW34645   3.645   1.132   8.092 -0.0596 -0.0020  0.1194
 7671SOL    HW134646   3.729   1.175   8.109  0.0829 -0.1771 -0.1583
 7671SOL    HW234647   3.660   1.087   8.009  1.2580  0.3683  0.1525
 7672SOL     OW34648   4.330   2.626  10.043 -0.4097  0.3178 -0.9393
 7672SOL    HW134649   4.308   2.564   9.973 -0.5506 -0.9225  0.2014
 7672SOL    HW234650   4.425   2.619  10.047 -0.5190 -1.1724 -1.1486
 7673SOL     OW34651   0.600   3.711   2.747 -0.7687  0.5954  0.2992
 7673SOL    HW134652   0.572   3.620   2.750 -1.2192  0.7421  0.5382
 7673SOL    HW234653   0.694   3.701   2.764 -0.6186 -0.8840 -1.4822
 7674SOL     OW34654   4.681   3.499  17.589  0.1886 -0.1019 -0.3853
 7674SOL    HW134655   4.666   3.507  17.683 -2.9230 -0.7650 -0.8350
 7674SOL    HW234656   4.620   3.431  17.561  0.1779 -0.0091 -0.5936
 7675SOL     OW34657   0.969   0.191  10.650  0.7227 -0.6822 -0.0509
 7675SOL    HW134658   1.048   0.244  10.655  0.3197 -0.0725 -0.1555
 7675SOL    HW234659   0.992   0.117  10.707  0.9396 -0.6984 -0.1587
 7676SOL     OW34660   4.587   4.519   2.588  0.3242 -0.2815 -0.0723
 7676SOL    HW134661   4.561   4.611   2.592 -1.4230 -0.7847  0.1261
 7676SOL    HW234662   4.502   4.481   2.564  0.2042 -0.4287  0.5852
 7677SOL     OW34663   2.188   0.532  10.335  0.0448 -0.3372 -0.1404
 7677SOL    HW134664   2.280   0.518  10.315  0.3548 -1.3415  2.0852
 7677SOL    HW234665   2.163   0.440  10.344  1.7947 -1.0183 -2.2560
 7678SOL     OW34666   3.439   3.972   6.188 -0.5030 -0.0160  0.1585
 7678SOL    HW134667   3.508   3.982   6.253  0.2307  0.7479 -0.7504
 7678SOL    HW234668   3.373   4.035   6.217 -1.0833 -0.8820  0.7228
 7679SOL     OW34669   2.663   3.886  16.166 -0.0267  0.3193 -0.3155
 7679SOL    HW134670   2.720   3.845  16.101 -0.4323 -1.0766  0.2054
 7679SOL    HW234671   2.651   3.978  16.142  1.8955  0.8003  0.6045
 7680SOL     OW34672   4.285   2.122   3.919  0.3898 -0.4288  1.1213
 7680SOL    HW134673   4.336   2.197   3.951 -0.4415  0.2131  0.9462
 7680SOL    HW234674   4.234   2.172   3.855  0.4276  0.9374  2.1773
 7681SOL     OW34675   4.068   2.171   5.243  0.3219  0.8364  0.1373
 7681SOL    HW134676   4.138   2.178   5.307 -0.0432  2.6535  0.3283
 7681SOL    HW234677   4.116   2.185   5.161 -0.6898  0.8490 -0.4528
 7682SOL     OW34678   2.062   4.564   9.800 -0.2396  0.5644 -0.5518
 7682SOL    HW134679   1.990   4.628   9.803  1.1122  1.9340  2.7016
 7682SOL    HW234680   2.139   4.620   9.804  0.8008 -1.1146  3.2407
 7683SOL     OW34681   1.378   2.495   7.905 -0.2787 -0.3215 -0.8853
 7683SOL    HW134682   1.287   2.495   7.874 -0.5183 -2.3440 -0.2380
 7683SOL    HW234683   1.401   2.402   7.902  0.1569 -0.1844 -2.0673
 7684SOL     OW34684   4.166   2.310   5.797 -0.0320 -0.3805  0.2742
 7684SOL    HW134685   4.179   2.318   5.703  0.9723 -0.0834  0.4368
 7684SOL    HW234686   4.213   2.228   5.813  1.5900  0.6824  1.0070
 7685SOL     OW34687   3.829   1.052   5.800  0.1941 -0.2900 -0.1121
 7685SOL    HW134688   3.789   1.046   5.714  0.3806  0.8460 -0.2824
 7685SOL    HW234689   3.878   1.134   5.792  0.4393 -0.4426 -0.1687
 7686SOL     OW34690   3.765   2.400   2.906 -0.1864 -0.5000 -0.2591
 7686SOL    HW134691   3.802   2.349   2.978  1.1025  2.0161  0.8430
 7686SOL    HW234692   3.673   2.418   2.927 -0.2239  1.0154 -1.7575
 7687SOL     OW34693   3.037   4.289   8.667  0.1189 -0.3107  0.1617
 7687SOL    HW134694   2.965   4.345   8.693 -0.0377 -0.5573  0.2598
 7687SOL    HW234695   3.100   4.361   8.662  1.7225 -1.6304  1.0222
 7688SOL     OW34696   2.623   2.899   6.254  0.1142 -0.5798  0.2598
 7688SOL    HW134697   2.560   2.827   6.263  0.8635 -1.3226 -0.5237
 7688SOL    HW234698   2.584   2.946   6.180 -1.7314  2.3169  3.0734
 7689SOL     OW34699   3.414   1.107   8.584 -0.5346 -0.9129 -0.0990
 7689SOL    HW134700   3.503   1.094   8.551 -0.5603 -0.6485 -0.2639
 7689SOL    HW234701   3.426   1.135   8.675 -0.8294  0.0226 -0.3503
 7690SOL     OW34702   1.412   3.264  16.356 -0.0098  0.0765  0.6460
 7690SOL    HW134703   1.398   3.353  16.324 -1.1350  0.0293  1.0212
 7690SOL    HW234704   1.448   3.271  16.444  0.8971 -0.7726  0.3403
 7691SOL     OW34705   3.597   2.025   1.942 -0.5396 -0.1553  0.1320
 7691SOL    HW134706   3.580   1.934   1.965 -1.0288 -0.2159 -0.4771
 7691SOL    HW234707   3.688   2.034   1.915  0.8008  0.3507  4.8041
 7692SOL     OW34708   3.645   2.562   7.756  0.3204 -0.3455  0.3080
 7692SOL    HW134709   3.623   2.647   7.794 -0.1113 -0.8421  1.1595
 7692SOL    HW234710   3.560   2.520   7.769  0.4113  0.4310  3.1786
 7693SOL     OW34711   0.828   0.366   8.189  0.1080 -0.5114 -0.3291
 7693SOL    HW134712   0.909   0.414   8.209 -0.2450 -0.3500  0.7199
 7693SOL    HW234713   0.785   0.384   8.273 -2.9219 -1.8603 -1.6288
 7694SOL     OW34714   2.079   0.114   7.283  0.0552  0.4481 -0.2318
 7694SOL    HW134715   2.079   0.050   7.354  1.4570  1.3904  0.6192
 7694SOL    HW234716   2.061   0.191   7.338  0.6001  1.6795 -1.7538
 7695SOL     OW34717   0.028   0.899   7.822 -0.0732  0.7008  0.5664
 7695SOL    HW134718   0.122   0.897   7.835 -0.1014  2.6618  1.1432
 7695SOL    HW234719   0.027   0.948   7.740 -0.0720 -0.7744 -0.3219
 7696SOL     OW34720   1.072   1.647   2.959 -0.1837 -0.2593 -0.5492
 7696SOL    HW134721   1.062   1.728   2.909  1.3332  1.4068  1.8494
 7696SOL    HW234722   1.150   1.611   2.915 -0.4294  0.3101 -1.4411
 7697SOL     OW34723   1.218   2.882   5.111 -0.1391  0.3983 -0.2983
 7697SOL    HW134724   1.240   2.968   5.147 -1.9846  0.2206  1.2733
 7697SOL    HW234725   1.128   2.872   5.144  0.1617 -0.0652  0.3894
 7698SOL     OW34726   4.258   0.430   2.701 -0.2471 -0.2283  0.0984
 7698SOL    HW134727   4.287   0.505   2.649 -0.0061  0.5122  1.2835
 7698SOL    HW234728   4.280   0.459   2.790  0.1242 -1.3500  0.3671
 7699SOL     OW34729   0.185   3.733   3.767  0.0518 -0.0593  0.0879
 7699SOL    HW134730   0.091   3.742   3.754  0.2833 -1.2896 -2.5521
 7699SOL    HW234731   0.211   3.784   3.843 -1.5838  2.2358 -0.8901
 7700SOL     OW34732   2.524   0.334   2.390  0.0224 -0.2642  0.5914
 7700SOL    HW134733   2.553   0.243   2.381  0.1514 -0.1145 -0.5134
 7700SOL    HW234734   2.508   0.338   2.484  1.2628  2.9968  0.6710
 7701SOL     OW34735   2.208   1.682   5.698  0.3328  0.9420  0.4797
 7701SOL    HW134736   2.113   1.689   5.697  0.4415  2.4123  0.2769
 7701SOL    HW234737   2.217   1.771   5.733  0.8424  1.1036 -0.0593
 7702SOL     OW34738   4.307   2.223   6.217  0.7400 -0.0726 -0.3523
 7702SOL    HW134739   4.343   2.309   6.239  2.3483 -0.9672  0.5486
 7702SOL    HW234740   4.383   2.167   6.234  0.8425 -0.3622 -1.7891
 7703SOL     OW34741   1.698   2.098   5.909  0.0628 -0.7127 -0.0055
 7703SOL    HW134742   1.691   2.148   5.990  1.8676 -2.5569  1.2967
 7703SOL    HW234743   1.741   2.014   5.928  1.6996  0.0331 -0.4630
 7704SOL     OW34744   0.854   2.453  12.990 -0.0442 -0.2712 -0.2715
 7704SOL    HW134745   0.833   2.433  12.898 -2.0944  0.2690  0.0932
 7704SOL    HW234746   0.812   2.376  13.028  0.8208 -1.3157 -1.4321
 7705SOL     OW34747   2.839   3.204   3.435  0.3446  0.0618  0.0965
 7705SOL    HW134748   2.876   3.273   3.489 -2.3120 -1.3361  3.7125
 7705SOL    HW234749   2.757   3.196   3.484  1.1158  0.3198  1.3964
 7706SOL     OW34750   3.787   0.706   0.927 -0.0367 -0.8298 -0.2993
 7706SOL    HW134751   3.793   0.785   0.981 -0.1868  0.3827 -2.0685
 7706SOL    HW234752   3.698   0.680   0.951 -0.0479 -0.6614 -0.1576
 7707SOL     OW34753   0.503   2.202  17.212 -0.0718  0.6959 -0.4543
 7707SOL    HW134754   0.449   2.169  17.283  2.7711 -0.5623  1.1395
 7707SOL    HW234755   0.460   2.284  17.186  1.8307  1.9292  0.2463
 7708SOL     OW34756   2.478   4.055   8.407  0.4467 -0.3633  0.2857
 7708SOL    HW134757   2.527   3.982   8.444  1.4719  0.1343 -0.1126
 7708SOL    HW234758   2.495   4.044   8.314 -1.5134 -0.0908 -0.1085
 7709SOL     OW34759   3.550   3.621   6.496 -0.4304  0.7482 -0.0683
 7709SOL    HW134760   3.637   3.597   6.528 -0.9312 -2.5749 -1.2634
 7709SOL    HW234761   3.491   3.613   6.571  1.1283 -0.4168  1.0118
 7710SOL     OW34762   1.030   2.181  16.614 -0.2809 -0.5302 -0.0533
 7710SOL    HW134763   0.970   2.137  16.553 -0.6228 -0.5771  0.3154
 7710SOL    HW234764   1.112   2.158  16.570 -1.5781 -1.0959 -2.1941
 7711SOL     OW34765   4.244   3.795   2.234  0.4692 -0.8188  0.1767
 7711SOL    HW134766   4.299   3.867   2.200  0.1762 -1.7489 -2.2287
 7711SOL    HW234767   4.312   3.730   2.252  1.3268  0.5074  1.8665
 7712SOL     OW34768   3.183   1.118   3.564 -0.1513  0.0070 -0.1469
 7712SOL    HW134769   3.196   1.037   3.615  0.1147 -1.0119 -1.8375
 7712SOL    HW234770   3.274   1.147   3.575 -0.4219  0.6910  0.3045
 7713SOL     OW34771   2.072   4.292   0.998  0.1955  0.1587 -0.6965
 7713SOL    HW134772   2.128   4.215   0.988 -0.0441 -0.1139  0.0444
 7713SOL    HW234773   2.134   4.364   1.004  0.8761 -0.4546 -0.4422
 7714SOL     OW34774   4.381   2.652   5.566 -0.3479 -0.2634  0.3003
 7714SOL    HW134775   4.441   2.693   5.503 -0.9976  1.4242  0.7821
 7714SOL    HW234776   4.411   2.562   5.554  4.4118  1.0203  2.3570
 7715SOL     OW34777   1.772   3.100   1.020  0.5069  0.3777 -0.0237
 7715SOL    HW134778   1.798   3.155   0.946 -1.6052  1.9495  0.3984
 7715SOL    HW234779   1.752   3.167   1.085 -1.5458  1.4381 -1.7164
 7716SOL     OW34780   3.953   4.264   7.962  0.0077  0.4024  0.5407
 7716SOL    HW134781   3.999   4.272   8.046  1.0443 -2.0698  0.2154
 7716SOL    HW234782   3.980   4.343   7.917  3.5250  0.1749  2.2294
 7717SOL     OW34783   3.531   0.873   6.247  0.1565 -0.1008 -0.3141
 7717SOL    HW134784   3.615   0.873   6.292 -0.7481 -0.3287  1.3731
 7717SOL    HW234785   3.476   0.836   6.316  0.5482 -1.2288 -0.6159
 7718SOL     OW34786   3.993   1.255  17.413 -0.1520 -0.3976  0.3346
 7718SOL    HW134787   4.009   1.179  17.358  0.7587 -0.1314  0.2213
 7718SOL    HW234788   4.077   1.249  17.459  0.2962 -0.0929 -0.4345
 7719SOL     OW34789   2.847   3.784   5.844  0.5981 -0.3724 -0.5614
 7719SOL    HW134790   2.764   3.780   5.892 -0.3357  1.8910 -1.9572
 7719SOL    HW234791   2.832   3.699   5.802  0.5933 -0.7915  0.3019
 7720SOL     OW34792   3.464   0.824   4.866 -0.0736 -0.3139  0.3031
 7720SOL    HW134793   3.383   0.815   4.815  0.3752  1.1567 -0.6559
 7720SOL    HW234794   3.441   0.822   4.958  1.4631  0.6424  0.7042
 7721SOL     OW34795   2.501   4.006   7.634 -0.3474 -0.1530 -0.0111
 7721SOL    HW134796   2.507   4.039   7.545  0.8491  1.9213  0.8428
 7721SOL    HW234797   2.589   3.970   7.647 -0.0884  0.0257 -1.3343
 7722SOL     OW34798   3.582   1.263  12.913  0.2382 -0.0238  0.0185
 7722SOL    HW134799   3.659   1.210  12.895 -0.8129 -1.7086  0.4264
 7722SOL    HW234800   3.576   1.337  12.853  0.3073 -0.9526 -1.1311
 7723SOL     OW34801   3.865   1.391   3.349 -0.5176 -0.2022 -0.2967
 7723SOL    HW134802   3.799   1.440   3.299  1.7139  1.8705 -1.2219
 7723SOL    HW234803   3.826   1.305   3.361 -1.1725  0.0014 -0.9757
 7724SOL     OW34804   3.972   3.490   7.187  0.2212  0.1048  0.8034
 7724SOL    HW134805   4.067   3.482   7.184  0.1329 -1.0600  1.1421
 7724SOL    HW234806   3.972   3.566   7.245 -3.5176  1.0819 -0.5015
 7725SOL     OW34807   0.784   0.792   7.393  0.1402 -0.8829  0.3103
 7725SOL    HW134808   0.709   0.792   7.452  0.4293  2.2587  0.7135
 7725SOL    HW234809   0.848   0.850   7.436 -1.9042  2.0459 -0.6014
 7726SOL     OW34810   4.064   0.448   3.758  0.3205  0.3155 -0.3156
 7726SOL    HW134811   4.039   0.419   3.670  0.4117 -0.3890 -0.1065
 7726SOL    HW234812   4.013   0.529   3.761 -0.2162 -0.0128 -0.5303
 7727SOL     OW34813   2.266   3.260  11.410 -0.4761 -0.1914  0.1574
 7727SOL    HW134814   2.294   3.216  11.491 -2.1160 -1.8186 -0.1391
 7727SOL    HW234815   2.232   3.342  11.445 -0.3694 -0.4844  0.9499
 7728SOL     OW34816   3.943   2.104  11.646  0.1112 -0.1138  0.1854
 7728SOL    HW134817   3.893   2.164  11.590  1.6807  0.0342 -1.0338
 7728SOL    HW234818   3.905   2.104  11.734  0.0871  0.0381  0.1747
 7729SOL     OW34819   3.450   0.747   8.284 -0.0225  0.1003  0.5506
 7729SOL    HW134820   3.387   0.759   8.354 -1.5441  0.9078 -0.9538
 7729SOL    HW234821   3.410   0.669   8.245  3.5127 -1.6191  0.4111
 7730SOL     OW34822   3.367   2.882   0.542  0.2852  0.1825 -0.0423
 7730SOL    HW134823   3.367   2.822   0.617 -0.0491  0.8856  0.5155
 7730SOL    HW234824   3.389   2.967   0.581  0.6551 -0.7082  1.7029
 7731SOL     OW34825   1.439   0.592   4.875  0.4929 -0.3052  0.2117
 7731SOL    HW134826   1.443   0.614   4.968  3.0476  0.4710 -0.0906
 7731SOL    HW234827   1.425   0.677   4.832 -0.8179 -1.6891 -2.0732
 7732SOL     OW34828   3.810   0.334   2.894  0.3376  0.1536  0.0332
 7732SOL    HW134829   3.835   0.384   2.817 -0.3290 -0.7796 -0.7955
 7732SOL    HW234830   3.814   0.246   2.855 -0.9898 -0.4234  1.1825
 7733SOL     OW34831   2.843   3.973   0.949  0.6707 -0.1107 -0.1002
 7733SOL    HW134832   2.876   4.025   0.875 -0.4928  1.5407  0.5499
 7733SOL    HW234833   2.918   3.977   1.009  0.4775 -0.4850  0.1633
 7734SOL     OW34834   1.667   3.653   9.067  0.5929  0.3743  0.2283
 7734SOL    HW134835   1.644   3.647   9.160  1.3524  2.6590  0.5608
 7734SOL    HW234836   1.585   3.639   9.020  2.7208  2.3156 -4.0854
 7735SOL     OW34837   1.710   4.517  15.109 -0.1438 -0.0039  0.3326
 7735SOL    HW134838   1.769   4.584  15.145 -1.3251  1.0740  0.2578
 7735SOL    HW234839   1.770   4.444  15.094 -1.0036 -0.1735 -2.2020
 7736SOL     OW34840   0.419   1.712   6.914 -0.0963 -0.1835 -0.2366
 7736SOL    HW134841   0.446   1.653   6.985  3.1712  0.5713 -0.8469
 7736SOL    HW234842   0.475   1.686   6.841 -1.1114 -0.7745 -0.8113
 7737SOL     OW34843   1.857   1.156   4.542  0.2042  0.2071 -0.3800
 7737SOL    HW134844   1.864   1.232   4.600  0.0614  1.1458 -1.6003
 7737SOL    HW234845   1.839   1.204   4.461  1.8750 -0.5565 -1.1926
 7738SOL     OW34846   2.925   0.532   2.572  0.3393  0.3668 -0.7240
 7738SOL    HW134847   2.990   0.552   2.639  1.3872 -1.0412 -1.3218
 7738SOL    HW234848   2.906   0.441   2.597  1.7063  0.0481 -0.8460
 7739SOL     OW34849   3.082   3.819  17.741 -0.1407  0.1075  1.0730
 7739SOL    HW134850   3.084   3.845  17.648  2.7147 -1.5531  0.6598
 7739SOL    HW234851   3.026   3.882   0.020  0.1667  0.4238  1.0180
 7740SOL     OW34852   3.374   2.992   6.142  0.2013  0.3427 -0.0876
 7740SOL    HW134853   3.362   2.921   6.205  2.0419  1.1180  1.1593
 7740SOL    HW234854   3.304   3.048   6.175  0.3328  0.6511 -0.3321
 7741SOL     OW34855   2.970   2.220  13.289 -0.3470  0.3119  0.0194
 7741SOL    HW134856   3.058   2.181  13.292 -0.0971  0.7552 -1.5550
 7741SOL    HW234857   2.936   2.187  13.372  0.3333  1.4895  0.7700
 7742SOL     OW34858   4.664   2.807   6.134 -0.4621  0.3090 -0.1918
 7742SOL    HW134859   4.589   2.754   6.159  0.2691 -0.4057  0.4830
 7742SOL    HW234860   4.634   2.872   6.070 -3.1166  0.6328  1.4091
 7743SOL     OW34861   1.579   2.688  12.081  0.2543  0.2223 -0.1799
 7743SOL    HW134862   1.620   2.623  12.023  0.1701 -0.0121  0.0246
 7743SOL    HW234863   1.648   2.751  12.100  1.6331 -1.3453  0.0410
 7744SOL     OW34864   0.524   2.652   1.468  0.0826  0.3216 -0.0754
 7744SOL    HW134865   0.611   2.619   1.488  0.2818  0.0062 -1.4818
 7744SOL    HW234866   0.511   2.701   1.550  0.8659  4.0879 -2.2119
 7745SOL     OW34867   0.512   0.478  14.659 -0.0706 -0.3347 -0.0284
 7745SOL    HW134868   0.452   0.541  14.621  0.8940  0.2196 -0.6464
 7745SOL    HW234869   0.456   0.414  14.703  0.6715 -0.4742  0.7162
 7746SOL     OW34870   2.014   3.286   8.475 -0.3037 -0.6204 -0.4792
 7746SOL    HW134871   1.972   3.307   8.391 -0.3268  1.7145  0.1043
 7746SOL    HW234872   2.048   3.199   8.454 -0.2624 -0.4586 -1.0823
 7747SOL     OW34873   2.425   3.239   2.238 -0.2488 -0.0891 -0.4795
 7747SOL    HW134874   2.449   3.157   2.281 -2.8114 -1.3744 -1.4758
 7747SOL    HW234875   2.453   3.211   2.150 -0.5757 -3.0542  0.3627
 7748SOL     OW34876   4.219   1.535  13.611 -0.9408 -0.1214 -0.4442
 7748SOL    HW134877   4.199   1.442  13.622 -0.1753 -0.0656  1.3689
 7748SOL    HW234878   4.155   1.553  13.542  1.5048  1.1055 -2.3712
 7749SOL     OW34879   2.809   4.575   7.004 -0.4137  0.2125  0.2444
 7749SOL    HW134880   2.850   4.502   6.957 -1.1873 -0.7686  1.0998
 7749SOL    HW234881   2.750   4.521   7.056  1.8164 -1.9746  0.5269
 7750SOL     OW34882   3.533   2.855   9.315 -0.0117 -0.5738 -0.5486
 7750SOL    HW134883   3.488   2.779   9.354 -0.6736 -0.4252 -1.0364
 7750SOL    HW234884   3.534   2.830   9.223  0.6708 -1.3594 -0.3346
 7751SOL     OW34885   0.540   3.103  13.511  0.2271 -0.4727  0.0780
 7751SOL    HW134886   0.510   3.020  13.548  1.0022  0.0755  1.9202
 7751SOL    HW234887   0.557   3.161  13.584 -0.0285 -0.7984  0.3945
 7752SOL     OW34888   1.663   4.660  14.633 -0.4123  0.1437  0.4069
 7752SOL    HW134889   1.713   4.631  14.709  0.9939  0.8553 -0.2476
 7752SOL    HW234890   1.731   4.706  14.584 -0.0437 -1.5171 -0.6424
 7753SOL     OW34891   2.113   3.314  12.252  0.3060  0.4256  0.3829
 7753SOL    HW134892   2.206   3.303  12.271 -0.2596 -2.5357  1.3679
 7753SOL    HW234893   2.114   3.385  12.188 -0.8616 -0.7166 -0.8818
 7754SOL     OW34894   0.107   3.958  16.568 -0.5721  0.1098 -0.2408
 7754SOL    HW134895   0.046   4.005  16.511 -1.5820 -1.2750 -0.2855
 7754SOL    HW234896   0.129   3.878  16.521 -0.4486  0.0999 -0.1675
 7755SOL     OW34897   0.642   1.472   6.188  0.6305 -0.7469 -0.1968
 7755SOL    HW134898   0.580   1.491   6.117  0.9466  1.6347  0.1581
 7755SOL    HW234899   0.591   1.424   6.253  1.7818 -0.9241  0.5765
 7756SOL     OW34900   1.879   4.603   4.812  0.2418 -0.4760  0.1429
 7756SOL    HW134901   1.942   4.664   4.773 -1.1925  0.5128 -0.6495
 7756SOL    HW234902   1.853   4.643   4.894 -1.1793 -1.9306  0.4031
 7757SOL     OW34903   4.500   1.646   3.652  0.4941  0.5119 -0.0130
 7757SOL    HW134904   4.440   1.634   3.578  0.6317 -1.4716  0.1996
 7757SOL    HW234905   4.490   1.741   3.651 -1.6729  0.3235  1.6024
 7758SOL     OW34906   3.134   1.215   5.489 -0.3474  0.0547 -0.3049
 7758SOL    HW134907   3.218   1.216   5.535  0.3972  0.6786 -1.6546
 7758SOL    HW234908   3.146   1.279   5.419 -1.6162  0.7084  0.0681
 7759SOL     OW34909   3.122   3.788   5.984 -0.4692  0.1386 -0.1627
 7759SOL    HW134910   3.103   3.859   6.045  0.5872  0.4122 -0.1649
 7759SOL    HW234911   3.048   3.774   5.925 -0.2271  0.5805 -0.5648
 7760SOL     OW34912   4.329   1.224   3.708  0.3381 -0.2717 -0.5112
 7760SOL    HW134913   4.250   1.215   3.761  0.4162 -2.2270 -0.7383
 7760SOL    HW234914   4.318   1.160   3.638 -0.3045 -1.0742  0.3210
 7761SOL     OW34915   2.242   0.301   2.999  0.3435 -0.4337  0.0287
 7761SOL    HW134916   2.242   0.294   3.094 -2.3639  0.4604  0.0693
 7761SOL    HW234917   2.301   0.376   2.997 -1.7258  1.0823 -3.3142
 7762SOL     OW34918   4.260   2.853   4.091 -0.5893  0.9027  0.1496
 7762SOL    HW134919   4.204   2.818   4.022  1.3625 -1.5905 -0.1415
 7762SOL    HW234920   4.281   2.935   4.047  0.5002 -0.0575 -1.0835
 7763SOL     OW34921   3.238   2.586   6.845 -0.2272  0.1005  0.4843
 7763SOL    HW134922   3.185   2.562   6.769  2.6281 -1.3984 -1.0481
 7763SOL    HW234923   3.208   2.516   6.903  1.3256  0.9417  2.3145
 7764SOL     OW34924   1.892   0.048  14.531 -0.4386 -0.1302  0.5616
 7764SOL    HW134925   1.854   0.136  14.533  1.4028  0.7020 -0.7146
 7764SOL    HW234926   1.946   0.057  14.452 -0.0899 -0.5258  0.7595
 7765SOL     OW34927   2.983   0.034   8.423 -0.2664  0.3092 -0.1621
 7765SOL    HW134928   3.071   0.025   8.385 -0.0674 -1.6191  0.7448
 7765SOL    HW234929   2.954   4.686   8.405 -1.8787  0.7298  0.3299
 7766SOL     OW34930   0.740   1.250   3.393 -0.1188  0.3309  0.8421
 7766SOL    HW134931   0.829   1.267   3.425  0.0408  0.3884  0.3658
 7766SOL    HW234932   0.765   1.236   3.302 -0.4375 -0.4525  0.8763
 7767SOL     OW34933   1.756   1.577   7.774 -0.3338 -0.4232 -0.2327
 7767SOL    HW134934   1.843   1.617   7.772  0.1624 -1.5826 -1.2860
 7767SOL    HW234935   1.756   1.514   7.702 -4.0358 -0.0225 -0.5930
 7768SOL     OW34936   4.303   4.691  10.926 -0.0680  0.1227  0.0598
 7768SOL    HW134937   4.286   4.724  10.838  1.6408 -0.0917 -0.3501
 7768SOL    HW234938   4.322   0.030  10.974 -1.4649  1.1034 -1.0346
 7769SOL     OW34939   1.633   4.653   8.602 -0.5558 -0.2009 -0.5232
 7769SOL    HW134940   1.584   4.688   8.677 -0.4334  0.0617 -0.5655
 7769SOL    HW234941   1.681   4.578   8.635 -1.2412  0.0581  1.0442
 7770SOL     OW34942   2.460   2.286  13.362  0.7094  0.5639  0.8075
 7770SOL    HW134943   2.486   2.261  13.451 -0.7946 -1.9299  0.5569
 7770SOL    HW234944   2.370   2.306  13.390  0.4965 -1.5417  1.6763
 7771SOL     OW34945   1.168   1.676  10.238 -0.1820  0.6939 -0.1778
 7771SOL    HW134946   1.231   1.731  10.283  1.3009 -0.8886 -0.3001
 7771SOL    HW234947   1.189   1.706  10.150  1.4025 -2.2321 -0.8153
 7772SOL     OW34948   0.906   4.488  15.460 -0.4516 -0.0544 -0.7607
 7772SOL    HW134949   0.881   4.444  15.379  0.3190 -2.8401  0.5152
 7772SOL    HW234950   0.928   4.576  15.428 -0.1757  1.9629  5.0069
 7773SOL     OW34951   4.709   1.373   4.022  0.0792 -0.1927  0.4466
 7773SOL    HW134952   4.633   1.330   3.984  0.3943  1.3594 -1.9069
 7773SOL    HW234953   4.652   1.449   4.032 -2.3451 -1.8337 -0.8867
 7774SOL     OW34954   2.764   4.349  14.168 -0.0302 -0.5440  0.7461
 7774SOL    HW134955   2.675   4.317  14.155 -0.9656  2.4267 -0.2645
 7774SOL    HW234956   2.785   4.380  14.080  0.1524  0.3961  1.1138
 7775SOL     OW34957   0.883   0.353   4.502 -0.4241 -0.2735 -0.7463
 7775SOL    HW134958   0.970   0.321   4.476 -0.1244 -0.7444  0.8521
 7775SOL    HW234959   0.900   0.407   4.579 -0.0372  0.8290 -1.5975
 7776SOL     OW34960   3.519   0.423  11.310  0.4524  0.8632 -0.1588
 7776SOL    HW134961   3.613   0.411  11.298  0.1023 -0.6783 -1.3497
 7776SOL    HW234962   3.500   0.490  11.245 -0.8848  0.3082 -0.3494
 7777SOL     OW34963   1.229   4.193   4.827 -0.3848 -0.6063 -0.0823
 7777SOL    HW134964   1.277   4.129   4.774  0.6616 -1.1626  1.5210
 7777SOL    HW234965   1.303   4.250   4.849 -0.9433 -0.0043  0.2449
 7778SOL     OW34966   2.734   2.134   2.706 -0.4664  0.0414  0.0511
 7778SOL    HW134967   2.648   2.140   2.747 -1.8676 -0.6838 -2.7815
 7778SOL    HW234968   2.725   2.041   2.684  2.1178 -0.7126  2.2553
 7779SOL     OW34969   4.574   0.790   8.828  0.6508 -0.3350 -0.0308
 7779SOL    HW134970   4.588   0.885   8.833 -0.1796 -0.3444  2.4595
 7779SOL    HW234971   4.651   0.767   8.776  1.3875 -2.4983  2.0210
 7780SOL     OW34972   1.880   1.123   3.818  0.6071 -0.0365 -0.1549
 7780SOL    HW134973   1.940   1.177   3.870 -2.1566 -0.2781  3.2721
 7780SOL    HW234974   1.933   1.116   3.738  0.3637  0.9971 -0.4128
 7781SOL     OW34975   2.410   3.027   4.061  0.2875  0.2849 -0.6496
 7781SOL    HW134976   2.367   3.043   4.145  0.6330  1.4754 -0.6988
 7781SOL    HW234977   2.374   2.940   4.047  1.9019 -0.4075 -0.4553
 7782SOL     OW34978   4.476   2.853   2.051 -0.0945  0.1113 -0.2497
 7782SOL    HW134979   4.407   2.791   2.026  0.3652 -0.0294 -1.1944
 7782SOL    HW234980   4.438   2.940   2.052 -2.3922 -0.9465  3.0650
 7783SOL     OW34981   1.317   2.719  10.283 -0.1145 -0.6443  0.3111
 7783SOL    HW134982   1.243   2.750  10.230 -0.5187  0.5619  1.5885
 7783SOL    HW234983   1.276   2.647  10.331  0.3016 -0.8612  0.3356
 7784SOL     OW34984   2.768   4.418   8.654 -0.8005 -0.1686 -0.2348
 7784SOL    HW134985   2.713   4.342   8.675  0.0869 -0.8702 -0.4684
 7784SOL    HW234986   2.709   4.492   8.666 -0.2202  0.4344 -1.1270
 7785SOL     OW34987   4.547   3.327  17.426 -0.9559  0.4402  0.6539
 7785SOL    HW134988   4.570   3.274  17.349 -1.1438  2.8642 -1.0952
 7785SOL    HW234989   4.456   3.352  17.408 -0.6945 -0.5751 -2.2000
 7786SOL     OW34990   2.564   1.112   3.257 -0.8591 -0.0840 -0.3044
 7786SOL    HW134991   2.656   1.090   3.240 -0.7831  2.1611 -2.7609
 7786SOL    HW234992   2.527   1.080   3.176  1.2610 -0.5326 -1.1044
 7787SOL     OW34993   3.020   0.025   2.002 -0.8295 -0.0308 -0.1623
 7787SOL    HW134994   2.976   0.028   2.087 -1.9375 -1.6817 -0.6858
 7787SOL    HW234995   3.064   0.110   1.997  0.2677 -0.5287  0.9644
 7788SOL     OW34996   1.334   2.290   7.514 -0.4798 -0.4847  0.1390
 7788SOL    HW134997   1.366   2.204   7.542 -1.7349 -1.2482 -0.7593
 7788SOL    HW234998   1.248   2.289   7.556 -1.2166 -1.3783 -1.3810
 7789SOL     OW34999   1.167   0.521   4.377  0.0009 -0.0413 -0.2693
 7789SOL    HW135000   1.210   0.441   4.408 -1.5880  0.3232  2.9593
 7789SOL    HW235001   1.225   0.539   4.304  0.4662 -1.7488 -0.3187
 7790SOL     OW35002   1.375   1.387   5.205 -0.0163  0.0474 -0.0935
 7790SOL    HW135003   1.374   1.321   5.136  0.5599  2.5023 -2.4638
 7790SOL    HW235004   1.313   1.353   5.269  1.4774 -1.2007  0.6987
 7791SOL     OW35005   0.116   1.357   9.940  0.0298  0.6037 -0.2220
 7791SOL    HW135006   0.168   1.288   9.899  2.6792  2.6417 -0.3311
 7791SOL    HW235007   0.097   1.318  10.025 -1.6860 -0.1113 -0.9310
 7792SOL     OW35008   4.513   4.613   3.597  0.5362 -0.1545 -0.4231
 7792SOL    HW135009   4.533   4.641   3.508  0.4273  0.2742 -0.3130
 7792SOL    HW235010   4.539   4.686   3.653 -1.3520 -0.4301  0.8187
 7793SOL     OW35011   1.714   1.542   2.217  0.0791  0.0781  0.2105
 7793SOL    HW135012   1.791   1.595   2.240  0.1389 -0.6528  1.6817
 7793SOL    HW235013   1.702   1.476   2.286 -0.1028 -0.1007  0.0090
 7794SOL     OW35014   0.601   3.666  15.689  0.2848  0.2862  0.5699
 7794SOL    HW135015   0.537   3.726  15.727 -0.6613 -0.2697 -0.1496
 7794SOL    HW235016   0.614   3.694  15.599  0.4846 -0.1372  0.4645
 7795SOL     OW35017   2.759   4.583   4.417  0.0738 -0.3554 -0.3665
 7795SOL    HW135018   2.678   4.633   4.432  1.0466  0.8630  0.8504
 7795SOL    HW235019   2.812   4.653   4.377  0.4785  0.5664  1.7982
 7796SOL     OW35020   1.777   4.074   3.320 -0.2382  0.2162  0.4647
 7796SOL    HW135021   1.816   3.990   3.343 -0.6999 -0.6167 -1.7546
 7796SOL    HW235022   1.847   4.102   3.261  0.3357 -0.3398  0.8834
 7797SOL     OW35023   0.899   1.468   1.403  0.3904  0.0008 -0.1725
 7797SOL    HW135024   0.970   1.531   1.407  1.2187 -0.9078 -0.4574
 7797SOL    HW235025   0.946   1.385   1.417  0.3344 -0.2010 -1.1855
 7798SOL     OW35026   0.879   3.000   5.916  0.5615  0.0658 -0.7461
 7798SOL    HW135027   0.795   2.995   5.962  0.4423 -1.2464 -1.0978
 7798SOL    HW235028   0.881   3.095   5.928  1.8893 -0.0334 -0.1794
 7799SOL     OW35029   1.029   3.818  12.927  0.0708  0.0388 -0.2741
 7799SOL    HW135030   0.967   3.817  12.999  1.7409 -0.8929  1.1580
 7799SOL    HW235031   0.974   3.843  12.852  0.8365  0.5487 -0.6751
 7800SOL     OW35032   0.509   2.522   5.803  0.0649  0.0378 -0.0196
 7800SOL    HW135033   0.455   2.597   5.778 -1.6641 -0.8422  1.0331
 7800SOL    HW235034   0.559   2.546   5.880 -0.7565  1.4833  0.0546
 7801SOL     OW35035   1.294   2.501   6.352 -0.0255 -0.3553 -0.2184
 7801SOL    HW135036   1.213   2.454   6.368 -0.6461  0.3718 -1.2119
 7801SOL    HW235037   1.350   2.434   6.312  0.6866 -0.9410  1.7416
 7802SOL     OW35038   4.521   3.601  17.143  0.1691  0.2232  0.1137
 7802SOL    HW135039   4.600   3.596  17.197  2.5306  0.1408 -3.3169
 7802SOL    HW235040   4.562   3.585  17.058  0.9834  1.1017  0.3306
 7803SOL     OW35041   2.322   2.950   6.400 -0.1098 -0.6704  0.0745
 7803SOL    HW135042   2.315   2.890   6.475 -1.0625 -0.3450  0.2388
 7803SOL    HW235043   2.231   2.959   6.374  0.1171 -1.0564 -0.8523
 7804SOL     OW35044   1.733   0.607   8.658  0.2567 -0.1904  0.4208
 7804SOL    HW135045   1.683   0.525   8.661 -0.8805  0.4436 -1.3967
 7804SOL    HW235046   1.819   0.576   8.686  0.3050 -0.1262  0.3421
 7805SOL     OW35047   4.095   1.206   5.687  0.0682 -0.5959 -0.8485
 7805SOL    HW135048   4.027   1.269   5.662 -0.4249  0.0985  2.3020
 7805SOL    HW235049   4.165   1.271   5.698 -1.5567  1.0167  0.0023
 7806SOL     OW35050   1.904   1.749   8.622  0.0697 -0.4581 -0.0089
 7806SOL    HW135051   1.978   1.806   8.644  0.9561 -1.1795 -1.1041
 7806SOL    HW235052   1.838   1.819   8.618 -0.3103 -0.7631  1.0322
 7807SOL     OW35053   1.743   1.130   1.655  0.6678  0.2124  0.8471
 7807SOL    HW135054   1.714   1.095   1.739  2.3066 -0.5933  1.0810
 7807SOL    HW235055   1.710   1.058   1.600  3.2925  0.1839 -0.7195
 7808SOL     OW35056   2.677   4.701   1.596  0.8036  0.2618 -0.4253
 7808SOL    HW135057   2.712   4.711   1.685 -0.0837  2.0149 -0.2781
 7808SOL    HW235058   2.755   4.716   1.543 -0.4565  0.5064 -2.1783
 7809SOL     OW35059   4.269   3.992   8.672 -0.4322  0.1346 -0.0866
 7809SOL    HW135060   4.242   4.083   8.661 -0.2058 -0.0102 -1.9134
 7809SOL    HW235061   4.205   3.958   8.735 -0.2068  1.1761  0.6977
 7810SOL     OW35062   4.388   3.539   6.893  0.3741  0.7437  0.8854
 7810SOL    HW135063   4.370   3.578   6.979  0.6936  0.2257  1.1840
 7810SOL    HW235064   4.452   3.594   6.849 -1.5615  1.6208 -0.8455
 7811SOL     OW35065   0.664   4.222   4.151 -0.6502 -0.0452 -0.6816
 7811SOL    HW135066   0.721   4.297   4.136 -0.7064 -0.4122 -2.7128
 7811SOL    HW235067   0.721   4.166   4.203 -1.3836  0.9135  1.1587
 7812SOL     OW35068   3.108   0.052   6.444 -0.3772 -0.2535 -0.4365
 7812SOL    HW135069   3.020   0.087   6.433 -0.6868 -0.1005  2.5120
 7812SOL    HW235070   3.155   0.127   6.408 -0.9577  0.2781 -0.1050
 7813SOL     OW35071   3.353   0.882   6.466  0.2788  0.1683  0.4439
 7813SOL    HW135072   3.316   0.793   6.459 -0.2049  0.3304  0.9219
 7813SOL    HW235073   3.413   0.881   6.540  0.1135 -0.9318  0.5725
 7814SOL     OW35074   0.227   4.608  12.031 -0.4642  0.0142 -0.3243
 7814SOL    HW135075   0.267   4.670  12.092 -2.6346 -1.0031  2.1249
 7814SOL    HW235076   0.142   4.584  12.069 -1.5385  4.5555  0.1165
 7815SOL     OW35077   4.085   1.198  15.528 -0.2911  0.0504 -0.3096
 7815SOL    HW135078   4.014   1.165  15.583  0.3588  0.7831  0.9647
 7815SOL    HW235079   4.046   1.199  15.441 -1.9425 -0.9310  0.4133
 7816SOL     OW35080   0.965   1.769   3.866 -0.6690 -0.3828  0.2671
 7816SOL    HW135081   0.871   1.784   3.856 -0.5831 -0.6973 -1.0996
 7816SOL    HW235082   0.975   1.700   3.931  5.0761 -1.5302 -1.8584
 7817SOL     OW35083   3.066   1.435  13.374  0.8585 -0.2304 -0.1707
 7817SOL    HW135084   3.149   1.476  13.347  0.7567  0.1938  0.1623
 7817SOL    HW235085   3.006   1.499  13.335  2.4733  2.2373  1.3763
 7818SOL     OW35086   4.257   3.637   4.480  0.6240  0.5448 -0.1977
 7818SOL    HW135087   4.241   3.730   4.493 -0.0742  0.4066 -0.0799
 7818SOL    HW235088   4.312   3.625   4.403 -1.7203  0.3803 -1.8465
 7819SOL     OW35089   2.733   1.676   3.001  0.3146 -0.3174 -0.3549
 7819SOL    HW135090   2.683   1.752   2.970 -2.4818 -1.1672  2.1257
 7819SOL    HW235091   2.807   1.718   3.044 -0.4610  1.1037 -0.4359
 7820SOL     OW35092   4.490   3.835   5.281 -0.1634 -0.1328 -0.2348
 7820SOL    HW135093   4.460   3.745   5.296 -0.8080 -0.2428 -2.2107
 7820SOL    HW235094   4.406   3.878   5.296 -1.0934 -2.5222  1.4013
 7821SOL     OW35095   0.828   1.883   6.248  0.3930 -0.0472  0.0427
 7821SOL    HW135096   0.751   1.919   6.203 -0.5376 -1.9473  0.0919
 7821SOL    HW235097   0.783   1.853   6.327  2.2265 -2.5619  0.0992
 7822SOL     OW35098   0.535   0.440  13.586 -0.5325 -0.0558  0.0550
 7822SOL    HW135099   0.543   0.534  13.602 -1.8488  0.0602 -0.0383
 7822SOL    HW235100   0.489   0.397  13.658  0.4492 -0.5798  0.3715
 7823SOL     OW35101   0.613   3.045  11.381  0.6519 -0.4441 -0.1199
 7823SOL    HW135102   0.530   3.035  11.333  0.7840 -0.3789 -0.3635
 7823SOL    HW235103   0.645   3.132  11.359  0.7341 -0.0634  1.4953
 7824SOL     OW35104   3.017   0.183   4.312 -0.0210 -0.4044 -0.1665
 7824SOL    HW135105   2.985   0.236   4.385  0.7840 -0.6503  0.3779
 7824SOL    HW235106   3.098   0.226   4.283  0.1403 -0.9683 -0.5507
 7825SOL     OW35107   0.233   0.639   1.402  0.4868 -0.4266 -0.0865
 7825SOL    HW135108   0.199   0.729   1.407  0.5153 -0.4629  0.7000
 7825SOL    HW235109   0.145   0.601   1.404  0.4732 -0.3239  1.0354
 7826SOL     OW35110   2.472   3.589  15.122  0.4635 -0.1698  0.2787
 7826SOL    HW135111   2.448   3.632  15.204  0.9233  0.8150 -0.0998
 7826SOL    HW235112   2.479   3.665  15.064  0.6864 -0.3024  0.1271
 7827SOL     OW35113   3.045   4.470   2.121 -0.4480 -0.0761 -0.3276
 7827SOL    HW135114   3.026   4.407   2.190 -2.6110  0.8227 -0.1315
 7827SOL    HW235115   2.962   4.516   2.122  0.7597  2.1353 -1.6408
 7828SOL     OW35116   4.613   3.839   9.224 -0.6192 -0.5728  0.4742
 7828SOL    HW135117   4.674   3.790   9.278 -0.4339 -2.0882 -1.1245
 7828SOL    HW235118   4.648   3.835   9.135  1.1138 -0.4257  1.1550
 7829SOL     OW35119   0.910   1.018   6.376 -0.1188  0.4876  0.3127
 7829SOL    HW135120   0.902   1.067   6.459 -1.0727 -1.1065  1.1518
 7829SOL    HW235121   0.818   1.013   6.352  0.3427 -0.8631 -1.1220
 7830SOL     OW35122   4.367   1.824  14.857 -0.5201 -0.2847 -0.1466
 7830SOL    HW135123   4.390   1.904  14.810  0.9827 -0.9338 -0.4928
 7830SOL    HW235124   4.347   1.773  14.779  0.7498  0.1056 -0.7349
 7831SOL     OW35125   3.189   1.759   2.227  0.0136  0.1172 -0.6928
 7831SOL    HW135126   3.146   1.832   2.183 -0.3157 -0.5435 -1.4589
 7831SOL    HW235127   3.134   1.689   2.191  1.2989 -1.5855  0.6044
 7832SOL     OW35128   3.203   2.410   8.339  0.1519  0.2026  0.6403
 7832SOL    HW135129   3.138   2.460   8.289  0.4870 -1.1169 -1.1151
 7832SOL    HW235130   3.161   2.325   8.342  1.2086 -0.1734  4.5062
 7833SOL     OW35131   2.631   3.297  15.087  0.5729  0.2909 -0.1521
 7833SOL    HW135132   2.594   3.371  15.039  0.5506  0.9759  0.9086
 7833SOL    HW235133   2.664   3.246  15.013  1.2568  2.1363 -1.1169
 7834SOL     OW35134   1.874   4.148  12.113 -0.5831 -0.8140 -0.3148
 7834SOL    HW135135   1.872   4.112  12.202  1.1915 -0.3787 -0.0997
 7834SOL    HW235136   1.841   4.072  12.064  1.0191 -2.8480  1.7377
 7835SOL     OW35137   0.775   0.645   4.284 -0.0951 -0.0137 -0.2471
 7835SOL    HW135138   0.842   0.615   4.347 -1.1338  0.7310  1.2143
 7835SOL    HW235139   0.795   0.604   4.200 -2.5318 -1.3251 -0.1932
 7836SOL     OW35140   3.013   1.432   4.449 -0.3370  0.0859 -0.1578
 7836SOL    HW135141   3.041   1.462   4.536 -1.0199 -0.8783  0.3939
 7836SOL    HW235142   3.024   1.340   4.472 -0.4350  0.0708 -0.1686
 7837SOL     OW35143   1.368   4.490   5.344  0.3446 -0.2153 -0.2295
 7837SOL    HW135144   1.405   4.482   5.432 -0.2335 -1.2514 -0.0737
 7837SOL    HW235145   1.374   4.398   5.319  0.9769 -0.8579  2.3484
 7838SOL     OW35146   4.351   2.380   1.836 -0.5950 -0.0416 -0.0693
 7838SOL    HW135147   4.345   2.377   1.931  0.0483  1.0453  0.0068
 7838SOL    HW235148   4.290   2.310   1.813  0.4921 -0.6115 -1.2267
 7839SOL     OW35149   2.304   2.223   2.003  0.0898  0.1492  0.3868
 7839SOL    HW135150   2.359   2.297   2.028 -0.6273  0.1228  1.9993
 7839SOL    HW235151   2.283   2.228   1.910 -2.2875 -1.0711  0.8593
 7840SOL     OW35152   2.061   0.304   5.381 -0.0474  0.0594  0.0239
 7840SOL    HW135153   2.074   0.325   5.474 -3.1338 -1.2656  0.7366
 7840SOL    HW235154   2.012   0.222   5.373 -0.3944  0.2588  0.1188
 7841SOL     OW35155   3.394   3.300   1.864 -0.6282 -0.6555 -0.1367
 7841SOL    HW135156   3.341   3.253   1.929 -0.6800 -0.1028  0.2303
 7841SOL    HW235157   3.328   3.365   1.838 -0.3362 -0.4166 -0.2773
 7842SOL     OW35158   2.524   1.003  15.745 -0.1610 -0.2726  0.2025
 7842SOL    HW135159   2.525   1.090  15.783  0.0265 -0.0852 -0.2265
 7842SOL    HW235160   2.609   0.962  15.764  0.2434  1.2600  1.7457
 7843SOL     OW35161   3.611   2.112   4.946  0.2689  0.7854 -0.0140
 7843SOL    HW135162   3.673   2.147   4.882  0.1834 -1.6532 -1.4519
 7843SOL    HW235163   3.671   2.123   5.019  0.2865  0.1950  0.0625
 7844SOL     OW35164   1.808   3.978  10.461 -0.0335 -0.0740  0.1493
 7844SOL    HW135165   1.744   3.981  10.390 -0.3682  1.3838  0.5204
 7844SOL    HW235166   1.845   4.064  10.444  0.7072 -0.1927  1.1809
 7845SOL     OW35167   3.587   1.713   5.960 -0.3572 -0.1033 -0.4549
 7845SOL    HW135168   3.678   1.713   5.928 -0.7588  1.8553 -1.5851
 7845SOL    HW235169   3.544   1.711   5.874  1.2499  2.3609 -1.3252
 7846SOL     OW35170   1.405   2.439   7.299 -0.0758 -0.2353 -0.2820
 7846SOL    HW135171   1.358   2.384   7.361  0.7605 -0.1683  0.4035
 7846SOL    HW235172   1.495   2.430   7.332 -0.4837  0.3042  0.9471
 7847SOL     OW35173   2.945   0.851   6.366 -0.1083 -0.6047 -0.5752
 7847SOL    HW135174   2.985   0.854   6.279 -0.7085 -1.7276 -0.8928
 7847SOL    HW235175   2.874   0.792   6.342 -0.2728  0.0919 -1.8279
 7848SOL     OW35176   2.235   3.878   5.170  0.2457 -0.1291 -0.0540
 7848SOL    HW135177   2.322   3.908   5.194  0.5527 -0.8390 -0.2799
 7848SOL    HW235178   2.235   3.929   5.089 -1.5607 -2.4711 -1.5155
 7849SOL     OW35179   1.415   2.989   1.764 -0.3415 -0.0856 -0.3076
 7849SOL    HW135180   1.430   2.895   1.759 -0.6326 -0.3441  3.3746
 7849SOL    HW235181   1.385   3.011   1.676  0.9066  0.9549 -0.4779
 7850SOL     OW35182   0.397   4.007   7.569 -0.6395  0.0340  0.1436
 7850SOL    HW135183   0.390   3.959   7.486  1.0059  0.5926 -0.3201
 7850SOL    HW235184   0.351   3.939   7.617  1.2308 -1.8468 -0.7374
 7851SOL     OW35185   1.160   0.040   1.435 -0.8855 -0.5719 -0.0368
 7851SOL    HW135186   1.122   0.005   1.355 -3.8313  1.4590  0.4532
 7851SOL    HW235187   1.100   0.014   1.505 -1.2055 -0.2416 -0.1844
 7852SOL     OW35188   0.064   2.433   9.008 -0.4615 -0.1433  0.0449
 7852SOL    HW135189   0.119   2.389   9.072  1.3052 -0.6762 -1.8502
 7852SOL    HW235190   0.009   2.369   8.964 -0.1107  0.5358 -1.3955
 7853SOL     OW35191   4.460   3.397   5.476 -0.3276 -0.2500  0.2508
 7853SOL    HW135192   4.366   3.397   5.458 -0.1677  0.6535 -0.5974
 7853SOL    HW235193   4.463   3.351   5.560 -0.1403  1.1950  1.0444
 7854SOL     OW35194   0.878   1.887   8.190  0.4442 -0.2124  0.1506
 7854SOL    HW135195   0.944   1.916   8.253 -0.1671  1.0848  0.2184
 7854SOL    HW235196   0.806   1.937   8.230  0.8246 -0.7411  1.5157
 7855SOL     OW35197   1.121   1.393   6.378 -0.0046  0.3773  0.2377
 7855SOL    HW135198   1.037   1.439   6.377  0.9478  2.0816 -2.0911
 7855SOL    HW235199   1.102   1.319   6.321  2.2174  0.2228 -0.3007
 7856SOL     OW35200   4.400   0.904  12.565 -0.0353  0.0301  0.3415
 7856SOL    HW135201   4.371   0.815  12.587 -0.0324 -0.1893 -0.5222
 7856SOL    HW235202   4.474   0.879  12.509  0.4386  2.5118 -0.1342
 7857SOL     OW35203   0.545   2.024   4.229  0.3344 -0.1982 -0.0608
 7857SOL    HW135204   0.454   1.994   4.237 -0.3350  2.3630  2.1926
 7857SOL    HW235205   0.552   2.036   4.134  0.5967 -2.6185 -0.3375
 7858SOL     OW35206   4.386   3.580   5.244 -0.0365  0.0694  0.4261
 7858SOL    HW135207   4.325   3.589   5.170 -2.3234 -0.6960  2.2215
 7858SOL    HW235208   4.352   3.496   5.274  2.1314 -0.5462  1.0811
 7859SOL     OW35209   3.331   2.225  13.662 -0.4392 -0.3553  0.1557
 7859SOL    HW135210   3.339   2.273  13.745  4.8633 -3.3109  1.3685
 7859SOL    HW235211   3.242   2.243  13.633 -0.5001 -0.3986  0.3144
 7860SOL     OW35212   1.451   0.236   5.473 -0.1344  0.8197  0.3699
 7860SOL    HW135213   1.438   0.172   5.543 -0.0960  0.2773 -0.1205
 7860SOL    HW235214   1.425   0.316   5.519 -0.3162  0.1424  1.4249
 7861SOL     OW35215   2.940   1.877   2.406  0.4544  0.0662  0.0281
 7861SOL    HW135216   2.976   1.943   2.347 -1.0051  1.6326  0.9125
 7861SOL    HW235217   2.882   1.831   2.346 -1.9387  0.6312  1.9065
 7862SOL     OW35218   4.277   1.404   5.719 -0.1998  0.2972  0.0446
 7862SOL    HW135219   4.342   1.446   5.664  0.8874 -0.2509  0.9154
 7862SOL    HW235220   4.303   1.427   5.808  1.7253  3.1034 -1.2778
 7863SOL     OW35221   3.046   3.488   4.931 -0.6236 -0.1329 -0.3345
 7863SOL    HW135222   3.018   3.537   5.008  0.2171  0.1473 -0.2069
 7863SOL    HW235223   3.073   3.404   4.967  0.3076 -0.2881 -1.3949
 7864SOL     OW35224   3.685   4.740   4.202 -0.2836 -0.2684  0.1240
 7864SOL    HW135225   3.726   0.075   4.242 -1.1338  0.7277 -0.9349
 7864SOL    HW235226   3.738   4.670   4.240  0.0777  0.7648  1.4977
 7865SOL     OW35227   4.433   1.276  15.969 -0.1858  0.3385  0.1878
 7865SOL    HW135228   4.382   1.258  15.890 -1.6132  1.5848  0.8232
 7865SOL    HW235229   4.439   1.371  15.979  2.1769 -0.1836  3.5842
 7866SOL     OW35230   4.561   0.717  11.367 -0.1930 -0.1438  0.2580
 7866SOL    HW135231   4.529   0.795  11.323  1.1814 -0.7795 -1.8835
 7866SOL    HW235232   4.528   0.724  11.457 -0.2999  1.5941  0.0936
 7867SOL     OW35233   2.260   0.990   9.647 -0.1039  0.1186  0.1138
 7867SOL    HW135234   2.183   0.993   9.704 -1.7526  1.2299 -2.1572
 7867SOL    HW235235   2.315   0.932   9.698 -0.9133  1.4519  2.5444
 7868SOL     OW35236   1.392   2.816   2.126  0.5392 -0.1029  0.2909
 7868SOL    HW135237   1.467   2.772   2.165 -0.4130 -2.4459 -0.5264
 7868SOL    HW235238   1.397   2.906   2.158 -0.0616 -0.4440  1.3289
 7869SOL     OW35239   4.328   1.994  16.305  1.0460  0.0776 -0.0484
 7869SOL    HW135240   4.330   1.932  16.378  0.7800  0.0478 -0.0632
 7869SOL    HW235241   4.236   1.977  16.281  0.7035  2.1183 -0.1756
 7870SOL     OW35242   1.493   1.878   2.996 -1.1543 -0.0985 -0.2668
 7870SOL    HW135243   1.473   1.965   3.030 -0.9678 -0.1324 -0.0659
 7870SOL    HW235244   1.446   1.813   3.049 -1.2552 -0.3419 -0.6499
 7871SOL     OW35245   4.132   0.681  10.267  0.0803 -0.2209 -0.1402
 7871SOL    HW135246   4.143   0.721  10.181 -1.0677 -1.6218 -0.9470
 7871SOL    HW235247   4.116   0.762  10.315 -2.4450 -0.5753 -0.3909
 7872SOL     OW35248   0.592   3.275   9.196  0.4448 -0.2622 -0.0223
 7872SOL    HW135249   0.561   3.365   9.191  2.3288  0.3062 -1.2532
 7872SOL    HW235250   0.518   3.221   9.225 -0.4328 -0.0933 -1.8929
 7873SOL     OW35251   3.769   0.073   2.767  0.0057 -0.1505 -0.1126
 7873SOL    HW135252   3.780   0.021   2.846  0.5645 -0.5245 -0.4385
 7873SOL    HW235253   3.677   0.066   2.743  0.2483  1.5447 -1.5396
 7874SOL     OW35254   0.423   1.403   2.229 -0.8737  0.6507  0.3431
 7874SOL    HW135255   0.489   1.404   2.158  0.3777 -1.6073  1.4802
 7874SOL    HW235256   0.393   1.312   2.230 -1.1432  0.7757  2.3298
 7875SOL     OW35257   0.401   0.395   1.134  0.1782 -0.6764 -0.7880
 7875SOL    HW135258   0.305   0.397   1.129  0.2327 -0.8550 -1.8556
 7875SOL    HW235259   0.410   0.490   1.141  2.2513 -0.9567  0.2926
 7876SOL     OW35260   4.009   3.175   8.303 -0.0801  0.2662 -0.1425
 7876SOL    HW135261   4.011   3.265   8.336 -1.7021  0.1829  0.1910
 7876SOL    HW235262   3.915   3.179   8.285 -0.4681 -1.1376  1.5790
 7877SOL     OW35263   1.248   3.129  11.818  0.5461 -0.4389  0.2258
 7877SOL    HW135264   1.330   3.130  11.867  0.0962 -0.7796  0.9732
 7877SOL    HW235265   1.248   3.042  11.779  3.4188 -0.1046 -0.5222
 7878SOL     OW35266   4.198   3.417   5.417  0.3978  0.2889 -0.6346
 7878SOL    HW135267   4.120   3.472   5.429 -1.0993 -1.6745 -1.3508
 7878SOL    HW235268   4.174   3.381   5.332  1.2035 -0.3042 -0.6128
 7879SOL     OW35269   3.705   3.889   7.596 -0.1234  0.2223  0.0883
 7879SOL    HW135270   3.662   3.804   7.581  0.4131  0.2654 -1.7748
 7879SOL    HW235271   3.632   3.950   7.601  1.7773  2.5070 -0.2145
 7880SOL     OW35272   1.072   2.715   1.714  1.0388  0.1324  0.0587
 7880SOL    HW135273   1.010   2.666   1.768  0.6722 -0.1924 -0.6606
 7880SOL    HW235274   1.126   2.649   1.670 -0.7983 -0.9863 -0.4805
 7881SOL     OW35275   1.236   3.081   1.996 -1.1985  0.3550 -0.5636
 7881SOL    HW135276   1.317   3.038   1.970 -1.6571  0.7377 -2.6119
 7881SOL    HW235277   1.169   3.039   1.942 -2.1173  2.1842 -0.8457
 7882SOL     OW35278   0.212   2.141   8.599 -0.0306  0.0056 -0.2825
 7882SOL    HW135279   0.162   2.221   8.612  1.0027  1.0190 -2.4643
 7882SOL    HW235280   0.156   2.096   8.535 -0.0110  0.7447 -0.8214
 7883SOL     OW35281   3.097   0.650   1.778  0.1268  0.3933 -0.8235
 7883SOL    HW135282   3.033   0.676   1.844 -0.5816 -1.7307 -0.6775
 7883SOL    HW235283   3.082   0.556   1.781 -1.4841  0.6286 -1.9799
 7884SOL     OW35284   2.840   0.267   3.394  0.0649  0.8244 -0.1108
 7884SOL    HW135285   2.793   0.345   3.422 -2.0801  0.3363 -2.2784
 7884SOL    HW235286   2.789   0.197   3.435  1.8531 -1.6594 -2.1637
 7885SOL     OW35287   4.424   0.723   5.596  0.4602 -0.0371  0.1040
 7885SOL    HW135288   4.371   0.686   5.526 -1.6645  1.4543  0.9427
 7885SOL    HW235289   4.480   0.778   5.542 -1.1932  3.4762  1.9559
 7886SOL     OW35290   0.677   1.433  16.269  0.6949 -0.3974  0.1552
 7886SOL    HW135291   0.599   1.487  16.262  0.3380 -0.6458  2.3518
 7886SOL    HW235292   0.736   1.496  16.310 -0.4646  0.7271  0.0711
 7887SOL     OW35293   2.224   3.249   6.627  0.3417 -0.2299  0.1912
 7887SOL    HW135294   2.189   3.262   6.539 -2.6950  1.0434  1.5883
 7887SOL    HW235295   2.241   3.341   6.651  2.9445 -0.4734 -0.6539
 7888SOL     OW35296   2.783   0.296   2.605  0.0759 -0.0709 -0.0834
 7888SOL    HW135297   2.705   0.352   2.597 -0.7599 -0.9811  1.7503
 7888SOL    HW235298   2.773   0.239   2.681  0.8156  1.5137  1.2060
 7889SOL     OW35299   2.299   3.630  14.664 -0.5883 -0.0432 -0.2839
 7889SOL    HW135300   2.206   3.656  14.665 -1.2137 -2.2449 -0.8763
 7889SOL    HW235301   2.321   3.661  14.752 -1.4103  1.9857 -0.7825
 7890SOL     OW35302   2.506   4.283   7.007  0.8913 -0.2847  0.1219
 7890SOL    HW135303   2.449   4.231   7.063 -1.2378  2.4006  0.4332
 7890SOL    HW235304   2.445   4.302   6.936  0.4264 -0.5962  0.4390
 7891SOL     OW35305   2.905   2.783   8.550 -0.0171  0.0478 -0.3083
 7891SOL    HW135306   2.860   2.733   8.481 -0.5291  1.8017 -1.2370
 7891SOL    HW235307   2.837   2.850   8.559 -0.0887  0.1724 -1.7944
 7892SOL     OW35308   4.204   3.232   8.067 -0.2070 -0.5706  0.2284
 7892SOL    HW135309   4.140   3.286   8.019 -3.0385 -1.6972  2.7356
 7892SOL    HW235310   4.146   3.191   8.131 -0.0423 -0.9404  0.1397
 7893SOL     OW35311   0.766   4.244   7.965  0.1936  0.0252 -0.2980
 7893SOL    HW135312   0.739   4.310   7.902  1.0436  1.2406  0.6285
 7893SOL    HW235313   0.751   4.160   7.921 -2.9825  0.2010  0.4414
 7894SOL     OW35314   0.234   2.986   2.548 -0.0192  0.4211 -0.1504
 7894SOL    HW135315   0.330   2.995   2.554  0.1167 -1.5750  0.5040
 7894SOL    HW235316   0.215   3.069   2.504  3.0742  1.3011  0.1492
 7895SOL     OW35317   1.865   0.613   3.025  0.0318  0.0122  0.3127
 7895SOL    HW135318   1.819   0.692   2.997 -0.1619 -0.4698 -0.7227
 7895SOL    HW235319   1.828   0.601   3.113 -1.8207  0.1810 -0.4394
 7896SOL     OW35320   2.871   2.561   3.150  0.2206 -0.2703  0.0044
 7896SOL    HW135321   2.861   2.626   3.220  2.5784 -0.9135  0.9273
 7896SOL    HW235322   2.961   2.543   3.176  0.3255  0.7525  0.3632
 7897SOL     OW35323   4.110   2.962  15.156 -0.1196 -0.4852 -0.1293
 7897SOL    HW135324   4.036   3.008  15.196 -0.8400 -0.5034 -1.4481
 7897SOL    HW235325   4.181   3.024  15.174 -1.7093  0.7087  2.0353
 7898SOL     OW35326   2.902   0.791   5.809 -0.2305  0.3630 -0.0814
 7898SOL    HW135327   2.997   0.782   5.799 -0.1059  0.8227  0.6689
 7898SOL    HW235328   2.884   0.698   5.795  0.9033  0.2446 -0.7257
 7899SOL     OW35329   1.157   0.238   4.058  0.1000 -0.2996 -0.1842
 7899SOL    HW135330   1.142   0.332   4.062  0.6000 -0.1491 -1.5089
 7899SOL    HW235331   1.248   0.242   4.089 -0.5724  0.4104  1.6383
 7900SOL     OW35332   1.951   4.241   8.368  0.8699  0.1814 -0.5306
 7900SOL    HW135333   1.907   4.298   8.304 -1.7759 -0.2623  0.8727
 7900SOL    HW235334   2.005   4.296   8.424  0.7790 -0.6776  0.3920
 7901SOL     OW35335   3.105   1.299   1.547 -0.1506 -0.3949  0.2565
 7901SOL    HW135336   3.196   1.275   1.563 -0.0661  0.0393  0.4161
 7901SOL    HW235337   3.095   1.389   1.577 -1.3789  0.2755 -2.0884
 7902SOL     OW35338   3.806   2.991  11.432 -0.5456 -0.5452 -0.3425
 7902SOL    HW135339   3.756   2.987  11.513  0.6637  2.2165  0.5275
 7902SOL    HW235340   3.734   2.977  11.369 -0.0761 -0.1012 -0.9829
 7903SOL     OW35341   2.249   4.729  14.355  0.5489 -0.1078 -0.1442
 7903SOL    HW135342   2.345   4.727  14.360  0.6264 -1.4607 -2.1121
 7903SOL    HW235343   2.231   4.681  14.435  1.1513  0.9217  0.6066
 7904SOL     OW35344   1.706   1.997   8.893  0.7372 -0.1612  0.5226
 7904SOL    HW135345   1.794   2.035   8.893  0.8183 -0.3545  0.0606
 7904SOL    HW235346   1.675   2.053   8.965 -1.0601 -0.1133 -0.2870
 7905SOL     OW35347   4.122   0.436  13.373  0.1322 -0.0632 -0.2269
 7905SOL    HW135348   4.134   0.528  13.352 -1.0529 -0.0180 -0.7636
 7905SOL    HW235349   4.067   0.409  13.298  0.5149 -1.9549  0.1714
 7906SOL     OW35350   1.835   3.964   1.988 -0.6487 -0.3115 -0.1431
 7906SOL    HW135351   1.775   4.032   1.958 -0.4086 -0.7467 -1.6222
 7906SOL    HW235352   1.889   3.961   1.908 -0.8380 -1.7753 -0.2099
 7907SOL     OW35353   1.741   1.082   7.515  0.0902 -0.4353  0.4057
 7907SOL    HW135354   1.708   1.091   7.426  1.7152 -2.2035 -0.3729
 7907SOL    HW235355   1.828   1.120   7.504  0.7411 -1.2582  2.7111
 7908SOL     OW35356   3.509   0.854   4.495  0.3965 -0.2292  0.2052
 7908SOL    HW135357   3.477   0.767   4.469  1.5661 -0.6951  0.3440
 7908SOL    HW235358   3.546   0.889   4.414  1.1072  0.1404  0.6951
 7909SOL     OW35359   3.856   3.700  11.844  0.8837  0.0828 -0.3602
 7909SOL    HW135360   3.826   3.735  11.928  1.7174 -0.9756  0.3784
 7909SOL    HW235361   3.897   3.779  11.810 -2.5824  2.2348  0.3942
 7910SOL     OW35362   3.875   3.209   6.096 -0.5052 -0.3008  0.1557
 7910SOL    HW135363   3.787   3.198   6.062 -0.5044  1.5201 -0.4222
 7910SOL    HW235364   3.918   3.149   6.036 -0.9597  0.7628 -1.2195
 7911SOL     OW35365   0.251   3.716   4.715  0.6091  0.1850 -0.7588
 7911SOL    HW135366   0.253   3.623   4.739  1.7266 -0.0599 -1.8075
 7911SOL    HW235367   0.165   3.734   4.753  0.8562  1.5306 -0.8150
 7912SOL     OW35368   2.507   0.238   3.198 -0.2241 -0.0664 -0.1784
 7912SOL    HW135369   2.539   0.323   3.229 -1.6555  0.9920 -1.6175
 7912SOL    HW235370   2.469   0.223   3.285  2.0234  1.0045  0.9776
 7913SOL     OW35371   1.455   4.335   6.953 -0.2944 -0.0532  0.0589
 7913SOL    HW135372   1.500   4.353   7.036  0.3895  2.1116 -0.7647
 7913SOL    HW235373   1.393   4.408   6.959  0.1738  0.4226 -0.7677
 7914SOL     OW35374   3.309   4.741  15.096  0.0086  0.1381 -0.5851
 7914SOL    HW135375   3.315   0.086  15.058  1.7023  1.2294  2.1776
 7914SOL    HW235376   3.287   0.012  15.188 -1.1002 -0.2080 -0.8041
 7915SOL     OW35377   2.602   0.073   5.484  0.4411  0.3840 -0.1612
 7915SOL    HW135378   2.589   4.739   5.541 -0.2236  0.2931 -0.4331
 7915SOL    HW235379   2.517   0.088   5.442  0.1153 -0.4673  0.2112
 7916SOL     OW35380   2.185   0.278   8.673 -0.3371 -0.0949  0.3052
 7916SOL    HW135381   2.104   0.279   8.621  0.3841  1.6065 -0.7750
 7916SOL    HW235382   2.148   0.249   8.757  1.3143 -0.8431  0.7673
 7917SOL     OW35383   1.026   2.830  16.472  0.0982 -0.2752 -0.2594
 7917SOL    HW135384   0.957   2.891  16.447 -0.9539 -0.8347  1.3086
 7917SOL    HW235385   0.991   2.804  16.557 -3.6576  1.3878 -1.2866
 7918SOL     OW35386   1.902   4.055   8.081  0.1678  0.3112 -0.8005
 7918SOL    HW135387   1.994   4.039   8.101  0.1338 -1.0867 -1.7010
 7918SOL    HW235388   1.900   4.029   7.988 -1.1054  0.8691 -0.9298
 7919SOL     OW35389   0.202   1.514   3.274 -0.3072  0.5781 -0.2455
 7919SOL    HW135390   0.183   1.539   3.364 -0.2372  0.0948 -0.0971
 7919SOL    HW235391   0.276   1.571   3.256  0.3348  0.0838  0.8598
 7920SOL     OW35392   4.030   4.000   8.202  0.0711  0.7548 -0.3184
 7920SOL    HW135393   4.014   3.949   8.281  2.1990  2.5139  1.2613
 7920SOL    HW235394   3.965   3.969   8.140 -0.0650  1.1617 -0.3780
 7921SOL     OW35395   2.591   0.230   5.804 -0.5853 -0.1671  0.0789
 7921SOL    HW135396   2.643   0.298   5.848  2.4828 -2.5518  0.1392
 7921SOL    HW235397   2.633   0.222   5.719  3.9717  2.4748  2.0661
 7922SOL     OW35398   4.145   4.515  14.444  0.8158 -0.7520 -0.0068
 7922SOL    HW135399   4.184   4.598  14.472 -2.2724  0.2462  1.2589
 7922SOL    HW235400   4.164   4.508  14.350  2.2799 -0.7961  0.2877
 7923SOL     OW35401   2.248   2.395   0.217  0.6061 -0.2507 -0.2388
 7923SOL    HW135402   2.252   2.484   0.185  0.9535 -0.3028 -0.3419
 7923SOL    HW235403   2.343   2.383   0.226  0.5032 -2.5456 -2.2488
 7924SOL     OW35404   2.403   0.052   5.896 -0.8760 -0.2211  0.0133
 7924SOL    HW135405   2.468   0.034   5.964  0.4478 -2.2722 -1.7687
 7924SOL    HW235406   2.451   0.124   5.854 -2.2681  1.9952  2.2304
 7925SOL     OW35407   4.205   2.216   8.009  0.4808  0.5303  0.0378
 7925SOL    HW135408   4.115   2.223   7.975  0.4759  0.5792  0.0607
 7925SOL    HW235409   4.187   2.247   8.098 -0.8030 -0.0797 -0.0025
 7926SOL     OW35410   4.600   2.106   8.631  0.6210  0.4395  0.4889
 7926SOL    HW135411   4.537   2.136   8.697 -0.6507  0.4309 -0.7244
 7926SOL    HW235412   4.597   2.170   8.559 -2.5574 -0.0191  0.2244
 7927SOL     OW35413   0.398   4.674   7.442  0.6074  0.5249  0.4091
 7927SOL    HW135414   0.331   4.647   7.379 -0.2407  2.6805  0.3526
 7927SOL    HW235415   0.392   0.028   7.449 -0.5167  0.4363  0.7824
 7928SOL     OW35416   3.020   0.313   9.781  0.2410  0.0455  0.5591
 7928SOL    HW135417   3.050   0.394   9.740  0.4654 -0.7277 -0.8130
 7928SOL    HW235418   2.993   0.350   9.865  0.1917 -1.5683  1.2481
 7929SOL     OW35419   3.917   2.942   8.056 -0.1024 -0.8480  0.2586
 7929SOL    HW135420   3.998   2.907   8.092 -0.3547 -1.0365  0.6426
 7929SOL    HW235421   3.870   2.859   8.061 -1.5406  0.0142  1.1667
 7930SOL     OW35422   3.047   4.554   8.968  0.1842  1.1387  0.0914
 7930SOL    HW135423   2.992   4.610   9.023 -0.5844  2.0522 -1.5978
 7930SOL    HW235424   2.994   4.474   8.964  0.7867  0.7333  0.2828
 7931SOL     OW35425   1.011   3.545  13.587  0.1256  0.0239 -0.3657
 7931SOL    HW135426   1.000   3.457  13.622 -2.0391  0.5183  0.1801
 7931SOL    HW235427   0.987   3.550  13.495  0.4142  0.5454 -0.4163
 7932SOL     OW35428   1.797   2.956   2.242 -0.1261 -0.1775  0.4272
 7932SOL    HW135429   1.781   3.031   2.185  3.1125  1.3129  1.4911
 7932SOL    HW235430   1.713   2.910   2.237 -1.6887  2.4859  2.3394
 7933SOL     OW35431   3.383   3.216  17.319  0.4900  0.1302  0.1889
 7933SOL    HW135432   3.451   3.184  17.260 -0.3849 -1.1527 -0.1205
 7933SOL    HW235433   3.307   3.228  17.262  1.4476 -0.9589 -1.3138
 7934SOL     OW35434   4.601   4.383   2.031 -0.0854 -0.1611  0.0968
 7934SOL    HW135435   4.524   4.332   2.055  1.2275 -2.1630  0.1112
 7934SOL    HW235436   4.551   4.439   1.972 -0.9038 -0.0157  0.9322
 7935SOL     OW35437   3.097   0.386   6.041  0.3636  0.1772  0.7040
 7935SOL    HW135438   3.178   0.436   6.032  1.8651 -2.0759  1.7732
 7935SOL    HW235439   3.127   0.309   5.992 -0.4859 -1.3840  2.6554
 7936SOL     OW35440   2.914   3.301   9.372 -0.1418  0.0794  0.4479
 7936SOL    HW135441   2.997   3.334   9.405  0.7805 -0.4459 -1.4067
 7936SOL    HW235442   2.939   3.275   9.284  0.2539 -1.7643  1.0927
 7937SOL     OW35443   3.303   3.874   7.924 -0.1424 -0.1034 -0.6182
 7937SOL    HW135444   3.384   3.900   7.881  1.1800 -2.5858  0.4039
 7937SOL    HW235445   3.243   3.947   7.905 -0.9205 -0.5355  0.1627
 7938SOL     OW35446   3.130   2.528   3.197  0.0251 -0.1982  0.0277
 7938SOL    HW135447   3.173   2.477   3.266 -1.9202 -1.8636  0.0172
 7938SOL    HW235448   3.148   2.475   3.119 -0.7063 -2.0807  1.1419
 7939SOL     OW35449   3.323   4.333   2.956 -0.4281 -0.2830 -0.0203
 7939SOL    HW135450   3.268   4.261   2.924 -2.2487  1.1047  0.0130
 7939SOL    HW235451   3.259   4.402   2.939 -0.1789 -0.1712 -0.4865
 7940SOL     OW35452   1.581   2.244  13.205 -0.1668 -0.6037 -0.3230
 7940SOL    HW135453   1.617   2.314  13.259  1.3565 -0.4916 -1.4587
 7940SOL    HW235454   1.492   2.274  13.188 -0.8972 -3.0056 -0.8330
 7941SOL     OW35455   1.660   2.302   6.470  0.0632  0.0149 -0.3597
 7941SOL    HW135456   1.636   2.344   6.553  3.6673  1.1177  0.1407
 7941SOL    HW235457   1.755   2.294   6.473  0.2318  2.2689  1.0327
 7942SOL     OW35458   3.659   4.234  16.889  0.3462  0.1549  0.2858
 7942SOL    HW135459   3.574   4.255  16.929  0.1848 -1.0871  0.5856
 7942SOL    HW235460   3.690   4.321  16.864  1.0736 -0.3288 -0.4875
 7943SOL     OW35461   1.727   3.759  16.148 -0.0121  0.5732 -0.2025
 7943SOL    HW135462   1.816   3.765  16.183 -1.0019  2.1561  2.0365
 7943SOL    HW235463   1.682   3.740  16.231  1.2341 -0.4867  0.2319
 7944SOL     OW35464   2.726   2.990  10.786  0.0913  0.2944  0.3556
 7944SOL    HW135465   2.674   3.050  10.732  1.9458  0.7289 -0.9569
 7944SOL    HW235466   2.814   3.027  10.794 -0.3126  1.0689  1.2087
 7945SOL     OW35467   3.871   2.708   7.687 -0.3958  0.5614 -0.2657
 7945SOL    HW135468   3.900   2.645   7.621 -0.9747 -2.6926  2.6249
 7945SOL    HW235469   3.797   2.659   7.722  1.1143 -0.6875  1.1956
 7946SOL     OW35470   4.472   2.630   2.394  0.4934  0.3162 -0.1516
 7946SOL    HW135471   4.478   2.593   2.483 -1.4839  2.2394  0.7751
 7946SOL    HW235472   4.531   2.581   2.337  1.4309 -0.3739  1.4010
 7947SOL     OW35473   1.209   4.482   3.179  0.2323 -0.3248 -0.0607
 7947SOL    HW135474   1.155   4.415   3.138  0.9374 -0.5767 -0.5818
 7947SOL    HW235475   1.299   4.459   3.155 -0.5878 -4.1677  0.5410
 7948SOL     OW35476   4.126   0.579   3.125 -0.2395  0.2742  0.1104
 7948SOL    HW135477   4.185   0.528   3.069 -0.3369  0.0447  0.2173
 7948SOL    HW235478   4.189   0.646   3.149 -1.1769  0.5111  1.8508
 7949SOL     OW35479   1.057   4.155   5.682  0.0646  0.1556  0.1039
 7949SOL    HW135480   0.962   4.167   5.684 -0.0291 -0.4347 -1.0488
 7949SOL    HW235481   1.073   4.239   5.724 -1.8964  1.3116 -1.4549
 7950SOL     OW35482   3.900   3.700   3.588  0.6973  0.8315  0.0534
 7950SOL    HW135483   3.894   3.608   3.563  0.6304  0.7986  0.1902
 7950SOL    HW235484   3.976   3.727   3.537 -0.4987  0.2105 -2.0584
 7951SOL     OW35485   0.141   3.092   8.012  0.0105 -0.2521  0.2471
 7951SOL    HW135486   0.148   3.149   8.089  3.2612  1.0155 -0.9971
 7951SOL    HW235487   0.150   3.010   8.061  0.2053 -1.0293 -1.1087
 7952SOL     OW35488   2.102   1.196   2.439  0.4057  0.1595  0.5520
 7952SOL    HW135489   2.050   1.117   2.427 -1.1323  1.3951 -0.8501
 7952SOL    HW235490   2.177   1.154   2.482  1.4258 -0.0475 -1.3955
 7953SOL     OW35491   4.614   1.734   1.687  0.4136 -0.3890  0.2739
 7953SOL    HW135492   4.688   1.679   1.661  0.4240  0.5403 -1.6876
 7953SOL    HW235493   4.652   1.819   1.710  0.5772 -0.6033  0.8021
 7954SOL     OW35494   0.598   1.463   0.891 -0.0941  0.1697 -0.3679
 7954SOL    HW135495   0.562   1.412   0.819 -2.8799  0.0126  1.1141
 7954SOL    HW235496   0.690   1.464   0.866  0.4974  0.7453  1.7751
 7955SOL     OW35497   3.530   1.241   6.357  0.8672  0.6324 -0.4087
 7955SOL    HW135498   3.602   1.181   6.379 -0.8213 -0.2780  2.6231
 7955SOL    HW235499   3.569   1.316   6.402  1.1250 -0.6926  1.5765
 7956SOL     OW35500   2.212   2.786   4.789  0.1509 -0.6173 -0.0316
 7956SOL    HW135501   2.119   2.786   4.766  0.3382  1.5670 -0.7990
 7956SOL    HW235502   2.206   2.838   4.869 -0.6562  0.9248 -1.0961
 7957SOL     OW35503   2.064   2.388   1.566  0.6837 -0.4220 -0.2449
 7957SOL    HW135504   2.141   2.400   1.510  0.6043  0.8280 -0.0923
 7957SOL    HW235505   2.080   2.434   1.648 -1.6490  0.2309 -0.1466
 7958SOL     OW35506   4.716   4.715   6.421 -0.3361  0.5549 -0.7557
 7958SOL    HW135507   0.040   0.041   6.425  1.8505 -1.5741 -0.8277
 7958SOL    HW235508   4.633   0.014   6.447  0.4244  0.8435  1.1894
 7959SOL     OW35509   2.050   3.219   8.120  0.6031  0.5574  0.1681
 7959SOL    HW135510   1.979   3.257   8.170  0.2446 -2.0782  1.6374
 7959SOL    HW235511   2.028   3.157   8.050 -0.4877  3.1215 -1.7696
 7960SOL     OW35512   0.367   1.044   2.858 -0.9639 -0.3687  0.2081
 7960SOL    HW135513   0.382   1.100   2.782 -4.3060 -0.2561 -0.3962
 7960SOL    HW235514   0.416   1.090   2.925 -0.3034 -0.7766  0.0062
 7961SOL     OW35515   4.742   1.510   5.690 -0.1393  0.9250  0.1100
 7961SOL    HW135516   4.668   1.561   5.656 -1.5123 -1.9806 -1.2893
 7961SOL    HW235517   0.065   1.579   5.677  0.8297 -0.2554 -1.3648
 7962SOL     OW35518   4.542   2.846   4.457 -0.4379 -0.1098 -0.3580
 7962SOL    HW135519   4.530   2.911   4.388  2.4165 -0.2590 -1.0290
 7962SOL    HW235520   4.449   2.837   4.475 -0.1779 -1.6692  0.2289
 7963SOL     OW35521   0.806   2.813   5.767 -0.2874  0.4513  0.2126
 7963SOL    HW135522   0.738   2.872   5.735 -0.9022 -1.9341 -2.7492
 7963SOL    HW235523   0.857   2.879   5.816  0.2792  0.5080 -0.4581
 7964SOL     OW35524   2.734   3.421  14.771  0.2308 -0.5079  0.9741
 7964SOL    HW135525   2.791   3.467  14.832 -2.4509 -0.1934  3.2410
 7964SOL    HW235526   2.799   3.406  14.702 -0.1867  2.9350 -0.1838
 7965SOL     OW35527   0.435   3.053  14.272  0.0203  0.0550 -0.0358
 7965SOL    HW135528   0.450   2.958  14.265  2.5339  0.2593  2.2873
 7965SOL    HW235529   0.406   3.080  14.185 -0.0650 -1.9017 -0.6108
 7966SOL     OW35530   0.625   4.725   3.727 -0.7376  0.0804  0.0505
 7966SOL    HW135531   0.717   4.730   3.701 -0.4122  0.3706  1.2785
 7966SOL    HW235532   0.641   4.685   3.813  0.2921 -0.1455 -0.2462
 7967SOL     OW35533   0.614   1.390   2.452 -0.7079 -0.3474  0.4944
 7967SOL    HW135534   0.538   1.395   2.394  1.4094  1.0133 -2.1530
 7967SOL    HW235535   0.634   1.484   2.459 -2.1297 -0.1296  1.7206
 7968SOL     OW35536   1.268   4.421  11.017  0.0129  0.2157  0.0112
 7968SOL    HW135537   1.289   4.514  11.006 -0.8545  0.6415  2.0029
 7968SOL    HW235538   1.284   4.393  10.927 -0.9191 -3.0707  0.8727
 7969SOL     OW35539   4.646   2.865  14.441  0.0523  0.6298 -0.0267
 7969SOL    HW135540   4.597   2.904  14.514  0.1369  1.7582 -0.5763
 7969SOL    HW235541   4.653   2.771  14.457  1.0619  0.5842 -0.7504
 7970SOL     OW35542   1.409   3.636  15.316  0.4833 -0.5600  0.2684
 7970SOL    HW135543   1.316   3.657  15.315  0.6748  0.4546  3.4364
 7970SOL    HW235544   1.414   3.555  15.264  1.5468 -0.3743  0.0703
 7971SOL     OW35545   2.857   4.628   1.082  0.2481 -0.2446 -0.8620
 7971SOL    HW135546   2.762   4.625   1.067  0.2249 -1.4484 -0.4887
 7971SOL    HW235547   2.887   4.548   1.125 -1.0633 -0.8849 -1.1213
 7972SOL     OW35548   3.555   4.303  12.299  0.1386  0.2006 -0.3141
 7972SOL    HW135549   3.599   4.386  12.315 -1.5817  1.0388  0.0309
 7972SOL    HW235550   3.489   4.308  12.368  0.4910 -3.9695  0.3281
 7973SOL     OW35551   0.832   3.736   8.412  0.6013  0.0388  0.0183
 7973SOL    HW135552   0.751   3.734   8.463  1.1604  1.7106  0.9570
 7973SOL    HW235553   0.877   3.657   8.443 -1.6466 -1.4901 -0.6197
 7974SOL     OW35554   1.614   4.456   5.569 -0.2309  0.0160  0.6423
 7974SOL    HW135555   1.645   4.476   5.658 -0.6546 -1.0251  1.0210
 7974SOL    HW235556   1.560   4.378   5.574  0.8823 -0.8641 -0.9355
 7975SOL     OW35557   0.515   4.664  13.110  0.0309 -0.7493  0.1642
 7975SOL    HW135558   0.598   4.618  13.104  0.6859  0.6130 -1.0971
 7975SOL    HW235559   0.461   4.621  13.044  0.5471  1.5824 -1.7511
 7976SOL     OW35560   4.490   1.474   6.786  0.3211  0.2920  0.0089
 7976SOL    HW135561   4.428   1.547   6.786 -1.0301 -0.8724 -0.5658
 7976SOL    HW235562   4.478   1.455   6.879 -0.3895  2.5090  0.3819
 7977SOL     OW35563   3.827   1.542   8.203  0.1495  0.4620  0.1865
 7977SOL    HW135564   3.920   1.538   8.222 -0.0363 -0.3790  0.9227
 7977SOL    HW235565   3.812   1.457   8.161 -1.1264 -0.0981  1.7708
 7978SOL     OW35566   1.635   1.722   7.458  0.1420  0.7504  0.3494
 7978SOL    HW135567   1.642   1.801   7.404 -1.4093  2.6983  2.9605
 7978SOL    HW235568   1.728   1.711   7.479  0.6619 -2.5510 -3.7245
 7979SOL     OW35569   3.446   0.864   3.030 -0.2724  0.0488 -0.3715
 7979SOL    HW135570   3.418   0.776   3.054  2.0316 -0.6929 -0.4630
 7979SOL    HW235571   3.519   0.837   2.975 -0.4023  1.4238 -1.2131
 7980SOL     OW35572   3.912   4.246   6.293 -0.4889 -0.6045 -0.0296
 7980SOL    HW135573   3.971   4.274   6.222 -0.4757 -0.5752 -0.0071
 7980SOL    HW235574   3.981   4.231   6.357  1.3140 -0.5577 -1.9353
 7981SOL     OW35575   1.786   3.571   2.221 -0.2311  0.1234  0.1123
 7981SOL    HW135576   1.724   3.629   2.177 -0.8469 -1.2575 -0.7971
 7981SOL    HW235577   1.722   3.535   2.282 -1.2997  2.5275  0.4257
 7982SOL     OW35578   0.609   0.286   7.610 -0.0358 -0.3582  0.0413
 7982SOL    HW135579   0.559   0.305   7.690 -0.4971 -1.9886  0.1319
 7982SOL    HW235580   0.576   0.345   7.542  0.6143 -2.1574 -1.8370
 7983SOL     OW35581   3.841   1.601   2.445 -0.1882  0.9911  0.2362
 7983SOL    HW135582   3.747   1.580   2.439  0.1194  0.0035 -0.9195
 7983SOL    HW235583   3.864   1.509   2.445  0.2923  1.1111 -0.9316
 7984SOL     OW35584   2.776   4.102   2.430 -0.2114  0.1321  0.7988
 7984SOL    HW135585   2.821   4.019   2.448  0.8199  0.4226 -0.3876
 7984SOL    HW235586   2.850   4.157   2.456  0.4323 -0.4302  0.1807
 7985SOL     OW35587   0.098   2.826   8.115  0.5283 -0.1134  0.2050
 7985SOL    HW135588   0.040   2.775   8.058  2.7289 -1.1712 -1.0408
 7985SOL    HW235589   0.171   2.767   8.134 -1.6436 -2.7258  0.4320
 7986SOL     OW35590   2.108   4.591  14.945  0.5680 -0.1679  0.2283
 7986SOL    HW135591   2.142   4.531  15.011  2.3057 -0.4145 -0.8896
 7986SOL    HW235592   2.142   4.675  14.978  1.0815 -0.2524 -0.0843
 7987SOL     OW35593   2.953   0.923  12.302 -0.0291  0.0245  0.1156
 7987SOL    HW135594   2.874   0.953  12.346 -0.4164 -0.0699 -0.5207
 7987SOL    HW235595   3.025   0.960  12.353  0.5109  3.2201 -2.9981
 7988SOL     OW35596   3.028   1.066   8.836  0.3728 -0.6549  0.7977
 7988SOL    HW135597   3.105   1.043   8.887  1.4753  1.4431  0.1067
 7988SOL    HW235598   2.972   1.103   8.904  1.0766  0.0332  0.9969
 7989SOL     OW35599   2.512   3.773   8.898  0.0902 -0.3811  0.2504
 7989SOL    HW135600   2.595   3.808   8.930 -0.2014 -0.3158  0.9326
 7989SOL    HW235601   2.525   3.682   8.926  2.2745  0.5863  2.3099
 7990SOL     OW35602   2.274   4.614   5.721  0.5326  0.0559 -0.1669
 7990SOL    HW135603   2.324   4.669   5.781  0.5224 -1.2648  1.0545
 7990SOL    HW235604   2.343   4.581   5.665 -1.5492 -2.2109 -1.4083
 7991SOL     OW35605   2.919   0.681  10.962  0.0907 -0.7224  0.1529
 7991SOL    HW135606   2.848   0.646  10.908 -1.1685  1.3193  0.4821
 7991SOL    HW235607   2.858   0.709  11.030 -1.6900 -1.1392 -1.2641
 7992SOL     OW35608   2.204   3.759   3.221  0.2774  0.3359  0.3913
 7992SOL    HW135609   2.251   3.720   3.147  0.4598 -0.0228  0.6906
 7992SOL    HW235610   2.280   3.768   3.280  0.7513 -0.6311 -0.0534
 7993SOL     OW35611   1.697   0.713   6.421 -0.3189 -0.2373  0.2445
 7993SOL    HW135612   1.645   0.759   6.355 -0.7309 -2.3953 -0.9435
 7993SOL    HW235613   1.659   0.626   6.412 -2.8183  1.1216 -2.4758
 7994SOL     OW35614   3.715   3.018   8.565  0.1158 -0.4357 -0.0571
 7994SOL    HW135615   3.729   3.072   8.488  0.5981 -2.5134 -1.4388
 7994SOL    HW235616   3.658   2.949   8.531 -1.1493  0.4616  0.2569
 7995SOL     OW35617   2.595   3.727   3.575  0.1487  0.0882  0.3449
 7995SOL    HW135618   2.635   3.678   3.647  0.9670 -0.5468 -0.5238
 7995SOL    HW235619   2.645   3.808   3.579  0.8866 -0.3766  0.6869
 7996SOL     OW35620   3.542   1.340  16.161 -0.3160  0.0235 -0.3208
 7996SOL    HW135621   3.557   1.415  16.104 -3.4708  0.9592  0.0529
 7996SOL    HW235622   3.503   1.391  16.232  0.6258 -1.3270  1.1564
 7997SOL     OW35623   3.215   1.198  12.372 -0.2214  0.5518  0.6351
 7997SOL    HW135624   3.193   1.120  12.423  3.0412 -0.1672  0.9408
 7997SOL    HW235625   3.152   1.261  12.408  1.9850  2.0209  1.9391
 7998SOL     OW35626   4.644   0.135   5.056  0.0675 -0.7291  0.4075
 7998SOL    HW135627   4.721   0.079   5.068  0.9279  0.4730  0.5535
 7998SOL    HW235628   4.609   0.147   5.145  0.1802  0.6109  0.2772
 7999SOL     OW35629   0.475   1.939   2.885 -0.6254  0.5166  0.3408
 7999SOL    HW135630   0.413   1.950   2.813 -2.0860  1.0993  1.6965
 7999SOL    HW235631   0.513   2.027   2.879 -0.2054  0.1625 -2.1001
 8000SOL     OW35632   3.914   3.923   5.843 -0.3734  0.7211  0.3249
 8000SOL    HW135633   3.827   3.940   5.880 -0.8931 -1.3244  0.0537
 8000SOL    HW235634   3.929   4.006   5.799 -2.1083  1.0111  0.2728
 8001SOL     OW35635   2.885   2.689   3.371 -0.2426  0.2282  0.0998
 8001SOL    HW135636   2.871   2.782   3.390 -2.6304 -0.0338 -0.3901
 8001SOL    HW235637   2.970   2.678   3.414 -0.2511 -1.2572 -0.2688
 8002SOL     OW35638   1.032   4.172   0.413  0.5100  1.5996  0.4887
 8002SOL    HW135639   0.972   4.184   0.339  0.6679  1.7832  0.3880
 8002SOL    HW235640   1.110   4.211   0.373  1.5389  0.9301  1.8271
 8003SOL     OW35641   4.109   4.518   0.062  0.7993  0.1242  0.1143
 8003SOL    HW135642   4.141   4.529  17.738  2.1003  2.1352  0.8262
 8003SOL    HW235643   4.056   4.439   0.058  2.7294 -1.2651  2.1375
 8004SOL     OW35644   3.768   4.003  12.695  0.0465 -0.5083 -0.3797
 8004SOL    HW135645   3.694   3.964  12.649  0.0126  0.7706 -1.4387
 8004SOL    HW235646   3.816   4.017  12.613  1.9262 -1.6010  0.5327
 8005SOL     OW35647   0.362   1.448  13.391 -0.0822  0.1793 -0.8985
 8005SOL    HW135648   0.410   1.504  13.330  1.6284  0.3310  0.5793
 8005SOL    HW235649   0.302   1.398  13.336  1.7740 -0.9410 -1.9009
 8006SOL     OW35650   1.788   1.335   8.404 -0.5146  0.0427  0.3341
 8006SOL    HW135651   1.835   1.278   8.343 -2.9699 -1.9538  0.2856
 8006SOL    HW235652   1.853   1.404   8.417  0.0919 -0.7276  1.3148
 8007SOL     OW35653   3.462   0.360   0.570 -0.2175 -0.3149 -0.0322
 8007SOL    HW135654   3.502   0.409   0.497 -0.8765 -1.9739 -1.5144
 8007SOL    HW235655   3.371   0.344   0.548 -0.1167  1.4800 -1.8149
 8008SOL     OW35656   3.553   1.564  14.405  0.4381  0.4639  0.2317
 8008SOL    HW135657   3.459   1.574  14.417  0.1791 -1.6165 -0.0620
 8008SOL    HW235658   3.546   1.498  14.335  0.7294 -0.0585  0.6890
 8009SOL     OW35659   0.327   2.705   3.975  0.3453  0.1447 -0.2970
 8009SOL    HW135660   0.356   2.614   3.985  1.6936  1.0740  4.2110
 8009SOL    HW235661   0.402   2.759   3.999  1.9875 -0.7778 -3.3019
 8010SOL     OW35662   2.787   0.492   1.585 -0.1351 -0.2303  0.0660
 8010SOL    HW135663   2.736   0.471   1.507 -1.2459  0.5568  0.5837
 8010SOL    HW235664   2.817   0.579   1.558 -0.2077 -0.0508  0.5666
 8011SOL     OW35665   4.073   2.918   6.923 -0.0879  0.4480 -0.2895
 8011SOL    HW135666   4.115   2.981   6.981  0.5900 -2.2745  2.2112
 8011SOL    HW235667   4.071   2.970   6.843  0.0721  1.3179  0.2708
 8012SOL     OW35668   4.428   2.502   4.345 -0.6982 -0.3332 -0.2825
 8012SOL    HW135669   4.362   2.561   4.379  0.1832 -0.1459  1.1027
 8012SOL    HW235670   4.396   2.414   4.365 -1.0274 -0.3769 -1.0011
 8013SOL     OW35671   1.984   4.367   4.089  0.6301 -0.0145 -0.1598
 8013SOL    HW135672   2.063   4.347   4.140  0.5929 -1.1544 -0.5394
 8013SOL    HW235673   1.915   4.377   4.155 -0.3827  2.1247 -1.5580
 8014SOL     OW35674   1.288   4.692  14.461 -0.0034 -0.0654  0.3861
 8014SOL    HW135675   1.351   4.691  14.389  0.9529  1.0681  1.1969
 8014SOL    HW235676   1.336   4.727  14.537  0.3174 -2.4691  1.2980
 8015SOL     OW35677   2.287   3.011   3.061 -0.5846  0.1957  0.2469
 8015SOL    HW135678   2.302   2.979   2.972 -3.2074  2.2101 -0.9199
 8015SOL    HW235679   2.193   3.031   3.060 -0.8275 -0.8024  2.2542
 8016SOL     OW35680   1.850   2.489   4.368  1.1083  0.3129  0.0616
 8016SOL    HW135681   1.877   2.571   4.409  1.5994  0.1582  0.0420
 8016SOL    HW235682   1.813   2.438   4.440  2.7975  0.8097  1.2772
 8017SOL     OW35683   1.860   0.759   1.271  0.1690 -0.0379  0.6509
 8017SOL    HW135684   1.845   0.811   1.351  0.3255 -0.0668  0.6993
 8017SOL    HW235685   1.955   0.748   1.272  0.1854  0.0283 -0.1187
 8018SOL     OW35686   3.386   4.731   4.914 -0.4702 -0.1968  0.1253
 8018SOL    HW135687   3.439   4.673   4.969  0.7838 -0.5225 -1.4265
 8018SOL    HW235688   3.436   4.723   4.833 -0.8046  2.4044 -0.3523
 8019SOL     OW35689   4.582   2.819   7.020  0.3827  0.2764 -0.2605
 8019SOL    HW135690   4.546   2.735   7.049  0.3958  0.0529 -0.8921
 8019SOL    HW235691   4.631   2.850   7.096 -0.9076  1.7838 -0.0343
 8020SOL     OW35692   0.142   0.949  15.067  0.0606 -0.0375  0.0930
 8020SOL    HW135693   0.165   1.041  15.059  1.0175 -0.0985  2.1748
 8020SOL    HW235694   0.170   0.912  14.984  2.1286 -1.4820  1.4262
 8021SOL     OW35695   4.188   0.016  16.989  0.4607 -0.0078 -0.2244
 8021SOL    HW135696   4.171   0.075  16.916 -0.3363  0.5368  0.3938
 8021SOL    HW235697   4.261   0.059  17.033 -0.5792 -0.5262  2.0408
 8022SOL     OW35698   2.988   1.303   0.098 -0.1512  0.4404  0.0504
 8022SOL    HW135699   3.057   1.363   0.127 -1.7964  1.7340  1.3413
 8022SOL    HW235700   3.000   1.303   0.003 -1.8414  2.6882 -0.1712
 8023SOL     OW35701   2.640   4.416   6.024  0.3291 -0.2820 -0.2675
 8023SOL    HW135702   2.558   4.382   5.989 -0.7889  1.1613  0.9503
 8023SOL    HW235703   2.658   4.480   5.955  0.8063 -0.8649 -0.6859
 8024SOL     OW35704   1.310   2.467   3.479 -0.8511  0.3493 -0.4145
 8024SOL    HW135705   1.392   2.515   3.471 -1.1072  0.7337 -0.7225
 8024SOL    HW235706   1.314   2.426   3.393  4.0641  0.1323 -0.0700
 8025SOL     OW35707   4.533   4.540   7.396 -0.1776 -0.4269  0.3779
 8025SOL    HW135708   4.584   4.614   7.428 -0.8825 -0.3052  1.2417
 8025SOL    HW235709   4.601   4.478   7.371  0.1334  0.1376 -0.1730
 8026SOL     OW35710   1.731   1.145   8.567  0.4229 -0.1638 -0.3929
 8026SOL    HW135711   1.772   1.086   8.505  1.0428 -2.1677  1.9072
 8026SOL    HW235712   1.752   1.229   8.526  0.1824  0.0893 -0.0036
 8027SOL     OW35713   4.192   1.334   2.544 -0.5090  0.7907 -0.1533
 8027SOL    HW135714   4.138   1.304   2.617  0.6504  0.9789  0.7961
 8027SOL    HW235715   4.161   1.424   2.536  1.4022  1.5547  0.9603
 8028SOL     OW35716   0.275   4.359   4.733 -0.1184  0.0005  0.7519
 8028SOL    HW135717   0.338   4.388   4.667 -0.8644  1.7522  0.8014
 8028SOL    HW235718   0.188   4.360   4.693  0.9332  1.3975 -1.4959
 8029SOL     OW35719   2.186   2.380   7.398 -0.0353 -0.2828  0.3978
 8029SOL    HW135720   2.129   2.431   7.339 -0.8167  0.4593  1.7881
 8029SOL    HW235721   2.212   2.447   7.461  1.2329 -2.0021  1.6879
 8030SOL     OW35722   3.204   3.243  14.932 -0.2506 -0.1225 -0.8209
 8030SOL    HW135723   3.123   3.192  14.938  1.2476 -2.5655 -1.1046
 8030SOL    HW235724   3.204   3.282  14.845  0.6687  1.3672 -0.1497
 8031SOL     OW35725   3.634   2.953   4.448 -0.5234 -0.1640  1.0238
 8031SOL    HW135726   3.654   3.046   4.461 -1.0604 -0.0470  1.0357
 8031SOL    HW235727   3.602   2.955   4.357  0.7211 -2.3407  0.5330
 8032SOL     OW35728   3.990   3.506   4.518 -0.4540  0.0434  0.1313
 8032SOL    HW135729   3.952   3.464   4.441 -0.5308 -1.2774  0.8926
 8032SOL    HW235730   4.063   3.565   4.496 -2.4478  1.3136 -3.1215
 8033SOL     OW35731   3.063   4.553  12.428 -0.6334 -0.6459  0.3361
 8033SOL    HW135732   3.016   4.569  12.346 -0.4879 -1.4537  0.1032
 8033SOL    HW235733   3.031   4.623  12.486 -1.7936 -0.2819 -0.7441
 8034SOL     OW35734   3.376   0.611   2.810 -0.0163 -0.1564 -0.0328
 8034SOL    HW135735   3.423   0.531   2.834  1.0039 -0.0389 -1.6737
 8034SOL    HW235736   3.443   0.667   2.771 -0.1593  0.6373  0.8624
 8035SOL     OW35737   1.869   4.669   8.845 -0.2383  0.2035  0.6900
 8035SOL    HW135738   1.783   4.698   8.875 -0.4547 -0.2658  0.5242
 8035SOL    HW235739   1.927   4.682   8.920  1.1445  1.0362 -0.5489
 8036SOL     OW35740   4.296   1.516   5.970  0.1605 -1.0566  0.3445
 8036SOL    HW135741   4.385   1.546   5.991 -1.1371  1.6502  1.9292
 8036SOL    HW235742   4.254   1.602   5.961  1.4861 -0.7774 -3.0582
 8037SOL     OW35743   0.615   3.240   1.890  0.6317 -0.1332 -0.2305
 8037SOL    HW135744   0.633   3.334   1.894 -2.5945  0.5040 -1.3453
 8037SOL    HW235745   0.665   3.215   1.968  0.4403 -2.0440 -0.7264
 8038SOL     OW35746   2.448   3.205   7.451  0.6563 -0.8247  0.0056
 8038SOL    HW135747   2.378   3.270   7.455  0.9522 -0.4637 -0.8415
 8038SOL    HW235748   2.496   3.235   7.374  0.2273 -3.2101 -1.2021
 8039SOL     OW35749   3.659   1.146  13.975  0.0350 -0.5877 -0.4752
 8039SOL    HW135750   3.670   1.149  13.880  2.7948 -0.0203 -0.1498
 8039SOL    HW235751   3.718   1.219  13.994  0.5867 -0.9674 -0.7238
 8040SOL     OW35752   3.748   0.581   1.235  0.0148 -0.0588 -0.3086
 8040SOL    HW135753   3.769   0.670   1.264 -2.7401  0.0779  1.3024
 8040SOL    HW235754   3.829   0.547   1.198 -0.7607  1.6484 -3.6626
 8041SOL     OW35755   2.743   0.830   3.320 -0.6356 -0.5611  0.2887
 8041SOL    HW135756   2.659   0.816   3.275 -0.8745 -0.7129  0.7853
 8041SOL    HW235757   2.758   0.915   3.279 -1.4415 -0.0818  0.9939
 8042SOL     OW35758   1.750   0.327  12.248 -0.3288  1.1187 -0.5227
 8042SOL    HW135759   1.710   0.327  12.335 -0.7458 -2.2421 -0.6928
 8042SOL    HW235760   1.692   0.393  12.212  0.0538  2.0350  0.5668
 8043SOL     OW35761   0.731   3.510   6.066 -0.1288  0.0329  0.0107
 8043SOL    HW135762   0.638   3.532   6.078 -0.0986 -0.0145  0.3183
 8043SOL    HW235763   0.736   3.544   5.976 -2.3547  2.4493  0.7989
 8044SOL     OW35764   3.179   0.562  12.183  0.1954 -0.0118  0.0279
 8044SOL    HW135765   3.228   0.600  12.256 -0.8536  1.0811  0.1615
 8044SOL    HW235766   3.229   0.481  12.171 -1.7034 -1.3377  1.1150
 8045SOL     OW35767   0.652   3.645   3.992 -0.3619  0.0172  0.6660
 8045SOL    HW135768   0.662   3.600   3.908 -0.4832  0.8786  0.2002
 8045SOL    HW235769   0.558   3.636   4.002 -0.7686  1.5629 -1.8599
 8046SOL     OW35770   4.087   4.204   3.521 -0.4383 -0.2858  0.3693
 8046SOL    HW135771   4.068   4.266   3.452 -0.3871  0.1283  0.7269
 8046SOL    HW235772   4.162   4.158   3.483  0.6448  1.6864  0.1193
 8047SOL     OW35773   1.673   2.581   2.040 -0.0355 -0.1096  0.3854
 8047SOL    HW135774   1.690   2.647   1.974 -0.5154 -0.2585  0.1190
 8047SOL    HW235775   1.633   2.513   1.986  0.9686 -2.3242  2.4154
 8048SOL     OW35776   0.595   3.749   8.694  0.0280  0.0125  0.4551
 8048SOL    HW135777   0.586   3.844   8.708  1.7588 -0.0637  1.9443
 8048SOL    HW235778   0.676   3.737   8.742 -0.2498  0.9968  1.1699
 8049SOL     OW35779   4.490   2.085   6.928 -0.4147 -0.2364 -0.0695
 8049SOL    HW135780   4.441   2.163   6.952  0.1914  0.0600  0.2216
 8049SOL    HW235781   4.424   2.024   6.896  0.0981 -0.4634 -0.6993
 8050SOL     OW35782   0.618   2.123   3.157  0.2898  0.1073 -0.1354
 8050SOL    HW135783   0.689   2.136   3.221  0.7104 -1.5634 -0.2878
 8050SOL    HW235784   0.655   2.060   3.096  2.2024 -0.2330  1.3551
 8051SOL     OW35785   2.516   1.890   4.408 -0.1918  0.2994  0.0290
 8051SOL    HW135786   2.489   1.982   4.414  0.0630  0.3785 -0.0379
 8051SOL    HW235787   2.434   1.851   4.377  0.3887 -0.5179 -0.4685
 8052SOL     OW35788   3.875   2.414   6.370 -0.3438 -0.5699 -0.1032
 8052SOL    HW135789   3.924   2.373   6.298  1.5990 -0.2874  1.0441
 8052SOL    HW235790   3.929   2.392   6.446 -0.7435  0.3972  0.4595
 8053SOL     OW35791   3.865   4.304   4.248 -0.0659  0.0741  0.0801
 8053SOL    HW135792   3.821   4.384   4.277 -3.2950 -0.5403 -3.1219
 8053SOL    HW235793   3.932   4.345   4.194  1.0564 -0.9190  0.7055
 8054SOL     OW35794   2.558   0.163   1.106  0.5786 -0.6783 -0.1211
 8054SOL    HW135795   2.604   0.133   1.184 -2.3844  0.0774  1.9167
 8054SOL    HW235796   2.599   0.249   1.095 -2.4771  0.5124 -2.2273
 8055SOL     OW35797   2.762   4.304   4.409 -0.3131 -0.1577 -0.3633
 8055SOL    HW135798   2.810   4.276   4.487  0.5909 -1.5138 -1.4224
 8055SOL    HW235799   2.777   4.399   4.418 -1.2199  0.1485 -2.0261
 8056SOL     OW35800   2.079   1.479   5.445 -0.6692 -0.5238  0.0321
 8056SOL    HW135801   1.988   1.486   5.415 -1.0778 -0.3509  1.3280
 8056SOL    HW235802   2.072   1.418   5.519 -1.5589 -2.4974 -1.6856
 8057SOL     OW35803   1.904   1.308  11.353  0.7203  0.0307  0.1243
 8057SOL    HW135804   1.970   1.378  11.356  0.8775 -0.1421  0.7151
 8057SOL    HW235805   1.826   1.360  11.333  0.3792  0.0199  1.3928
 8058SOL     OW35806   2.873   0.767   6.646 -0.1347  0.2057  0.0327
 8058SOL    HW135807   2.779   0.782   6.656  0.1435  0.4948  2.3123
 8058SOL    HW235808   2.890   0.825   6.573 -0.7352 -0.5419 -0.7021
 8059SOL     OW35809   4.633   3.172   8.574 -0.0505  0.0628 -0.2365
 8059SOL    HW135810   4.582   3.232   8.519 -0.0572 -1.3514 -1.8040
 8059SOL    HW235811   4.574   3.149   8.646  0.5524 -0.6590  0.0192
 8060SOL     OW35812   2.065   1.260   2.173 -0.2831 -0.0968  0.1688
 8060SOL    HW135813   1.996   1.196   2.190  0.6251 -0.8473  0.9971
 8060SOL    HW235814   2.113   1.258   2.255  0.2172 -0.0801 -0.1227
 8061SOL     OW35815   3.444   1.479   9.280 -0.0490 -0.4137 -0.5238
 8061SOL    HW135816   3.522   1.459   9.331  1.3232  0.3879 -2.3218
 8061SOL    HW235817   3.383   1.456   9.350  0.8723  1.4691  0.8704
 8062SOL     OW35818   1.820   1.589   8.198 -0.0342  0.4235 -0.5319
 8062SOL    HW135819   1.876   1.555   8.268  2.2992  1.5639 -1.8137
 8062SOL    HW235820   1.814   1.681   8.224  1.1999  0.3864 -0.1102
 8063SOL     OW35821   2.915   3.625   8.742 -0.2846 -0.2019 -0.6645
 8063SOL    HW135822   2.873   3.707   8.770 -0.4605 -0.1323 -1.1204
 8063SOL    HW235823   2.900   3.571   8.819  0.3120 -1.9878 -1.8164
 8064SOL     OW35824   3.264   3.650  13.972 -0.0492  0.1346 -0.4341
 8064SOL    HW135825   3.318   3.720  13.934  0.2662 -0.2008 -0.6017
 8064SOL    HW235826   3.307   3.619  14.051  0.7722 -0.1638 -0.9954
 8065SOL     OW35827   4.214   1.664  10.388 -0.0557  0.2199  0.1026
 8065SOL    HW135828   4.275   1.624  10.451  0.4269  0.0205 -0.4912
 8065SOL    HW235829   4.274   1.727  10.349 -0.5760  0.0598 -0.9445
 8066SOL     OW35830   0.933   3.493  16.072 -0.5390 -0.0378  0.3719
 8066SOL    HW135831   0.967   3.581  16.079  1.0111 -0.7425  1.4768
 8066SOL    HW235832   0.848   3.514  16.032  0.6769  2.2703 -0.9804
 8067SOL     OW35833   1.304   0.944   3.638 -0.0168 -0.2178  0.4757
 8067SOL    HW135834   1.231   0.970   3.694 -0.4051  0.7001 -0.4583
 8067SOL    HW235835   1.303   0.849   3.624  0.2134 -0.0969 -0.3765
 8068SOL     OW35836   0.468   1.407  15.905  0.0604 -0.1465 -0.5387
 8068SOL    HW135837   0.379   1.440  15.900 -0.2195 -0.9134 -0.7525
 8068SOL    HW235838   0.515   1.479  15.947 -2.8924  0.2251  2.0864
 8069SOL     OW35839   4.674   1.627  13.492 -0.0811  0.4245  0.1010
 8069SOL    HW135840   4.609   1.627  13.562 -0.3152  0.0536 -0.1194
 8069SOL    HW235841   4.702   1.719  13.489  1.2668  0.0678  1.4629
 8070SOL     OW35842   0.179   0.125  14.523  0.0642 -0.0716 -0.1536
 8070SOL    HW135843   0.121   0.192  14.487 -0.1886  1.1762  2.5937
 8070SOL    HW235844   0.118   0.082  14.582  0.4312 -1.3617 -0.7079
 8071SOL     OW35845   1.917   1.327   5.793  0.5258 -0.2606 -0.3172
 8071SOL    HW135846   2.004   1.332   5.752  0.6231 -1.1443 -0.2147
 8071SOL    HW235847   1.877   1.406   5.758  0.6804 -0.2174 -0.4000
 8072SOL     OW35848   1.218   0.785   0.544 -0.1984  0.9138  0.1212
 8072SOL    HW135849   1.212   0.822   0.456 -0.7575 -0.9225 -0.6201
 8072SOL    HW235850   1.137   0.734   0.545  0.0652  0.5095  1.3726
 8073SOL     OW35851   3.159   0.262   2.911  0.1972  0.0571  0.3428
 8073SOL    HW135852   3.230   0.321   2.936  0.0676  0.3528  0.0126
 8073SOL    HW235853   3.081   0.306   2.945 -0.4507  0.3692 -1.5896
 8074SOL     OW35854   4.171   2.497   5.993 -0.0593 -0.3504  0.3123
 8074SOL    HW135855   4.186   2.576   5.941 -0.0088  0.1737  1.1177
 8074SOL    HW235856   4.174   2.428   5.927  0.7171 -0.8959  0.9226
 8075SOL     OW35857   1.095   2.278   6.411 -0.0317  0.3702  0.0144
 8075SOL    HW135858   1.113   2.234   6.494 -0.5920 -0.0864 -0.1023
 8075SOL    HW235859   1.123   2.208   6.351 -0.2469  0.9027 -0.7069
 8076SOL     OW35860   4.148   2.956   8.857  0.4033 -0.1067 -0.0972
 8076SOL    HW135861   4.149   2.861   8.869  1.6657 -0.0011  0.6073
 8076SOL    HW235862   4.239   2.982   8.845 -0.0249  1.3672 -0.2142
 8077SOL     OW35863   3.950   4.295  16.254  0.9349  0.5742  0.3638
 8077SOL    HW135864   3.903   4.308  16.171 -0.0375 -1.0055  0.6754
 8077SOL    HW235865   3.883   4.317  16.318  2.5227  2.3967  1.4127
 8078SOL     OW35866   1.864   3.756   3.980 -0.2272 -0.2094  0.2198
 8078SOL    HW135867   1.936   3.695   3.996 -0.8697 -0.3754  2.4907
 8078SOL    HW235868   1.819   3.762   4.064 -1.7124  0.6221 -0.6285
 8079SOL     OW35869   4.036   3.641   6.477  0.3064  0.2984  0.0842
 8079SOL    HW135870   4.007   3.678   6.560 -1.1601 -0.0068 -0.2807
 8079SOL    HW235871   4.099   3.573   6.501  0.8282  1.3586  1.6816
 8080SOL     OW35872   4.354   1.834   4.125 -0.1132  0.1676  0.2756
 8080SOL    HW135873   4.267   1.850   4.089 -0.1419 -0.2848  0.1351
 8080SOL    HW235874   4.390   1.922   4.114 -1.4466  0.7541  0.5934
 8081SOL     OW35875   3.234   0.886  16.362 -0.0508 -0.0923  0.1338
 8081SOL    HW135876   3.175   0.915  16.292 -0.2479  1.0047  0.7586
 8081SOL    HW235877   3.203   0.795  16.366  0.2076 -0.1807  0.1213
 8082SOL     OW35878   4.075   4.348  10.130  0.0445 -0.1393 -0.2350
 8082SOL    HW135879   4.091   4.281  10.196  2.4609  0.8931  0.1986
 8082SOL    HW235880   4.061   4.292  10.053 -1.1008 -0.1817 -0.0017
 8083SOL     OW35881   1.631   4.164   3.534  0.0280 -0.4064 -0.3277
 8083SOL    HW135882   1.598   4.252   3.517 -0.0426 -0.6156 -1.2488
 8083SOL    HW235883   1.673   4.131   3.454 -1.0509 -1.1233 -0.5946
 8084SOL     OW35884   3.731   4.702  15.554  0.2554  0.6948  0.1090
 8084SOL    HW135885   3.680   4.677  15.476 -0.1034  2.3340 -0.1720
 8084SOL    HW235886   3.669   4.683  15.624 -1.4591  1.0783 -1.2791
 8085SOL     OW35887   3.520   0.856   5.420  0.4498 -0.1572  0.0077
 8085SOL    HW135888   3.587   0.874   5.486  0.1627 -1.1309  0.5644
 8085SOL    HW235889   3.570   0.880   5.342  2.1565 -0.2027  1.0921
 8086SOL     OW35890   1.656   3.449   7.065 -0.1839 -0.3846  0.2495
 8086SOL    HW135891   1.660   3.543   7.082  1.4942 -0.1893 -1.2441
 8086SOL    HW235892   1.586   3.437   7.001  1.3618 -1.0100 -1.3302
 8087SOL     OW35893   2.921   4.635   9.227 -0.3230  0.4631  0.0606
 8087SOL    HW135894   2.878   4.677   9.302 -1.2035 -0.8182  0.2885
 8087SOL    HW235895   2.848   4.645   9.166  0.2162  1.1916 -0.4576
 8088SOL     OW35896   4.307   1.780  14.089 -0.7988  1.0569 -0.9932
 8088SOL    HW135897   4.256   1.839  14.145 -1.9036 -1.8677  1.0982
 8088SOL    HW235898   4.256   1.699  14.097  0.7657  0.2013  0.3879
 8089SOL     OW35899   3.968   1.389   4.184 -0.3903  0.4426 -0.4145
 8089SOL    HW135900   3.980   1.444   4.261  1.8524  0.0996 -0.5140
 8089SOL    HW235901   4.004   1.439   4.110 -1.1098  1.9915  0.2948
 8090SOL     OW35902   1.520   0.108   3.220 -0.4693 -0.2436  0.1678
 8090SOL    HW135903   1.591   0.170   3.205 -0.1376 -0.7329 -0.2597
 8090SOL    HW235904   1.475   0.136   3.300 -0.1620 -2.7354  1.2030
 8091SOL     OW35905   3.705   3.550  10.951 -0.3304 -0.0617  0.1534
 8091SOL    HW135906   3.702   3.645  10.960  0.4465 -0.0692  0.5048
 8091SOL    HW235907   3.799   3.546  10.937 -0.7533  0.2010 -2.6552
 8092SOL     OW35908   2.818   2.471   0.476  0.4335  0.2282  0.4326
 8092SOL    HW135909   2.880   2.427   0.535  0.8987  1.1312  0.6152
 8092SOL    HW235910   2.815   2.561   0.508  1.1393  0.0410  1.0477
 8093SOL     OW35911   4.164   3.340   3.610 -0.7826 -0.1072 -0.2741
 8093SOL    HW135912   4.248   3.384   3.596 -1.4963  0.8309 -1.5532
 8093SOL    HW235913   4.172   3.273   3.542  1.8684  1.2776 -1.3241
 8094SOL     OW35914   1.498   3.045  17.307 -0.0453  0.5179 -0.4300
 8094SOL    HW135915   1.512   2.951  17.324 -0.2859  0.1901 -2.0600
 8094SOL    HW235916   1.478   3.075  17.396 -0.5574 -2.0130  0.3346
 8095SOL     OW35917   3.978   1.908   3.419 -0.2168 -0.2710  0.2771
 8095SOL    HW135918   3.909   1.846   3.396  0.5672 -0.9029 -0.3872
 8095SOL    HW235919   4.050   1.858   3.380  0.0838  0.4467 -0.0770
 8096SOL     OW35920   0.690   4.500   4.798  0.5477 -0.0473  0.6151
 8096SOL    HW135921   0.688   4.442   4.721 -0.7772 -1.3784  1.6429
 8096SOL    HW235922   0.672   4.434   4.865 -0.9226 -2.1380 -1.8485
 8097SOL     OW35923   1.280   4.168   1.152 -0.8149 -0.0887  0.0862
 8097SOL    HW135924   1.213   4.146   1.087 -1.5146  0.4722  0.6135
 8097SOL    HW235925   1.291   4.091   1.207 -0.7537 -0.7308 -0.8195
 8098SOL     OW35926   2.862   1.198   4.620  0.5159  0.2540 -0.6571
 8098SOL    HW135927   2.770   1.195   4.645  0.7088  1.4530  0.1741
 8098SOL    HW235928   2.908   1.210   4.703  4.0328  0.1510 -2.5850
 8099SOL     OW35929   2.139   3.037  15.635  0.4256  0.1706 -0.4669
 8099SOL    HW135930   2.103   2.990  15.559  1.1286  1.5497 -1.6530
 8099SOL    HW235931   2.137   3.129  15.609  0.7459  0.2445 -0.2257
 8100SOL     OW35932   1.258   2.537   1.584  0.7038  0.0729 -0.0330
 8100SOL    HW135933   1.303   2.483   1.518 -0.1022 -0.9836  0.2705
 8100SOL    HW235934   1.174   2.491   1.581  2.4223 -3.0609  0.1181
 8101SOL     OW35935   4.611   0.938   4.681 -0.0318  0.2076 -0.2095
 8101SOL    HW135936   4.651   0.955   4.766 -2.6659 -0.2407  1.1316
 8101SOL    HW235937   4.679   0.888   4.637 -0.2953  0.9855 -1.4995
 8102SOL     OW35938   2.394   3.791   6.392 -0.6286 -0.1097 -0.6084
 8102SOL    HW135939   2.413   3.883   6.413  2.4818 -1.3025  1.7400
 8102SOL    HW235940   2.323   3.799   6.328  1.2923 -0.0400 -2.7479
 8103SOL     OW35941   2.541   0.597   6.458  0.1377  0.0022  0.5486
 8103SOL    HW135942   2.460   0.640   6.432  0.5320  0.9435  0.8679
 8103SOL    HW235943   2.514   0.507   6.472  1.3468 -0.6167 -1.0587
 8104SOL     OW35944   0.750   1.983   9.034  0.1826 -0.0587 -0.1790
 8104SOL    HW135945   0.739   1.891   9.060 -1.1318 -0.3579 -1.8238
 8104SOL    HW235946   0.702   1.982   8.951 -1.4662  1.6949  0.7750
 8105SOL     OW35947   1.717   0.659  11.627 -0.2734  0.2098 -0.1048
 8105SOL    HW135948   1.758   0.736  11.587 -0.4764  0.4185  0.0932
 8105SOL    HW235949   1.796   0.630  11.673 -0.3767  2.3088  1.3562
 8106SOL     OW35950   3.215   1.590   4.979 -0.6546 -0.0895 -0.6422
 8106SOL    HW135951   3.215   1.497   5.001 -0.8738  0.5875  2.1812
 8106SOL    HW235952   3.153   1.618   5.047 -0.8745 -0.9956 -0.4711
 8107SOL     OW35953   3.874   3.347   4.326 -0.2995 -0.3771  0.0373
 8107SOL    HW135954   3.782   3.374   4.329 -0.4824 -1.0051  0.1665
 8107SOL    HW235955   3.887   3.376   4.236 -0.7362 -1.7803 -0.4853
 8108SOL     OW35956   2.309   2.983   6.021  0.2872 -0.0782  0.3736
 8108SOL    HW135957   2.392   3.027   6.041 -0.5918  1.4679  0.6015
 8108SOL    HW235958   2.335   2.936   5.942 -1.3224 -0.2164 -0.0704
 8109SOL     OW35959   1.646   2.563  14.969 -0.1833 -0.4852 -0.1125
 8109SOL    HW135960   1.740   2.558  14.987 -0.1298  0.1365 -0.2262
 8109SOL    HW235961   1.617   2.517  15.048  0.8130  1.9156  1.6603
 8110SOL     OW35962   0.681   0.725  15.698 -0.3176 -0.6778  0.5635
 8110SOL    HW135963   0.589   0.750  15.702 -0.1086  0.3011 -0.7287
 8110SOL    HW235964   0.681   0.656  15.764 -1.8549 -0.7440  0.4934
 8111SOL     OW35965   2.216   0.307   3.662 -0.2588  0.1288 -0.3976
 8111SOL    HW135966   2.182   0.391   3.692  2.2271  1.9788 -2.6896
 8111SOL    HW235967   2.168   0.250   3.722  0.0630  0.2013 -0.0709
 8112SOL     OW35968   0.767   0.663   0.739  0.3232  0.6425  0.3380
 8112SOL    HW135969   0.814   0.742   0.766 -0.8358  0.8129  1.8288
 8112SOL    HW235970   0.752   0.626   0.826 -1.3087 -0.1381 -0.2889
 8113SOL     OW35971   1.625   3.513  14.218 -0.3027 -0.0573 -0.3010
 8113SOL    HW135972   1.543   3.492  14.172 -0.1682 -1.2168  0.0057
 8113SOL    HW235973   1.685   3.483  14.150 -2.0300 -2.0486 -0.9641
 8114SOL     OW35974   0.462   4.540   3.257 -0.2970  0.1431  0.0399
 8114SOL    HW135975   0.370   4.551   3.279 -0.3329 -0.2826  0.0902
 8114SOL    HW235976   0.500   4.542   3.345  0.2700 -0.0904 -0.1974
 8115SOL     OW35977   2.154   4.370  14.749 -0.8539  0.3719 -0.0747
 8115SOL    HW135978   2.188   4.311  14.816  1.5749 -0.3071 -1.8997
 8115SOL    HW235979   2.144   4.451  14.799  0.5824 -1.7109  3.5754
 8116SOL     OW35980   2.049   1.812   6.065 -0.6375  0.0746  0.3022
 8116SOL    HW135981   2.090   1.752   6.126  1.9464 -0.1027 -1.6417
 8116SOL    HW235982   2.120   1.829   6.004 -0.4540  3.0466  1.3314
 8117SOL     OW35983   0.177   0.274   4.493  0.5751 -0.0853  0.1677
 8117SOL    HW135984   0.129   0.347   4.455 -1.5100 -1.3649  0.2848
 8117SOL    HW235985   0.248   0.320   4.537 -0.0470  1.7486 -0.7818
 8118SOL     OW35986   3.895   4.664   7.849 -0.2543  0.0557  0.1373
 8118SOL    HW135987   3.958   4.732   7.823  2.6456 -2.4978  0.4316
 8118SOL    HW235988   3.960   4.603   7.884 -0.5351 -0.5103 -0.3330
 8119SOL     OW35989   2.476   2.146   2.789  0.1785 -0.2194 -0.6564
 8119SOL    HW135990   2.388   2.108   2.787  0.0855 -0.0356 -0.1770
 8119SOL    HW235991   2.459   2.222   2.844 -0.0889  0.1560 -1.2612
 8120SOL     OW35992   1.910   1.105  12.666  0.2328 -0.6699 -0.4710
 8120SOL    HW135993   1.988   1.146  12.627 -0.7664  1.0329 -0.6885
 8120SOL    HW235994   1.881   1.173  12.728 -0.5681 -1.8732  0.4677
 8121SOL     OW35995   3.693   0.772   0.077 -0.2708  0.5382 -0.2928
 8121SOL    HW135996   3.670   0.829   0.150  0.2045 -2.0963  1.9175
 8121SOL    HW235997   3.606   0.765   0.039 -0.5411 -2.0695  0.7933
 8122SOL     OW35998   2.026   4.394  17.403 -0.6170  0.2016 -0.1505
 8122SOL    HW135999   2.092   4.327  17.421 -1.1840 -0.7380 -1.5908
 8122SOL    HW236000   1.998   4.425  17.490 -1.1693  0.0590 -0.2729
 8123SOL     OW36001   0.078   1.240   5.620  0.0788  0.4764  0.6275
 8123SOL    HW136002   0.024   1.313   5.650 -2.1039 -0.1929 -1.6596
 8123SOL    HW236003   0.167   1.276   5.622 -0.3864  1.7507 -0.8913
 8124SOL     OW36004   2.278   2.983   2.014 -0.4528  0.1964 -0.3593
 8124SOL    HW136005   2.194   2.940   1.999 -0.9239  0.3468  1.7807
 8124SOL    HW236006   2.289   2.968   2.108 -1.4038  0.6487 -0.1756
 8125SOL     OW36007   4.198   1.599   2.488 -0.1269  0.6637  0.4967
 8125SOL    HW136008   4.287   1.614   2.456 -0.1478  0.2480  0.2452
 8125SOL    HW236009   4.149   1.605   2.407  0.0278  0.6729  0.4035
 8126SOL     OW36010   4.473   3.379   4.814  0.0530  0.3560  0.2942
 8126SOL    HW136011   4.526   3.436   4.758 -0.3687 -0.4773 -0.9410
 8126SOL    HW236012   4.509   3.410   4.897  0.1704  2.4015 -0.5081
 8127SOL     OW36013   0.839   4.453   6.855  0.3188  0.4280  0.0238
 8127SOL    HW136014   0.902   4.491   6.794 -1.8568  1.8111 -1.3925
 8127SOL    HW236015   0.757   4.475   6.811  1.0088  1.1245 -0.9243
 8128SOL     OW36016   0.438   4.404  16.884 -0.1415 -0.3283 -0.3904
 8128SOL    HW136017   0.461   4.330  16.828  0.6060 -0.2011 -0.2484
 8128SOL    HW236018   0.468   4.385  16.973  1.2851  1.4237 -0.4991
 8129SOL     OW36019   2.727   0.561  10.840  0.1242 -0.2104 -0.1656
 8129SOL    HW136020   2.644   0.597  10.870 -1.6619 -1.6957 -3.2540
 8129SOL    HW236021   2.724   0.473  10.878 -0.9119 -0.2378 -0.3317
 8130SOL     OW36022   4.479   0.475  10.465 -0.4581 -0.2335 -0.1766
 8130SOL    HW136023   4.458   0.564  10.436 -0.9765 -0.4034 -0.3265
 8130SOL    HW236024   4.574   0.477  10.447 -0.4425  0.4924  0.0056
 8131SOL     OW36025   1.390   0.145   6.768  0.0676 -0.1368  0.3668
 8131SOL    HW136026   1.440   0.225   6.754 -0.7088 -0.0166 -1.8441
 8131SOL    HW236027   1.368   0.153   6.860 -1.4704  1.1593 -0.1139
 8132SOL     OW36028   4.344   0.797   2.278 -0.2930 -0.0448  0.1787
 8132SOL    HW136029   4.424   0.766   2.236 -0.5064 -1.3298  0.7330
 8132SOL    HW236030   4.282   0.813   2.207  0.4872  2.0487 -0.0441
 8133SOL     OW36031   3.898   0.806  13.583  0.5660  0.3696  0.3961
 8133SOL    HW136032   3.818   0.756  13.568 -0.4867  2.0362  0.5294
 8133SOL    HW236033   3.965   0.749  13.545  1.2205  1.6303 -0.3258
 8134SOL     OW36034   2.264   4.433   1.971 -0.4928 -0.3897 -0.4253
 8134SOL    HW136035   2.215   4.498   2.021 -0.6066 -0.1102 -0.8994
 8134SOL    HW236036   2.337   4.490   1.946  0.8894 -1.3700  1.3673
 8135SOL     OW36037   1.120   2.051   6.279 -0.3340  0.2814  0.1761
 8135SOL    HW136038   1.054   1.995   6.240  2.1891 -1.2413 -1.8864
 8135SOL    HW236039   1.203   2.014   6.250  0.1191  0.1523  1.6192
 8136SOL     OW36040   0.471   0.640  10.911  0.2253 -0.1427 -0.0702
 8136SOL    HW136041   0.410   0.604  10.846  0.4536 -0.0416 -0.3418
 8136SOL    HW236042   0.546   0.580  10.919  0.3534 -0.4038 -3.1066
 8137SOL     OW36043   3.745   0.226  11.558 -0.3190 -0.3995  0.0999
 8137SOL    HW136044   3.763   0.184  11.642 -0.6938 -2.0117 -0.6384
 8137SOL    HW236045   3.813   0.179  11.510 -2.0648 -2.2357 -0.5556
 8138SOL     OW36046   0.377   2.253  14.729  0.2529  0.2841 -0.1614
 8138SOL    HW136047   0.421   2.173  14.757 -0.0408 -0.2826 -1.3477
 8138SOL    HW236048   0.365   2.300  14.812 -1.7178  3.1048 -2.0522
 8139SOL     OW36049   3.034   0.863   0.364  0.5215  0.1093 -0.1232
 8139SOL    HW136050   3.070   0.898   0.283  0.7216  1.8354  0.7268
 8139SOL    HW236051   3.062   0.771   0.359 -0.5150 -0.2208  0.0999
 8140SOL     OW36052   1.397   4.574   6.523  0.1753  0.7733  0.4458
 8140SOL    HW136053   1.403   4.617   6.437 -4.0655  1.1033  0.3430
 8140SOL    HW236054   1.486   4.539   6.533 -0.4202 -1.0762 -0.7517
 8141SOL     OW36055   1.832   2.722   3.945 -0.3978  0.4215 -0.0556
 8141SOL    HW136056   1.766   2.722   3.876 -0.1420  2.4122 -0.3045
 8141SOL    HW236057   1.794   2.791   3.999 -0.1196  1.0012 -0.5957
 8142SOL     OW36058   4.253   3.209   0.940 -0.4524 -0.0885  0.2341
 8142SOL    HW136059   4.330   3.260   0.915 -0.8060  0.4324  0.2067
 8142SOL    HW236060   4.262   3.224   1.034  3.3748  1.0053 -0.3074
 8143SOL     OW36061   0.196   3.212   0.515 -0.5904  0.1381 -0.4812
 8143SOL    HW136062   0.186   3.176   0.427  0.6181 -0.6517 -0.2988
 8143SOL    HW236063   0.169   3.297   0.481 -1.7974 -0.4737 -1.0241
 8144SOL     OW36064   4.628   1.013   2.524  0.4975 -0.0751  0.1129
 8144SOL    HW136065   4.621   1.039   2.432  1.1499 -0.3222 -0.0046
 8144SOL    HW236066   4.612   1.101   2.557  0.8452  0.3311 -0.7867
 8145SOL     OW36067   3.019   0.580   3.995  0.1575  0.0350 -0.3911
 8145SOL    HW136068   3.001   0.574   4.089 -0.1895  1.5651 -0.3634
 8145SOL    HW236069   2.979   0.666   3.984  0.0635  0.5359  3.9587
 8146SOL     OW36070   2.086   0.081  11.522 -0.3856 -0.7204 -0.7028
 8146SOL    HW136071   2.032   0.060  11.597 -0.1682  0.0720 -0.3289
 8146SOL    HW236072   2.176   0.070  11.553 -1.3497 -2.1170  1.5364
 8147SOL     OW36073   1.024   2.658  14.798 -0.0680 -0.3251  0.5802
 8147SOL    HW136074   1.081   2.596  14.752  0.7171  1.5654 -1.0097
 8147SOL    HW236075   1.030   2.720  14.725 -2.8816 -0.2058  0.4856
 8148SOL     OW36076   3.614   2.545   6.280  0.5229 -0.8738  0.1285
 8148SOL    HW136077   3.689   2.495   6.312  1.7994  0.5257 -0.6902
 8148SOL    HW236078   3.602   2.599   6.357 -0.9981 -0.2505 -0.5344
 8149SOL     OW36079   2.693   1.141   4.034  0.1480 -0.2409 -0.2891
 8149SOL    HW136080   2.766   1.179   4.083 -1.7868  3.1056  0.0125
 8149SOL    HW236081   2.627   1.182   4.090 -0.5760  0.1270 -1.4300
 8150SOL     OW36082   2.650   0.833  11.345  0.6739  0.3906 -0.4831
 8150SOL    HW136083   2.661   0.746  11.305  0.3828 -0.1567  0.6203
 8150SOL    HW236084   2.612   0.815  11.431 -0.2670  1.0801 -0.7596
 8151SOL     OW36085   0.950   0.385   5.370 -0.4600  0.0554  0.1460
 8151SOL    HW136086   0.893   0.440   5.316 -1.4942 -1.0963  0.0658
 8151SOL    HW236087   1.024   0.442   5.350 -1.4062  1.4448  0.6837
 8152SOL     OW36088   4.547   2.803   0.260  0.3660  0.2351  0.1438
 8152SOL    HW136089   4.579   2.784   0.348 -3.5690  2.2285  1.9814
 8152SOL    HW236090   4.478   2.738   0.252 -1.9457  2.6812  0.2371
 8153SOL     OW36091   2.714   1.212   0.041 -0.0482 -0.0821  0.1997
 8153SOL    HW136092   2.807   1.215   0.061 -0.3449 -0.1564  1.5398
 8153SOL    HW236093   2.685   1.137   0.093 -0.9981  0.0530 -0.1312
 8154SOL     OW36094   4.614   1.051   5.239 -0.1844 -0.0882 -0.2474
 8154SOL    HW136095   4.647   1.074   5.325 -0.0410 -1.8398  0.1647
 8154SOL    HW236096   4.551   0.982   5.257 -0.8219  1.4348  3.2557
 8155SOL     OW36097   0.494   1.527   3.558 -0.6403  0.4097 -0.5528
 8155SOL    HW136098   0.485   1.443   3.512  0.4818  0.7341 -1.3691
 8155SOL    HW236099   0.402   1.545   3.578 -0.6429  1.0375 -1.1362
 8156SOL     OW36100   2.773   2.525   5.480  0.3653 -0.3650 -0.1617
 8156SOL    HW136101   2.810   2.455   5.534 -2.9052 -0.9343  1.3251
 8156SOL    HW236102   2.852   2.572   5.454  0.7586 -1.7022 -1.4072
 8157SOL     OW36103   4.212   4.194  14.331  0.2671 -0.7092  0.4475
 8157SOL    HW136104   4.137   4.195  14.390 -1.0878  1.7348 -1.3185
 8157SOL    HW236105   4.283   4.226  14.387 -1.5774  3.2995  0.4873
 8158SOL     OW36106   4.728   3.912   5.456  0.2513  0.1134 -0.3092
 8158SOL    HW136107   4.686   3.918   5.370  2.7062  2.6162 -1.3627
 8158SOL    HW236108   4.664   3.860   5.505 -0.7148  1.1553 -0.4427
 8159SOL     OW36109   3.677   2.106   8.171 -0.0879  0.1388 -0.3828
 8159SOL    HW136110   3.712   2.094   8.260  1.0184  2.4450 -0.5074
 8159SOL    HW236111   3.659   2.023   8.127  1.0730  1.5416 -3.4201
 8160SOL     OW36112   2.746   1.886   2.648 -0.0509 -0.1630 -0.0293
 8160SOL    HW136113   2.667   1.853   2.606 -1.5294  2.9962  0.2848
 8160SOL    HW236114   2.815   1.889   2.581 -0.2567  2.1674 -0.1247
 8161SOL     OW36115   0.205   3.519   9.054  0.0473  0.0155 -0.4177
 8161SOL    HW136116   0.122   3.528   9.009 -1.0727 -0.1845  1.5961
 8161SOL    HW236117   0.266   3.584   9.018 -1.8302  2.1239  0.1795
 8162SOL     OW36118   4.660   2.589  14.468 -0.0404  0.0371  0.0745
 8162SOL    HW136119   4.703   2.553  14.546 -1.6377  0.0239  0.9453
 8162SOL    HW236120   4.723   2.557  14.403 -2.2692 -0.1774 -1.9900
 8163SOL     OW36121   2.033   2.972  15.121  0.8704  0.6878  0.1738
 8163SOL    HW136122   2.063   3.050  15.074  0.5091  0.9580  0.3923
 8163SOL    HW236123   1.956   2.955  15.067  2.3010 -1.0657 -1.3437
 8164SOL     OW36124   2.590   1.324   6.761 -0.2779 -0.4178  0.0904
 8164SOL    HW136125   2.496   1.306   6.757 -0.4710  0.4909  0.4009
 8164SOL    HW236126   2.629   1.237   6.753  1.3206  0.5205 -2.1971
 8165SOL     OW36127   3.999   1.287   3.071  0.2737 -0.0665  0.2050
 8165SOL    HW136128   4.082   1.332   3.057  0.2513  0.5996  2.1429
 8165SOL    HW236129   3.956   1.326   3.148  4.1309  0.6678  1.9918
 8166SOL     OW36130   2.007   2.664   1.630  0.1543 -0.4757 -0.0549
 8166SOL    HW136131   2.072   2.696   1.569  0.3520  2.2352  1.5975
 8166SOL    HW236132   2.045   2.677   1.717  0.1515  0.0804 -0.1389
 8167SOL     OW36133   3.538   2.280   6.222  0.0003  0.3897 -0.4117
 8167SOL    HW136134   3.443   2.289   6.237 -0.4045 -1.9452 -1.5097
 8167SOL    HW236135   3.567   2.367   6.249 -1.0527  0.7795 -0.5114
 8168SOL     OW36136   2.794   1.073   8.650  0.4747 -0.5126 -0.0092
 8168SOL    HW136137   2.785   0.990   8.604 -1.5383 -0.1645 -0.2307
 8168SOL    HW236138   2.869   1.050   8.705 -0.3469 -0.0465  1.3150
 8169SOL     OW36139   1.845   3.176  17.401  0.0609  0.8583  0.1212
 8169SOL    HW136140   1.764   3.217  17.432 -0.5840 -0.4767  0.2497
 8169SOL    HW236141   1.839   3.100  17.459 -1.3731  1.2971  0.5531
 8170SOL     OW36142   4.415   1.375   8.931 -0.0618  0.4029  0.3089
 8170SOL    HW136143   4.373   1.289   8.929  0.0059  0.3815 -0.2560
 8170SOL    HW236144   4.378   1.411   9.011 -0.9009 -1.0308  0.5853
 8171SOL     OW36145   1.829   4.269   0.319  0.3581  0.5093 -0.0132
 8171SOL    HW136146   1.915   4.284   0.359 -0.9103  3.0832  1.7304
 8171SOL    HW236147   1.774   4.317   0.380  2.2605 -0.2239  2.2898
 8172SOL     OW36148   3.110   0.542   3.085 -0.1093  0.6250 -0.3054
 8172SOL    HW136149   3.205   0.550   3.094  0.0872 -1.6196 -0.2829
 8172SOL    HW236150   3.085   0.589   3.165  4.1193  2.4419 -0.0196
 8173SOL     OW36151   2.980   3.139   1.579  0.0624  0.0152  0.0364
 8173SOL    HW136152   2.959   3.206   1.644 -0.0425 -0.5921  0.6279
 8173SOL    HW236153   3.048   3.186   1.531  1.8124 -0.1534  2.3721
 8174SOL     OW36154   2.359   1.026   7.260  0.1713  0.0598 -0.2061
 8174SOL    HW136155   2.411   1.046   7.182  0.4334  2.0312  0.4783
 8174SOL    HW236156   2.426   1.010   7.327  1.4773  0.6079 -1.3791
 8175SOL     OW36157   2.321   2.721   7.255  0.5903  0.6495  0.1087
 8175SOL    HW136158   2.364   2.679   7.330 -0.9500 -2.8507 -0.9806
 8175SOL    HW236159   2.324   2.812   7.283 -2.4898  0.4402  1.1436
 8176SOL     OW36160   2.126   1.975   2.205  0.3463  0.0232  0.5458
 8176SOL    HW136161   2.120   2.060   2.248 -0.2954  0.1659  0.1765
 8176SOL    HW236162   2.207   1.946   2.246  0.5275  2.1870  1.6827
 8177SOL     OW36163   4.692   4.649  16.584  0.0441  0.0407  0.0438
 8177SOL    HW136164   4.615   4.616  16.631  0.6073  0.3113  1.1523
 8177SOL    HW236165   4.656   4.733  16.556  2.2233  0.5928 -1.1139
 8178SOL     OW36166   2.256   2.299   8.508 -0.0311  0.1908 -0.3661
 8178SOL    HW136167   2.225   2.390   8.505 -0.7797 -0.0767 -0.6876
 8178SOL    HW236168   2.350   2.310   8.526 -0.5975  1.7116  1.6603
 8179SOL     OW36169   1.018   0.594   0.587 -0.0808 -0.4260  0.3375
 8179SOL    HW136170   1.082   0.529   0.616 -0.9531 -1.3672  0.1317
 8179SOL    HW236171   0.972   0.625   0.665  0.5653 -0.4512  0.7276
 8180SOL     OW36172   0.050   0.802   3.437  0.2773  0.2216  0.1947
 8180SOL    HW136173   0.015   0.883   3.474  0.2379 -0.0818  0.8267
 8180SOL    HW236174   0.076   0.838   3.352  1.3006  1.0215  0.8437
 8181SOL     OW36175   0.244   4.274   0.399 -0.2879  0.0809  0.5778
 8181SOL    HW136176   0.259   4.193   0.351 -3.6023 -0.5319  0.5745
 8181SOL    HW236177   0.188   4.249   0.472 -1.3469  0.0840 -0.2252
 8182SOL     OW36178   1.845   0.455  13.553 -0.1671 -0.3051 -0.0610
 8182SOL    HW136179   1.918   0.502  13.512  2.0564 -1.2112  2.8343
 8182SOL    HW236180   1.875   0.366  13.534 -1.7933 -0.9726  0.5639
 8183SOL     OW36181   2.952   4.562   3.605  0.2010 -0.1156  0.1841
 8183SOL    HW136182   3.024   4.520   3.652  0.5548  2.5395  2.0316
 8183SOL    HW236183   2.998   4.603   3.532 -0.1612 -0.1658 -0.0685
 8184SOL     OW36184   4.445   1.616   8.499  0.0901  0.3936  0.1105
 8184SOL    HW136185   4.369   1.666   8.530 -0.9686 -0.3307 -1.3346
 8184SOL    HW236186   4.499   1.612   8.578  2.1821  0.3055 -1.3356
 8185SOL     OW36187   1.887   2.206   2.671  0.0606  0.1564  0.7762
 8185SOL    HW136188   1.961   2.174   2.619 -0.4987  0.6915 -0.3550
 8185SOL    HW236189   1.815   2.205   2.608 -0.5255 -0.2410  1.4513
 8186SOL     OW36190   3.767   0.647   4.365 -0.7557  0.3979 -0.3970
 8186SOL    HW136191   3.855   0.676   4.391 -0.0768 -2.5137  0.5454
 8186SOL    HW236192   3.737   0.713   4.302 -1.3860 -0.2861 -0.8049
 8187SOL     OW36193   4.150   3.091   3.514 -0.1807  0.0189 -0.4377
 8187SOL    HW136194   4.057   3.076   3.497 -1.1081  1.9730  2.9311
 8187SOL    HW236195   4.151   3.005   3.555  0.8780 -0.1392 -0.7971
 8188SOL     OW36196   3.040   4.459   5.353  0.2181  0.3365  0.0008
 8188SOL    HW136197   3.085   4.439   5.271  0.3730 -0.4271  0.2678
 8188SOL    HW236198   3.107   4.474   5.420  1.9760 -1.2093 -1.4213
 8189SOL     OW36199   3.320   2.639   3.673 -0.7607 -0.7425 -0.0357
 8189SOL    HW136200   3.272   2.570   3.719 -1.2408  0.1981  0.8760
 8189SOL    HW236201   3.385   2.587   3.625  1.6735  1.1425  1.2702
 8190SOL     OW36202   3.866   1.787   2.208  0.3639 -0.6924 -0.5466
 8190SOL    HW136203   3.822   1.748   2.284  0.5333  0.7679  0.2930
 8190SOL    HW236204   3.848   1.880   2.223  0.7859 -0.4803 -1.3759
 8191SOL     OW36205   2.002   4.687   9.110 -0.5179 -0.0018  0.0013
 8191SOL    HW136206   2.004   4.599   9.147 -0.7766 -1.2119 -2.8575
 8191SOL    HW236207   2.093   4.706   9.089  0.2141 -1.1139  2.1821
 8192SOL     OW36208   0.179   3.940   7.153  0.0801 -0.2822 -0.6682
 8192SOL    HW136209   0.083   3.947   7.153 -0.2439 -4.6509 -0.3415
 8192SOL    HW236210   0.209   3.995   7.080 -2.1811 -0.0276 -1.4122
 8193SOL     OW36211   4.000   2.159   4.903 -0.4730  0.1828 -0.3033
 8193SOL    HW136212   3.944   2.091   4.939 -3.2874  2.5532 -0.2407
 8193SOL    HW236213   4.079   2.104   4.898  0.3646  1.5166 -2.2199
 8194SOL     OW36214   3.747   1.190   7.816  0.3651  0.3184  0.2924
 8194SOL    HW136215   3.678   1.124   7.804 -0.3742  0.6071  2.8451
 8194SOL    HW236216   3.821   1.135   7.792  0.2798 -0.5810  2.0671
 8195SOL     OW36217   1.295   3.014  10.419 -0.4800  0.2446 -0.0002
 8195SOL    HW136218   1.356   2.956  10.465 -1.5707 -0.2952  0.7780
 8195SOL    HW236219   1.227   2.952  10.393 -2.2880  2.4096 -0.4309
 8196SOL     OW36220   4.316   1.294  12.507  0.1751 -0.4804 -0.0744
 8196SOL    HW136221   4.392   1.278  12.563  0.3591 -0.0679 -0.2085
 8196SOL    HW236222   4.350   1.365  12.453  1.8694  0.2954  2.0269
 8197SOL     OW36223   0.259   3.470   3.688  0.2170  0.1229  0.5877
 8197SOL    HW136224   0.250   3.564   3.705  3.6969  0.1894  2.1267
 8197SOL    HW236225   0.176   3.455   3.644  1.5850 -0.9082 -1.6646
 8198SOL     OW36226   3.463   0.199   3.683  0.4127 -0.0953  0.4775
 8198SOL    HW136227   3.414   0.269   3.640  0.7653  2.6400  4.5404
 8198SOL    HW236228   3.392   0.146   3.720  0.7633 -0.4065  0.6950
 8199SOL     OW36229   2.510   1.445   4.555  0.1750 -0.0111  0.1405
 8199SOL    HW136230   2.497   1.539   4.547 -0.2190 -0.1742 -1.0898
 8199SOL    HW236231   2.597   1.443   4.516  0.6240  1.2173  1.0759
 8200SOL     OW36232   3.233   2.120   5.148 -0.0671  0.3299 -0.3690
 8200SOL    HW136233   3.138   2.115   5.150 -0.0215  0.8365  2.2920
 8200SOL    HW236234   3.267   2.125   5.237 -0.2847 -0.5476 -0.2397
 8201SOL     OW36235   0.897   0.138   3.939  0.5160 -0.1138  0.2791
 8201SOL    HW136236   0.985   0.156   3.971  0.4575 -1.2333  1.0815
 8201SOL    HW236237   0.844   0.114   4.014 -2.3536  0.9445 -1.4178
 8202SOL     OW36238   1.309   3.007   2.703 -0.2260 -0.2080  0.2394
 8202SOL    HW136239   1.381   3.033   2.761 -0.4874 -0.0005  0.4738
 8202SOL    HW236240   1.341   3.025   2.615 -2.5222 -0.3520 -0.6356
 8203SOL     OW36241   0.141   2.573   6.350 -0.4225  0.4565  0.2105
 8203SOL    HW136242   0.231   2.544   6.337 -0.6578 -0.4922  0.7701
 8203SOL    HW236243   0.136   2.580   6.445 -1.9438  0.9285  0.0998
 8204SOL     OW36244   3.893   1.234   8.163 -0.0574  0.0067  0.2024
 8204SOL    HW136245   3.972   1.215   8.114 -1.1249  1.2622 -1.9970
 8204SOL    HW236246   3.928   1.205   8.247 -1.2010  3.3602  1.8493
 8205SOL     OW36247   3.457   3.536   8.550  0.1316  0.0178 -0.2654
 8205SOL    HW136248   3.437   3.627   8.570  2.1325  0.3028  0.4953
 8205SOL    HW236249   3.543   3.518   8.589 -0.5380 -1.6077  0.4597
 8206SOL     OW36250   4.336   4.105   7.674  0.1851 -0.1522 -0.5152
 8206SOL    HW136251   4.363   4.194   7.652  1.5466  0.3323  3.1855
 8206SOL    HW236252   4.348   4.111   7.768 -0.0998 -2.0820 -0.3576
 8207SOL     OW36253   0.879   1.512   6.049 -0.2227 -0.3724  0.2561
 8207SOL    HW136254   0.788   1.525   6.076 -0.2416 -0.2998  0.1559
 8207SOL    HW236255   0.925   1.589   6.082 -0.2939  0.8329 -2.4563
 8208SOL     OW36256   0.835   3.451   0.445  0.3219 -0.0557 -0.0485
 8208SOL    HW136257   0.754   3.457   0.495 -0.5771  0.2876 -1.5497
 8208SOL    HW236258   0.864   3.370   0.486  1.4367  0.6581  0.5669
 8209SOL     OW36259   3.715   3.110   8.069  0.1491  0.2924  0.1589
 8209SOL    HW136260   3.682   3.024   8.093  1.0986  0.1105  0.7952
 8209SOL    HW236261   3.803   3.091   8.037 -0.0896 -0.2167 -0.1990
 8210SOL     OW36262   3.699   3.023   6.618  0.7702 -0.1632 -0.2706
 8210SOL    HW136263   3.725   2.963   6.548  1.7638 -1.3307  1.0942
 8210SOL    HW236264   3.684   2.969   6.695 -0.8401  2.2331  1.1026
 8211SOL     OW36265   2.848   2.393   6.948  0.1508 -0.1915 -0.0824
 8211SOL    HW136266   2.873   2.390   6.856 -1.2461 -0.5243 -0.4610
 8211SOL    HW236267   2.868   2.301   6.968 -0.4387  0.0662  1.7248
 8212SOL     OW36268   4.553   3.600   0.641 -0.1954  0.7260 -0.2386
 8212SOL    HW136269   4.518   3.657   0.710 -0.2001 -0.2575  0.5654
 8212SOL    HW236270   4.620   3.558   0.694 -1.2364  0.7488  1.1095
 8213SOL     OW36271   4.258   3.861  12.150  0.3599  0.2058  0.0494
 8213SOL    HW136272   4.311   3.927  12.105 -0.1912 -0.6024 -1.7611
 8213SOL    HW236273   4.291   3.875  12.239  0.4142  0.6287 -0.0387
 8214SOL     OW36274   1.572   2.591   3.393 -0.0071  0.2594  0.2146
 8214SOL    HW136275   1.650   2.579   3.339 -1.3464 -0.8107 -1.4679
 8214SOL    HW236276   1.579   2.684   3.415  0.3075  0.3559 -0.3169
 8215SOL     OW36277   4.648   3.466  10.459 -0.0866 -0.3734  0.3568
 8215SOL    HW136278   4.602   3.547  10.436  0.9278  0.0504 -0.1746
 8215SOL    HW236279   4.683   3.503  10.539  2.1128 -0.8712 -0.3761
 8216SOL     OW36280   4.426   3.577   2.297  0.5648  0.0405 -0.5590
 8216SOL    HW136281   4.490   3.566   2.227 -0.1402  1.5040 -1.4303
 8216SOL    HW236282   4.467   3.542   2.376 -1.1360 -1.6820 -0.4293
 8217SOL     OW36283   2.178   2.473   5.181 -0.2254 -0.1978 -0.0578
 8217SOL    HW136284   2.233   2.397   5.162  1.4891  1.2012 -0.5997
 8217SOL    HW236285   2.241   2.542   5.200  0.8436 -0.8759 -1.1720
 8218SOL     OW36286   2.892   2.185  10.377 -0.7903 -0.0196  0.0704
 8218SOL    HW136287   2.860   2.136  10.301 -2.1809 -1.3438  1.4994
 8218SOL    HW236288   2.842   2.145  10.449  0.3544 -1.2506  0.1879
 8219SOL     OW36289   0.970   0.872  15.340 -0.4637 -0.1709  0.4815
 8219SOL    HW136290   0.876   0.868  15.357 -0.2335 -1.4948  1.4850
 8219SOL    HW236291   0.974   0.944  15.278 -1.8898  1.3955  2.2277
 8220SOL     OW36292   3.129   3.607   8.358  0.0391  0.2659  0.0349
 8220SOL    HW136293   3.137   3.634   8.450 -2.6599  0.1602  0.3029
 8220SOL    HW236294   3.104   3.692   8.323 -3.3995 -1.0332 -0.6649
 8221SOL     OW36295   3.943   0.807   7.394 -0.0573 -0.2345 -0.9772
 8221SOL    HW136296   3.903   0.846   7.472  1.8683 -0.3372  0.0610
 8221SOL    HW236297   3.992   0.738   7.440  1.4602  0.7799 -1.0718
 8222SOL     OW36298   3.082   1.156   4.432 -0.3984  0.1045 -0.5421
 8222SOL    HW136299   3.150   1.140   4.498 -1.7430 -2.0844  0.3508
 8222SOL    HW236300   3.038   1.073   4.451  1.4216 -1.2898 -2.3988
 8223SOL     OW36301   0.911   3.438  11.924  0.7957  0.1833  0.1314
 8223SOL    HW136302   0.891   3.345  11.917 -0.4754  0.3644  1.3593
 8223SOL    HW236303   1.006   3.442  11.933  0.4223  0.1790  4.2071
 8224SOL     OW36304   3.913   2.968   7.721  0.2110 -0.3266  0.3062
 8224SOL    HW136305   3.888   2.877   7.707  0.3690 -0.3134 -0.0530
 8224SOL    HW236306   3.892   2.980   7.814 -1.3997 -0.7747 -0.0122
 8225SOL     OW36307   4.719   4.331   7.402  0.7731 -0.5575  0.1119
 8225SOL    HW136308   0.055   4.377   7.433 -0.3823  1.6925 -0.3191
 8225SOL    HW236309   0.014   4.247   7.375 -0.4261 -1.3126  0.8406
 8226SOL     OW36310   3.451   1.141   3.648 -0.4417  0.2753  0.7068
 8226SOL    HW136311   3.463   1.049   3.671  0.1158  0.5447  1.5067
 8226SOL    HW236312   3.528   1.167   3.598 -1.3661  0.9883 -0.3642
 8227SOL     OW36313   3.655   4.257   7.692  0.5948  0.2642 -0.7963
 8227SOL    HW136314   3.661   4.338   7.741  0.5560  0.3982 -1.0139
 8227SOL    HW236315   3.559   4.251   7.696  0.7489 -1.5133  0.2066
 8228SOL     OW36316   3.953   3.808   1.871  0.0727 -0.0700 -0.4950
 8228SOL    HW136317   3.960   3.846   1.959  0.0410 -2.1543  0.4102
 8228SOL    HW236318   3.969   3.890   1.825  1.8701  0.5363  1.2151
 8229SOL     OW36319   1.151   3.412   4.390  0.0609  0.5450 -0.2104
 8229SOL    HW136320   1.059   3.430   4.407 -0.4070  0.5377 -2.7324
 8229SOL    HW236321   1.157   3.457   4.305 -0.2846 -0.1655 -0.6105
 8230SOL     OW36322   3.472   1.650   5.122 -0.3458 -0.1146 -0.0624
 8230SOL    HW136323   3.538   1.682   5.061  0.6418  0.0623  1.1099
 8230SOL    HW236324   3.388   1.639   5.076 -1.0275 -2.8624  1.8305
 8231SOL     OW36325   1.818   2.171  15.048 -0.0275  0.0857 -0.5095
 8231SOL    HW136326   1.822   2.090  14.996 -0.1075  0.9198 -1.8024
 8231SOL    HW236327   1.830   2.236  14.979 -0.3150  0.1802 -0.4691
 8232SOL     OW36328   1.659   3.098   0.357 -0.1915  0.1893 -0.6031
 8232SOL    HW136329   1.623   3.136   0.436  2.7337  0.2349  0.7157
 8232SOL    HW236330   1.722   3.159   0.318 -1.5365  2.9584  1.6349
 8233SOL     OW36331   4.066   0.458   2.285  0.8386 -0.1864 -0.1160
 8233SOL    HW136332   4.019   0.538   2.309  2.1892  0.6717 -0.3384
 8233SOL    HW236333   3.986   0.405   2.292  0.9015 -0.0932  1.4028
 8234SOL     OW36334   4.299   3.681  10.156 -0.3461 -0.0716 -0.1242
 8234SOL    HW136335   4.274   3.738  10.229 -3.1515 -1.1947 -0.2193
 8234SOL    HW236336   4.209   3.661  10.130 -0.2187 -1.9936  0.9022
 8235SOL     OW36337   3.714   0.306   7.442 -0.1402  0.4414  0.3010
 8235SOL    HW136338   3.709   0.378   7.379 -0.7275 -0.4108 -0.6337
 8235SOL    HW236339   3.783   0.259   7.396 -0.4322  0.7344 -0.4309
 8236SOL     OW36340   4.559   2.647   8.428 -0.1550  0.1464  0.2370
 8236SOL    HW136341   4.642   2.692   8.443 -0.2204  0.1487  0.5923
 8236SOL    HW236342   4.578   2.620   8.338  1.6060  1.1084  0.3253
 8237SOL     OW36343   2.644   1.822   8.239 -0.0674  0.0693  0.1798
 8237SOL    HW136344   2.610   1.852   8.154  1.5131  0.5336 -0.2943
 8237SOL    HW236345   2.684   1.902   8.272  1.4174 -0.6740  0.1641
 8238SOL     OW36346   0.933   3.008   7.444  0.0491 -0.8154 -0.2679
 8238SOL    HW136347   1.024   3.036   7.438 -0.6940  1.2439 -1.7437
 8238SOL    HW236348   0.910   3.041   7.531 -0.2496 -2.2236  0.2015
 8239SOL     OW36349   0.902   3.058   8.226 -0.5289  0.1619 -0.3558
 8239SOL    HW136350   0.972   3.046   8.290 -1.3971 -3.9915 -0.1801
 8239SOL    HW236351   0.837   3.099   8.283 -0.4918  1.9382 -1.5907
 8240SOL     OW36352   0.074   0.733  11.934 -0.5097 -0.2783 -0.0061
 8240SOL    HW136353   0.120   0.779  12.004  1.0616  0.4917 -1.5585
 8240SOL    HW236354   0.122   0.775  11.863  0.6089  0.1388  0.9977
 8241SOL     OW36355   1.294   3.747   4.716 -0.1931  0.3090 -0.2889
 8241SOL    HW136356   1.346   3.715   4.642  0.0562  0.1599 -0.0539
 8241SOL    HW236357   1.372   3.761   4.771  0.2575 -0.0381 -0.8402
 8242SOL     OW36358   1.592   1.917  12.659  0.1863 -0.0438  0.5937
 8242SOL    HW136359   1.656   1.933  12.589 -0.5830 -0.3108 -0.1715
 8242SOL    HW236360   1.605   1.823  12.677 -2.0772 -0.4601  0.1215
 8243SOL     OW36361   3.938   1.402   5.607  0.4616 -0.3467 -0.4641
 8243SOL    HW136362   3.844   1.420   5.607  0.0671 -2.4327 -2.9288
 8243SOL    HW236363   3.975   1.484   5.640 -0.1374  0.0346 -0.7430
 8244SOL     OW36364   0.120   3.855   0.366 -0.0387  0.4894  0.2022
 8244SOL    HW136365   0.035   3.841   0.410 -0.5847 -2.6801 -1.8675
 8244SOL    HW236366   0.099   3.940   0.329  2.0208  0.8760 -0.0587
 8245SOL     OW36367   3.463   1.805   2.338  0.1204  0.0086  0.0905
 8245SOL    HW136368   3.369   1.793   2.325 -0.1039  0.0068  1.6725
 8245SOL    HW236369   3.491   1.713   2.342 -1.3727 -0.3580  2.0243
 8246SOL     OW36370   0.086   1.692   7.865 -0.3662 -0.0029  0.1073
 8246SOL    HW136371   0.022   1.674   7.933 -0.9004  1.4003 -0.0229
 8246SOL    HW236372   0.030   1.671   7.790  0.0472  2.2596 -0.8440
 8247SOL     OW36373   3.146   0.445   7.070  0.4606 -0.1255  0.9787
 8247SOL    HW136374   3.115   0.490   7.149  2.4640  0.6820  1.3026
 8247SOL    HW236375   3.121   0.506   7.001 -1.4183 -3.2288 -1.0357
 8248SOL     OW36376   1.940   0.442   8.280 -0.0901  0.0724  0.0248
 8248SOL    HW136377   1.982   0.509   8.226  2.6590 -1.1685  0.5802
 8248SOL    HW236378   1.869   0.488   8.325  0.3674  0.3040  0.5110
 8249SOL     OW36379   0.188   0.977   7.199 -0.2029 -0.3644 -0.6395
 8249SOL    HW136380   0.199   1.019   7.114  0.6772  0.7139  0.0019
 8249SOL    HW236381   0.184   1.056   7.253 -0.8235  0.3694 -1.7840
 8250SOL     OW36382   0.259   3.292   1.486 -0.4112  0.5615 -0.8616
 8250SOL    HW136383   0.296   3.239   1.556 -1.5434 -1.4071 -1.7610
 8250SOL    HW236384   0.320   3.365   1.499 -1.5829  1.0032  2.0243
 8251SOL     OW36385   1.152   0.291  13.892  0.4226  0.0198  0.1328
 8251SOL    HW136386   1.217   0.221  13.887  2.6299  2.1757 -1.3005
 8251SOL    HW236387   1.193   0.354  13.833  1.5297 -1.0190 -0.1959
 8252SOL     OW36388   4.612   3.274   7.109  0.2964 -0.3539 -0.5871
 8252SOL    HW136389   4.669   3.198   7.114  1.5174  0.4291 -2.3323
 8252SOL    HW236390   4.536   3.230   7.146 -1.1902  0.3016 -2.8340
 8253SOL     OW36391   1.877   2.542  13.358 -0.3862 -0.2760 -0.0146
 8253SOL    HW136392   1.904   2.626  13.395  0.3112  0.1176 -1.3998
 8253SOL    HW236393   1.924   2.544  13.275 -0.7986 -0.1556 -0.2477
 8254SOL     OW36394   2.188   1.688   8.842  0.9161 -0.6867  0.0133
 8254SOL    HW136395   2.126   1.761   8.838  1.0391 -0.5269  0.9325
 8254SOL    HW236396   2.134   1.610   8.854  1.2755 -0.9548 -0.1324
 8255SOL     OW36397   4.562   3.137  15.127 -0.5010  0.0734  0.0779
 8255SOL    HW136398   4.470   3.115  15.116 -1.1585  2.8891 -0.1882
 8255SOL    HW236399   4.592   3.120  15.038  0.7637  1.8333  0.1610
 8256SOL     OW36400   1.809   0.409   4.046  0.1039  0.2415  0.2298
 8256SOL    HW136401   1.862   0.393   4.124 -2.8696 -3.0417  1.5629
 8256SOL    HW236402   1.724   0.418   4.088 -0.8234 -3.7154 -0.8603
 8257SOL     OW36403   1.540   3.326  14.675  0.0821 -0.1354  0.2044
 8257SOL    HW136404   1.539   3.280  14.591 -2.2878 -1.4567  0.9638
 8257SOL    HW236405   1.528   3.415  14.642  0.2632 -0.9324 -2.0165
 8258SOL     OW36406   0.593   3.959   5.172 -0.6110 -0.6531  0.9480
 8258SOL    HW136407   0.646   3.993   5.099 -2.2136  0.6307  0.3689
 8258SOL    HW236408   0.627   3.872   5.189  0.4356 -0.3581  0.3801
 8259SOL     OW36409   2.724   0.300   0.784  0.1172  0.2198  0.4903
 8259SOL    HW136410   2.782   0.227   0.806 -1.7197 -1.0745  1.0018
 8259SOL    HW236411   2.643   0.250   0.793 -0.0324  0.8577  2.5885
 8260SOL     OW36412   0.751   3.472   5.637  0.1391  0.1990  0.1484
 8260SOL    HW136413   0.703   3.431   5.709  0.0835 -0.8109 -0.4663
 8260SOL    HW236414   0.843   3.454   5.659  0.5899  1.2615 -0.8592
 8261SOL     OW36415   1.956   3.847   0.712 -0.6871  0.2413 -0.4965
 8261SOL    HW136416   1.986   3.777   0.654  1.7784 -0.5265  1.6978
 8261SOL    HW236417   1.966   3.918   0.649 -1.9029  2.0047  1.3140
 8262SOL     OW36418   2.614   0.594   7.953 -0.2461 -0.0572  0.2881
 8262SOL    HW136419   2.676   0.523   7.969  0.4921  0.5339  0.0100
 8262SOL    HW236420   2.666   0.652   7.898  1.1536 -0.7218  0.9193
 8263SOL     OW36421   4.402   1.185  17.177  0.2545 -0.1188  0.2106
 8263SOL    HW136422   4.474   1.245  17.156  0.5522  0.1626  2.0485
 8263SOL    HW236423   4.449   1.126  17.236  1.8924 -2.0925 -3.0444
 8264SOL     OW36424   2.973   2.085  16.619  0.1232 -0.1761 -0.6610
 8264SOL    HW136425   2.894   2.116  16.662  0.7264 -0.0469  0.3613
 8264SOL    HW236426   3.016   2.036  16.690  0.3205  0.6137 -0.2331
 8265SOL     OW36427   3.082   4.081  14.290 -0.2568 -0.3144 -0.2672
 8265SOL    HW136428   3.130   4.162  14.271  1.1997 -0.9857  0.5235
 8265SOL    HW236429   3.046   4.051  14.207 -0.7543  0.9142 -0.5017
 8266SOL     OW36430   0.098   0.049   6.055 -0.1133  0.4196 -0.4601
 8266SOL    HW136431   0.120   0.033   5.963  0.0087 -2.4159  0.0450
 8266SOL    HW236432   0.186   0.081   6.076  0.0497 -0.8900  0.8745
 8267SOL     OW36433   0.356   3.255   9.021 -0.3532 -0.1078  0.2131
 8267SOL    HW136434   0.338   3.191   8.951  0.1560 -0.9638  0.8665
 8267SOL    HW236435   0.297   3.324   8.991  0.8557  0.4654 -0.7884
 8268SOL     OW36436   1.952   3.734   6.472  0.1203 -0.5345 -0.5466
 8268SOL    HW136437   1.981   3.818   6.436  0.6461 -1.3146 -1.9487
 8268SOL    HW236438   2.024   3.714   6.532 -0.9367  0.9833  1.1874
 8269SOL     OW36439   4.650   1.145   2.294 -0.0072 -0.4968 -0.1615
 8269SOL    HW136440   4.712   1.163   2.224  0.2156  0.6896  0.3365
 8269SOL    HW236441   4.577   1.205   2.276  1.0513  1.2388  1.3424
 8270SOL     OW36442   0.368   0.870   2.371 -0.0477 -0.1641  0.0155
 8270SOL    HW136443   0.287   0.836   2.409 -0.3637  1.2590  0.6135
 8270SOL    HW236444   0.426   0.810   2.419 -1.9561 -1.5717  0.5565
 8271SOL     OW36445   3.598   3.890   6.529 -0.0156  0.4746  0.4083
 8271SOL    HW136446   3.558   3.893   6.616  2.0702  1.0710  1.3389
 8271SOL    HW236447   3.579   3.801   6.500  1.4717 -0.7244  3.0531
 8272SOL     OW36448   1.709   0.185   1.472 -0.1074 -0.6283  0.4531
 8272SOL    HW136449   1.630   0.238   1.484 -0.1297 -0.3677 -0.8294
 8272SOL    HW236450   1.703   0.119   1.541  1.0676  0.2343  1.3837
 8273SOL     OW36451   4.243   2.492   7.627 -0.3010 -0.1291  0.6602
 8273SOL    HW136452   4.149   2.494   7.642 -0.3065 -1.0824  0.7370
 8273SOL    HW236453   4.270   2.404   7.651 -2.1813 -1.3994 -1.9036
 8274SOL     OW36454   0.314   1.838   2.161 -0.2912  0.5225 -0.0445
 8274SOL    HW136455   0.370   1.915   2.151  1.7688 -0.8519  0.8338
 8274SOL    HW236456   0.304   1.841   2.257  0.2754 -2.8066  0.1022
 8275SOL     OW36457   4.609   3.532   2.062 -0.6767 -0.1171 -0.0221
 8275SOL    HW136458   4.692   3.513   2.105 -1.1428 -2.4188 -0.1191
 8275SOL    HW236459   4.632   3.525   1.969  2.2124 -1.9416  0.8363
 8276SOL     OW36460   4.496   1.467   2.991  0.1288 -0.0869  0.4774
 8276SOL    HW136461   4.580   1.504   3.019  0.1036 -0.9749  1.7046
 8276SOL    HW236462   4.489   1.505   2.903 -0.4259  2.7568  1.7509
 8277SOL     OW36463   3.898   3.184  15.209 -0.3744 -1.2617 -0.1683
 8277SOL    HW136464   3.821   3.153  15.160 -0.2408 -0.4536 -0.9001
 8277SOL    HW236465   3.948   3.222  15.136 -0.6370  0.7440  0.7075
 8278SOL     OW36466   0.064   3.102   7.084  0.2011  0.0059 -0.0807
 8278SOL    HW136467   0.115   3.035   7.129  0.4489  0.6081  0.5395
 8278SOL    HW236468   0.080   3.081   6.992 -2.3641  2.6059 -1.1220
 8279SOL     OW36469   0.720   0.554  10.881 -0.0382  0.2896  0.2065
 8279SOL    HW136470   0.777   0.610  10.934  2.5062 -0.4979 -1.6950
 8279SOL    HW236471   0.781   0.505  10.826  0.2083  0.9775 -0.1276
 8280SOL     OW36472   0.654   0.922  11.500 -0.4155  0.1857  0.1164
 8280SOL    HW136473   0.594   0.887  11.434 -0.2850  0.5166 -0.1814
 8280SOL    HW236474   0.737   0.893  11.462  0.7530  2.5485  0.9048
 8281SOL     OW36475   1.394   1.321  12.622  1.1055 -0.1355 -0.7574
 8281SOL    HW136476   1.487   1.332  12.601  1.1365 -0.8318 -1.0033
 8281SOL    HW236477   1.367   1.267  12.548  0.8203 -1.5848  0.4010
 8282SOL     OW36478   0.671   0.279  10.221  0.0409  0.6428 -0.6076
 8282SOL    HW136479   0.598   0.217  10.223 -0.8431  1.6620 -1.2003
 8282SOL    HW236480   0.649   0.326  10.302  1.8417 -1.1046  0.8954
 8283SOL     OW36481   3.796   0.079   0.954 -1.1020  0.3709  0.1820
 8283SOL    HW136482   3.709   0.062   0.919 -0.4938 -2.0572 -0.1638
 8283SOL    HW236483   3.766   0.092   1.043  3.3493  1.6728  1.4807
 8284SOL     OW36484   2.035   2.992   6.013 -0.1505  0.5945  0.2720
 8284SOL    HW136485   2.028   3.015   5.920 -2.8220  0.9214  0.5531
 8284SOL    HW236486   2.122   2.952   6.016 -0.1310  0.7094  1.2792
 8285SOL     OW36487   3.494   4.431   5.669 -0.1863  0.5554 -0.7529
 8285SOL    HW136488   3.437   4.504   5.648 -1.0505  0.4613  1.3105
 8285SOL    HW236489   3.435   4.373   5.717  0.6845  0.4654  0.1970
 8286SOL     OW36490   1.655   1.393   4.378  0.0626  0.2898 -0.3833
 8286SOL    HW136491   1.605   1.360   4.303 -1.0399  1.6326 -0.2574
 8286SOL    HW236492   1.735   1.350   4.350 -1.2409 -1.7727 -0.9064
 8287SOL     OW36493   4.490   4.486   8.192  0.1005 -0.3914 -0.2205
 8287SOL    HW136494   4.542   4.415   8.230  0.7080 -0.7720 -1.7935
 8287SOL    HW236495   4.553   4.527   8.133  1.4499  1.4262  2.4545
 8288SOL     OW36496   2.382   1.543   8.077 -0.3047 -0.2827 -0.1835
 8288SOL    HW136497   2.347   1.475   8.135 -0.3715 -1.7127 -1.9027
 8288SOL    HW236498   2.304   1.579   8.034 -0.4711  0.3585  0.6386
 8289SOL     OW36499   3.570   3.464  17.211 -0.5646 -0.4857 -0.0403
 8289SOL    HW136500   3.664   3.478  17.221 -1.1995  3.5824  0.3237
 8289SOL    HW236501   3.542   3.427  17.295 -2.6621  1.3742  0.1021
 8290SOL     OW36502   4.064   0.792  12.014  0.4507  0.0595  0.0416
 8290SOL    HW136503   3.973   0.781  12.040  0.5294  1.1822  0.7810
 8290SOL    HW236504   4.097   0.858  12.075  0.7955  0.0765 -0.1617
 8291SOL     OW36505   2.701   2.687   1.429  0.0468  0.4133 -0.2548
 8291SOL    HW136506   2.789   2.721   1.417 -0.1122  0.5766 -0.9718
 8291SOL    HW236507   2.710   2.597   1.396  0.9810  0.3398  0.1856
 8292SOL     OW36508   0.201   1.419   2.797  0.4907 -0.2316  0.0817
 8292SOL    HW136509   0.170   1.380   2.879  0.7413  2.2734  1.3713
 8292SOL    HW236510   0.296   1.406   2.794  0.9603  2.7133  1.8989
 8293SOL     OW36511   4.103   0.154   8.010 -0.3168 -0.0549 -0.3414
 8293SOL    HW136512   4.057   0.150   7.926  0.1139  0.5614 -0.6084
 8293SOL    HW236513   4.152   0.235   7.997  0.0309 -0.6084 -2.5547
 8294SOL     OW36514   2.371   0.747  11.911 -0.8138  0.2593  0.7531
 8294SOL    HW136515   2.393   0.837  11.888  0.2088  0.3334  2.0092
 8294SOL    HW236516   2.461   0.715  11.900 -0.7098  0.9647 -0.4547
 8295SOL     OW36517   0.099   2.094   5.427  0.3156 -0.3810 -0.3119
 8295SOL    HW136518   0.016   2.130   5.396  0.4708  2.0712  2.1412
 8295SOL    HW236519   0.079   2.090   5.520  0.4069 -0.2697 -0.2874
 8296SOL     OW36520   1.986   2.644   5.019 -0.1373  0.2038  0.0479
 8296SOL    HW136521   2.028   2.595   5.089  4.4325 -0.6881 -3.3230
 8296SOL    HW236522   2.025   2.731   5.032  2.9670 -1.3378  0.9658
 8297SOL     OW36523   0.459   0.451   7.142  0.3393 -0.3846  0.2394
 8297SOL    HW136524   0.498   0.364   7.142 -2.5503 -1.6760  0.1693
 8297SOL    HW236525   0.389   0.438   7.077 -0.9697 -1.1421  1.8229
 8298SOL     OW36526   0.612   0.443  10.434  0.3393  0.2441 -0.5006
 8298SOL    HW136527   0.667   0.409  10.504 -1.2120  1.3956  1.2676
 8298SOL    HW236528   0.661   0.525  10.441  0.2067  0.3763 -1.0875
 8299SOL     OW36529   1.413   3.175  15.761 -0.0556  0.9644  0.0820
 8299SOL    HW136530   1.475   3.202  15.830  1.3235 -2.5613  0.2039
 8299SOL    HW236531   1.345   3.129  15.809  1.1970 -0.8402  0.1149
 8300SOL     OW36532   2.223   2.615   6.838  0.1127 -0.3241  0.2707
 8300SOL    HW136533   2.196   2.532   6.798 -0.8738  0.5599 -0.9105
 8300SOL    HW236534   2.295   2.595   6.898 -0.7726 -1.4778  0.9425
 8301SOL     OW36535   1.437   0.873   8.472  0.1062 -0.4916 -0.1981
 8301SOL    HW136536   1.417   0.842   8.384  0.1204 -1.6015  0.1873
 8301SOL    HW236537   1.372   0.943   8.476 -0.7928 -1.5738  4.1658
 8302SOL     OW36538   2.557   2.741   4.324 -0.3668 -0.6292  0.6591
 8302SOL    HW136539   2.495   2.797   4.371  0.2454  0.0139  0.7112
 8302SOL    HW236540   2.508   2.660   4.338 -2.2371  0.2012 -1.0552
 8303SOL     OW36541   2.687   4.181   0.230 -0.2381  0.4081  0.0444
 8303SOL    HW136542   2.617   4.115   0.234  1.8836 -1.7788  1.2476
 8303SOL    HW236543   2.700   4.198   0.323  0.2651  1.0415 -0.1456
 8304SOL     OW36544   3.481   0.098   6.892  0.4086  0.0683 -0.1104
 8304SOL    HW136545   3.480   0.003   6.882 -0.1245 -0.0943  1.5510
 8304SOL    HW236546   3.406   0.125   6.840 -1.2252 -3.2375  0.5081
 8305SOL     OW36547   1.900   1.443   3.749 -0.1674  0.2110  0.2052
 8305SOL    HW136548   1.898   1.537   3.729  2.0824 -0.0339 -1.1104
 8305SOL    HW236549   1.841   1.441   3.825  0.8657  2.6662  1.0600
 8306SOL     OW36550   2.279   0.964   3.410 -0.1422 -0.2911  0.3587
 8306SOL    HW136551   2.324   0.943   3.328 -1.1296  0.0818 -0.2809
 8306SOL    HW236552   2.346   0.971   3.478  0.0865 -1.9172  0.3088
 8307SOL     OW36553   4.076   2.251  15.456  0.3144  0.6433 -0.2968
 8307SOL    HW136554   4.165   2.231  15.427  1.0522  1.1164  1.5936
 8307SOL    HW236555   4.032   2.287  15.380 -1.4174 -1.7568 -0.4430
 8308SOL     OW36556   0.681   0.918   4.312 -0.2298 -0.0130 -0.0618
 8308SOL    HW136557   0.728   0.963   4.382 -0.4764 -1.2398  0.8788
 8308SOL    HW236558   0.714   0.828   4.312 -0.7109 -0.1911  1.3561
 8309SOL     OW36559   2.705   1.272   2.286 -0.2370  0.1069 -0.6762
 8309SOL    HW136560   2.619   1.313   2.290 -0.7012 -1.0989  1.7622
 8309SOL    HW236561   2.723   1.254   2.378  1.0690  2.5015 -0.4834
 8310SOL     OW36562   3.302   4.306   5.842  0.5589 -0.2700 -0.0954
 8310SOL    HW136563   3.251   4.227   5.861 -0.3604  0.9659  2.6138
 8310SOL    HW236564   3.314   4.347   5.928  0.2842  0.7455 -0.5371
 8311SOL     OW36565   2.184   0.909   8.945 -0.5392 -0.1758  0.0048
 8311SOL    HW136566   2.108   0.879   8.995  1.0412 -0.9305  1.9342
 8311SOL    HW236567   2.148   0.985   8.898  1.7873  1.1718  0.4040
 8312SOL     OW36568   4.636   4.530  12.074  0.2664 -0.2738 -0.1316
 8312SOL    HW136569   4.681   4.457  12.031 -0.8765 -0.6592 -0.6707
 8312SOL    HW236570   4.576   4.564  12.008  1.8139 -0.4108 -1.6262
 8313SOL     OW36571   1.290   2.116   3.994 -0.0665  0.3291 -0.3513
 8313SOL    HW136572   1.330   2.041   4.039  1.1430  1.4738  0.4900
 8313SOL    HW236573   1.244   2.064   3.928  0.9718 -0.6567 -0.3071
 8314SOL     OW36574   1.304   3.206   8.459  0.8222  0.6180 -0.8147
 8314SOL    HW136575   1.382   3.181   8.508 -0.9268 -1.3153  0.9599
 8314SOL    HW236576   1.261   3.248   8.533  0.2810  1.6464 -1.7171
 8315SOL     OW36577   0.614   2.030   8.813  0.2439  0.1658 -0.0717
 8315SOL    HW136578   0.591   1.966   8.746  2.9495 -0.9072  0.0203
 8315SOL    HW236579   0.537   2.085   8.798  0.5091  0.2032 -1.3164
 8316SOL     OW36580   0.610   4.505   5.933 -0.3934  0.9381 -0.1904
 8316SOL    HW136581   0.595   4.568   6.003 -1.4180  0.8199 -0.3113
 8316SOL    HW236582   0.683   4.547   5.886  3.4633 -1.1318  3.9503
 8317SOL     OW36583   4.014   0.239   4.183  0.4204 -0.3931 -0.0396
 8317SOL    HW136584   4.014   0.227   4.088 -0.4742  0.2363 -0.1186
 8317SOL    HW236585   4.057   0.325   4.180 -0.2283 -0.0536  0.6191
 8318SOL     OW36586   2.391   2.939   6.891 -0.6653 -0.2573  0.2726
 8318SOL    HW136587   2.460   2.879   6.920  0.4668  1.3756  0.9828
 8318SOL    HW236588   2.366   2.991   6.967  0.5902  1.6700 -0.6136
 8319SOL     OW36589   2.402   0.877  12.190  0.2354 -0.5991  0.7264
 8319SOL    HW136590   2.467   0.817  12.227  0.3524 -2.0769 -1.8833
 8319SOL    HW236591   2.366   0.820  12.121  0.1034  0.1818  0.1567
 8320SOL     OW36592   3.998   3.891   8.529 -0.3214 -0.2233  0.2737
 8320SOL    HW136593   3.920   3.946   8.518 -0.2619  0.2587  2.2623
 8320SOL    HW236594   4.049   3.962   8.569 -1.6711 -1.2382  3.8169
 8321SOL     OW36595   2.524   4.242  14.126 -0.1467  0.0586  0.2648
 8321SOL    HW136596   2.527   4.149  14.148 -0.6995 -0.1575 -0.5536
 8321SOL    HW236597   2.469   4.231  14.048  0.1527 -0.3083  0.1056
 8322SOL     OW36598   0.621   0.353  15.755  0.2517 -0.0591 -0.1026
 8322SOL    HW136599   0.636   0.432  15.808 -1.7908 -0.2543  0.7631
 8322SOL    HW236600   0.616   0.291  15.827 -1.0354 -0.1018 -0.2284
 8323SOL     OW36601   1.214   4.470   1.105 -0.9776  0.4075 -0.1673
 8323SOL    HW136602   1.225   4.399   1.042 -0.1297 -0.6734  1.1983
 8323SOL    HW236603   1.302   4.481   1.140 -1.6141 -0.5462  1.6933
 8324SOL     OW36604   2.149   3.554  12.433  0.8899 -0.1078  0.1921
 8324SOL    HW136605   2.137   3.471  12.387 -0.6314  0.4911 -0.4921
 8324SOL    HW236606   2.206   3.603  12.374  0.9273  1.4065  1.4873
 8325SOL     OW36607   2.803   3.983   7.686 -0.5301  0.0354 -0.6511
 8325SOL    HW136608   2.806   3.921   7.612 -1.2529 -1.1833  0.3253
 8325SOL    HW236609   2.775   3.917   7.749 -0.4844 -0.3668 -1.0479
 8326SOL     OW36610   0.561   1.342   1.358  0.1600  0.5812  0.0999
 8326SOL    HW136611   0.532   1.385   1.277  0.5656  0.7637  0.0528
 8326SOL    HW236612   0.492   1.278   1.375  0.5833 -0.0332 -0.4613
 8327SOL     OW36613   3.537   1.209   6.994 -0.0832 -0.2879 -0.2047
 8327SOL    HW136614   3.626   1.219   7.026  0.2748 -2.1137 -0.6511
 8327SOL    HW236615   3.559   1.168   6.911 -2.3261 -0.2661 -0.8279
 8328SOL     OW36616   3.735   0.082   8.649 -0.1689  0.3562 -0.3979
 8328SOL    HW136617   3.671   0.040   8.706  0.7618 -0.3148  0.1605
 8328SOL    HW236618   3.764   0.000   8.607 -1.2955  0.4304 -1.3166
 8329SOL     OW36619   1.796   3.761   7.425  0.4171 -0.3252  0.5086
 8329SOL    HW136620   1.709   3.721   7.410 -1.0019  2.1564  2.2291
 8329SOL    HW236621   1.793   3.769   7.520 -1.4336  0.5843  0.3801
 8330SOL     OW36622   3.560   2.596   5.049  0.5586 -0.2017 -0.1606
 8330SOL    HW136623   3.628   2.555   4.995 -0.1776 -0.3230 -0.9789
 8330SOL    HW236624   3.600   2.683   5.054  0.9337 -0.3586 -0.4784
 8331SOL     OW36625   0.225   4.559   7.259 -0.1423  0.6519 -0.5525
 8331SOL    HW136626   0.144   4.610   7.269 -0.3785  0.0811  0.3864
 8331SOL    HW236627   0.189   4.485   7.210 -0.0466  0.9366 -1.0581
 8332SOL     OW36628   0.726   2.253   1.790  0.8029 -0.4704  0.0005
 8332SOL    HW136629   0.692   2.336   1.823 -0.0121 -0.3009 -1.2810
 8332SOL    HW236630   0.647   2.220   1.747 -0.2666  2.3486 -0.1871
 8333SOL     OW36631   3.300   0.831   9.700  0.5198 -0.1486  0.2763
 8333SOL    HW136632   3.361   0.904   9.708 -0.5750  0.5710  2.1248
 8333SOL    HW236633   3.282   0.833   9.606  2.5030 -2.0304 -0.1435
 8334SOL     OW36634   0.454   2.883   1.300  0.3105 -0.2069 -0.1908
 8334SOL    HW136635   0.449   2.800   1.347  0.4374  0.1380  0.4266
 8334SOL    HW236636   0.369   2.883   1.256 -0.2949  1.8031  0.9917
 8335SOL     OW36637   3.267   3.527  14.467  0.2362  0.7002 -0.3079
 8335SOL    HW136638   3.315   3.459  14.418 -2.3389 -1.3793  0.0624
 8335SOL    HW236639   3.237   3.583  14.396 -1.5423 -0.5575 -0.5352
 8336SOL     OW36640   2.929   2.195   5.829 -0.5918  0.3481 -0.1615
 8336SOL    HW136641   2.940   2.251   5.906 -0.1059 -1.4921  1.0956
 8336SOL    HW236642   2.934   2.104   5.859 -2.3987  0.8470  1.6961
 8337SOL     OW36643   0.422   2.727   1.728 -0.0624 -0.8652  0.6160
 8337SOL    HW136644   0.407   2.641   1.767 -0.8852 -0.4790  1.1540
 8337SOL    HW236645   0.372   2.785   1.785 -0.1011  0.4411 -0.7472
 8338SOL     OW36646   0.763   0.592  15.259 -0.5304 -0.1691 -0.7733
 8338SOL    HW136647   0.801   0.656  15.198 -2.1737 -0.3486 -2.0035
 8338SOL    HW236648   0.841   0.538  15.270  0.2553  1.8357  3.3448
 8339SOL     OW36649   1.416   4.232   5.599  0.2653 -0.5729  0.6437
 8339SOL    HW136650   1.355   4.194   5.536  1.5526  1.1978 -1.6951
 8339SOL    HW236651   1.476   4.161   5.618 -1.3628 -1.9514  0.6881
 8340SOL     OW36652   0.439   1.456  15.334 -0.6165  0.5162 -0.7161
 8340SOL    HW136653   0.524   1.415  15.322 -0.8341 -0.1787  0.1285
 8340SOL    HW236654   0.427   1.449  15.428  0.2924  2.9672 -0.4334
 8341SOL     OW36655   1.323   2.604   3.013 -0.4575 -0.0244  0.1332
 8341SOL    HW136656   1.391   2.642   2.958  2.4071 -0.4103  3.4042
 8341SOL    HW236657   1.320   2.517   2.975 -1.6016  0.1492 -0.1856
 8342SOL     OW36658   4.712   2.901   3.131  0.1006 -0.5358 -0.0954
 8342SOL    HW136659   0.006   2.975   3.181  0.6946 -2.3610  2.2009
 8342SOL    HW236660   4.621   2.928   3.140  0.6928  1.1617  0.9879
 8343SOL     OW36661   0.204   4.650   1.363 -0.1620  0.0615 -0.1518
 8343SOL    HW136662   0.177   4.614   1.447  1.2856 -1.5320 -0.3726
 8343SOL    HW236663   0.132   4.624   1.306 -1.8605  1.4748  1.3484
 8344SOL     OW36664   2.145   3.425  15.207  0.6208 -0.0131  0.1168
 8344SOL    HW136665   2.081   3.488  15.175 -0.2928 -0.1353  1.6762
 8344SOL    HW236666   2.192   3.401  15.128  2.0052 -0.3650  1.0448
 8345SOL     OW36667   2.621   2.245   2.138  0.1947  0.4159 -0.1391
 8345SOL    HW136668   2.647   2.221   2.049 -1.2091  3.6827 -1.4281
 8345SOL    HW236669   2.674   2.323   2.152  0.1485  0.3531  0.3922
 8346SOL     OW36670   2.043   1.330   3.351  0.5452  0.1480  0.1012
 8346SOL    HW136671   2.107   1.399   3.332 -1.2409  1.4555 -1.2344
 8346SOL    HW236672   2.059   1.290   3.266 -1.6943 -1.2735  0.3345
 8347SOL     OW36673   1.984   2.866   4.296 -0.1241 -0.1389  0.1270
 8347SOL    HW136674   1.907   2.828   4.254 -0.0321  0.4329 -0.5490
 8347SOL    HW236675   1.957   2.958   4.304 -3.1461 -0.8293 -2.0116
 8348SOL     OW36676   3.897   3.812   3.853 -0.0695 -0.4715  0.0259
 8348SOL    HW136677   3.839   3.749   3.810 -1.6210  0.9589  0.0501
 8348SOL    HW236678   3.967   3.818   3.787  1.5245 -2.4324  1.5514
 8349SOL     OW36679   3.964   2.279   7.899 -0.0754  0.4213  0.6776
 8349SOL    HW136680   3.960   2.374   7.907 -0.5709  0.6791 -2.7857
 8349SOL    HW236681   3.876   2.260   7.934 -0.7122  0.4728 -0.9042
 8350SOL     OW36682   2.858   1.021  11.450  0.1291  0.1043  0.0718
 8350SOL    HW136683   2.828   0.934  11.423  3.5557 -0.8461 -0.6916
 8350SOL    HW236684   2.801   1.036  11.526  0.0859 -2.0595  0.4823
 8351SOL     OW36685   1.296   4.252   3.065  0.1425  0.0809 -0.6473
 8351SOL    HW136686   1.362   4.183   3.052  0.2720  0.2456 -0.8731
 8351SOL    HW236687   1.242   4.203   3.127  0.0059  0.2382 -0.6440
 8352SOL     OW36688   4.226   4.583   1.952 -0.4036  0.0905  0.4794
 8352SOL    HW136689   4.161   4.622   2.010 -2.1093 -1.1309 -0.6150
 8352SOL    HW236690   4.172   4.516   1.911  0.5272  1.5802 -3.1720
 8353SOL     OW36691   2.464   0.458   8.831 -0.6884 -0.1483 -0.0704
 8353SOL    HW136692   2.467   0.530   8.768 -1.0617  1.3065  1.6118
 8353SOL    HW236693   2.529   0.396   8.796 -1.0635 -0.7913  0.3677
 8354SOL     OW36694   3.677   2.547   7.390  0.3646  0.1382  0.1160
 8354SOL    HW136695   3.634   2.494   7.323  0.3909 -0.9870  0.9806
 8354SOL    HW236696   3.770   2.521   7.390 -0.2838 -2.1689 -0.9303
 8355SOL     OW36697   4.250   0.634   6.597  0.2516 -0.6482 -0.1323
 8355SOL    HW136698   4.184   0.699   6.571  0.5930  0.6767  2.2853
 8355SOL    HW236699   4.326   0.658   6.544 -0.0536 -0.8113 -0.6435
 8356SOL     OW36700   2.454   4.688  16.958 -0.1888 -0.0318 -0.1635
 8356SOL    HW136701   2.378   4.631  16.948  0.7277 -1.5833  1.8072
 8356SOL    HW236702   2.428   4.719  17.045 -0.4540 -0.2487 -0.1667
 8357SOL     OW36703   0.598   1.641  16.030 -0.0526  0.0584  0.4146
 8357SOL    HW136704   0.536   1.619  16.100 -1.7708 -0.3082 -1.2243
 8357SOL    HW236705   0.598   1.735  16.047  2.5052 -0.0700  1.1750
 8358SOL     OW36706   2.354   2.939   5.202  0.0970 -0.1029  0.7645
 8358SOL    HW136707   2.378   3.021   5.246 -1.6391  0.8368 -0.0199
 8358SOL    HW236708   2.423   2.943   5.136  0.7666 -0.0993  1.4627
 8359SOL     OW36709   2.577   3.144  13.338  1.0140 -0.3255 -0.3816
 8359SOL    HW136710   2.491   3.127  13.376  1.6299 -3.3622 -0.3682
 8359SOL    HW236711   2.592   3.235  13.365  1.6588 -0.9762  1.4184
 8360SOL     OW36712   0.893   2.933   2.170  0.2221 -0.4337 -0.0237
 8360SOL    HW136713   0.817   2.899   2.216 -1.5534  1.6589 -1.3644
 8360SOL    HW236714   0.917   2.865   2.107 -2.3771 -1.8110  0.5285
 8361SOL     OW36715   3.210   3.212   2.404 -0.6079  0.0138 -0.1699
 8361SOL    HW136716   3.179   3.163   2.480  0.0890  0.7870  0.6100
 8361SOL    HW236717   3.128   3.249   2.370  1.8205  2.8170 -3.0437
 8362SOL     OW36718   2.520   3.855  10.042 -0.5738  0.4014  0.1228
 8362SOL    HW136719   2.519   3.909   9.963 -1.6953  1.4789  0.8696
 8362SOL    HW236720   2.437   3.808  10.037 -1.1409  0.9886  3.9662
 8363SOL     OW36721   1.503   0.888  13.672 -0.1742  0.1386  0.0225
 8363SOL    HW136722   1.560   0.964  13.683  1.4233 -1.1207  0.5414
 8363SOL    HW236723   1.557   0.848  13.603  0.5081  0.6719  0.2457
 8364SOL     OW36724   1.582   1.598   5.128  0.1661 -0.4171 -0.6407
 8364SOL    HW136725   1.495   1.584   5.165  0.6470 -1.5750  0.0592
 8364SOL    HW236726   1.586   1.688   5.095  1.9133 -1.7335 -4.0914
 8365SOL     OW36727   2.981   3.946   2.584 -0.0527  0.5173  0.0914
 8365SOL    HW136728   3.004   3.857   2.608 -2.3715 -0.0452  0.2530
 8365SOL    HW236729   2.932   3.975   2.661 -0.3552  2.6054 -0.8855
 8366SOL     OW36730   2.943   3.452  14.596  0.0168 -0.2127  0.1083
 8366SOL    HW136731   2.935   3.452  14.501 -0.9318 -0.2056  0.1938
 8366SOL    HW236732   2.981   3.538  14.615  1.0010 -0.3097 -1.4450
 8367SOL     OW36733   0.028   4.085   0.237  0.0270  0.2951  0.4742
 8367SOL    HW136734   4.677   4.094   0.218  0.0197 -1.4615 -0.3081
 8367SOL    HW236735   0.060   4.175   0.227  1.0056  0.0561  1.3674
 8368SOL     OW36736   4.643   4.207   8.268 -0.7635 -0.2373  0.3732
 8368SOL    HW136737   4.615   4.161   8.188  0.4455  2.2027 -1.4411
 8368SOL    HW236738   4.708   4.271   8.239 -0.0595 -1.5572 -0.9992
 8369SOL     OW36739   4.056   3.814   5.514  0.2463 -0.0127  0.2229
 8369SOL    HW136740   4.112   3.742   5.544 -0.4510 -0.2715  0.8772
 8369SOL    HW236741   3.975   3.781   5.551 -0.1358 -0.7176 -1.2427
 8370SOL     OW36742   3.884   1.860   6.121 -0.3282  0.0871 -0.9277
 8370SOL    HW136743   3.889   1.946   6.078  2.5006  0.2104 -0.3891
 8370SOL    HW236744   3.956   1.814   6.078  0.9425  0.2998  0.9324
 8371SOL     OW36745   4.146   2.777  10.369  0.4256 -0.1501  0.4514
 8371SOL    HW136746   4.115   2.867  10.380 -1.6742 -0.7322 -0.7644
 8371SOL    HW236747   4.193   2.799  10.288 -1.3944  1.9199 -0.0408
 8372SOL     OW36748   4.537   1.223  12.671  0.1787 -0.1049 -0.4818
 8372SOL    HW136749   4.576   1.304  12.705  0.2106 -0.5559  0.5625
 8372SOL    HW236750   4.615   1.187  12.630  1.2672  0.6980  0.8790
 8373SOL     OW36751   2.346   4.283   9.695 -0.7027 -0.3509 -0.4134
 8373SOL    HW136752   2.400   4.268   9.773  0.2529  0.7100 -0.8682
 8373SOL    HW236753   2.392   4.358   9.658  0.9406 -1.1994 -0.1007
 8374SOL     OW36754   2.384   0.338   9.136 -0.0821  0.5856  0.1581
 8374SOL    HW136755   2.313   0.280   9.165  1.0678 -0.6710  0.4544
 8374SOL    HW236756   2.427   0.298   9.060 -1.6966 -0.3875 -0.2422
 8375SOL     OW36757   1.681   1.707  17.166 -0.6132 -0.7639  0.1174
 8375SOL    HW136758   1.592   1.716  17.131 -0.5155  0.3427  0.1563
 8375SOL    HW236759   1.662   1.732  17.256 -3.0159 -2.8835  0.2176
 8376SOL     OW36760   4.520   4.168   0.126  0.2622  0.0253 -0.2220
 8376SOL    HW136761   4.449   4.120   0.167  0.6732  1.7486  2.5688
 8376SOL    HW236762   4.535   4.111   0.051  1.4132 -1.6789  1.2904
 8377SOL     OW36763   3.104   1.386   1.875 -0.6663 -0.3613 -0.0889
 8377SOL    HW136764   3.067   1.302   1.901 -1.0618 -0.3294 -0.5429
 8377SOL    HW236765   3.197   1.367   1.870 -0.9148 -1.7160  0.4295
 8378SOL     OW36766   1.540   3.404   3.413 -0.1139  0.3407  0.1542
 8378SOL    HW136767   1.514   3.492   3.385 -0.3418  0.1701 -0.1778
 8378SOL    HW236768   1.484   3.386   3.488 -1.4671  1.6731 -0.5293
 8379SOL     OW36769   3.353   4.172  16.342 -0.8512  0.3437  0.2018
 8379SOL    HW136770   3.361   4.211  16.429  0.7017  0.5681 -0.0384
 8379SOL    HW236771   3.271   4.124  16.355 -1.8381  2.2918  1.2340
 8380SOL     OW36772   2.285   2.586  11.885  0.1690  0.0279 -0.1100
 8380SOL    HW136773   2.226   2.538  11.944  0.7648 -1.9199 -1.0877
 8380SOL    HW236774   2.343   2.514  11.862  0.1248  0.1865 -0.7099
 8381SOL     OW36775   2.666   4.580   4.854  0.2259 -0.1554  0.2133
 8381SOL    HW136776   2.740   4.598   4.913  2.3641 -2.6036 -1.6786
 8381SOL    HW236777   2.703   4.502   4.813 -0.2863 -0.4154  0.2487
 8382SOL     OW36778   0.497   1.615   2.996  0.0240 -0.1574  0.1520
 8382SOL    HW136779   0.495   1.580   3.085  1.8328  1.4315  0.8208
 8382SOL    HW236780   0.584   1.591   2.965 -0.3644 -1.3057 -0.0424
 8383SOL     OW36781   0.231   0.554   7.798 -0.1611 -0.1721  0.0777
 8383SOL    HW136782   0.297   0.624   7.792 -1.7405  1.5125  2.8590
 8383SOL    HW236783   0.256   0.515   7.882  0.2593  0.8062  0.4176
 8384SOL     OW36784   2.725   0.356   7.494  0.3885 -0.5419 -0.3310
 8384SOL    HW136785   2.816   0.381   7.478  0.0870  2.7114  3.2635
 8384SOL    HW236786   2.711   0.307   7.412  0.3397 -0.0280 -0.6319
 8385SOL     OW36787   2.127   0.046   2.992 -0.0884 -0.4344  0.3076
 8385SOL    HW136788   2.174   0.128   2.978 -1.6243  0.2495 -0.8287
 8385SOL    HW236789   2.103   0.049   3.084 -0.6204  1.9352  0.0797
 8386SOL     OW36790   3.759   1.545   4.807  0.3199 -0.4055  0.2576
 8386SOL    HW136791   3.741   1.636   4.832  1.1992  0.1177 -1.0282
 8386SOL    HW236792   3.682   1.520   4.756  0.9487 -0.9381 -0.4237
 8387SOL     OW36793   1.440   4.031   2.163  0.4691 -0.2269 -0.4504
 8387SOL    HW136794   1.425   4.090   2.236  0.2562 -0.7098 -0.1014
 8387SOL    HW236795   1.451   4.092   2.090 -0.6359  1.3536  0.7232
 8388SOL     OW36796   2.743   4.364   9.252 -0.5550 -0.1316 -0.0539
 8388SOL    HW136797   2.832   4.332   9.268 -0.8584 -0.8801  0.1500
 8388SOL    HW236798   2.690   4.285   9.242 -0.2159 -0.6316  2.0347
 8389SOL     OW36799   1.591   2.801   7.060  0.4362 -0.0804 -0.3323
 8389SOL    HW136800   1.671   2.759   7.091 -0.8360 -1.5809  0.9440
 8389SOL    HW236801   1.532   2.780   7.133  0.7835 -0.6855 -0.2282
 8390SOL     OW36802   3.163   3.560   1.399  0.3074  0.0437  0.4361
 8390SOL    HW136803   3.166   3.633   1.460 -1.8981  2.2517 -2.1039
 8390SOL    HW236804   3.074   3.573   1.365 -0.3809  0.5448  2.4363
 8391SOL     OW36805   1.331   0.631   7.133 -0.0084  0.1401 -0.0756
 8391SOL    HW136806   1.304   0.541   7.116 -0.1081  0.3532 -1.0544
 8391SOL    HW236807   1.254   0.676   7.099  0.7044 -0.7204 -2.8847
 8392SOL     OW36808   2.393   3.109   2.785 -0.1704 -0.4987 -0.5051
 8392SOL    HW136809   2.463   3.138   2.842  0.1446  0.1629 -1.2270
 8392SOL    HW236810   2.433   3.134   2.701 -1.2434 -0.8914 -1.1368
 8393SOL     OW36811   3.379   4.055   5.349  0.0194  0.0169 -0.2062
 8393SOL    HW136812   3.474   4.066   5.360 -0.1796  2.1801 -0.7095
 8393SOL    HW236813   3.376   3.964   5.377 -0.4878  0.5843  1.6108
 8394SOL     OW36814   3.562   2.834  15.668 -0.1826 -0.0524  0.1833
 8394SOL    HW136815   3.568   2.900  15.737  3.5301  1.3930 -1.4960
 8394SOL    HW236816   3.605   2.874  15.592 -0.9323  0.5898  0.0946
 8395SOL     OW36817   4.308   3.122   5.322 -0.1300 -0.0363 -0.1459
 8395SOL    HW136818   4.392   3.144   5.281  1.1218 -0.6760  2.1105
 8395SOL    HW236819   4.255   3.199   5.301 -0.9993 -1.2053 -2.3380
 8396SOL     OW36820   3.356   4.334   7.559  0.5631 -0.3793  0.6136
 8396SOL    HW136821   3.417   4.382   7.504 -1.3632 -0.2149 -1.3697
 8396SOL    HW236822   3.373   4.244   7.530  1.1451 -0.0343 -0.1214
 8397SOL     OW36823   3.541   0.473   1.063 -0.1031  0.3231  0.0390
 8397SOL    HW136824   3.527   0.565   1.040 -1.5703 -0.2807 -1.5050
 8397SOL    HW236825   3.614   0.482   1.124 -0.1066 -1.3576  0.2892
 8398SOL     OW36826   3.474   1.122   1.069  0.3022  0.2262 -0.0131
 8398SOL    HW136827   3.542   1.083   1.125  0.9171 -0.6161 -1.3489
 8398SOL    HW236828   3.403   1.122   1.133 -0.0641 -0.2113 -0.4283
 8399SOL     OW36829   1.356   0.501   1.287  0.1126 -0.1344  0.0968
 8399SOL    HW136830   1.378   0.443   1.214 -3.7759  0.7559 -1.7611
 8399SOL    HW236831   1.324   0.437   1.350  1.5860 -0.2331  0.7633
 8400SOL     OW36832   3.846   2.188  16.848 -0.2131  0.4909  0.4955
 8400SOL    HW136833   3.899   2.235  16.783  0.0350 -2.5919 -1.5502
 8400SOL    HW236834   3.886   2.213  16.931 -1.1869 -2.5272  1.8805
 8401SOL     OW36835   0.299   4.343   2.682  0.4203 -0.5445 -0.0045
 8401SOL    HW136836   0.298   4.248   2.672 -0.4027 -0.5901  0.4413
 8401SOL    HW236837   0.218   4.353   2.732  1.3846 -0.3935  1.5207
 8402SOL     OW36838   1.167   4.128  14.803 -0.0981  0.6398 -0.1047
 8402SOL    HW136839   1.248   4.079  14.786 -0.7566 -0.9848  1.4880
 8402SOL    HW236840   1.168   4.121  14.899  0.8569  2.2101 -0.0004
 8403SOL     OW36841   2.759   1.915  13.295  0.3253 -0.3800 -0.4292
 8403SOL    HW136842   2.754   1.989  13.235  0.4357  0.5624  0.7327
 8403SOL    HW236843   2.670   1.882  13.281  1.0309 -2.7085  0.5460
 8404SOL     OW36844   3.085   4.140  11.875 -0.0361 -0.0589  0.1534
 8404SOL    HW136845   3.075   4.055  11.832  0.1839  0.1370 -0.2795
 8404SOL    HW236846   3.160   4.128  11.933  0.6528 -0.1115 -0.7486
 8405SOL     OW36847   2.683   1.852   7.807 -0.2513  0.3490  0.1230
 8405SOL    HW136848   2.673   1.867   7.713 -0.8977 -0.0149  0.1302
 8405SOL    HW236849   2.718   1.763   7.798 -3.8152 -1.0574  0.0178
 8406SOL     OW36850   1.619   3.638  15.710 -0.7075  0.2635  0.2755
 8406SOL    HW136851   1.592   3.669  15.796 -1.3820 -1.7049  0.7881
 8406SOL    HW236852   1.692   3.698  15.697 -1.0700  0.7236  0.3720
 8407SOL     OW36853   3.861   0.870   5.057  0.3846 -0.8806 -0.0170
 8407SOL    HW136854   3.812   0.790   5.036  0.7405 -1.1793  0.2704
 8407SOL    HW236855   3.863   0.917   4.973  1.0523  0.6594  0.8652
 8408SOL     OW36856   2.188   2.279   6.955  0.1485 -0.6231 -0.5739
 8408SOL    HW136857   2.151   2.299   6.869  0.7801  1.1013 -0.4237
 8408SOL    HW236858   2.108   2.302   7.003  0.4656 -0.9845  0.1386
 8409SOL     OW36859   1.344   0.325   1.036  1.0568 -0.2005  0.1039
 8409SOL    HW136860   1.435   0.299   1.046  0.5852 -1.6107  0.8138
 8409SOL    HW236861   1.308   0.267   0.969  0.3632  0.7036 -0.3025
 8410SOL     OW36862   1.857   1.104  14.432  0.2025 -0.0688  0.3128
 8410SOL    HW136863   1.916   1.063  14.496  1.9771  1.2985 -0.4291
 8410SOL    HW236864   1.917   1.152  14.374 -2.2608 -0.2952 -2.4296
 8411SOL     OW36865   1.902   1.331  12.871 -0.1055 -0.0461  0.2066
 8411SOL    HW136866   1.935   1.401  12.928 -0.4554  0.2984 -0.0146
 8411SOL    HW236867   1.883   1.387  12.795  0.1801 -2.9820 -2.0448
 8412SOL     OW36868   0.923   4.177   6.802  0.0063  0.0133 -0.6104
 8412SOL    HW136869   0.888   4.152   6.716 -1.3943 -0.8420  0.2124
 8412SOL    HW236870   0.905   4.271   6.798 -1.2793 -0.2483 -1.0396
 8413SOL     OW36871   0.663   3.347   2.842  0.2750 -0.1065 -0.2431
 8413SOL    HW136872   0.751   3.352   2.878 -0.1215  0.2112  0.6792
 8413SOL    HW236873   0.679   3.333   2.749 -0.5548  0.1315 -0.4263
 8414SOL     OW36874   3.583   0.285   2.005 -0.2119 -0.3195  0.0489
 8414SOL    HW136875   3.517   0.297   2.073  1.1947  0.3100  1.3024
 8414SOL    HW236876   3.531   0.251   1.932 -0.8096  1.7416 -0.4921
 8415SOL     OW36877   1.986   0.262   8.505 -0.5338  0.1481  0.5547
 8415SOL    HW136878   1.912   0.212   8.472  0.7434  0.8884 -3.4691
 8415SOL    HW236879   1.970   0.337   8.448  1.1442  0.2225  0.1774
 8416SOL     OW36880   4.210   2.596   5.255 -0.2956 -0.8322 -0.1075
 8416SOL    HW136881   4.221   2.691   5.267 -1.0630 -0.7612  0.1062
 8416SOL    HW236882   4.219   2.591   5.160 -1.8534 -0.0139 -0.3140
 8417SOL     OW36883   4.287   1.841   8.271 -0.4320 -0.4962  0.5547
 8417SOL    HW136884   4.229   1.917   8.273 -1.1741 -0.9873 -3.6557
 8417SOL    HW236885   4.282   1.816   8.363 -0.6408 -0.4836  0.5470
 8418SOL     OW36886   1.516   2.947   0.937 -0.7863 -0.0816 -0.2447
 8418SOL    HW136887   1.569   3.015   0.978 -1.5098  1.3258 -1.6741
 8418SOL    HW236888   1.433   2.992   0.927  0.3333  1.9705 -0.3251
 8419SOL     OW36889   1.360   1.357   5.680 -0.4623  0.0291 -0.0296
 8419SOL    HW136890   1.442   1.322   5.714 -0.9432 -1.5624 -0.4908
 8419SOL    HW236891   1.306   1.369   5.758 -0.0774  1.1453  0.0615
 8420SOL     OW36892   1.800   0.538   0.475  0.1805 -0.8748 -0.5438
 8420SOL    HW136893   1.733   0.478   0.507 -0.7196  0.1822 -0.4421
 8420SOL    HW236894   1.816   0.580   0.560  1.1359  0.2316 -1.2639
 8421SOL     OW36895   0.220   3.503  17.649  0.1189 -0.2037  0.7662
 8421SOL    HW136896   0.244   3.572  17.711 -2.9494  1.8637 -0.3115
 8421SOL    HW236897   0.128   3.524  17.630  0.8267  0.9557 -1.3782
 8422SOL     OW36898   0.465   0.898  11.765  0.3779  0.3031 -0.2452
 8422SOL    HW136899   0.446   0.989  11.743  2.4214  0.9193  0.5581
 8422SOL    HW236900   0.383   0.852  11.783  0.9519  0.6924  3.4266
 8423SOL     OW36901   4.272   4.370   9.892 -0.1476  0.6198  0.6772
 8423SOL    HW136902   4.349   4.426   9.894 -0.1197  0.6183 -0.3548
 8423SOL    HW236903   4.285   4.325   9.976  0.0456 -0.5418  0.0260
 8424SOL     OW36904   1.278   0.599   2.938  0.6157 -0.0232  0.3730
 8424SOL    HW136905   1.215   0.548   2.989  0.4465  0.9478  1.1448
 8424SOL    HW236906   1.323   0.532   2.887 -1.8918 -0.0245 -1.7785
 8425SOL     OW36907   0.802   4.494  16.924  0.0878 -0.6110 -0.1560
 8425SOL    HW136908   0.763   4.529  16.843 -0.1284 -1.1876 -0.3016
 8425SOL    HW236909   0.781   4.571  16.978  0.3545 -0.1955 -0.6495
 8426SOL     OW36910   4.624   3.929   3.633  0.1966  0.2924 -0.2595
 8426SOL    HW136911   4.539   3.963   3.659 -1.8333 -1.2904 -4.9289
 8426SOL    HW236912   4.662   3.904   3.718 -0.4116  0.7359  0.1447
 8427SOL     OW36913   1.959   4.408   3.834 -0.2665 -0.0808  0.2128
 8427SOL    HW136914   1.963   4.395   3.928  1.3068 -1.4672 -0.0419
 8427SOL    HW236915   2.008   4.335   3.797 -1.5280 -0.5516 -0.5305
 8428SOL     OW36916   0.938   2.149   9.204 -0.5082  0.9469 -0.3336
 8428SOL    HW136917   0.861   2.117   9.157 -0.8773  0.7682  0.4044
 8428SOL    HW236918   0.976   2.078   9.255  3.7475  2.2971 -1.6242
 8429SOL     OW36919   2.460   3.438   4.498  0.2796  0.2458  0.0729
 8429SOL    HW136920   2.547   3.420   4.535  0.1880 -0.5600 -0.1023
 8429SOL    HW236921   2.442   3.359   4.447 -1.7197  1.6280 -1.3187
 8430SOL     OW36922   0.227   1.506   1.984  0.4976 -0.1807 -0.1206
 8430SOL    HW136923   0.319   1.514   2.007  0.3186  0.4512  0.3551
 8430SOL    HW236924   0.225   1.503   1.888  0.6579  0.6153 -0.1445
 8431SOL     OW36925   4.238   0.309  12.827 -0.3182 -0.3497 -0.0412
 8431SOL    HW136926   4.216   0.400  12.847  2.6893  0.3758 -0.0512
 8431SOL    HW236927   4.328   0.299  12.858  0.4465 -2.3475 -2.9083
 8432SOL     OW36928   1.697   3.696   5.257  0.1305  0.2635 -0.6125
 8432SOL    HW136929   1.630   3.732   5.200 -0.3326 -4.2618 -2.9243
 8432SOL    HW236930   1.702   3.746   5.339  0.5970  1.9100 -1.6589
 8433SOL     OW36931   2.712   2.198   4.802 -0.0354 -0.4025 -0.0249
 8433SOL    HW136932   2.633   2.250   4.785 -0.1675 -0.8762 -0.8830
 8433SOL    HW236933   2.723   2.205   4.897  1.5822 -1.3090 -0.1530
 8434SOL     OW36934   2.871   3.317   7.729 -0.3754 -0.6194 -0.6883
 8434SOL    HW136935   2.915   3.382   7.675 -0.0556 -1.6093 -1.6239
 8434SOL    HW236936   2.805   3.290   7.665 -0.0221 -4.0316  0.3648
 8435SOL     OW36937   1.348   1.883   6.525  0.0272 -0.0730  0.2774
 8435SOL    HW136938   1.414   1.953   6.525 -0.5196  0.4548 -2.5842
 8435SOL    HW236939   1.395   1.827   6.463 -0.5330 -0.0787 -0.1428
 8436SOL     OW36940   3.046   3.917   7.020 -0.3336  0.5232  0.6415
 8436SOL    HW136941   2.991   3.882   7.090 -0.0204 -0.7661  0.2461
 8436SOL    HW236942   2.990   3.915   6.943 -1.0583  0.9179  1.1615
 8437SOL     OW36943   3.354   2.117   9.073  0.2113  0.2360 -0.2898
 8437SOL    HW136944   3.443   2.150   9.084  0.8216 -1.2845 -0.5465
 8437SOL    HW236945   3.332   2.125   8.981 -0.3691 -2.2356 -0.3775
 8438SOL     OW36946   3.177   0.154   7.059 -0.3050  0.4251  0.3722
 8438SOL    HW136947   3.145   0.242   7.044 -0.8842  0.4525  1.7186
 8438SOL    HW236948   3.196   0.169   7.152  0.7733  2.5846 -0.2222
 8439SOL     OW36949   1.144   3.962   7.914 -0.7942  0.1700  0.2193
 8439SOL    HW136950   1.168   3.884   7.963  0.7307  0.3002 -0.3190
 8439SOL    HW236951   1.177   4.028   7.975  1.4914  0.3876 -1.2514
 8440SOL     OW36952   2.292   0.580   8.537 -0.4410  0.0494  0.3108
 8440SOL    HW136953   2.302   0.621   8.623 -1.1969  0.9919 -0.0567
 8440SOL    HW236954   2.347   0.634   8.480 -0.3251  0.9677  1.2803
 8441SOL     OW36955   3.111   0.406   6.732  0.1780 -0.4360 -0.3522
 8441SOL    HW136956   3.139   0.314   6.730  1.0491 -0.1862  0.3823
 8441SOL    HW236957   3.097   0.428   6.640  0.0460 -0.0931 -0.2490
 8442SOL     OW36958   3.833   0.673   8.107  0.4047 -0.6520  0.6688
 8442SOL    HW136959   3.835   0.754   8.158  1.4973  0.8610 -1.7864
 8442SOL    HW236960   3.805   0.611   8.174 -0.3083  2.9929  3.7421
 8443SOL     OW36961   4.314   2.560  11.676 -0.3337 -0.1710 -1.0941
 8443SOL    HW136962   4.264   2.605  11.744  1.3034  0.2034 -0.1199
 8443SOL    HW236963   4.344   2.640  11.632  1.4266  0.0788  0.5402
 8444SOL     OW36964   4.607   3.026   8.188 -0.3370 -0.0065  0.5805
 8444SOL    HW136965   4.671   3.088   8.221 -0.3017 -0.2056  0.8887
 8444SOL    HW236966   4.669   2.963   8.150 -3.2301 -2.3662 -0.2601
 8445SOL     OW36967   4.513   0.470  17.372  0.0959  0.4602 -0.1069
 8445SOL    HW136968   4.460   0.396  17.342 -0.4615  1.7099 -2.2302
 8445SOL    HW236969   4.564   0.419  17.435  0.9939  0.3863 -0.9012
 8446SOL     OW36970   4.390   1.493   2.060  0.0007  0.3091  0.6767
 8446SOL    HW136971   4.342   1.567   2.023  0.4059  0.0728 -0.3079
 8446SOL    HW236972   4.445   1.482   1.983  0.0128  0.8031  0.6182
 8447SOL     OW36973   0.151   1.617  14.265 -0.4328 -0.1408  0.0844
 8447SOL    HW136974   0.096   1.577  14.198  1.3259 -0.6681 -1.0485
 8447SOL    HW236975   0.194   1.687  14.215 -2.2980  1.2527  0.4332
 8448SOL     OW36976   2.523   4.020  17.290  0.1771  0.1965  0.0597
 8448SOL    HW136977   2.452   3.987  17.235  1.1940  1.4498 -2.0203
 8448SOL    HW236978   2.583   3.946  17.283  0.2685  0.1706  1.2215
 8449SOL     OW36979   1.838   4.666  17.229  0.4075  0.4671  0.0590
 8449SOL    HW136980   1.743   4.656  17.222  0.4781 -0.4292  0.2544
 8449SOL    HW236981   1.836   4.701  17.318 -1.5813 -0.6804  0.4787
 8450SOL     OW36982   4.397   0.097   3.741 -0.3556  0.5046 -0.1314
 8450SOL    HW136983   4.396   0.147   3.660  1.1176  0.6140 -0.0802
 8450SOL    HW236984   4.398   0.162   3.812  2.3752 -0.0934  0.3779
 8451SOL     OW36985   1.682   2.240   7.732 -0.2107  0.0841  0.2832
 8451SOL    HW136986   1.734   2.314   7.765 -0.5001 -0.1334  1.2319
 8451SOL    HW236987   1.595   2.265   7.766  0.1118 -0.0316  1.2003
 8452SOL     OW36988   3.782   1.327   7.072 -0.4247  0.1365 -0.5532
 8452SOL    HW136989   3.873   1.299   7.066 -0.9111 -2.0159  2.2867
 8452SOL    HW236990   3.775   1.370   7.157 -1.3464 -0.0487 -0.5309
 8453SOL     OW36991   4.410   2.390   1.284 -0.1416  0.8404 -0.0555
 8453SOL    HW136992   4.353   2.360   1.355 -0.8799  2.1839 -0.0898
 8453SOL    HW236993   4.388   2.328   1.215 -1.6773  0.4224  0.8040
 8454SOL     OW36994   1.381   4.514   4.056  0.0995 -0.1649  0.2474
 8454SOL    HW136995   1.470   4.515   4.022 -0.2256 -0.4513 -0.6120
 8454SOL    HW236996   1.361   4.422   4.037  0.2353  0.4128 -2.6842
 8455SOL     OW36997   2.467   4.725   2.727 -0.0386  0.0861  0.0473
 8455SOL    HW136998   2.541   4.704   2.671 -2.1292 -2.9182 -1.5667
 8455SOL    HW236999   2.483   0.077   2.734 -2.9146  0.4144  2.5238
 8456SOL     OW37000   0.039   0.806   1.608 -0.1097  0.5928 -0.6806
 8456SOL    HW137001   4.703   0.844   1.649  0.1356  1.7538 -1.2666
 8456SOL    HW237002   0.085   0.885   1.578  0.5517 -0.1351 -1.5626
 8457SOL     OW37003   3.531   4.552   4.536 -0.1279 -0.4943 -0.4440
 8457SOL    HW137004   3.442   4.539   4.504 -0.0661 -2.2452  0.0784
 8457SOL    HW237005   3.530   4.645   4.557 -2.2022 -0.3173 -1.3594
 8458SOL     OW37006   3.660   2.776   8.791  0.3975 -0.2917  0.5342
 8458SOL    HW137007   3.726   2.723   8.746 -0.0753 -1.0585  0.7383
 8458SOL    HW237008   3.719   2.843   8.825 -1.8745  1.4397  1.0861
 8459SOL     OW37009   1.173   3.674   8.048  0.4130 -0.0705 -0.4010
 8459SOL    HW137010   1.241   3.637   7.992 -0.6946 -1.4619 -0.8096
 8459SOL    HW237011   1.178   3.617   8.125  0.4235  0.0765 -0.2934
 8460SOL     OW37012   1.254   4.242   1.524  0.3574 -0.3917 -0.0408
 8460SOL    HW137013   1.292   4.330   1.521 -3.5430  1.3316  0.8726
 8460SOL    HW237014   1.169   4.259   1.563  0.5633 -1.3348  0.8187
 8461SOL     OW37015   1.228   1.749  12.970  0.3787  0.2092  0.2579
 8461SOL    HW137016   1.300   1.803  12.940  1.2250 -0.2693  1.4282
 8461SOL    HW237017   1.252   1.661  12.942 -1.8606 -1.5031  3.5925
 8462SOL     OW37018   0.816   4.153   0.203 -0.0518  0.3394  0.5875
 8462SOL    HW137019   0.766   4.109   0.273 -0.3213 -2.6626 -1.5076
 8462SOL    HW237020   0.766   4.235   0.192 -0.6083  0.2134  2.1374
 8463SOL     OW37021   0.159   3.685   1.456  0.5104  0.1162 -0.0296
 8463SOL    HW137022   0.126   3.765   1.496 -1.2016 -0.6864  0.1784
 8463SOL    HW237023   0.104   3.620   1.500  2.0254 -1.0651  0.1129
 8464SOL     OW37024   1.651   3.320  17.547  0.1007 -0.1824  0.9003
 8464SOL    HW137025   1.686   3.342  17.633  0.1714 -1.4030  1.1776
 8464SOL    HW237026   1.560   3.348  17.560 -0.3399 -2.7616  3.2090
 8465SOL     OW37027   1.709   1.908  12.952 -0.0785  0.1789 -0.2885
 8465SOL    HW137028   1.790   1.920  12.902 -0.3115  3.4312  0.1070
 8465SOL    HW237029   1.725   1.985  13.007  2.7452 -0.3929 -0.3037
 8466SOL     OW37030   0.236   1.674   2.887 -0.1730  0.2123 -0.4570
 8466SOL    HW137031   0.199   1.598   2.842 -1.1807 -0.2253  1.0978
 8466SOL    HW237032   0.329   1.655   2.883 -0.5072 -1.1717 -1.5002
 8467SOL     OW37033   3.465   2.865   3.607  0.0288 -0.1744  0.1630
 8467SOL    HW137034   3.383   2.824   3.580 -1.4776  1.5227  2.1705
 8467SOL    HW237035   3.443   2.863   3.701  1.3218  0.1140  0.4687
 8468SOL     OW37036   3.339   2.573   4.381  0.0757 -0.5805 -0.0367
 8468SOL    HW137037   3.252   2.567   4.342  1.3502 -1.1472 -2.8287
 8468SOL    HW237038   3.383   2.493   4.351 -1.0393 -1.4654  0.6435
 8469SOL     OW37039   2.261   3.162  15.116 -1.2670 -0.0220  0.5935
 8469SOL    HW137040   2.295   3.173  15.205  0.5513  1.6666 -0.3141
 8469SOL    HW237041   2.284   3.250  15.088 -2.4048 -0.7619 -2.6870
 8470SOL     OW37042   2.404   3.229   8.701  0.3114  0.0501 -0.2252
 8470SOL    HW137043   2.403   3.230   8.797 -2.3020  1.3108 -0.2631
 8470SOL    HW237044   2.423   3.136   8.688 -1.0873 -0.2631  0.0008
 8471SOL     OW37045   0.563   4.331   3.459 -0.3017  0.2648 -0.3620
 8471SOL    HW137046   0.578   4.425   3.472  1.3747 -0.3802  2.2089
 8471SOL    HW237047   0.611   4.289   3.530  0.1337 -1.6151 -1.7504
 8472SOL     OW37048   0.187   2.447   6.947  0.5010 -0.3033 -0.0718
 8472SOL    HW137049   0.157   2.493   6.869 -0.4493 -2.1878 -0.8094
 8472SOL    HW237050   0.126   2.374   6.939  1.0135 -0.8033  0.5670
 8473SOL     OW37051   0.724   0.230   0.700 -0.0541 -0.0291 -0.2605
 8473SOL    HW137052   0.755   0.169   0.768 -2.5419 -1.4651 -0.4268
 8473SOL    HW237053   0.639   0.263   0.727 -0.1372  0.7195 -1.4260
 8474SOL     OW37054   1.231   3.379  11.624 -0.6463  0.0458  0.3682
 8474SOL    HW137055   1.166   3.437  11.584 -0.7939  0.0065  0.5505
 8474SOL    HW237056   1.177   3.338  11.692 -1.7748  0.3202 -0.3554
 8475SOL     OW37057   0.743   2.980  14.204  0.5068 -0.8040 -0.7009
 8475SOL    HW137058   0.830   2.942  14.215  0.5792 -0.3662  0.2484
 8475SOL    HW237059   0.684   2.904  14.213 -0.5509  0.2406  1.0556
 8476SOL     OW37060   3.179   3.086   9.483  0.1193  0.0333 -0.0652
 8476SOL    HW137061   3.092   3.076   9.522  1.3201 -4.1450  1.5580
 8476SOL    HW237062   3.173   3.181   9.474 -0.0794 -0.1286 -1.5904
 8477SOL     OW37063   3.216   2.184   3.689 -0.2982 -0.7061  0.3194
 8477SOL    HW137064   3.153   2.127   3.646 -0.2240  1.2910 -2.4452
 8477SOL    HW237065   3.176   2.270   3.673 -1.6224 -1.1870  1.0850
 8478SOL     OW37066   2.241   3.258   6.156  0.2413 -0.6891 -0.2367
 8478SOL    HW137067   2.249   3.175   6.109 -2.4463 -0.5658 -0.9268
 8478SOL    HW237068   2.184   3.231   6.227  1.1167  1.8360  1.4480
 8479SOL     OW37069   4.401   2.293   9.389  0.4329  0.1486  0.3999
 8479SOL    HW137070   4.332   2.266   9.449 -0.3397  0.3336 -0.3969
 8479SOL    HW237071   4.386   2.256   9.302  1.0904  2.0926 -0.5488
 8480SOL     OW37072   1.009   3.608   9.153 -0.1236 -0.4665  0.5690
 8480SOL    HW137073   0.942   3.571   9.096 -0.6842 -0.7698  1.4219
 8480SOL    HW237074   0.954   3.641   9.224  0.1784  1.6043 -0.1458
 8481SOL     OW37075   0.563   2.090  16.876  0.1279 -0.1362  0.5893
 8481SOL    HW137076   0.579   2.172  16.922  1.1614 -0.3631  0.6446
 8481SOL    HW237077   0.483   2.110  16.828  1.1881  2.0965 -0.2735
 8482SOL     OW37078   1.949   0.463   7.123 -0.3779 -0.4104 -0.6875
 8482SOL    HW137079   1.911   0.423   7.201 -0.4086  2.0523  0.5550
 8482SOL    HW237080   1.956   0.388   7.064 -1.5963 -1.3174  0.3122
 8483SOL     OW37081   3.883   0.996   6.058  0.3807  0.4885  0.2277
 8483SOL    HW137082   3.855   1.011   5.968  0.1636  0.7260  0.3320
 8483SOL    HW237083   3.841   0.911   6.071  0.6144 -0.1656 -3.2829
 8484SOL     OW37084   0.277   4.484   8.762 -0.9170 -0.2904  0.2807
 8484SOL    HW137085   0.318   4.504   8.679 -0.7813 -0.5788  0.2766
 8484SOL    HW237086   0.207   4.549   8.754 -1.4987 -1.1775 -1.8044
 8485SOL     OW37087   1.076   2.139   2.795  0.2462 -0.2437  0.4166
 8485SOL    HW137088   1.144   2.193   2.836 -0.4170 -0.2162  1.4772
 8485SOL    HW237089   1.042   2.090   2.869  1.7468  0.8914  1.8675
 8486SOL     OW37090   3.970   4.128   6.668  0.0864 -0.0788 -0.6527
 8486SOL    HW137091   3.939   4.066   6.602 -2.6654 -2.5550  2.9668
 8486SOL    HW237092   4.002   4.076   6.741 -0.0879 -1.8408 -1.8105
 8487SOL     OW37093   2.943   1.117   3.716 -0.4202  0.8746 -0.0576
 8487SOL    HW137094   2.986   1.086   3.796  1.2099  2.4505 -0.3282
 8487SOL    HW237095   3.018   1.125   3.657 -0.2676  1.6629  0.2380
 8488SOL     OW37096   0.662   2.043   6.544 -0.8169 -0.4590  0.5664
 8488SOL    HW137097   0.710   2.069   6.622 -0.0094  1.1603 -0.4661
 8488SOL    HW237098   0.624   2.125   6.510  1.8036  0.6366  0.2974
 8489SOL     OW37099   4.634   4.353   9.731 -0.2486  0.1238 -0.4312
 8489SOL    HW137100   4.634   4.449   9.729  0.3958  0.1379  0.1292
 8489SOL    HW237101   4.700   4.328   9.667  0.2592  0.2384  0.0503
 8490SOL     OW37102   0.803   0.906   1.189 -0.0474 -0.0518  0.3576
 8490SOL    HW137103   0.709   0.904   1.208 -0.0246 -1.2363  0.3412
 8490SOL    HW237104   0.837   0.967   1.255  0.8472 -0.5059  0.3122
 8491SOL     OW37105   0.805   2.202  13.060  0.3355  0.1737 -0.0844
 8491SOL    HW137106   0.782   2.193  13.153  0.8330 -2.3378 -0.2038
 8491SOL    HW237107   0.845   2.115  13.050  0.7103  0.0078  2.8587
 8492SOL     OW37108   1.257   3.723  16.065  0.0528  0.5759  0.4846
 8492SOL    HW137109   1.271   3.786  15.994  1.0553 -0.1788  0.0270
 8492SOL    HW237110   1.162   3.733  16.070  0.1177  1.7023 -0.4787
 8493SOL     OW37111   0.932   3.307   7.885 -0.1921  0.8087 -0.0315
 8493SOL    HW137112   0.994   3.281   7.952  0.2472  2.8922  0.3698
 8493SOL    HW237113   0.856   3.340   7.933 -0.4079 -1.7602  1.3908
 8494SOL     OW37114   0.749   0.354  10.656  0.0865 -0.1495 -0.3892
 8494SOL    HW137115   0.842   0.336  10.664  0.1021 -0.0941 -0.4521
 8494SOL    HW237116   0.714   0.265  10.644  1.2464 -0.5800 -0.5247
 8495SOL     OW37117   1.962   4.686  11.834  0.0396 -0.0762 -0.0631
 8495SOL    HW137118   1.939   0.033  11.807  1.1109  0.3484  0.4291
 8495SOL    HW237119   1.872   4.661  11.857 -0.3890  1.0456 -0.4772
 8496SOL     OW37120   3.686   1.367   6.647 -0.7280 -0.2343  0.5761
 8496SOL    HW137121   3.761   1.361   6.706  1.1602  2.7288 -1.5419
 8496SOL    HW237122   3.694   1.286   6.597 -0.5186 -0.9917  1.8507
 8497SOL     OW37123   1.360   4.040   6.584  0.2680  0.2736 -0.0917
 8497SOL    HW137124   1.411   4.109   6.626  0.1169  0.9285 -0.9817
 8497SOL    HW237125   1.434   3.981   6.573  0.2513  0.3592 -0.6760
 8498SOL     OW37126   2.565   1.935   8.021 -0.3366  0.4168  0.1029
 8498SOL    HW137127   2.493   1.948   7.959  0.0919  0.5563 -0.3706
 8498SOL    HW237128   2.634   1.918   7.956 -0.1679 -0.6360  0.5567
 8499SOL     OW37129   0.425   4.248   8.775 -0.1585  0.5298  0.7385
 8499SOL    HW137130   0.382   4.333   8.782  0.0025  0.6892 -0.1559
 8499SOL    HW237131   0.477   4.251   8.694 -1.2544  1.9464  0.0951
 8500SOL     OW37132   4.565   2.652   3.774 -0.1949  0.3179 -0.0729
 8500SOL    HW137133   4.652   2.662   3.813 -1.5042 -0.0380  2.9499
 8500SOL    HW237134   4.519   2.623   3.853 -1.6785  1.0938 -0.6639
 8501SOL     OW37135   4.252   4.418   4.311  0.4076 -0.1542  0.4294
 8501SOL    HW137136   4.190   4.454   4.246 -0.3882  0.8440  1.7478
 8501SOL    HW237137   4.331   4.472   4.304  0.9283 -0.7008  2.1434
 8502SOL     OW37138   4.305   3.774   8.019  0.1020 -0.4944 -0.6216
 8502SOL    HW137139   4.292   3.708   8.087 -3.0726 -1.0516 -1.7956
 8502SOL    HW237140   4.374   3.741   7.961 -0.0877 -1.4531 -0.3028
 8503SOL     OW37141   1.525   3.460  12.061 -0.1676  0.4704  0.1355
 8503SOL    HW137142   1.502   3.370  12.081  1.9442 -0.4176 -1.4883
 8503SOL    HW237143   1.498   3.462  11.969 -0.5271  2.7236  0.2811
 8504SOL     OW37144   4.007   0.652  10.632 -0.4628 -0.6068  0.1320
 8504SOL    HW137145   3.965   0.597  10.697  0.6902 -1.2625  0.3314
 8504SOL    HW237146   4.034   0.590  10.564 -0.6435  1.5807 -1.9687
 8505SOL     OW37147   1.670   2.927   7.792  0.5617 -0.3619  0.2097
 8505SOL    HW137148   1.609   3.000   7.803  1.0583  0.2656 -1.0526
 8505SOL    HW237149   1.742   2.985   7.765 -0.8803  1.2251 -0.2463
 8506SOL     OW37150   4.147   1.569   8.891  0.5281 -0.2566  0.4251
 8506SOL    HW137151   4.234   1.608   8.884  1.1699 -1.8713 -0.6916
 8506SOL    HW237152   4.142   1.517   8.811  1.7534  2.1594 -1.2155
 8507SOL     OW37153   0.279   0.666   0.459 -0.3489  0.3028  0.1141
 8507SOL    HW137154   0.364   0.657   0.502  0.0839  0.2619 -0.7497
 8507SOL    HW237155   0.289   0.611   0.381 -0.6280 -0.3232  0.5148
 8508SOL     OW37156   3.917   3.728   8.807  0.0721 -0.1562  0.4312
 8508SOL    HW137157   3.924   3.642   8.847  1.4234 -0.5930 -0.7797
 8508SOL    HW237158   3.944   3.704   8.718  1.5576 -1.7715  1.3351
 8509SOL     OW37159   1.961   0.659   4.813 -0.0004 -0.1302 -0.1072
 8509SOL    HW137160   2.005   0.743   4.796 -2.4909  0.9366 -1.3428
 8509SOL    HW237161   1.957   0.655   4.908 -2.7573  0.7670 -0.1853
 8510SOL     OW37162   0.550   0.466   7.402  0.2192  0.0286 -0.0832
 8510SOL    HW137163   0.526   0.478   7.311 -1.2996 -0.7446  0.2199
 8510SOL    HW237164   0.641   0.443   7.382  1.0182  0.9474  2.3175
 8511SOL     OW37165   0.308   0.016   8.258  0.0375 -0.0588  0.4304
 8511SOL    HW137166   0.358   0.097   8.245 -0.2487  0.0683  0.1292
 8511SOL    HW237167   0.301   4.730   8.167  0.2573 -1.0522  0.7243
 8512SOL     OW37168   0.395   3.587   7.803 -0.0490 -0.0255 -0.2283
 8512SOL    HW137169   0.395   3.555   7.713  0.3690  0.6686 -0.4767
 8512SOL    HW237170   0.372   3.509   7.853 -1.8216 -0.4855 -1.7764
 8513SOL     OW37171   3.073   0.080   5.224 -0.2888 -0.1904  0.8468
 8513SOL    HW137172   3.119   0.061   5.142  2.7382 -1.0480  2.7356
 8513SOL    HW237173   3.137   0.052   5.289 -0.1196  0.4879  0.9712
 8514SOL     OW37174   0.672   1.359  11.108 -0.2664 -0.8148 -0.6626
 8514SOL    HW137175   0.708   1.276  11.138 -2.1235 -0.3741  2.7143
 8514SOL    HW237176   0.710   1.420  11.172 -0.6577 -1.8813  0.5838
 8515SOL     OW37177   3.146   2.655  10.002 -0.0535 -0.1005 -0.2302
 8515SOL    HW137178   3.111   2.671  10.089 -0.1008 -0.1917 -0.2318
 8515SOL    HW237179   3.228   2.610  10.019 -0.3637 -1.5800 -2.6304
 8516SOL     OW37180   1.715   0.077   0.381 -0.3766 -0.6864  0.2277
 8516SOL    HW137181   1.671   0.118   0.455 -3.1676 -2.8142 -0.2622
 8516SOL    HW237182   1.765   0.009   0.425 -0.3579 -1.5620 -1.1281
 8517SOL     OW37183   3.713   0.188  17.010  0.0303  0.6784  0.7193
 8517SOL    HW137184   3.717   0.160  17.101 -1.4023 -1.7513  0.0342
 8517SOL    HW237185   3.718   0.108  16.958 -3.4186 -0.2500  1.8319
 8518SOL     OW37186   0.732   2.108   7.512  0.1072  0.3512 -0.6426
 8518SOL    HW137187   0.703   2.132   7.600  2.3607 -1.0602  0.4870
 8518SOL    HW237188   0.817   2.071   7.536  1.6596  2.8803 -2.1703
 8519SOL     OW37189   0.860   4.451   0.804 -0.2202  0.6762  0.7798
 8519SOL    HW137190   0.891   4.380   0.747  0.8860  0.0395  2.1598
 8519SOL    HW237191   0.862   4.420   0.894 -0.2805  0.6168  0.7613
 8520SOL     OW37192   1.019   3.378   3.377 -0.3794 -0.1245 -0.3700
 8520SOL    HW137193   1.026   3.333   3.462 -1.7233  0.0941 -0.1465
 8520SOL    HW237194   0.937   3.427   3.386  0.2501  1.2554 -2.2412
 8521SOL     OW37195   3.603   2.811   4.148  0.0533  0.4794 -0.0912
 8521SOL    HW137196   3.530   2.795   4.087 -0.8375  3.3773  0.2227
 8521SOL    HW237197   3.611   2.906   4.141  1.7232  0.2502 -1.2978
 8522SOL     OW37198   4.086   4.261  17.266  0.1438 -0.1661 -0.4509
 8522SOL    HW137199   4.015   4.243  17.205 -1.1433  1.9593  0.4321
 8522SOL    HW237200   4.110   4.353  17.252 -0.7517 -0.0365 -1.1099
 8523SOL     OW37201   0.325   0.980   8.697 -0.2301  0.1184  0.1002
 8523SOL    HW137202   0.389   0.911   8.680  1.6249  1.5745  1.2029
 8523SOL    HW237203   0.245   0.933   8.720  0.1590 -1.4303 -1.6990
 8524SOL     OW37204   2.611   0.089   3.771  0.6165 -0.0579  0.2052
 8524SOL    HW137205   2.605   0.182   3.791  0.8002  0.4742 -2.1706
 8524SOL    HW237206   2.522   0.059   3.752  0.7936  0.5504 -1.6009
 8525SOL     OW37207   1.403   3.321   2.300 -0.1817 -0.0925 -0.1152
 8525SOL    HW137208   1.344   3.284   2.366 -0.7187 -0.2409 -0.6865
 8525SOL    HW237209   1.352   3.382   2.247 -3.7374  0.2044  3.6037
 8526SOL     OW37210   3.121   1.192  14.021 -0.3417  0.4288  0.2126
 8526SOL    HW137211   3.213   1.216  14.012 -0.0475  0.6756  3.7420
 8526SOL    HW237212   3.110   1.232  14.107  0.3409  0.8089  0.1195
 8527SOL     OW37213   3.225   2.749   4.569  0.4470 -0.1263  0.0579
 8527SOL    HW137214   3.267   2.675   4.524 -0.3992 -0.8024  0.3858
 8527SOL    HW237215   3.196   2.803   4.496 -0.8187 -1.2919 -0.2920
 8528SOL     OW37216   3.079   3.868  11.480  0.5262  0.4967  0.2650
 8528SOL    HW137217   3.015   3.920  11.431  1.2685  1.7060  0.5924
 8528SOL    HW237218   3.084   3.919  11.561 -0.0312  0.9157  0.0346
 8529SOL     OW37219   2.916   3.347   1.772  0.2361 -0.3333 -0.1154
 8529SOL    HW137220   2.869   3.412   1.720  0.4189  0.2827  0.4967
 8529SOL    HW237221   2.859   3.349   1.848 -2.7137  0.6904 -2.3399
 8530SOL     OW37222   3.018   0.847   2.331 -0.5462 -0.1276 -0.0418
 8530SOL    HW137223   3.018   0.827   2.424  0.9829  0.2249  0.0344
 8530SOL    HW237224   2.933   0.891   2.329  0.8757  2.6965  1.9513
 8531SOL     OW37225   1.411   0.764   4.111 -0.0114  0.0499 -0.2075
 8531SOL    HW137226   1.315   0.765   4.121  0.0570 -0.1118  0.4867
 8531SOL    HW237227   1.403   0.814   4.030  0.1853  3.0058  1.6082
 8532SOL     OW37228   2.739   0.418   9.117  0.3340  0.3279  0.0356
 8532SOL    HW137229   2.735   0.492   9.057  1.6355 -0.0530 -0.5287
 8532SOL    HW237230   2.671   0.441   9.180 -0.6632 -2.8786  0.1618
 8533SOL     OW37231   0.706   4.047  17.534  0.0917 -0.0884  0.0011
 8533SOL    HW137232   0.664   4.006  17.609 -0.2933  0.8946  0.3140
 8533SOL    HW237233   0.703   4.139  17.560 -1.2277 -0.5209  1.3761
 8534SOL     OW37234   2.592   0.836   6.687 -0.1049  0.0286 -0.6970
 8534SOL    HW137235   2.543   0.755   6.673  0.1073 -0.3028  0.4936
 8534SOL    HW237236   2.528   0.879   6.746  0.6673  2.8444 -1.8887
 8535SOL     OW37237   0.097   1.979   0.240 -0.2064  0.5004 -0.2094
 8535SOL    HW137238   0.177   1.962   0.190 -0.0576 -1.3301  0.6470
 8535SOL    HW237239   0.136   1.995   0.326  0.6745  1.6384 -0.8303
 8536SOL     OW37240   2.692   1.551   4.811  0.0479 -0.1665  0.0870
 8536SOL    HW137241   2.673   1.476   4.755  3.1971 -0.2567 -0.8998
 8536SOL    HW237242   2.667   1.625   4.756  1.8918  0.0654 -0.4363
 8537SOL     OW37243   3.781   0.291   6.692 -0.0418  0.0253 -0.3484
 8537SOL    HW137244   3.800   0.224   6.758  0.4009 -0.0481 -0.5532
 8537SOL    HW237245   3.863   0.292   6.643  1.1070  1.1829  1.5937
 8538SOL     OW37246   0.070   1.743   8.502  0.0746  0.5825 -0.4919
 8538SOL    HW137247   0.051   1.700   8.585  2.2999 -0.4895 -0.5485
 8538SOL    HW237248   0.095   1.665   8.453 -1.9330  0.7301 -1.7579
 8539SOL     OW37249   4.643   3.456   0.400 -0.1324 -0.3572 -0.2129
 8539SOL    HW137250   4.572   3.400   0.368 -1.2748  0.9071  0.0939
 8539SOL    HW237251   4.626   3.465   0.494  1.6742 -0.1014  0.0850
 8540SOL     OW37252   0.089   0.474  13.817 -0.3164  0.1735  0.4283
 8540SOL    HW137253   0.095   0.500  13.726  1.3972 -1.4538  0.0666
 8540SOL    HW237254   0.181   0.474  13.845  0.0820 -3.3945 -0.8576
 8541SOL     OW37255   2.955   0.129  16.106 -0.4736  0.7349 -0.0505
 8541SOL    HW137256   2.920   0.073  16.176  2.6025 -0.1665  0.7717
 8541SOL    HW237257   3.004   0.195  16.155  0.9049 -0.9452  0.8621
 8542SOL     OW37258   2.181   3.325  15.471 -0.1571 -0.5779  0.7136
 8542SOL    HW137259   2.152   3.319  15.380  0.5656 -1.4156  0.5353
 8542SOL    HW237260   2.148   3.411  15.495  0.2233 -0.2812  0.1685
 8543SOL     OW37261   3.063   2.907   4.419 -0.1796 -0.0861 -0.1721
 8543SOL    HW137262   2.969   2.891   4.421  0.2852 -2.6404  0.4149
 8543SOL    HW237263   3.058   2.993   4.376 -0.9619 -0.3578 -0.6245
 8544SOL     OW37264   2.645   0.121   3.496  0.6737 -0.6127 -0.2013
 8544SOL    HW137265   2.551   0.131   3.478  0.3878  1.3515  2.3998
 8544SOL    HW237266   2.643   0.097   3.589  0.6992 -1.6202 -0.4600
 8545SOL     OW37267   0.623   0.045   1.304 -0.0725  0.2512  0.6856
 8545SOL    HW137268   0.713   0.063   1.328 -0.0463  1.5079 -0.3755
 8545SOL    HW237269   0.574   0.042   1.386 -0.2183  1.6700  0.6387
 8546SOL     OW37270   4.496   3.304   0.804  0.2365 -0.4971 -0.2394
 8546SOL    HW137271   4.583   3.343   0.805 -0.8547  1.9761 -1.7043
 8546SOL    HW237272   4.491   3.242   0.731  1.7618  1.0802 -1.6861
 8547SOL     OW37273   1.132   2.575  16.502  0.2989 -0.6069  0.1931
 8547SOL    HW137274   1.118   2.670  16.495 -1.2655 -0.7179  1.6999
 8547SOL    HW237275   1.065   2.554  16.567  0.6433  1.4827  1.2454
 8548SOL     OW37276   3.918   1.947  14.468 -0.2726 -0.1729 -0.2687
 8548SOL    HW137277   3.877   1.864  14.444 -2.2315  0.8422 -0.5104
 8548SOL    HW237278   3.853   2.007  14.430 -0.2680 -0.8346 -1.3085
 8549SOL     OW37279   2.295   1.132   1.342  0.8050  0.3411  0.1948
 8549SOL    HW137280   2.328   1.219   1.320  0.5894  0.0814 -1.1792
 8549SOL    HW237281   2.199   1.138   1.335  0.9350  0.3305 -1.5955
 8550SOL     OW37282   1.233   0.640   5.729  0.2183 -0.3601 -0.8140
 8550SOL    HW137283   1.140   0.618   5.735 -0.2825  1.6578 -1.3503
 8550SOL    HW237284   1.232   0.732   5.705 -0.5002  0.4250  2.2095
 8551SOL     OW37285   0.012   2.191   4.452 -0.6939  0.3616 -0.5650
 8551SOL    HW137286   4.721   2.120   4.506  1.0127 -0.4937 -0.6477
 8551SOL    HW237287   0.091   2.144   4.427 -0.9294 -0.5232  0.3537
 8552SOL     OW37288   0.133   2.928   3.451  0.1960  0.5005  0.1029
 8552SOL    HW137289   0.135   3.022   3.472  1.2572  0.2669  1.0107
 8552SOL    HW237290   0.196   2.925   3.379 -0.5071 -0.4047 -0.4739
 8553SOL     OW37291   3.806   0.656   4.695  0.2019 -0.0485 -0.0736
 8553SOL    HW137292   3.785   0.748   4.706 -0.7649 -0.5386  2.1094
 8553SOL    HW237293   3.714   0.632   4.700  0.6805 -1.3475  2.4006
 8554SOL     OW37294   4.110   0.922  11.556  0.6564  0.2184  0.5123
 8554SOL    HW137295   4.039   0.975  11.591 -1.5545 -3.0203  0.9568
 8554SOL    HW237296   4.088   0.909  11.464  3.9727  0.8559 -0.3454
 8555SOL     OW37297   4.503   1.104   8.364  0.0807 -0.1663 -0.2777
 8555SOL    HW137298   4.554   1.075   8.288  1.0486 -1.2757  0.7877
 8555SOL    HW237299   4.557   1.175   8.401  1.1830 -0.8428 -0.5930
 8556SOL     OW37300   3.170   4.196   5.490 -0.7881 -0.0918  0.4351
 8556SOL    HW137301   3.158   4.143   5.569  2.4667 -0.8341  0.4152
 8556SOL    HW237302   3.229   4.149   5.431  1.0018  1.0535  1.3128
 8557SOL     OW37303   1.251   1.379   5.931 -0.4641  0.6423 -0.2493
 8557SOL    HW137304   1.238   1.473   5.943  0.5215  0.7244  0.2220
 8557SOL    HW237305   1.228   1.345   6.018 -1.6571 -1.4333 -1.3566
 8558SOL     OW37306   4.738   3.499   2.797  0.1219  0.0969  0.4144
 8558SOL    HW137307   0.031   3.420   2.757  0.1205 -0.3147  1.2072
 8558SOL    HW237308   0.008   3.483   2.891  0.1464  2.0301  0.7308
 8559SOL     OW37309   0.139   1.655   7.088 -0.5570  0.0616  0.0606
 8559SOL    HW137310   0.080   1.713   7.137  1.5223  2.0662  0.2168
 8559SOL    HW237311   0.086   1.649   7.008  1.7340 -3.2628 -1.1720
 8560SOL     OW37312   2.624   3.831   6.712  0.1979 -0.3058 -0.0429
 8560SOL    HW137313   2.530   3.841   6.698 -0.1519 -1.3448  1.5044
 8560SOL    HW237314   2.653   3.870   6.630  1.2940  0.4546  0.6940
 8561SOL     OW37315   1.728   4.674  13.377  0.0349 -0.5700 -0.1954
 8561SOL    HW137316   1.810   4.695  13.422  0.3785 -2.1104 -0.0782
 8561SOL    HW237317   1.679   0.013  13.390  0.8564 -0.4049  1.7780
 8562SOL     OW37318   4.563   4.442   0.017 -0.4885  0.0751 -0.3930
 8562SOL    HW137319   4.542   4.363   0.068  0.2136 -0.6302 -1.1926
 8562SOL    HW237320   4.570   4.409  17.693  1.7131  0.7647 -0.4643
 8563SOL     OW37321   0.003   0.707   7.429 -0.3724 -0.3639 -0.2240
 8563SOL    HW137322   4.714   0.675   7.514 -2.5907 -3.4885 -2.2160
 8563SOL    HW237323   4.660   0.717   7.386 -1.3316  0.1199  1.7360
 8564SOL     OW37324   2.901   1.645  13.272 -0.3313 -0.0629  0.1283
 8564SOL    HW137325   2.846   1.640  13.193 -1.5646  2.0811  0.8319
 8564SOL    HW237326   2.885   1.737  13.294 -0.1855 -0.2307  0.9108
 8565SOL     OW37327   2.780   3.515  17.629 -0.3889 -0.2421 -0.3105
 8565SOL    HW137328   2.729   3.595  17.639  0.7287  0.1578  2.2896
 8565SOL    HW237329   2.845   3.542  17.563 -0.2209 -2.4346 -1.0341
 8566SOL     OW37330   2.425   1.713   5.512  0.2515  0.4336  0.0308
 8566SOL    HW137331   2.497   1.750   5.563  0.9444  1.9403 -2.0250
 8566SOL    HW237332   2.366   1.683   5.581  0.3343  1.2626  0.4536
 8567SOL     OW37333   2.876   2.979   7.633 -0.5856  0.0132 -0.5653
 8567SOL    HW137334   2.931   3.056   7.615 -2.9276  1.4735 -1.5207
 8567SOL    HW237335   2.936   2.908   7.657 -1.6072  0.1379  2.3055
 8568SOL     OW37336   1.564   2.631  10.306  0.9279 -0.2139  0.1291
 8568SOL    HW137337   1.490   2.692  10.300  1.4769  0.3390 -1.0434
 8568SOL    HW237338   1.523   2.551  10.338  3.9353 -1.9384 -0.3732
 8569SOL     OW37339   3.185   3.417   1.737  0.4431 -0.3096  0.1911
 8569SOL    HW137340   3.195   3.379   1.650 -0.0314  2.3748 -1.0162
 8569SOL    HW237341   3.094   3.391   1.752  0.1192 -0.5239 -2.1242
 8570SOL     OW37342   2.266   3.767  10.945 -0.4065 -0.1941 -0.5767
 8570SOL    HW137343   2.270   3.793  10.853  1.4990 -1.6564 -0.9119
 8570SOL    HW237344   2.205   3.693  10.950 -1.9262  1.0751 -0.3998
 8571SOL     OW37345   0.203   0.547   3.920  0.1413  0.1850  0.3375
 8571SOL    HW137346   0.268   0.512   3.859 -0.3537  0.4375 -0.3344
 8571SOL    HW237347   0.263   0.544   3.994 -0.5172 -2.8109  0.7522
 8572SOL     OW37348   1.042   2.433   6.199  0.2167  0.3476 -0.0733
 8572SOL    HW137349   0.947   2.423   6.202 -0.0359  2.3976 -0.5683
 8572SOL    HW237350   1.060   2.369   6.267 -0.4364  0.1891 -0.0534
 8573SOL     OW37351   0.250   4.461   5.900 -0.1239  0.5026  0.5010
 8573SOL    HW137352   0.209   4.512   5.829  1.5880 -1.0829 -1.6113
 8573SOL    HW237353   0.331   4.435   5.857  0.2812  0.9348  0.9943
 8574SOL     OW37354   4.395   1.583   2.742  0.5082  0.0696 -0.4808
 8574SOL    HW137355   4.456   1.613   2.674 -0.5869  0.8129 -1.1541
 8574SOL    HW237356   4.315   1.572   2.689 -0.5300  0.1620  1.0777
 8575SOL     OW37357   1.678   2.593  15.904 -0.3611  0.1770  0.0217
 8575SOL    HW137358   1.620   2.518  15.912 -0.4739  0.4007  1.2830
 8575SOL    HW237359   1.744   2.582  15.972 -0.5791 -0.9035  0.0514
 8576SOL     OW37360   2.633   3.266  17.648 -0.8571  0.3532 -0.2453
 8576SOL    HW137361   2.697   3.333  17.625  0.1119 -0.2600  0.6319
 8576SOL    HW237362   2.551   3.316  17.649 -0.6320  0.7189 -0.2325
 8577SOL     OW37363   0.977   4.295   6.191  0.5209 -0.1099  0.2438
 8577SOL    HW137364   1.041   4.310   6.121 -2.6192  0.9882 -2.4032
 8577SOL    HW237365   1.020   4.226   6.240  1.4894  1.3627  1.4818
 8578SOL     OW37366   3.851   0.365  12.893 -0.6257  0.1845  0.6806
 8578SOL    HW137367   3.901   0.394  12.816  0.3027 -1.8317  0.5138
 8578SOL    HW237368   3.923   0.341  12.951 -0.9352 -2.4234 -0.0301
 8579SOL     OW37369   3.035   4.670   3.371  0.3251 -0.2579 -1.5996
 8579SOL    HW137370   3.099   4.730   3.332  0.5873  1.6849  1.7669
 8579SOL    HW237371   2.954   4.715   3.345  0.4580  1.2072  0.5317
 8580SOL     OW37372   0.270   4.741  12.843  0.5753  0.2552 -0.0897
 8580SOL    HW137373   0.176   4.735  12.826  0.5376  1.7831 -0.4104
 8580SOL    HW237374   0.293   4.649  12.857 -2.8071  0.1165  4.1975
 8581SOL     OW37375   0.346   1.052  14.211  0.1179 -0.5620  0.0089
 8581SOL    HW137376   0.415   1.115  14.232 -0.7640  0.2157  0.5506
 8581SOL    HW237377   0.282   1.057  14.281 -2.9540  1.9813 -2.9971
 8582SOL     OW37378   3.245   4.732   0.769 -0.1420 -0.3111  0.1436
 8582SOL    HW137379   3.271   4.691   0.851 -0.5421  1.8402  1.3185
 8582SOL    HW237380   3.201   0.071   0.792 -0.3101 -0.0032 -1.2485
 8583SOL     OW37381   4.551   2.225  11.469  0.3804 -0.1795  0.5887
 8583SOL    HW137382   4.529   2.239  11.377  2.3621 -1.1331 -0.0286
 8583SOL    HW237383   4.471   2.232  11.522  0.3745 -2.6488  0.9120
 8584SOL     OW37384   2.030   1.012   3.088 -0.0236  0.2094 -0.0706
 8584SOL    HW137385   2.099   0.964   3.044 -0.4304 -1.1372  0.7410
 8584SOL    HW237386   2.052   0.985   3.177  0.7554  0.1108 -0.2943
 8585SOL     OW37387   2.323   3.082  13.404  0.3508  0.2199 -0.1815
 8585SOL    HW137388   2.272   3.163  13.416  0.2661  0.5834 -3.1233
 8585SOL    HW237389   2.315   3.044  13.492  4.2412  1.0930  0.5522
 8586SOL     OW37390   2.812   2.485   3.982 -0.4105 -0.1437 -0.3064
 8586SOL    HW137391   2.793   2.509   4.073 -1.1714 -2.3613  0.1293
 8586SOL    HW237392   2.728   2.503   3.941  0.9274  4.8713 -0.8084
 8587SOL     OW37393   0.561   3.556   0.548  0.4457  0.0461  0.5384
 8587SOL    HW137394   0.483   3.591   0.506  1.2689  1.1251 -0.0880
 8587SOL    HW237395   0.541   3.463   0.559 -0.4454  0.2984  0.9787
 8588SOL     OW37396   2.560   4.705   7.752  0.0440 -0.0401 -0.4216
 8588SOL    HW137397   2.596   4.662   7.830 -1.5551 -0.1450  0.2737
 8588SOL    HW237398   2.549   0.054   7.778 -0.8518 -1.0621  2.7534
 8589SOL     OW37399   4.070   4.218   8.438 -0.4920 -0.1801 -0.4620
 8589SOL    HW137400   4.126   4.239   8.512 -1.2669  0.3326 -0.0081
 8589SOL    HW237401   4.084   4.275   8.362  0.0079 -0.7064 -0.7634
 8590SOL     OW37402   3.948   2.548   7.908 -0.2478  0.4109  0.4038
 8590SOL    HW137403   3.995   2.569   7.989 -0.3575  1.6677  0.1467
 8590SOL    HW237404   3.867   2.594   7.930 -0.7822  1.0281 -2.8978
 8591SOL     OW37405   0.101   1.739  16.028 -0.2231 -0.0087  0.0101
 8591SOL    HW137406   0.050   1.781  15.959  1.3567  0.0828 -1.0777
 8591SOL    HW237407   0.055   1.760  16.110  2.3703  0.1042  1.4441
 8592SOL     OW37408   1.453   3.522   0.476 -0.3371 -0.3149 -0.0875
 8592SOL    HW137409   1.379   3.479   0.434  0.0048  0.1788 -1.2109
 8592SOL    HW237410   1.408   3.555   0.554 -2.1973  4.6202 -3.2147
 8593SOL     OW37411   2.054   4.498  17.152 -0.0221  0.7713  0.0054
 8593SOL    HW137412   2.057   4.459  17.239 -0.5435  0.2458 -0.2119
 8593SOL    HW237413   1.975   4.549  17.174 -0.4782 -0.4581  1.2091
 8594SOL     OW37414   1.689   2.783   3.696 -0.8648  0.3220 -0.0778
 8594SOL    HW137415   1.607   2.751   3.735  0.5774 -0.9100  1.9555
 8594SOL    HW237416   1.659   2.816   3.612  1.4601 -0.9568 -1.4158
 8595SOL     OW37417   3.093   1.494  10.577 -0.2280  0.0369  0.1174
 8595SOL    HW137418   3.108   1.567  10.636  1.8838 -2.0434  2.1267
 8595SOL    HW237419   3.156   1.429  10.608 -1.8418 -0.9227  1.3943
 8596SOL     OW37420   1.009   4.479  10.830 -0.3309 -0.0875  0.1360
 8596SOL    HW137421   1.017   4.403  10.773 -1.4141 -2.2128  2.8378
 8596SOL    HW237422   0.940   4.444  10.885 -0.7218  0.6394  0.1013
 8597SOL     OW37423   1.449   4.547  15.074 -0.2197 -0.5178 -0.1791
 8597SOL    HW137424   1.532   4.521  15.114  0.7728 -0.3342 -2.1576
 8597SOL    HW237425   1.467   4.505  14.990  0.4917  1.7225 -1.1198
 8598SOL     OW37426   3.531   3.546   7.887  0.4657 -0.1533  0.0078
 8598SOL    HW137427   3.461   3.561   7.824 -0.8327 -1.6928  1.0939
 8598SOL    HW237428   3.476   3.535   7.965  0.5942  3.4310  0.6120
 8599SOL     OW37429   1.076   1.211   9.497  0.6099 -0.4009 -0.2060
 8599SOL    HW137430   1.062   1.139   9.435  0.3281 -0.5634  0.0446
 8599SOL    HW237431   1.049   1.288   9.448  1.5531 -0.7407 -1.2746
 8600SOL     OW37432   1.601   4.225  11.215 -0.8051 -0.1922  0.3633
 8600SOL    HW137433   1.577   4.248  11.305 -1.7483 -0.5251  0.2014
 8600SOL    HW237434   1.574   4.134  11.203 -1.2961 -0.2669  2.0179
 8601SOL     OW37435   1.365   3.133   4.105  0.1990  1.0273  0.2999
 8601SOL    HW137436   1.396   3.081   4.179 -1.2786  2.2579  1.7726
 8601SOL    HW237437   1.272   3.133   4.127 -0.3186  0.2435 -1.8610
 8602SOL     OW37438   3.257   1.011   8.975 -0.2481 -0.2727  0.3181
 8602SOL    HW137439   3.275   1.026   9.068 -0.0277  1.6827 -0.0322
 8602SOL    HW237440   3.334   0.957   8.961 -0.1615 -0.5566  1.9159
 8603SOL     OW37441   0.250   0.776   4.302  0.8151 -0.3484 -0.4039
 8603SOL    HW137442   0.196   0.853   4.283  0.2427 -0.9253 -1.1255
 8603SOL    HW237443   0.269   0.783   4.395  1.8382  0.4308 -0.6830
 8604SOL     OW37444   1.593   1.352   1.968 -0.3522 -0.3094  0.0801
 8604SOL    HW137445   1.646   1.393   2.037  0.5056 -1.3486  0.0436
 8604SOL    HW237446   1.636   1.380   1.887  0.5422 -0.4510  0.5020
 8605SOL     OW37447   3.450   0.688  14.555  0.0071  0.3790  0.5062
 8605SOL    HW137448   3.362   0.667  14.586 -0.5822  0.2346 -1.2767
 8605SOL    HW237449   3.446   0.632  14.477  0.7009  0.2208  0.5860
 8606SOL     OW37450   0.544   3.672   2.175 -1.3923 -0.2880  0.4006
 8606SOL    HW137451   0.561   3.711   2.261  1.5510 -0.5390 -0.0805
 8606SOL    HW237452   0.449   3.661   2.180 -1.3859  0.8283  3.0553
 8607SOL     OW37453   0.565   4.020   4.470 -0.6514 -0.0272 -0.2509
 8607SOL    HW137454   0.514   3.946   4.504  1.8409 -0.8615  1.6204
 8607SOL    HW237455   0.497   4.074   4.429  0.1891  1.8486  0.8450
 8608SOL     OW37456   2.090   4.235   0.696  0.8729 -0.3048 -0.2157
 8608SOL    HW137457   2.154   4.197   0.756  0.6252 -1.8703 -0.9576
 8608SOL    HW237458   2.024   4.167   0.684  1.0379 -0.3733 -0.7053
 8609SOL     OW37459   3.182   2.372   8.621 -0.4123 -0.0052  0.2378
 8609SOL    HW137460   3.205   2.465   8.626  2.6372 -0.8518  1.6131
 8609SOL    HW237461   3.172   2.365   8.526  1.2725  0.3140  0.0401
 8610SOL     OW37462   2.139   2.383  12.272 -0.1732 -0.2816 -0.0261
 8610SOL    HW137463   2.165   2.385  12.180  0.1141  0.0540  0.0602
 8610SOL    HW237464   2.054   2.341  12.266  0.7140 -2.1370  0.3886
 8611SOL     OW37465   2.318   4.636  12.897  0.1419 -0.1580  0.1425
 8611SOL    HW137466   2.405   4.595  12.894  0.7373  1.2261 -1.5129
 8611SOL    HW237467   2.323   4.679  12.812  1.7273  0.8588  0.7506
 8612SOL     OW37468   3.715   3.461   5.921 -0.1626  0.4636 -0.0513
 8612SOL    HW137469   3.809   3.479   5.919  0.1636 -1.4664 -2.1521
 8612SOL    HW237470   3.689   3.551   5.938  1.7115  1.0547 -0.3462
 8613SOL     OW37471   1.038   2.331   5.727 -0.5028 -0.4573  0.8523
 8613SOL    HW137472   1.082   2.405   5.685 -1.0827 -1.3329 -1.3076
 8613SOL    HW237473   0.948   2.359   5.746 -0.1805  1.0950  0.0801
 8614SOL     OW37474   0.604   3.706  12.734 -0.4293 -0.1247 -0.2536
 8614SOL    HW137475   0.535   3.740  12.677  0.2198 -0.3112 -1.1657
 8614SOL    HW237476   0.553   3.637  12.775 -1.2233 -0.7988 -2.3774
 8615SOL     OW37477   0.670   2.068   8.387  0.0769  0.7844  0.0676
 8615SOL    HW137478   0.606   2.090   8.455 -0.3308  1.5733 -0.5694
 8615SOL    HW237479   0.612   2.070   8.311  0.5733  1.9957 -0.2676
 8616SOL     OW37480   4.213   4.357   6.897  0.6500 -0.1265  0.2179
 8616SOL    HW137481   4.259   4.274   6.908  0.5656 -0.1765  0.1846
 8616SOL    HW237482   4.211   4.369   6.802 -0.8429  0.5507  0.3426
 8617SOL     OW37483   0.214   3.801   8.791 -0.7559  0.3995 -0.2159
 8617SOL    HW137484   0.301   3.826   8.822 -1.1362  1.7869 -0.2624
 8617SOL    HW237485   0.193   3.871   8.728 -0.7020 -0.5929 -1.3274
 8618SOL     OW37486   0.899   3.774   7.239 -0.5649  0.3839 -0.2810
 8618SOL    HW137487   0.905   3.755   7.333 -0.6081  0.7470 -0.2019
 8618SOL    HW237488   0.810   3.809   7.245 -1.1276 -0.9411 -1.1201
 8619SOL     OW37489   0.147   1.252   6.866  0.3387 -0.0368 -0.6769
 8619SOL    HW137490   0.203   1.183   6.901 -0.4446 -0.4448 -0.2351
 8619SOL    HW237491   0.161   1.316   6.936  0.1682  0.5382 -1.1589
 8620SOL     OW37492   4.412   2.487  12.211  0.4437 -0.3507 -0.2518
 8620SOL    HW137493   4.430   2.424  12.280 -1.0048  0.9044  1.2743
 8620SOL    HW237494   4.346   2.536  12.261  0.8909 -0.6477  0.6213
 8621SOL     OW37495   2.187   2.222   1.758  0.1938  0.5142  0.1901
 8621SOL    HW137496   2.104   2.181   1.781 -0.3260  0.3157 -2.0080
 8621SOL    HW237497   2.159   2.268   1.678 -1.5126  1.5385  1.3735
 8622SOL     OW37498   4.266   1.212   2.018  0.1734  0.5799 -0.6189
 8622SOL    HW137499   4.241   1.274   1.949 -0.5959 -0.5910 -1.3874
 8622SOL    HW237500   4.344   1.173   1.980  2.6688  3.6630  1.2950
 8623SOL     OW37501   1.666   2.554   5.942  0.1036  0.3983 -0.1956
 8623SOL    HW137502   1.641   2.466   5.973  0.8318  0.5546  0.8431
 8623SOL    HW237503   1.753   2.566   5.982  0.1053 -0.7512  0.1530
 8624SOL     OW37504   1.582   1.231   3.707  0.4034 -0.2825 -0.4851
 8624SOL    HW137505   1.650   1.257   3.768  0.5779 -0.9150 -0.4073
 8624SOL    HW237506   1.505   1.271   3.748 -0.0267  0.0027 -1.5693
 8625SOL     OW37507   3.718   1.484   8.643  0.3614  0.0902  0.1832
 8625SOL    HW137508   3.666   1.421   8.694  1.0910 -1.4366 -0.9778
 8625SOL    HW237509   3.691   1.567   8.683 -3.5123 -0.0766 -2.1670
 8626SOL     OW37510   2.215   1.973  16.589 -0.0288  0.3122 -0.6039
 8626SOL    HW137511   2.240   1.908  16.655 -0.0938  0.7985 -0.0940
 8626SOL    HW237512   2.290   2.028  16.612 -0.2872  0.7139 -0.7124
 8627SOL     OW37513   2.206   2.866   3.718  0.5037 -0.1847 -0.1098
 8627SOL    HW137514   2.201   2.841   3.811  1.9523 -0.4985 -0.1143
 8627SOL    HW237515   2.120   2.831   3.695 -0.3095  1.3790  0.5470
 8628SOL     OW37516   4.640   4.430  12.906  0.9967 -0.2503 -0.4455
 8628SOL    HW137517   4.645   4.504  12.846 -0.6616  0.6376  0.5095
 8628SOL    HW237518   4.695   4.453  12.980 -1.3445 -0.6687  1.4119
 8629SOL     OW37519   2.592   0.544   7.254 -0.2205 -0.7805 -0.2978
 8629SOL    HW137520   2.497   0.542   7.245 -0.1177  2.1964 -1.9216
 8629SOL    HW237521   2.627   0.458   7.229 -1.4853 -1.9413  1.9855
 8630SOL     OW37522   1.032   0.828  11.676 -0.2509  0.5327  0.7365
 8630SOL    HW137523   0.991   0.800  11.595 -1.8464 -0.5527  1.9117
 8630SOL    HW237524   0.966   0.811  11.743  0.6854  0.2091  1.5824
 8631SOL     OW37525   1.630   0.343   8.430  0.7286  0.1089  0.6776
 8631SOL    HW137526   1.632   0.356   8.525 -1.4945  0.0063  0.7428
 8631SOL    HW237527   1.651   0.429   8.395  0.3538 -0.7195 -1.5605
 8632SOL     OW37528   4.445   2.671   6.502  0.0518  0.1698  0.3419
 8632SOL    HW137529   4.374   2.635   6.556 -2.3788  2.3228 -1.3869
 8632SOL    HW237530   4.390   2.684   6.424 -0.1580  0.3512  0.5179
 8633SOL     OW37531   4.081   3.242   5.600  0.5474  0.2821 -0.4855
 8633SOL    HW137532   3.989   3.268   5.609  0.3851 -0.0706 -1.1641
 8633SOL    HW237533   4.115   3.301   5.533  0.7871 -0.0022 -0.6141
 8634SOL     OW37534   2.274   4.511   0.988 -0.0845  0.4773  0.2571
 8634SOL    HW137535   2.226   4.588   0.960  1.0726  1.5050  1.1168
 8634SOL    HW237536   2.331   4.501   0.911  0.0928 -0.6858  0.5344
 8635SOL     OW37537   4.198   1.741   8.536  0.2578  0.0231  0.0187
 8635SOL    HW137538   4.133   1.672   8.535 -1.1726  1.3709 -0.8437
 8635SOL    HW237539   4.151   1.810   8.583 -1.5856 -1.8830  0.9141
 8636SOL     OW37540   1.771   2.116   8.128 -0.7306 -0.7017  0.4076
 8636SOL    HW137541   1.790   2.088   8.038  1.3085 -0.9939  0.9460
 8636SOL    HW237542   1.675   2.113   8.119 -0.8822 -1.9371  2.6002
 8637SOL     OW37543   0.782   2.587   0.288  0.3174 -0.2843 -0.0286
 8637SOL    HW137544   0.853   2.529   0.316  0.0396 -1.2048 -1.2393
 8637SOL    HW237545   0.825   2.670   0.269 -3.4847  2.0192  1.3693
 8638SOL     OW37546   1.518   3.957  11.481  0.5920  0.2258  0.0737
 8638SOL    HW137547   1.501   4.049  11.499  0.3689 -0.1361  1.7143
 8638SOL    HW237548   1.524   3.952  11.386  0.9208 -1.3389  0.1690
 8639SOL     OW37549   1.001   2.599  10.400 -0.2328  0.3551  0.2141
 8639SOL    HW137550   1.080   2.585  10.348  0.4423  2.0908  0.7724
 8639SOL    HW237551   0.981   2.515  10.440 -0.1171 -0.3941 -1.3081
 8640SOL     OW37552   0.298   2.819  14.114  0.2697  0.3410 -0.0652
 8640SOL    HW137553   0.264   2.762  14.045  2.0526 -0.6443 -0.1561
 8640SOL    HW237554   0.224   2.864  14.154  0.4581 -1.6236  2.5345
 8641SOL     OW37555   1.495   4.308   4.501  0.0103 -0.2754 -0.1154
 8641SOL    HW137556   1.429   4.324   4.433  1.7483  1.0662 -1.5088
 8641SOL    HW237557   1.570   4.326   4.443 -1.3171  0.7061 -1.5265
 8642SOL     OW37558   2.515   3.738   5.852  0.4493 -0.5944  0.6285
 8642SOL    HW137559   2.501   3.726   5.758  2.5112  2.6852 -0.1084
 8642SOL    HW237560   2.451   3.808   5.868 -1.3444 -2.2297  0.6049
 8643SOL     OW37561   4.531   0.394  16.002 -0.4042  0.8722  0.6729
 8643SOL    HW137562   4.448   0.346  16.006  0.6417 -1.0523 -0.8940
 8643SOL    HW237563   4.570   0.401  16.089 -0.2272 -1.0141  0.7502
 8644SOL     OW37564   4.707   1.271   6.153 -0.0052 -0.0456 -0.4861
 8644SOL    HW137565   4.681   1.323   6.077 -2.3037 -0.6781 -0.1276
 8644SOL    HW237566   4.645   1.306   6.217  0.8703  0.4854  0.0605
 8645SOL     OW37567   2.365   3.587   7.575  0.5701  0.2496  0.0202
 8645SOL    HW137568   2.286   3.533   7.584  0.7848 -0.3536 -1.7237
 8645SOL    HW237569   2.403   3.573   7.488  2.7556 -1.4381  1.2441
 8646SOL     OW37570   1.940   2.637   3.079 -0.0926  0.3522 -0.0539
 8646SOL    HW137571   1.979   2.618   2.994  1.3468 -0.1715  0.7135
 8646SOL    HW237572   1.970   2.727   3.085 -1.9307  1.0624 -1.5939
 8647SOL     OW37573   3.346   1.077  10.903 -0.2324  0.2859  0.5684
 8647SOL    HW137574   3.426   1.129  10.908  0.7876 -1.2688  0.2919
 8647SOL    HW237575   3.296   1.088  10.984  3.7626 -2.2564  3.4104
 8648SOL     OW37576   0.721   2.916  10.179  0.4160  0.3209 -0.3544
 8648SOL    HW137577   0.767   2.832  10.182 -0.7316 -0.2205  2.0145
 8648SOL    HW237578   0.756   2.952  10.260  0.9945 -0.7660 -0.1263
 8649SOL     OW37579   3.727   4.574   6.146  0.4069 -0.2209 -0.0832
 8649SOL    HW137580   3.776   4.566   6.064 -1.1936  2.0195 -1.2649
 8649SOL    HW237581   3.655   4.628   6.113  0.0815 -0.8791 -0.4353
 8650SOL     OW37582   1.303   3.051   8.219  0.2794 -0.6511 -0.4156
 8650SOL    HW137583   1.385   3.088   8.251  0.3920  0.1386 -1.6066
 8650SOL    HW237584   1.248   3.127   8.200 -2.0148 -2.2881 -0.2604
 8651SOL     OW37585   1.738   2.725   6.742 -0.0553  0.8274 -0.5532
 8651SOL    HW137586   1.769   2.807   6.704 -1.6874  1.2627 -0.9538
 8651SOL    HW237587   1.744   2.752   6.834  0.1252  2.4832 -1.0619
 8652SOL     OW37588   0.119   2.754   5.458  0.7326 -0.4478 -0.0288
 8652SOL    HW137589   0.096   2.847   5.457  1.6877 -0.1892  2.5752
 8652SOL    HW237590   0.200   2.759   5.508  0.3048 -3.2358  0.9844
 8653SOL     OW37591   1.749   0.174  13.677  0.5156 -0.0379  0.2335
 8653SOL    HW137592   1.805   0.203  13.605  1.1039 -2.4757 -0.2856
 8653SOL    HW237593   1.820   0.162  13.741  0.6695 -0.0622  0.0573
 8654SOL     OW37594   4.553   3.304  11.578  0.1290  0.5480 -0.5639
 8654SOL    HW137595   4.498   3.359  11.634  1.6447  0.2447  1.2403
 8654SOL    HW237596   4.492   3.248  11.531 -0.9109  0.1944  1.2144
 8655SOL     OW37597   0.582   2.580   3.041 -0.6117  0.3876  0.5197
 8655SOL    HW137598   0.627   2.607   3.121 -1.7962 -0.2767  1.4002
 8655SOL    HW237599   0.521   2.517   3.079  0.4232 -0.1109  1.3705
 8656SOL     OW37600   1.315   3.767   7.374  0.8516 -0.5912 -0.1483
 8656SOL    HW137601   1.264   3.784   7.295 -0.1374 -0.7968  0.4472
 8656SOL    HW237602   1.315   3.853   7.416 -0.5685 -1.1436  0.9444
 8657SOL     OW37603   2.056   0.981  14.570  0.0070 -0.2047  0.3930
 8657SOL    HW137604   2.099   1.044  14.628  0.0750  1.6409 -1.6703
 8657SOL    HW237605   2.126   0.934  14.526  0.5190  1.5990 -0.7011
 8658SOL     OW37606   2.899   1.924   3.855 -0.9842  0.1127  0.2063
 8658SOL    HW137607   2.843   1.942   3.779 -1.3708 -0.2667  0.3974
 8658SOL    HW237608   2.837   1.965   3.916 -1.1099 -1.4783  1.1560
 8659SOL     OW37609   2.305   4.303   1.743  0.6165  0.4373  0.0271
 8659SOL    HW137610   2.223   4.324   1.697  0.8429  3.5376  1.0302
 8659SOL    HW237611   2.294   4.365   1.815  1.9017 -0.9148  1.3919
 8660SOL     OW37612   0.606   4.018   5.774 -0.0676 -0.1416 -0.2791
 8660SOL    HW137613   0.562   4.065   5.703 -1.0412 -1.9832 -0.8984
 8660SOL    HW237614   0.555   3.938   5.764 -0.3840  0.3664 -2.6041
 8661SOL     OW37615   0.506   1.193  13.383 -0.3177  0.2788  0.8443
 8661SOL    HW137616   0.569   1.158  13.319  1.4194  1.0313  2.1459
 8661SOL    HW237617   0.441   1.235  13.326 -0.8732 -0.2941  1.0715
 8662SOL     OW37618   0.196   0.078   5.023  0.1995 -0.0263  0.3500
 8662SOL    HW137619   0.177   0.164   4.985  0.4679 -0.9583 -1.9008
 8662SOL    HW237620   0.258   0.038   4.962  1.1541 -0.0384  1.3376
 8663SOL     OW37621   2.504   3.682   4.366  0.0323 -0.0303  0.4925
 8663SOL    HW137622   2.522   3.737   4.443 -0.0257  1.9520 -0.8932
 8663SOL    HW237623   2.473   3.602   4.409  2.1714 -0.9807  0.2495
 8664SOL     OW37624   2.621   3.773   6.986 -0.3088  0.1367 -0.3701
 8664SOL    HW137625   2.620   3.771   6.890  0.7073 -0.6321 -0.3583
 8664SOL    HW237626   2.626   3.867   7.003 -2.4612  0.2008  0.0198
 8665SOL     OW37627   3.277   0.887   6.832  0.2494 -0.7300  0.0595
 8665SOL    HW137628   3.213   0.959   6.832  0.4088 -0.6168 -2.9448
 8665SOL    HW237629   3.233   0.834   6.766  1.0225  0.1731 -1.1684
 8666SOL     OW37630   0.850   1.239  16.180  0.0139  0.2204 -0.0096
 8666SOL    HW137631   0.771   1.292  16.167  0.4333  0.7657 -0.3416
 8666SOL    HW237632   0.911   1.309  16.202 -1.2367  0.8110  1.5701
 8667SOL     OW37633   1.404   4.708  14.128 -0.1047  0.1558  0.1171
 8667SOL    HW137634   1.357   0.049  14.130 -2.1842 -1.0516  1.9057
 8667SOL    HW237635   1.456   4.716  14.208 -1.6640 -1.3584  1.2804
 8668SOL     OW37636   2.244   3.556   0.912 -0.1452 -0.0750  0.1934
 8668SOL    HW137637   2.333   3.587   0.928  0.1589 -1.3441  0.9000
 8668SOL    HW237638   2.262   3.502   0.835  0.7476 -0.9935  1.0461
 8669SOL     OW37639   4.508   1.636   6.018 -0.3704  0.6495  0.3509
 8669SOL    HW137640   4.516   1.660   6.110 -1.0697  0.8824  0.3499
 8669SOL    HW237641   4.510   1.721   5.975 -0.0656 -0.4357 -1.7680
 8670SOL     OW37642   2.093   1.322  10.993  0.8069  0.4296  0.4432
 8670SOL    HW137643   2.001   1.331  11.020  0.9052 -0.0219  0.9310
 8670SOL    HW237644   2.084   1.335  10.899 -1.5353  1.3808  0.7838
 8671SOL     OW37645   3.523   3.405  15.822 -0.7931  0.9699  0.1415
 8671SOL    HW137646   3.435   3.438  15.803 -1.2187 -0.4093 -0.3093
 8671SOL    HW237647   3.566   3.449  15.748  1.5429 -0.8025  0.4508
 8672SOL     OW37648   3.347   3.641   7.696  0.0068 -0.2288 -0.0261
 8672SOL    HW137649   3.287   3.626   7.623  0.1343 -1.1349  0.0548
 8672SOL    HW237650   3.300   3.706   7.748  0.0367  0.5656 -1.0134
 8673SOL     OW37651   2.219   4.177  14.200 -0.0018 -0.2926  0.1281
 8673SOL    HW137652   2.253   4.195  14.287  0.4752  2.3744 -0.6153
 8673SOL    HW237653   2.226   4.263  14.159 -1.4342  0.1344  0.7705
 8674SOL     OW37654   1.082   0.352  10.009 -0.0025 -0.2705 -0.1150
 8674SOL    HW137655   1.018   0.421   9.991  2.8741  1.7415 -2.7216
 8674SOL    HW237656   1.064   0.290   9.938 -0.1370 -0.2959 -0.0588
 8675SOL     OW37657   1.387   1.172   8.010  0.5406  0.2611 -0.2818
 8675SOL    HW137658   1.425   1.184   8.097 -1.4302  1.0013  0.4807
 8675SOL    HW237659   1.388   1.260   7.973  2.5437  0.7919  1.0205
 8676SOL     OW37660   4.198   3.068  16.152  0.0372 -0.1449 -0.2177
 8676SOL    HW137661   4.205   3.137  16.218 -1.2033 -1.6659  1.5054
 8676SOL    HW237662   4.108   3.080  16.123  1.1516  0.7102 -3.3178
 8677SOL     OW37663   4.252   2.180  11.078 -0.3764 -0.3288 -0.0844
 8677SOL    HW137664   4.344   2.204  11.079  0.2026 -2.4862 -0.8717
 8677SOL    HW237665   4.237   2.183  11.173 -0.9650 -1.2316 -0.1488
 8678SOL     OW37666   1.956   1.239   7.541 -0.6865  0.4871  0.1528
 8678SOL    HW137667   2.025   1.183   7.506  0.6016  0.5793  2.5566
 8678SOL    HW237668   1.974   1.280   7.625  2.3439 -1.8203  0.6381
 8679SOL     OW37669   1.746   2.355   2.880  0.3066 -0.0210 -0.6647
 8679SOL    HW137670   1.790   2.438   2.896 -0.5026  0.2397  0.2163
 8679SOL    HW237671   1.787   2.333   2.797 -1.7752  0.8721 -1.9422
 8680SOL     OW37672   2.303   1.506   5.000 -0.3560 -0.2552  0.0869
 8680SOL    HW137673   2.329   1.544   5.084 -1.8249  1.9429 -0.4451
 8680SOL    HW237674   2.226   1.458   5.031 -0.0839 -0.8413 -0.1457
 8681SOL     OW37675   2.858   4.615   5.060  0.4035 -0.1511 -0.2904
 8681SOL    HW137676   2.843   4.612   5.155  0.4841  0.1651 -0.2682
 8681SOL    HW237677   2.942   4.659   5.048  1.2040 -1.5699  0.1830
 8682SOL     OW37678   4.702   3.176   7.817  0.3141  0.2583  0.5832
 8682SOL    HW137679   0.013   3.161   7.896  1.8737 -0.7684 -0.6497
 8682SOL    HW237680   4.663   3.261   7.836  0.6847  0.9365 -1.6551
 8683SOL     OW37681   4.019   0.476  12.632 -0.2340 -0.5208 -0.3744
 8683SOL    HW137682   4.064   0.502  12.712  1.9615  0.7292 -1.9950
 8683SOL    HW237683   4.089   0.482  12.566 -1.1492 -1.6733 -1.4593
 8684SOL     OW37684   3.849   1.712   5.833  0.2719 -0.5994  0.0671
 8684SOL    HW137685   3.929   1.697   5.782  0.1942 -1.3591  0.1681
 8684SOL    HW237686   3.825   1.798   5.799 -1.1807 -0.9024  0.3437
 8685SOL     OW37687   4.522   0.169  13.029 -0.0416  0.1918 -0.1318
 8685SOL    HW137688   4.544   0.202  13.117  1.9434 -0.3253 -0.4266
 8685SOL    HW237689   4.475   0.086  13.043 -1.8162  1.6649  2.6147
 8686SOL     OW37690   1.314   1.247   3.819  0.4080  0.4774  0.2535
 8686SOL    HW137691   1.241   1.308   3.807  0.9817  0.8357 -1.3685
 8686SOL    HW237692   1.262   1.168   3.831 -1.4687  1.5165 -1.0440
 8687SOL     OW37693   3.270   3.244   7.202 -0.2907  0.0806  0.1526
 8687SOL    HW137694   3.234   3.253   7.113 -1.5796  1.4949  0.8062
 8687SOL    HW237695   3.241   3.329   7.236 -0.1068 -0.2004  1.0027
 8688SOL     OW37696   0.272   0.709   3.571 -0.0737  0.5299  0.0030
 8688SOL    HW137697   0.250   0.714   3.663 -1.5583 -0.0696 -0.3198
 8688SOL    HW237698   0.186   0.736   3.538 -1.2630 -1.5261  1.3947
 8689SOL     OW37699   1.855   2.169   6.880 -0.3213  0.8154  0.2974
 8689SOL    HW137700   1.822   2.251   6.916  1.2889  2.5243 -2.1230
 8689SOL    HW237701   1.902   2.207   6.806 -0.3808 -1.0319 -0.6711
 8690SOL     OW37702   2.141   2.123   8.097 -0.5538  0.8154  0.3518
 8690SOL    HW137703   2.092   2.180   8.038 -1.7058 -0.0495  0.4707
 8690SOL    HW237704   2.109   2.164   8.177  0.4773 -0.7364  1.5633
 8691SOL     OW37705   2.627   3.195   4.967  0.3561 -0.5616  0.1875
 8691SOL    HW137706   2.592   3.204   4.878 -0.4180  1.4102  0.6917
 8691SOL    HW237707   2.623   3.289   4.987  0.3763 -1.0620  2.4999
 8692SOL     OW37708   3.611   0.740   5.860  0.2243  0.2697  0.0518
 8692SOL    HW137709   3.520   0.756   5.887 -0.5001 -3.0870 -0.4606
 8692SOL    HW237710   3.647   0.755   5.947  0.9556 -0.9825 -0.0433
 8693SOL     OW37711   1.875   3.133  14.419 -0.5732 -0.2520 -0.3440
 8693SOL    HW137712   1.924   3.059  14.454  1.1061  0.8936 -0.2941
 8693SOL    HW237713   1.876   3.111  14.325  0.6769 -0.5398 -0.2611
 8694SOL     OW37714   0.231   2.771   0.038 -0.1510 -0.0564  0.0907
 8694SOL    HW137715   0.191   2.858   0.045 -0.1790  0.1214 -2.4208
 8694SOL    HW237716   0.188   2.729   0.112 -0.0013 -0.0335  0.1909
 8695SOL     OW37717   2.494   0.145   0.841 -0.1682 -0.1222 -0.8232
 8695SOL    HW137718   2.400   0.148   0.861 -0.1108  2.0439 -0.8579
 8695SOL    HW237719   2.526   0.147   0.931 -1.3364 -1.1283 -0.3836
 8696SOL     OW37720   2.112   3.611  12.705 -0.2339  0.4404 -0.2438
 8696SOL    HW137721   2.151   3.580  12.623 -2.1361 -1.0630 -0.5729
 8696SOL    HW237722   2.176   3.679  12.725 -0.5088 -0.0111  2.1222
 8697SOL     OW37723   0.913   3.521   3.909 -0.0659  0.1513 -0.1537
 8697SOL    HW137724   0.858   3.549   3.836  1.1396 -1.4386 -1.6635
 8697SOL    HW237725   0.854   3.460   3.953  0.1104  0.8568  1.0515
 8698SOL     OW37726   0.796   3.411  10.461  0.1642  0.0570  0.3464
 8698SOL    HW137727   0.880   3.422  10.416  1.4694 -2.6915  2.1527
 8698SOL    HW237728   0.731   3.399  10.392 -0.2872  0.8664  0.6266
 8699SOL     OW37729   1.924   4.628   1.549  0.4529  0.2974 -0.1739
 8699SOL    HW137730   1.928   4.671   1.464  1.5805 -0.9538 -0.7539
 8699SOL    HW237731   2.012   4.589   1.549  0.2383 -0.1854 -0.5615
 8700SOL     OW37732   3.493   0.676   2.090  0.5423 -0.2854 -0.1433
 8700SOL    HW137733   3.398   0.684   2.093  0.4261 -1.4443 -0.6406
 8700SOL    HW237734   3.515   0.676   2.184 -1.7580  0.0029  0.4042
 8701SOL     OW37735   2.097   2.902   5.060  0.4711  0.5460 -0.1613
 8701SOL    HW137736   2.169   2.904   5.123  0.3837  1.8702 -0.1030
 8701SOL    HW237737   2.065   2.992   5.052  1.8137  0.8752 -1.9527
 8702SOL     OW37738   1.439   2.261   6.294  0.6481  0.4923 -0.4621
 8702SOL    HW137739   1.512   2.248   6.355 -0.5570  0.3387  0.9447
 8702SOL    HW237740   1.408   2.171   6.284 -1.5082  1.0289  1.5237
 8703SOL     OW37741   3.275   4.018   7.202 -0.4682  0.2703  0.5937
 8703SOL    HW137742   3.327   3.941   7.226 -0.7813  0.0513  0.5583
 8703SOL    HW237743   3.246   4.009   7.111 -2.0866 -2.6770  1.4367
 8704SOL     OW37744   2.948   2.306  10.830 -0.5960  0.1049 -0.2582
 8704SOL    HW137745   3.033   2.319  10.872 -0.1090  2.0456 -1.8593
 8704SOL    HW237746   2.891   2.321  10.907 -0.7116 -4.2914  0.4984
 8705SOL     OW37747   1.484   0.168   8.875  0.1982 -0.3395 -0.0091
 8705SOL    HW137748   1.512   0.112   8.948  1.4948  0.3025 -0.0130
 8705SOL    HW237749   1.422   0.106   8.836  1.8347 -1.5856 -0.6204
 8706SOL     OW37750   2.559   1.659   4.151 -0.0881  0.1011 -0.0897
 8706SOL    HW137751   2.582   1.672   4.059  3.6020 -0.0228  0.8014
 8706SOL    HW237752   2.641   1.671   4.200 -0.2532  0.3796  0.1233
 8707SOL     OW37753   1.380   0.798   6.857 -0.0765  0.2873  0.0301
 8707SOL    HW137754   1.321   0.800   6.932 -0.2423  0.3965 -0.1041
 8707SOL    HW237755   1.313   0.826   6.794 -0.2625  0.0143  0.1095
 8708SOL     OW37756   2.681   2.413   7.733  0.3606  0.6503  0.0303
 8708SOL    HW137757   2.776   2.416   7.740  0.4633  0.1765 -1.2370
 8708SOL    HW237758   2.671   2.457   7.649 -0.0938  0.9708  0.2510
 8709SOL     OW37759   4.085   4.513   7.987  0.2102  0.2324  0.8339
 8709SOL    HW137760   4.160   4.475   7.942  0.6361 -0.1292  1.8593
 8709SOL    HW237761   4.122   4.519   8.075  2.8313  0.5087 -0.2842
 8710SOL     OW37762   2.368   0.757   8.750  1.0577 -0.2184  0.3454
 8710SOL    HW137763   2.463   0.764   8.735  0.8981  0.6020 -0.2479
 8710SOL    HW237764   2.332   0.845   8.759 -0.2183 -0.7054 -0.1268
 8711SOL     OW37765   1.043   3.297  13.651 -0.4885  0.5040 -0.1110
 8711SOL    HW137766   1.101   3.224  13.633 -1.3161 -0.4546  1.0770
 8711SOL    HW237767   1.001   3.273  13.734 -0.5579 -0.8900 -0.5630
 8712SOL     OW37768   2.352   4.048   4.417  0.1015  0.0029 -0.2463
 8712SOL    HW137769   2.443   4.056   4.390 -0.4444 -4.2139 -3.2407
 8712SOL    HW237770   2.342   4.130   4.467 -0.5856  0.0330 -0.4313
 8713SOL     OW37771   4.288   0.490   8.571 -0.6137  0.0073 -0.1589
 8713SOL    HW137772   4.196   0.494   8.542 -0.6361 -0.3883 -0.1430
 8713SOL    HW237773   4.283   0.555   8.641 -0.0475  0.0942 -0.2007
 8714SOL     OW37774   1.824   2.880  12.126  0.1144  0.0102 -0.3482
 8714SOL    HW137775   1.859   2.964  12.156  0.2807 -0.2157  0.0921
 8714SOL    HW237776   1.899   2.842  12.082  0.7956 -0.6228  1.3382
 8715SOL     OW37777   2.053   0.164  17.543 -0.1001 -0.1600  0.0978
 8715SOL    HW137778   2.090   0.098  17.485  1.1056  1.0911 -0.5558
 8715SOL    HW237779   2.117   0.168  17.614 -1.3166 -0.5551  1.2197
 8716SOL     OW37780   1.802   3.420   8.612 -0.1170 -0.0242  0.0914
 8716SOL    HW137781   1.825   3.415   8.705  2.4715  0.7010 -0.5180
 8716SOL    HW237782   1.885   3.441   8.570  0.3321 -0.8779  0.5495
 8717SOL     OW37783   2.370   0.061  12.124  0.0407  0.3307 -0.1374
 8717SOL    HW137784   2.355   0.092  12.034 -0.5675  1.3236  0.3034
 8717SOL    HW237785   2.419   4.722  12.119 -0.9975 -0.3628  0.8670
 8718SOL     OW37786   3.137   2.008   5.611 -0.1956  0.0524 -0.0112
 8718SOL    HW137787   3.164   2.082   5.665 -0.5110 -0.0020  0.2276
 8718SOL    HW237788   3.148   1.934   5.671 -1.1113  1.4850  1.9121
 8719SOL     OW37789   4.049   1.570   3.408  0.3403 -0.0843  0.5135
 8719SOL    HW137790   3.989   1.501   3.379  1.0199 -0.6198  0.3666
 8719SOL    HW237791   4.129   1.577   3.356  0.4987  0.9316  0.9104
 8720SOL     OW37792   4.633   2.414   0.911  0.0913  0.0279  0.0177
 8720SOL    HW137793   4.556   2.365   0.881 -0.4211  0.7179  0.1954
 8720SOL    HW237794   4.646   2.390   1.002  3.3575  2.7490  0.2473
 8721SOL     OW37795   3.056   1.692  10.165 -0.2497 -0.3162  0.0068
 8721SOL    HW137796   3.118   1.736  10.107 -0.3251  1.1804  1.0593
 8721SOL    HW237797   2.998   1.762  10.195 -1.1981 -0.9308 -0.3877
 8722SOL     OW37798   4.456   1.177   6.930  0.3605 -0.0090  0.1934
 8722SOL    HW137799   4.399   1.102   6.915  0.8179 -0.2094 -0.5398
 8722SOL    HW237800   4.535   1.164   6.877 -0.5231 -0.1037 -1.0707
 8723SOL     OW37801   4.724   3.142   0.680  0.1755  1.3020 -0.0755
 8723SOL    HW137802   0.043   3.165   0.610  0.1557  0.5532 -0.3389
 8723SOL    HW237803   4.664   3.088   0.630  1.9742 -0.1512 -0.6684
 8724SOL     OW37804   3.262   4.277  16.829  0.1532  0.3885  0.4751
 8724SOL    HW137805   3.179   4.230  16.816 -0.5309  1.5342  0.6614
 8724SOL    HW237806   3.298   4.223  16.899 -2.0050 -1.5258  0.1095
 8725SOL     OW37807   2.162   1.551   0.597 -0.0332  0.6932  0.1421
 8725SOL    HW137808   2.255   1.554   0.615 -0.4752  0.7733  2.3468
 8725SOL    HW237809   2.134   1.569   0.686  1.8778 -1.5753  1.1967
 8726SOL     OW37810   1.790   3.713   4.248  0.3643  0.2528 -0.1407
 8726SOL    HW137811   1.861   3.718   4.312  0.4826  0.3944 -0.2825
 8726SOL    HW237812   1.753   3.625   4.253  0.6733  0.1848  0.7962
 8727SOL     OW37813   3.550   2.766   3.287 -0.2032  0.1118  0.5453
 8727SOL    HW137814   3.552   2.860   3.305 -0.7579  0.5966 -1.9334
 8727SOL    HW237815   3.463   2.755   3.249  0.2072 -0.3243 -0.2535
 8728SOL     OW37816   1.570   0.998   5.760  0.0784  0.1583 -0.2328
 8728SOL    HW137817   1.491   0.945   5.773 -2.4950  3.5382 -2.0974
 8728SOL    HW237818   1.578   0.988   5.665 -0.4144 -0.4064 -0.2162
 8729SOL     OW37819   1.779   3.997  11.622  0.5639 -0.5630  0.3074
 8729SOL    HW137820   1.765   4.065  11.688  3.3633  0.9012 -0.6458
 8729SOL    HW237821   1.688   3.988  11.593  0.7705  0.3410 -0.6151
 8730SOL     OW37822   1.570   2.350  11.651  0.7361  0.2054 -0.3034
 8730SOL    HW137823   1.489   2.353  11.702  1.3080  0.3205  0.5884
 8730SOL    HW237824   1.548   2.279  11.590 -2.2460 -0.6897  1.8144
 8731SOL     OW37825   2.966   3.491   2.486  0.0145  0.5364 -0.1986
 8731SOL    HW137826   2.891   3.548   2.469 -0.4046 -0.5203 -1.8364
 8731SOL    HW237827   3.028   3.534   2.426  0.0943 -0.1438 -0.5992
 8732SOL     OW37828   4.319   0.199   4.437  0.0113 -0.2527 -0.0556
 8732SOL    HW137829   4.400   0.214   4.485  2.3585  1.6282 -4.5552
 8732SOL    HW237830   4.336   0.245   4.355  2.6456  0.1650  0.7123
 8733SOL     OW37831   0.425   0.139   3.177 -0.2747 -0.0604 -0.1624
 8733SOL    HW137832   0.443   0.045   3.185  2.2758  0.4367 -0.1361
 8733SOL    HW237833   0.456   0.148   3.087  1.4926  1.8316  0.6528
 8734SOL     OW37834   4.306   2.184   9.149 -0.0035  0.4592  0.0667
 8734SOL    HW137835   4.232   2.125   9.161  0.6619 -0.2960  0.4328
 8734SOL    HW237836   4.255   2.265   9.144  0.4012  0.7659  0.8479
 8735SOL     OW37837   4.674   3.917   7.360 -0.1272 -0.0544 -0.2926
 8735SOL    HW137838   4.725   3.840   7.384 -0.6860 -1.1263 -2.5180
 8735SOL    HW237839   4.713   3.983   7.418  2.2813 -0.4828 -1.3885
 8736SOL     OW37840   1.717   4.578  13.086 -0.6435  0.0326 -0.0790
 8736SOL    HW137841   1.720   4.609  13.176  2.7806 -2.6359  0.7583
 8736SOL    HW237842   1.625   4.593  13.065 -0.4896 -2.9158 -2.9797
 8737SOL     OW37843   3.019   2.545   8.935  0.2773  0.0299 -0.5940
 8737SOL    HW137844   2.929   2.521   8.911 -2.1804  5.8438  2.6505
 8737SOL    HW237845   3.046   2.628   8.896 -1.5402  1.3887  0.9841
 8738SOL     OW37846   2.289   4.702   7.204  0.3584 -0.4469 -0.0728
 8738SOL    HW137847   2.338   4.727   7.283  0.5010 -0.0613 -0.2872
 8738SOL    HW237848   2.229   0.034   7.209  1.5139  0.6241 -2.1680
 8739SOL     OW37849   0.574   3.611   4.923 -0.3640 -0.3850 -0.5431
 8739SOL    HW137850   0.484   3.578   4.931  0.7665 -2.4135  3.6589
 8739SOL    HW237851   0.630   3.534   4.927  0.9041  0.6569  1.6787
 8740SOL     OW37852   1.499   2.854   7.506  0.0905  0.0739  0.8507
 8740SOL    HW137853   1.410   2.890   7.511 -0.4348 -0.7184 -2.7137
 8740SOL    HW237854   1.471   2.765   7.526 -1.6199  0.7785  1.6369
 8741SOL     OW37855   2.449   3.441   6.167  0.1744 -0.3797 -0.3763
 8741SOL    HW137856   2.384   3.511   6.173  2.1116  1.4728 -0.7148
 8741SOL    HW237857   2.387   3.369   6.166 -1.0242  0.6613 -0.9559
 8742SOL     OW37858   3.634   0.138   0.596  1.1780 -0.0249 -0.1033
 8742SOL    HW137859   3.591   0.220   0.573  1.2788 -0.3431 -1.4545
 8742SOL    HW237860   3.610   0.125   0.687 -1.2230 -2.2822 -1.0806
 8743SOL     OW37861   0.648   2.866   4.817  0.1184  0.0544 -0.3546
 8743SOL    HW137862   0.565   2.914   4.818 -1.2756 -2.3095 -2.5138
 8743SOL    HW237863   0.669   2.870   4.910 -1.9905 -1.1724  0.1800
 8744SOL     OW37864   3.692   4.009   1.710  0.2157  0.0799 -0.6461
 8744SOL    HW137865   3.742   4.077   1.755  1.9784 -1.7087  0.1557
 8744SOL    HW237866   3.756   3.954   1.664 -0.2239 -0.8683 -0.1395
 8745SOL     OW37867   2.954   4.182  14.529  0.5730  0.3282 -0.4596
 8745SOL    HW137868   2.980   4.188  14.437  0.8244  0.3725 -0.3839
 8745SOL    HW237869   2.959   4.089  14.552  0.9295  1.5476  4.4345
 8746SOL     OW37870   0.104   2.539   5.275  1.3736  0.3038 -0.2700
 8746SOL    HW137871   0.164   2.499   5.338 -0.9553  2.7288  3.4548
 8746SOL    HW237872   0.129   2.630   5.286 -1.1192  0.9529 -0.0842
 8747SOL     OW37873   1.901   2.363   9.146 -0.1815  0.0396 -0.2546
 8747SOL    HW137874   1.921   2.446   9.103  0.5813  0.8222  1.5861
 8747SOL    HW237875   1.886   2.305   9.071 -1.1718 -1.9861  1.5175
 8748SOL     OW37876   2.820   3.082   6.358  0.6341 -0.1711 -0.5066
 8748SOL    HW137877   2.756   3.014   6.339  3.2786 -2.5630 -0.8082
 8748SOL    HW237878   2.749   3.140   6.387  0.7606  0.1998 -0.9350
 8749SOL     OW37879   2.851   1.621   1.463  0.1361  0.2248  0.2647
 8749SOL    HW137880   2.831   1.567   1.387 -1.1819 -0.1370  0.8632
 8749SOL    HW237881   2.912   1.681   1.421 -2.1938  2.4010 -0.0182
 8750SOL     OW37882   2.605   4.509  15.178 -0.3412  0.2761  0.4844
 8750SOL    HW137883   2.682   4.493  15.123 -0.6586  1.7730 -0.4018
 8750SOL    HW237884   2.633   4.575  15.241 -1.3459 -1.8539  3.1501
 8751SOL     OW37885   0.843   3.028   9.275  0.1727 -0.3830  0.0700
 8751SOL    HW137886   0.873   2.997   9.361  2.7165  0.5427 -0.4788
 8751SOL    HW237887   0.757   2.986   9.270  0.2298 -0.6120  0.8822
 8752SOL     OW37888   1.826   1.562   8.833 -0.0146  0.9326  0.5710
 8752SOL    HW137889   1.836   1.633   8.770 -0.5840  1.2354  0.8272
 8752SOL    HW237890   1.751   1.593   8.883 -2.0577  1.6728 -2.8987
 8753SOL     OW37891   0.196   1.692   5.688 -0.0317 -0.0607  0.3703
 8753SOL    HW137892   0.217   1.701   5.595 -0.4542 -0.5139  0.2310
 8753SOL    HW237893   0.239   1.770   5.724  1.1069 -0.6726  0.3179
 8754SOL     OW37894   2.676   0.814  17.409 -0.0346 -0.4164  0.8539
 8754SOL    HW137895   2.681   0.866  17.489 -1.4650  1.1829 -0.1002
 8754SOL    HW237896   2.630   0.877  17.353  1.8242  2.0200  2.0871
 8755SOL     OW37897   2.077   1.051   5.623  0.0968  0.1720 -0.0940
 8755SOL    HW137898   2.089   1.143   5.600  1.0980 -0.0843 -0.6121
 8755SOL    HW237899   2.138   1.030   5.694 -2.0832 -0.2336  1.6256
 8756SOL     OW37900   1.758   3.094   3.965  0.2402  0.1938  0.0462
 8756SOL    HW137901   1.692   3.159   3.942  0.1979  0.0966 -0.1127
 8756SOL    HW237902   1.826   3.108   3.898 -1.2643  5.1979 -0.4754
 8757SOL     OW37903   3.424   1.991  16.527 -0.5712  0.2527  0.1977
 8757SOL    HW137904   3.416   1.960  16.617 -0.5668 -0.1874  0.0461
 8757SOL    HW237905   3.335   2.016  16.504 -0.8548  0.2409  1.2770
 8758SOL     OW37906   4.398   0.571   4.379  0.0139 -0.4389 -0.0836
 8758SOL    HW137907   4.429   0.483   4.359 -1.3077 -0.4210 -2.2493
 8758SOL    HW237908   4.354   0.558   4.462  1.0211 -0.6976  0.4030
 8759SOL     OW37909   2.954   3.603  17.436  0.4325 -0.3378 -0.1279
 8759SOL    HW137910   3.025   3.625  17.497  0.2943 -0.7211  0.1774
 8759SOL    HW237911   2.924   3.690  17.411  0.7343 -0.3753 -0.6280
 8760SOL     OW37912   1.450   0.783  11.557  0.0623 -0.9600 -0.1495
 8760SOL    HW137913   1.528   0.742  11.592  0.4421  0.7631  1.0521
 8760SOL    HW237914   1.439   0.725  11.482 -2.4251 -2.5414  1.4184
 8761SOL     OW37915   2.014   0.689   1.593  0.5472  0.3572 -0.9936
 8761SOL    HW137916   2.108   0.702   1.607  0.1198  0.7754  1.4570
 8761SOL    HW237917   1.991   0.745   1.519  0.2621  1.6956  0.0993
 8762SOL     OW37918   1.133   2.979   9.721  0.0939 -0.1881  0.3354
 8762SOL    HW137919   1.067   2.911   9.709 -0.2014  0.1557 -0.0142
 8762SOL    HW237920   1.148   2.977   9.816  0.2606 -2.3162  0.2541
 8763SOL     OW37921   2.342   0.267   4.872  0.5223 -0.8985  0.1775
 8763SOL    HW137922   2.409   0.200   4.881  1.9279  0.3082 -1.3902
 8763SOL    HW237923   2.310   0.270   4.962  0.1802  2.3298 -0.0452
 8764SOL     OW37924   1.859   2.296   7.321 -0.2507 -0.7290  0.0797
 8764SOL    HW137925   1.853   2.207   7.355  2.2538 -1.2933 -0.9619
 8764SOL    HW237926   1.768   2.297   7.291 -0.8958  0.2422  2.0563
 8765SOL     OW37927   2.148   2.390  12.001  0.1260  0.9189  0.1147
 8765SOL    HW137928   2.057   2.407  11.975 -0.1877 -0.7755  0.0767
 8765SOL    HW237929   2.174   2.308  11.959 -0.5502  1.1636 -0.7776
 8766SOL     OW37930   2.144   4.159  11.200 -0.2237 -0.0578 -0.0017
 8766SOL    HW137931   2.058   4.182  11.165 -0.0391 -0.3075 -0.6087
 8766SOL    HW237932   2.121   4.147  11.292  1.3112  0.3946  0.4440
 8767SOL     OW37933   2.795   2.461   2.108 -0.2743 -0.1368  0.1645
 8767SOL    HW137934   2.863   2.523   2.081 -1.4271  1.1265  0.1936
 8767SOL    HW237935   2.797   2.477   2.202 -0.2200 -1.1174  0.3249
 8768SOL     OW37936   0.737   3.417  15.165 -0.1891  0.2165  0.0863
 8768SOL    HW137937   0.661   3.387  15.215 -0.5966  1.3472  0.1456
 8768SOL    HW237938   0.768   3.328  15.146 -1.4568 -0.2530  0.2346
 8769SOL     OW37939   3.596   4.511   3.689  0.7006  0.4980 -0.2124
 8769SOL    HW137940   3.551   4.576   3.743 -1.7883 -1.7341  0.3698
 8769SOL    HW237941   3.524   4.449   3.680  2.0759 -0.7194 -2.7780
 8770SOL     OW37942   0.302   2.815   9.672 -0.0333 -0.0301  0.2981
 8770SOL    HW137943   0.258   2.873   9.611  2.3807  1.0144 -0.4333
 8770SOL    HW237944   0.302   2.733   9.622 -1.8150  0.4599 -0.4942
 8771SOL     OW37945   3.147   0.965   7.983  0.4055 -0.5528 -0.1761
 8771SOL    HW137946   3.110   0.977   7.896  0.4953  1.8851  0.1368
 8771SOL    HW237947   3.069   0.998   8.027 -0.2913 -2.0433 -0.2806
 8772SOL     OW37948   0.277   4.159   0.036 -0.3432 -0.2237  0.0378
 8772SOL    HW137949   0.211   4.108   0.082  0.1834  0.2480  1.3249
 8772SOL    HW237950   0.352   4.118   0.079  0.5413  0.4280 -0.8775
 8773SOL     OW37951   1.611   4.101  16.136  0.1921 -0.0195 -0.3679
 8773SOL    HW137952   1.550   4.057  16.196  1.3286 -1.7667 -0.4970
 8773SOL    HW237953   1.552   4.163  16.093  3.6727  2.9978 -0.6849
 8774SOL     OW37954   1.947   2.764   3.622  0.1754  0.0745 -0.5307
 8774SOL    HW137955   1.971   2.675   3.595  0.8226  0.4323 -1.1238
 8774SOL    HW237956   1.864   2.749   3.667  0.1917  1.5782  0.0018
 8775SOL     OW37957   1.498   4.707   2.679  0.1007 -0.4536  0.0266
 8775SOL    HW137958   1.561   4.635   2.669  1.2359  0.0930  3.0226
 8775SOL    HW237959   1.414   4.662   2.681 -0.6508  1.0177  2.6491
 8776SOL     OW37960   3.874   3.199  11.659  0.1521 -0.7037  0.0833
 8776SOL    HW137961   3.779   3.215  11.659 -0.0474 -1.8796 -1.2012
 8776SOL    HW237962   3.905   3.286  11.681  0.3120 -0.8708  0.5041
 8777SOL     OW37963   0.172   1.737   4.863  0.7571  0.5059  0.3502
 8777SOL    HW137964   0.227   1.690   4.799 -1.1575 -1.9812  0.5193
 8777SOL    HW237965   0.106   1.762   4.799  0.8533  0.8491  0.3888
 8778SOL     OW37966   2.704   1.571   2.534  0.3676  0.4908  0.6682
 8778SOL    HW137967   2.772   1.532   2.479  0.3788 -1.8850  2.3730
 8778SOL    HW237968   2.719   1.542   2.624  1.0688 -0.6968  0.1567
 8779SOL     OW37969   1.517   3.197   8.257 -0.1296  0.3005  0.3847
 8779SOL    HW137970   1.560   3.218   8.340  1.8477 -0.5837 -0.4268
 8779SOL    HW237971   1.576   3.142   8.206 -0.0121  0.6771  0.1140
 8780SOL     OW37972   1.571   1.645  12.664  0.2417 -0.0476 -0.3418
 8780SOL    HW137973   1.563   1.599  12.581  1.0725 -0.8398  0.0234
 8780SOL    HW237974   1.498   1.616  12.718 -0.6646  2.5587 -0.1323
 8781SOL     OW37975   4.327   3.881   5.846  0.1993 -0.0845  0.2652
 8781SOL    HW137976   4.384   3.842   5.913  0.1578  0.1544  0.4394
 8781SOL    HW237977   4.242   3.846   5.871 -0.7975  2.1436  0.0130
 8782SOL     OW37978   2.318   2.015  10.135  0.2072  0.3302 -0.0184
 8782SOL    HW137979   2.360   1.938  10.175 -0.1434  0.4524  0.5730
 8782SOL    HW237980   2.302   2.070  10.211 -0.5365  1.3284 -0.8930
 8783SOL     OW37981   0.958   4.024  15.006  0.1872  0.6840  0.4676
 8783SOL    HW137982   0.867   4.004  15.029 -0.2462  1.0453 -0.8950
 8783SOL    HW237983   0.981   3.937  14.973  2.0027  0.7968  1.4247
 8784SOL     OW37984   3.952   2.714   3.316  0.1489  0.4311 -0.4069
 8784SOL    HW137985   4.033   2.666   3.301 -0.4012 -0.6834  0.1885
 8784SOL    HW237986   3.972   2.793   3.266 -1.6055  1.2881  0.2514
 8785SOL     OW37987   4.051   0.901   6.239 -0.5114 -0.4932  0.3393
 8785SOL    HW137988   3.991   0.922   6.168 -0.8339 -2.4164  0.0429
 8785SOL    HW237989   4.103   0.838   6.189  3.2619  2.7610  0.1138
 8786SOL     OW37990   0.421   2.528   7.808  0.1311  0.4658 -0.9059
 8786SOL    HW137991   0.493   2.499   7.863  0.0310 -0.5379 -1.3132
 8786SOL    HW237992   0.463   2.498   7.728  1.7521 -0.8052  0.4399
 8787SOL     OW37993   2.675   4.672   9.045 -0.5013 -0.2308 -0.1372
 8787SOL    HW137994   2.709   0.010   9.004  0.0111 -0.0614  0.6124
 8787SOL    HW237995   2.620   4.725   9.102 -0.2885 -0.4981  0.3215
 8788SOL     OW37996   2.745   0.226  12.355  0.0788 -0.1963 -0.5142
 8788SOL    HW137997   2.675   0.289  12.337  0.0718 -0.7302 -2.3749
 8788SOL    HW237998   2.818   0.276  12.319 -0.5048 -0.1094 -1.5861
 8789SOL     OW37999   0.769   0.884   1.510  0.4339 -0.2583 -0.5096
 8789SOL    HW138000   0.712   0.853   1.440 -0.3370 -0.5609  0.2546
 8789SOL    HW238001   0.853   0.880   1.463 -0.7864 -1.3548 -2.5760
 8790SOL     OW38002   1.885   3.835  15.765 -0.3178 -0.0023 -0.5434
 8790SOL    HW138003   1.945   3.785  15.710  1.0475 -0.2148  1.1215
 8790SOL    HW238004   1.932   3.918  15.775  0.5674 -0.6270  0.5079
 8791SOL     OW38005   4.667   0.795  12.465 -0.2811  0.0533  0.8526
 8791SOL    HW138006   4.680   0.712  12.510 -1.8293  0.5894  2.2471
 8791SOL    HW238007   4.635   0.764  12.380  0.8072 -1.7282  1.0994
 8792SOL     OW38008   0.513   3.240   6.980  0.6534 -0.6913 -0.0492
 8792SOL    HW138009   0.501   3.328   7.015 -1.2926 -0.8746 -0.2696
 8792SOL    HW238010   0.445   3.184   7.017 -0.3572  0.4530 -0.1718
 8793SOL     OW38011   1.192   1.192  14.774 -0.0313 -0.0118  0.9644
 8793SOL    HW138012   1.119   1.133  14.791 -0.9254  0.1507 -2.3079
 8793SOL    HW238013   1.236   1.140  14.708 -0.1558  1.8939 -0.6143
 8794SOL     OW38014   2.387   0.080   8.786  1.0267  0.1005  0.0416
 8794SOL    HW138015   2.354   4.734   8.803 -0.1746  0.3197 -1.1884
 8794SOL    HW238016   2.332   0.128   8.725 -0.9682 -1.3510  0.7091
 8795SOL     OW38017   2.003   3.923   4.724 -0.5591  0.7648  0.5407
 8795SOL    HW138018   2.079   3.886   4.680 -0.7836  0.4831  0.3889
 8795SOL    HW238019   2.039   3.925   4.812  0.1628 -0.7082  0.2821
 8796SOL     OW38020   0.111   4.548   3.051  0.0330 -0.4484 -0.1057
 8796SOL    HW138021   0.121   4.453   3.050 -0.8306 -0.5363  0.0009
 8796SOL    HW238022   0.108   4.564   3.145  0.3663  0.6244 -0.2838
 8797SOL     OW38023   3.991   0.890   8.436  0.3420 -0.0705 -0.5826
 8797SOL    HW138024   3.998   0.798   8.462 -0.4078 -0.6443 -2.3832
 8797SOL    HW238025   3.903   0.899   8.401  0.1374 -1.4689 -0.3941
 8798SOL     OW38026   3.671   4.422  14.516 -0.5418  0.1303  0.9187
 8798SOL    HW138027   3.597   4.414  14.577  0.3414  0.9231  2.0990
 8798SOL    HW238028   3.705   4.338  14.547 -0.2140  0.4256  1.3470
 8799SOL     OW38029   3.049   3.511   5.864  0.2115  0.2850 -0.5811
 8799SOL    HW138030   3.084   3.548   5.782  0.7210  0.2014 -0.3981
 8799SOL    HW238031   2.957   3.530   5.842 -0.1145 -3.5497 -2.4560
 8800SOL     OW38032   2.899   3.328   3.760  0.4012 -0.5097 -0.0273
 8800SOL    HW138033   2.807   3.306   3.772  0.1350  0.0141 -1.0879
 8800SOL    HW238034   2.924   3.330   3.853  1.1284 -0.9994 -0.2155
 8801SOL     OW38035   0.071   4.064   4.587 -0.1937 -0.2298  0.2583
 8801SOL    HW138036   0.089   4.088   4.678 -0.4058  0.5884  0.0932
 8801SOL    HW238037   4.724   4.094   4.569 -0.6081 -1.4072  0.3791
 8802SOL     OW38038   4.452   1.073   9.164  1.2481 -0.0411  0.1321
 8802SOL    HW138039   4.360   1.089   9.141  1.1509 -1.7054 -0.6145
 8802SOL    HW238040   4.465   1.100   9.254  0.1088  0.4170  0.1591
 8803SOL     OW38041   2.447   3.667   8.182  0.0108  0.0382 -0.1439
 8803SOL    HW138042   2.447   3.668   8.278 -0.8893 -0.7404 -0.1356
 8803SOL    HW238043   2.514   3.732   8.160 -0.4840  1.1463  1.6347
 8804SOL     OW38044   3.543   2.494  11.252  0.1003  0.4972  0.1109
 8804SOL    HW138045   3.619   2.552  11.244  1.1399 -0.6602  1.4889
 8804SOL    HW238046   3.558   2.468  11.343  2.4833 -1.1478 -0.7393
 8805SOL     OW38047   3.084   1.060  10.661 -0.0859  0.4708 -0.2180
 8805SOL    HW138048   3.169   1.103  10.669  0.2249 -0.4838  1.4053
 8805SOL    HW238049   3.081   1.031  10.752  2.7824 -1.9656 -0.9298
 8806SOL     OW38050   1.707   2.767  14.787  0.0797 -0.3151  0.2366
 8806SOL    HW138051   1.761   2.711  14.730 -1.2793 -1.9958  0.6076
 8806SOL    HW238052   1.681   2.702  14.852  0.8325 -0.3566  0.4934
 8807SOL     OW38053   3.722   1.028   5.256 -0.2846 -0.2263  0.0472
 8807SOL    HW138054   3.637   1.031   5.213  1.7121 -0.0984 -3.8782
 8807SOL    HW238055   3.773   0.990   5.184  0.5295 -0.4834  0.7657
 8808SOL     OW38056   0.229   4.452  16.723  0.4416 -0.4281 -0.0836
 8808SOL    HW138057   0.208   4.544  16.737 -3.4132 -1.6268  2.0300
 8808SOL    HW238058   0.309   4.444  16.775 -0.2235 -0.6797  0.8938
 8809SOL     OW38059   1.495   3.754   5.871 -0.4769 -0.2605 -0.2739
 8809SOL    HW138060   1.460   3.779   5.957  1.1105  2.3369 -0.3970
 8809SOL    HW238061   1.450   3.811   5.809 -2.1583 -0.4845  0.7334
 8810SOL     OW38062   3.735   4.141  15.792 -0.0325  0.1149 -0.7029
 8810SOL    HW138063   3.744   4.176  15.704  0.5276  1.5234 -0.0867
 8810SOL    HW238064   3.644   4.159  15.815  0.0547  0.9615 -1.0026
 8811SOL     OW38065   4.068   1.661   2.992  0.1681 -0.3672  0.6036
 8811SOL    HW138066   3.973   1.652   2.994  0.1277  0.1021  0.6837
 8811SOL    HW238067   4.082   1.620   2.906 -0.9402 -1.6342  1.0251
 8812SOL     OW38068   3.770   3.541   6.638 -0.1401 -0.1315  0.1554
 8812SOL    HW138069   3.819   3.461   6.623  0.2671  0.0011  0.7622
 8812SOL    HW238070   3.690   3.514   6.684 -1.8572 -0.5291 -3.0886
 8813SOL     OW38071   4.114   0.485   4.226 -0.2778  0.5528  0.5511
 8813SOL    HW138072   4.203   0.515   4.247 -0.7492 -0.8352  4.6565
 8813SOL    HW238073   4.068   0.561   4.263 -0.6340  0.2693  0.6855
 8814SOL     OW38074   0.448   4.205   9.936 -0.1253  0.0378 -0.7772
 8814SOL    HW138075   0.361   4.176   9.965 -0.5299  1.1512 -0.8914
 8814SOL    HW238076   0.469   4.262  10.010 -2.3646  0.2729 -0.3224
 8815SOL     OW38077   1.119   4.228  12.109 -0.5438  0.0356  0.2201
 8815SOL    HW138078   1.059   4.225  12.183  0.1309 -0.2015  0.7548
 8815SOL    HW238079   1.120   4.144  12.063 -0.9093 -0.8643  1.8711
 8816SOL     OW38080   0.670   1.443   1.582 -0.5291 -0.6995 -0.9365
 8816SOL    HW138081   0.762   1.420   1.566 -0.2287  1.4655 -2.2778
 8816SOL    HW238082   0.629   1.405   1.505 -2.0469  0.2314 -0.5870
 8817SOL     OW38083   4.112   0.023   6.833  0.1319 -0.0730 -0.2273
 8817SOL    HW138084   4.115   0.000   6.740 -2.7042 -0.2105 -0.2956
 8817SOL    HW238085   4.064   4.692   6.872  0.3324 -0.6006 -0.9632
 8818SOL     OW38086   4.727   4.392   8.627 -0.2748 -0.1156 -0.4685
 8818SOL    HW138087   0.057   4.334   8.604 -0.3001 -0.1501 -0.4616
 8818SOL    HW238088   4.693   4.353   8.708 -1.9173  2.2068 -0.0445
 8819SOL     OW38089   4.462   3.360   4.077 -0.4109 -0.3380  0.0875
 8819SOL    HW138090   4.478   3.345   4.170 -0.7128 -0.4768  0.1165
 8819SOL    HW238091   4.386   3.415   4.097  0.0374  0.3504 -0.0906
 8820SOL     OW38092   1.257   3.033   7.599  0.0635  0.0238  0.6568
 8820SOL    HW138093   1.259   3.114   7.650  1.9078 -1.0271  2.2635
 8820SOL    HW238094   1.305   2.977   7.660  1.1311  1.4895  1.1357
 8821SOL     OW38095   2.341   0.235   3.956 -0.2883 -0.0357  0.3996
 8821SOL    HW138096   2.251   0.201   3.952  0.1216 -1.3111  1.9977
 8821SOL    HW238097   2.392   0.156   3.976 -2.0604 -0.6265  2.5788
 8822SOL     OW38098   4.666   0.513  14.038 -0.0128 -0.0696  0.5486
 8822SOL    HW138099   4.703   0.524  13.951 -1.6583  1.2367  0.0161
 8822SOL    HW238100   4.680   0.604  14.063  2.7039  0.0922 -1.6510
 8823SOL     OW38101   2.211   4.606  14.581  0.3973 -0.4696  0.1932
 8823SOL    HW138102   2.286   4.567  14.625  1.3154  1.6586  0.4927
 8823SOL    HW238103   2.148   4.534  14.585 -0.7297  0.4594 -0.8964
 8824SOL     OW38104   1.571   3.649   7.349 -1.0000  0.2265  0.3714
 8824SOL    HW138105   1.563   3.555   7.332 -2.5766  0.2700  0.8873
 8824SOL    HW238106   1.482   3.685   7.355 -0.9778 -0.2833  3.6498
 8825SOL     OW38107   2.133   0.760   5.817 -0.4283 -0.5411  0.1889
 8825SOL    HW138108   2.050   0.803   5.797 -1.1267 -1.3615  1.3140
 8825SOL    HW238109   2.171   0.828   5.873  1.5394 -0.5208 -1.1821
 8826SOL     OW38110   1.314   2.083  13.120 -0.0905  0.1334 -0.0936
 8826SOL    HW138111   1.313   2.027  13.042 -1.4537 -0.8808  0.6481
 8826SOL    HW238112   1.353   2.163  13.085  2.5014 -1.4108 -0.7534
 8827SOL     OW38113   4.411   0.753   2.858  0.4604 -0.5224 -0.6352
 8827SOL    HW138114   4.414   0.768   2.764  0.4513  2.3095 -0.1953
 8827SOL    HW238115   4.435   0.838   2.894  2.3652 -1.1447 -0.4324
 8828SOL     OW38116   1.260   1.374   0.463 -0.3241  0.2480 -0.3238
 8828SOL    HW138117   1.185   1.315   0.454 -0.9611  0.6651  1.9614
 8828SOL    HW238118   1.224   1.462   0.478  1.6576  1.1577 -1.0265
 8829SOL     OW38119   3.734   2.962   5.714  0.3125 -1.0002  0.1241
 8829SOL    HW138120   3.657   2.938   5.765  0.3759 -0.1226  0.6318
 8829SOL    HW238121   3.741   2.882   5.662 -0.5966  1.1083 -3.2101
 8830SOL     OW38122   0.224   4.580   3.569 -0.1202  0.1061  0.1434
 8830SOL    HW138123   0.142   4.607   3.611  0.7015  2.3217  0.3126
 8830SOL    HW238124   0.236   4.490   3.599  0.5545  0.6202  1.4346
 8831SOL     OW38125   0.343   2.828  14.487 -0.0223 -0.3580  0.2827
 8831SOL    HW138126   0.324   2.907  14.437 -0.3264  0.7965  2.2202
 8831SOL    HW238127   0.429   2.801  14.452  0.6452  1.2093  0.7171
 8832SOL     OW38128   2.086   1.103   8.772  0.4128  0.4800 -0.0090
 8832SOL    HW138129   2.076   1.164   8.846 -0.9488 -0.0977  0.2841
 8832SOL    HW238130   2.146   1.151   8.715  0.7569  1.5937  1.2829
 8833SOL     OW38131   0.290   3.702  17.231 -0.1819 -0.5585 -0.2010
 8833SOL    HW138132   0.292   3.798  17.236  0.4706 -0.5113 -1.6360
 8833SOL    HW238133   0.215   3.689  17.173  1.0313  1.4932 -2.2393
 8834SOL     OW38134   3.917   4.153   1.513  0.0906  0.7115 -0.4712
 8834SOL    HW138135   3.911   4.181   1.605  0.5717  1.1386 -0.5732
 8834SOL    HW238136   3.955   4.066   1.524 -2.6830 -0.4733 -0.2388
 8835SOL     OW38137   0.650   3.167   5.526  0.4343 -0.3240  0.2702
 8835SOL    HW138138   0.626   3.254   5.492 -1.8591 -0.0415  2.6092
 8835SOL    HW238139   0.744   3.174   5.541  0.4158  1.2424 -0.3201
 8836SOL     OW38140   3.138   2.904   3.867 -0.0474 -0.0555  0.3359
 8836SOL    HW138141   3.089   2.963   3.809  0.1896  0.0703  0.2622
 8836SOL    HW238142   3.077   2.832   3.878  2.0816 -1.8751  0.2932
 8837SOL     OW38143   1.279   2.957   3.743 -0.3217 -0.2996 -0.4583
 8837SOL    HW138144   1.344   2.895   3.778  0.4272  0.5874 -0.2980
 8837SOL    HW238145   1.224   2.954   3.821  0.5840  4.0819  0.3517
 8838SOL     OW38146   3.281   0.770  14.214 -0.0467 -0.1569 -0.0242
 8838SOL    HW138147   3.188   0.756  14.228  0.2517  0.4767  2.5054
 8838SOL    HW238148   3.289   0.831  14.140  1.2051  0.9255  1.0011
 8839SOL     OW38149   4.516   2.131   5.570 -0.0806  0.6458  0.0985
 8839SOL    HW138150   4.513   2.063   5.503 -0.1770  1.1055 -0.3685
 8839SOL    HW238151   4.493   2.206   5.515  0.8500  1.0352  0.2240
 8840SOL     OW38152   0.774   4.348  15.689 -0.5121 -0.4077  0.0538
 8840SOL    HW138153   0.828   4.381  15.617 -1.8016 -1.1904 -1.2721
 8840SOL    HW238154   0.832   4.344  15.765  0.4860 -0.8413 -0.7290
 8841SOL     OW38155   3.351   0.487   1.927 -0.3870  0.1226  0.1846
 8841SOL    HW138156   3.353   0.473   2.021 -0.1266  1.2870  0.3498
 8841SOL    HW238157   3.385   0.575   1.909 -1.9118  0.5804 -0.5312
 8842SOL     OW38158   2.493   1.450   5.667 -0.4846 -0.3175 -0.1460
 8842SOL    HW138159   2.585   1.471   5.682 -0.9509  0.5071  1.5227
 8842SOL    HW238160   2.455   1.479   5.750  0.7027 -0.3117  0.3900
 8843SOL     OW38161   0.530   1.578   7.114  0.1962  0.5250  0.4263
 8843SOL    HW138162   0.607   1.544   7.069 -0.9906  0.5990 -1.6725
 8843SOL    HW238163   0.559   1.583   7.205 -0.7368 -1.9180  0.8571
 8844SOL     OW38164   0.415   1.806  14.325 -0.5530  0.2212 -0.3819
 8844SOL    HW138165   0.502   1.795  14.286 -0.5788 -0.5576 -0.2115
 8844SOL    HW238166   0.365   1.769  14.251  2.3326 -0.5882 -1.9328
 8845SOL     OW38167   2.459   0.098   2.103 -0.1529  0.0802  0.1214
 8845SOL    HW138168   2.500   0.071   2.185 -0.6562 -0.6520  0.1272
 8845SOL    HW238169   2.463   0.015   2.055  1.2096  0.6546 -0.7636
 8846SOL     OW38170   0.962   0.044   5.936  0.5526 -0.3232  0.0616
 8846SOL    HW138171   0.922   4.736   6.006 -0.7886  0.4378 -0.1579
 8846SOL    HW238172   0.980   0.129   5.975  1.9317  0.3248 -1.9636
 8847SOL     OW38173   3.353   1.966   7.355  0.0969  0.4532  0.2077
 8847SOL    HW138174   3.312   1.966   7.268  2.0554 -2.6610 -0.7223
 8847SOL    HW238175   3.273   1.945   7.403  0.9080 -4.1142 -0.4937
 8848SOL     OW38176   0.769   4.361   0.460 -0.1981  0.2316  0.0785
 8848SOL    HW138177   0.674   4.360   0.452 -0.3460 -0.8792  2.0950
 8848SOL    HW238178   0.784   4.301   0.533  1.1175 -0.7574 -1.0032
 8849SOL     OW38179   4.325   0.752  12.941 -0.8957  0.0868  0.4431
 8849SOL    HW138180   4.350   0.827  12.886 -1.2828  0.4914  0.8167
 8849SOL    HW238181   4.356   0.780  13.027  0.8205  0.0450 -0.1659
 8850SOL     OW38182   4.675   1.800   5.213  0.1874  0.7297  0.6560
 8850SOL    HW138183   0.007   1.741   5.199 -2.1346 -2.2107  0.5960
 8850SOL    HW238184   4.613   1.766   5.148  0.9190  0.6723 -0.0073
 8851SOL     OW38185   0.638   2.993   6.024 -0.3133 -0.3533 -0.7227
 8851SOL    HW138186   0.566   2.929   6.022 -2.2497  1.7749  0.9969
 8851SOL    HW238187   0.592   3.075   6.040 -1.1937 -0.8425 -0.7321
 8852SOL     OW38188   3.887   2.067  12.241  0.0322 -0.2723  0.6027
 8852SOL    HW138189   3.793   2.077  12.232  0.1144 -0.9381 -0.8727
 8852SOL    HW238190   3.923   2.154  12.260 -0.2334  0.3486 -1.7479
 8853SOL     OW38191   4.645   3.718   2.654  0.0098  0.0925  0.0914
 8853SOL    HW138192   4.705   3.791   2.672 -1.2926  0.9537  0.9111
 8853SOL    HW238193   4.678   3.643   2.704 -0.0937  0.5362  0.8328
 8854SOL     OW38194   1.627   2.195   5.653 -0.2234 -0.2804  0.3516
 8854SOL    HW138195   1.661   2.157   5.734  0.0738  1.9566  1.2903
 8854SOL    HW238196   1.692   2.164   5.590  0.1413 -0.8029  0.9801
 8855SOL     OW38197   3.951   1.096   7.025 -0.6136  0.2083  0.2810
 8855SOL    HW138198   3.940   1.015   6.975  0.6887  0.8130 -0.9511
 8855SOL    HW238199   3.987   1.072   7.111  0.7725  3.2602  0.5241
 8856SOL     OW38200   4.563   3.408   7.961  0.5382 -0.1013 -0.2840
 8856SOL    HW138201   4.531   3.343   8.023 -2.4639 -0.1882 -1.9328
 8856SOL    HW238202   4.484   3.421   7.908  2.6023  0.1158 -3.3029
 8857SOL     OW38203   3.681   3.103   2.539  0.1463  0.0678  0.0769
 8857SOL    HW138204   3.623   3.113   2.463 -2.3122 -0.7993  1.8104
 8857SOL    HW238205   3.647   3.032   2.594 -0.0514  1.0155  1.1772
 8858SOL     OW38206   0.551   2.275   6.499  0.0440  0.0382 -0.5335
 8858SOL    HW138207   0.640   2.307   6.482  0.1710  1.6071  2.8859
 8858SOL    HW238208   0.502   2.358   6.504  0.5552  0.3146 -0.0841
 8859SOL     OW38209   4.573   1.447   5.371  0.9322  0.3082 -0.4041
 8859SOL    HW138210   4.547   1.355   5.379 -0.0180  0.4473 -1.9180
 8859SOL    HW238211   4.503   1.483   5.425 -0.9834 -1.1841 -1.8765
 8860SOL     OW38212   4.386   3.142   4.906 -0.4264 -0.3369 -0.1714
 8860SOL    HW138213   4.420   3.214   4.853 -0.0273 -0.1299  0.3662
 8860SOL    HW238214   4.456   3.079   4.892  0.4648  0.7977 -0.7821
 8861SOL     OW38215   4.077   1.893  13.891  0.0019  0.5818  0.0856
 8861SOL    HW138216   4.055   1.802  13.871 -1.4683  1.1137 -0.7306
 8861SOL    HW238217   4.027   1.896  13.973  0.4981 -1.0067  0.4467
 8862SOL     OW38218   4.597   1.170   5.466  0.2542  0.0077 -0.2204
 8862SOL    HW138219   4.555   1.142   5.547 -1.6821  0.8983 -0.9089
 8862SOL    HW238220   4.672   1.216   5.504 -1.2089 -0.9373  3.7556
 8863SOL     OW38221   4.143   0.517  11.915 -0.1470  0.0471  0.2267
 8863SOL    HW138222   4.124   0.592  11.860  0.6450  2.2682  2.9860
 8863SOL    HW238223   4.057   0.482  11.937 -0.8715  2.3383  0.9684
 8864SOL     OW38224   4.281   4.278   8.975 -0.3560 -0.2595 -0.1306
 8864SOL    HW138225   4.342   4.223   9.025 -0.2661  1.3099  1.5034
 8864SOL    HW238226   4.197   4.266   9.019  0.8621 -1.4701  1.8817
 8865SOL     OW38227   3.950   4.624  17.335 -0.2242  0.5476  0.0154
 8865SOL    HW138228   3.874   4.604  17.281  0.1858 -0.3079 -0.2371
 8865SOL    HW238229   3.910   4.698  17.381 -1.8175  1.0918 -2.2217
 8866SOL     OW38230   3.996   0.543   1.146 -0.3528 -0.0316  0.0631
 8866SOL    HW138231   4.012   0.633   1.173  0.4154 -0.4533  1.0139
 8866SOL    HW238232   4.001   0.553   1.051  0.2231 -1.0134 -0.0159
 8867SOL     OW38233   2.812   2.680  11.651  0.1711  0.1999 -0.3356
 8867SOL    HW138234   2.863   2.712  11.577  0.9381 -3.9122 -1.5732
 8867SOL    HW238235   2.732   2.726  11.624 -0.4562  0.2589  1.6319
 8868SOL     OW38236   0.999   3.867   1.944  0.6554 -0.0861  0.3884
 8868SOL    HW138237   0.974   3.806   2.013 -0.5089  1.5434  1.3966
 8868SOL    HW238238   1.010   3.948   1.995 -0.1953  1.0160 -1.1658
 8869SOL     OW38239   1.826   1.724   6.885 -0.4196 -0.3168  0.4634
 8869SOL    HW138240   1.910   1.678   6.890  0.8162  1.8325  0.0213
 8869SOL    HW238241   1.846   1.776   6.963  1.1014  1.1369 -0.8891
 8870SOL     OW38242   2.912   1.456   2.363 -0.0302 -0.1359 -0.2726
 8870SOL    HW138243   2.963   1.509   2.301  0.5775 -1.6747 -1.0973
 8870SOL    HW238244   2.866   1.403   2.297 -2.0291  0.0365  0.9909
 8871SOL     OW38245   3.504   3.940   6.798  0.2725 -0.5115 -0.4207
 8871SOL    HW138246   3.414   3.915   6.817 -0.3288  2.5153  0.7894
 8871SOL    HW238247   3.536   3.916   6.885 -1.5910  1.0853  0.7189
 8872SOL     OW38248   2.930   2.094   4.697  0.1996  0.3420 -0.1591
 8872SOL    HW138249   3.010   2.103   4.750  0.4710  0.4766 -0.5943
 8872SOL    HW238250   2.866   2.147   4.745 -0.5477 -1.0097  0.3591
 8873SOL     OW38251   2.715   4.659   8.286 -0.4680 -0.3980 -0.2714
 8873SOL    HW138252   2.674   4.584   8.242 -2.0065 -0.9450  2.0566
 8873SOL    HW238253   2.778   4.609   8.339 -0.5349 -0.7505 -0.5246
 8874SOL     OW38254   2.195   3.967  12.133  0.5519 -0.2821 -0.4925
 8874SOL    HW138255   2.194   4.044  12.190  2.9830 -0.1728 -0.6131
 8874SOL    HW238256   2.211   4.004  12.047  3.3526 -1.2347 -0.3666
 8875SOL     OW38257   2.991   1.324   2.851 -0.2470 -0.5701  0.7177
 8875SOL    HW138258   2.946   1.301   2.932 -2.3427 -0.4080 -0.4029
 8875SOL    HW238259   3.029   1.238   2.831  1.4575  0.3097  0.1252
 8876SOL     OW38260   4.573   1.056   8.891  0.3472  0.1799  0.2590
 8876SOL    HW138261   4.622   1.077   8.970 -0.1991 -1.4741  1.0359
 8876SOL    HW238262   4.483   1.073   8.917 -0.0982  0.8434 -1.6856
 8877SOL     OW38263   0.096   4.206   1.682  0.1772 -0.0518 -0.1338
 8877SOL    HW138264   0.163   4.209   1.750 -2.0837  0.1058  2.0866
 8877SOL    HW238265   0.057   4.292   1.698 -0.5300 -0.2039 -1.0346
 8878SOL     OW38266   0.857   1.930   7.143 -0.3198  0.0094  0.7940
 8878SOL    HW138267   0.881   1.895   7.229 -0.5579  0.5771  1.0937
 8878SOL    HW238268   0.848   2.020   7.175 -1.7280 -0.0584  0.5701
 8879SOL     OW38269   3.522   2.922   2.074 -0.5901 -0.0090 -0.0603
 8879SOL    HW138270   3.454   2.869   2.033 -1.6930  1.8702 -0.6282
 8879SOL    HW238271   3.608   2.901   2.036 -0.4199 -1.1254  0.9231
 8880SOL     OW38272   3.787   2.229  10.633  0.2034  0.3010  0.3696
 8880SOL    HW138273   3.806   2.180  10.713  0.5091 -1.7762 -0.9581
 8880SOL    HW238274   3.727   2.165  10.595 -0.1320  0.9352 -0.1729
 8881SOL     OW38275   2.789   1.739   4.300  0.4289 -0.1989  0.2885
 8881SOL    HW138276   2.788   1.830   4.270  3.6742 -0.5203 -0.7359
 8881SOL    HW238277   2.775   1.750   4.394 -1.3112  0.1230  0.0110
 8882SOL     OW38278   1.275   3.022   7.115 -0.3981 -0.7039  0.7223
 8882SOL    HW138279   1.343   3.005   7.050 -0.3019 -0.3765  0.7391
 8882SOL    HW238280   1.274   2.931   7.144 -4.1235 -1.1191 -0.6566
 8883SOL     OW38281   3.543   1.631   3.516 -0.3428 -0.5956 -0.0819
 8883SOL    HW138282   3.514   1.616   3.605 -0.0808  0.5589  0.2044
 8883SOL    HW238283   3.468   1.606   3.462 -0.8124  0.9008 -0.1199
 8884SOL     OW38284   3.557   1.974   4.059 -0.1082 -0.2637 -0.0762
 8884SOL    HW138285   3.509   1.892   4.047  1.6226 -1.2135 -0.5350
 8884SOL    HW238286   3.597   1.980   3.972  1.3770  1.2286  0.7268
 8885SOL     OW38287   4.097   4.142   0.151  0.0775 -0.1805  0.6312
 8885SOL    HW138288   4.082   4.195   0.229  2.0323  0.2783  0.7085
 8885SOL    HW238289   4.038   4.183   0.088  1.0802  1.9672  1.0911
 8886SOL     OW38290   1.361   0.743   4.592  0.5855 -0.0545 -0.0940
 8886SOL    HW138291   1.423   0.791   4.538  1.4311 -0.5480  0.4528
 8886SOL    HW238292   1.371   0.662   4.543 -1.0680 -1.0175  1.1554
 8887SOL     OW38293   2.328   0.087   5.402 -0.0387 -0.6406 -0.3000
 8887SOL    HW138294   2.324   0.178   5.430  0.7405 -1.0457  1.1200
 8887SOL    HW238295   2.257   0.053   5.456 -0.4594 -1.5718 -1.4230
 8888SOL     OW38296   3.164   1.442   9.871  0.3193  0.1575  0.1774
 8888SOL    HW138297   3.228   1.454   9.941  0.5728 -0.6832  0.0895
 8888SOL    HW238298   3.080   1.437   9.915 -0.1604 -0.8311 -0.8626
 8889SOL     OW38299   1.949   2.930   8.760 -0.1394 -0.2022 -0.8899
 8889SOL    HW138300   1.880   2.921   8.695 -0.7261  1.2437 -0.4629
 8889SOL    HW238301   1.916   3.009   8.803  2.6955  0.3667  0.2618
 8890SOL     OW38302   3.076   2.143   0.567 -0.0901 -0.5225 -0.9713
 8890SOL    HW138303   3.046   2.156   0.477  1.0510 -0.1341 -1.2981
 8890SOL    HW238304   3.084   2.234   0.595  0.5568 -1.0842  0.6648
 8891SOL     OW38305   3.767   1.023   5.515  0.5287  0.3104  0.1712
 8891SOL    HW138306   3.855   0.987   5.506  0.3630 -0.2093  0.6008
 8891SOL    HW238307   3.752   1.058   5.427  0.0022 -2.1903 -0.7332
 8892SOL     OW38308   1.553   0.592   3.731  0.0907  0.2561 -0.1815
 8892SOL    HW138309   1.634   0.636   3.758 -1.6631  3.2703  0.1601
 8892SOL    HW238310   1.483   0.655   3.744  1.3230  1.4690  0.6312
 8893SOL     OW38311   1.996   3.294   9.709  0.2336  0.2609 -0.3210
 8893SOL    HW138312   2.070   3.336   9.665 -0.5191  1.7800 -0.1230
 8893SOL    HW238313   2.044   3.276   9.790 -1.4769 -1.3373  0.3341
 8894SOL     OW38314   0.811   2.166   3.366  0.0920  0.4006 -0.2629
 8894SOL    HW138315   0.862   2.086   3.379  0.0830  0.0816 -2.1742
 8894SOL    HW238316   0.786   2.193   3.454  0.0854  0.9822 -0.4448
 8895SOL     OW38317   1.548   2.613  13.579 -0.0255  0.1234  0.0621
 8895SOL    HW138318   1.493   2.635  13.654  1.9839  1.0568  1.2590
 8895SOL    HW238319   1.510   2.678  13.520 -1.0619  0.9097  1.5959
 8896SOL     OW38320   3.946   1.568   0.549 -0.1225 -0.2283  0.5171
 8896SOL    HW138321   3.889   1.645   0.539  2.9417  2.0999  0.7297
 8896SOL    HW238322   3.992   1.566   0.465 -0.5811  0.4563  0.2425
 8897SOL     OW38323   2.567   0.683  12.265 -0.2522 -0.3000 -0.4366
 8897SOL    HW138324   2.647   0.693  12.317 -0.7540  4.5514 -0.5425
 8897SOL    HW238325   2.587   0.597  12.227 -0.7911 -1.3280  1.6198
 8898SOL     OW38326   3.365   2.572  14.357 -0.2433 -0.1011  0.2827
 8898SOL    HW138327   3.391   2.570  14.449 -2.9840 -0.4187  1.0512
 8898SOL    HW238328   3.446   2.561  14.308  1.3341  2.0199  2.4076
 8899SOL     OW38329   4.513   1.440   6.285  0.2701  0.3625  0.5901
 8899SOL    HW138330   4.568   1.431   6.364  1.8889  1.5024 -0.4117
 8899SOL    HW238331   4.428   1.442   6.328  0.3976  1.6312  0.7972
 8900SOL     OW38332   3.927   2.929  11.702  0.6318  0.1431 -0.2511
 8900SOL    HW138333   3.873   3.008  11.696  0.0162 -0.0375  2.9146
 8900SOL    HW238334   3.982   2.942  11.625 -2.6660  0.0827 -2.6370
 8901SOL     OW38335   2.748   1.757   2.206 -0.5600 -0.1373 -0.7510
 8901SOL    HW138336   2.788   1.750   2.119  0.4187  0.0773 -0.3175
 8901SOL    HW238337   2.685   1.827   2.186 -0.5035 -0.1344 -0.9179
 8902SOL     OW38338   2.085   0.373   9.560 -0.0797 -0.2962  0.0468
 8902SOL    HW138339   2.018   0.359   9.627  0.8820 -1.4187  0.7947
 8902SOL    HW238340   2.149   0.320   9.608  2.9834  2.1141 -1.4204
 8903SOL     OW38341   4.053   1.490   9.968  0.0679 -0.0889 -0.3023
 8903SOL    HW138342   4.100   1.573   9.967 -0.0778 -0.0160 -1.9938
 8903SOL    HW238343   4.071   1.451  10.053 -0.7612  0.6269  0.2075
 8904SOL     OW38344   2.634   0.968   2.523  0.1160 -0.0282  1.1253
 8904SOL    HW138345   2.664   0.881   2.496  0.0352  0.2351  0.1753
 8904SOL    HW238346   2.585   0.932   2.597  1.6152 -1.8212  1.2333
 8905SOL     OW38347   1.295   4.618   4.769 -0.1071 -0.2881 -0.0652
 8905SOL    HW138348   1.348   4.544   4.800  1.6576  1.5562  1.2798
 8905SOL    HW238349   1.350   4.644   4.694 -0.0878  0.9407  0.3824
 8906SOL     OW38350   3.344   1.697  14.176  0.0623 -0.0249  0.6602
 8906SOL    HW138351   3.312   1.780  14.210 -3.9033 -1.4198  0.2910
 8906SOL    HW238352   3.267   1.660  14.133  1.0283 -1.2409 -0.0174
 8907SOL     OW38353   1.525   3.086   2.208  0.2630  0.2684 -0.4331
 8907SOL    HW138354   1.535   3.087   2.113 -0.2817 -3.1499 -0.5133
 8907SOL    HW238355   1.487   3.174   2.215 -1.4864 -0.5023 -0.1024
 8908SOL     OW38356   1.081   2.407   7.174 -0.0747  0.0137 -0.1512
 8908SOL    HW138357   1.041   2.493   7.167  0.1957  0.1850  0.3856
 8908SOL    HW238358   1.145   2.407   7.103 -1.5612  1.6501 -1.4851
 8909SOL     OW38359   1.409   2.194   7.834 -0.4840  0.2224 -0.3252
 8909SOL    HW138360   1.320   2.165   7.855  0.0683 -2.3140 -1.6397
 8909SOL    HW238361   1.426   2.141   7.757  0.2585 -0.8127  0.5635
 8910SOL     OW38362   1.764   3.153   3.034 -0.1252  0.7568 -0.4434
 8910SOL    HW138363   1.829   3.222   3.046  1.4466 -0.8371  0.0362
 8910SOL    HW238364   1.731   3.144   3.124 -0.7510 -0.8849 -0.8332
 8911SOL     OW38365   1.498   3.004   6.888 -0.1704 -0.4826  0.0126
 8911SOL    HW138366   1.531   2.918   6.913  1.7917  0.9151  2.2054
 8911SOL    HW238367   1.445   2.978   6.812 -0.7483  2.3837 -0.5602
 8912SOL     OW38368   0.325   2.925   4.153 -0.4990  0.7005  0.1273
 8912SOL    HW138369   0.250   2.889   4.107 -0.3094  1.0623 -0.4643
 8912SOL    HW238370   0.281   2.979   4.219 -2.3112 -1.3104  0.5674
 8913SOL     OW38371   3.285   2.762   3.197 -0.7629 -0.0389 -0.0233
 8913SOL    HW138372   3.221   2.691   3.194  0.4354 -1.0393 -2.1640
 8913SOL    HW238373   3.260   2.808   3.117  1.9931  1.8575  0.1949
 8914SOL     OW38374   3.646   1.797   8.439  0.7495  0.4216 -0.2787
 8914SOL    HW138375   3.732   1.773   8.404  1.5295  0.0514  1.8905
 8914SOL    HW238376   3.662   1.777   8.531  1.9805 -0.5969 -0.7191
 8915SOL     OW38377   2.855   4.050   4.857  0.6232 -0.1868 -0.0476
 8915SOL    HW138378   2.909   3.990   4.806 -0.0261 -0.8818  0.0913
 8915SOL    HW238379   2.919   4.121   4.866  0.0907  0.2565  0.2510
 8916SOL     OW38380   1.750   2.896   0.759  0.0966  0.0753 -0.1962
 8916SOL    HW138381   1.681   2.923   0.820 -0.3379  0.8322 -1.0316
 8916SOL    HW238382   1.738   2.802   0.751 -0.6174  0.0196  1.5281
 8917SOL     OW38383   1.240   2.556   4.258 -0.1917  0.4053 -0.5994
 8917SOL    HW138384   1.257   2.479   4.203 -2.2114  0.2071 -0.9508
 8917SOL    HW238385   1.159   2.590   4.222  1.2176  2.3694 -1.8777
 8918SOL     OW38386   0.913   4.370   1.400  0.0706 -0.2644  0.0621
 8918SOL    HW138387   0.977   4.369   1.472  2.8579  1.1616 -2.3772
 8918SOL    HW238388   0.829   4.354   1.443  0.6727 -0.9789  0.9797
 8919SOL     OW38389   1.630   2.319   2.480  0.3054 -0.0545 -0.7141
 8919SOL    HW138390   1.598   2.399   2.524  1.3144  0.1860 -0.4119
 8919SOL    HW238391   1.577   2.333   2.402 -1.1940  1.2093  0.5163
 8920SOL     OW38392   1.715   1.139   2.214 -0.3498 -0.3337  0.6477
 8920SOL    HW138393   1.680   1.077   2.278 -0.9351 -0.6612  0.0153
 8920SOL    HW238394   1.753   1.199   2.278 -0.7796 -0.1558  0.7345
 8921SOL     OW38395   4.292   2.331  13.398  0.2576 -0.1016  0.2306
 8921SOL    HW138396   4.280   2.244  13.361 -2.2043  1.0982 -1.8140
 8921SOL    HW238397   4.311   2.308  13.489 -0.9839 -2.6380 -0.1609
 8922SOL     OW38398   2.759   3.599   9.367  0.1129 -0.0563 -0.7949
 8922SOL    HW138399   2.837   3.611   9.313  1.6747  2.4390  1.9459
 8922SOL    HW238400   2.720   3.513   9.350  1.7787 -0.7462 -1.1015
 8923SOL     OW38401   3.074   3.940   0.564  0.1692 -0.1475  0.0565
 8923SOL    HW138402   3.131   3.873   0.601 -0.1562 -0.5442 -0.1667
 8923SOL    HW238403   3.142   4.003   0.539  0.1930  0.3248  1.2846
 8924SOL     OW38404   3.325   4.672   8.081  0.4288  0.1842  0.0542
 8924SOL    HW138405   3.294   4.582   8.093 -0.2161  0.5210  0.9512
 8924SOL    HW238406   3.415   4.662   8.051  1.0721 -0.1651  2.0703
 8925SOL     OW38407   2.678   3.862   4.980 -0.5406  0.0869  0.3038
 8925SOL    HW138408   2.611   3.845   4.914  0.2961  0.0011 -0.5173
 8925SOL    HW238409   2.741   3.909   4.926  1.0214 -0.9269  1.2401
 8926SOL     OW38410   0.766   4.560  13.099 -0.0992 -0.2073  0.2710
 8926SOL    HW138411   0.806   4.529  13.018 -2.4411  0.3497 -1.0831
 8926SOL    HW238412   0.834   4.545  13.165  0.4335 -1.7573 -0.6263
 8927SOL     OW38413   0.824   0.322   1.515 -0.3293  0.2061  0.1045
 8927SOL    HW138414   0.730   0.308   1.525 -0.4114 -1.5374 -2.9692
 8927SOL    HW238415   0.842   0.414   1.531  1.3369  0.0428 -0.8451
 8928SOL     OW38416   1.541   0.381  17.556  0.4062 -0.1689  0.4330
 8928SOL    HW138417   1.572   0.306  17.506 -0.9363  0.2231 -0.9849
 8928SOL    HW238418   1.563   0.456  17.501  1.1563 -0.8139 -0.1484
 8929SOL     OW38419   1.314   2.467   5.626 -0.3785 -0.0382  0.4506
 8929SOL    HW138420   1.389   2.521   5.599 -1.2743  0.1591 -1.6123
 8929SOL    HW238421   1.321   2.478   5.721 -0.3530 -0.2566  0.4741
 8930SOL     OW38422   2.301   4.482  16.998  0.0189 -0.1886 -0.0978
 8930SOL    HW138423   2.217   4.484  17.043  0.4068  0.1480  0.6111
 8930SOL    HW238424   2.280   4.445  16.912  1.0195  3.1666 -1.7743
 8931SOL     OW38425   3.566   1.306   8.799  0.7340  0.0512  0.6996
 8931SOL    HW138426   3.606   1.223   8.827 -0.0043 -0.2366  0.9126
 8931SOL    HW238427   3.493   1.312   8.861 -1.2289  0.9993 -1.6885
 8932SOL     OW38428   2.439   4.104   4.708 -0.0666 -0.1226 -0.1760
 8932SOL    HW138429   2.450   4.169   4.639 -1.3500  1.2848  0.9501
 8932SOL    HW238430   2.457   4.155   4.787 -1.4105  0.2074 -0.0855
 8933SOL     OW38431   3.272   3.368   7.501  0.1432 -0.3453 -0.0412
 8933SOL    HW138432   3.339   3.355   7.568 -0.3085 -0.1977  0.4370
 8933SOL    HW238433   3.309   3.420   7.430 -0.0313  0.1280  0.2126
 8934SOL     OW38434   2.525   4.118  17.548  0.4480 -0.2490 -0.1100
 8934SOL    HW138435   2.452   4.180  17.551 -0.8400 -1.8832  2.3809
 8934SOL    HW238436   2.523   4.093  17.456  2.7828 -3.6801  0.7770
 8935SOL     OW38437   1.030   3.158  14.267 -0.1116  0.0994  0.1882
 8935SOL    HW138438   0.946   3.188  14.233 -0.0598  1.0975  0.9082
 8935SOL    HW238439   1.003   3.071  14.294 -1.8904  1.3650  2.5265
 8936SOL     OW38440   1.744   2.939  16.633 -0.4607 -0.5630  0.3229
 8936SOL    HW138441   1.765   3.032  16.632  0.4503 -0.7693  0.5472
 8936SOL    HW238442   1.651   2.942  16.658 -0.3971  0.5798  0.4232
 8937SOL     OW38443   4.305   0.304   3.273 -0.4119 -0.6562 -0.5191
 8937SOL    HW138444   4.352   0.237   3.223  0.0320  2.0439 -3.6997
 8937SOL    HW238445   4.274   0.354   3.198 -0.1034 -1.1561 -0.9826
 8938SOL     OW38446   2.404   3.851  16.827  0.3372 -0.6177  0.3874
 8938SOL    HW138447   2.487   3.826  16.788  0.8807  2.3830 -0.3560
 8938SOL    HW238448   2.340   3.793  16.785  0.2874  0.5460 -1.1327
 8939SOL     OW38449   2.803   2.667   4.474  0.4536 -0.5557 -0.7538
 8939SOL    HW138450   2.747   2.606   4.427 -2.1618  0.4299  1.0719
 8939SOL    HW238451   2.868   2.605   4.507  0.4047 -0.6547 -0.8436
 8940SOL     OW38452   1.424   1.584   7.590  0.2577  0.0117  0.6769
 8940SOL    HW138453   1.483   1.645   7.547  0.3803 -0.9172 -0.4941
 8940SOL    HW238454   1.415   1.515   7.524  0.5207  1.1106 -0.5114
 8941SOL     OW38455   1.280   4.721  17.030 -0.1765  0.0913  0.3572
 8941SOL    HW138456   1.307   4.630  17.040 -0.1772 -0.1216 -1.6000
 8941SOL    HW238457   1.307   0.010  16.943 -1.2096 -0.6670 -0.2318
 8942SOL     OW38458   3.160   2.088  16.425 -0.1976 -0.0775 -0.3624
 8942SOL    HW138459   3.098   2.102  16.496  0.6363 -0.9997  0.5567
 8942SOL    HW238460   3.100   2.083  16.352 -1.3756 -0.0702  0.6054
 8943SOL     OW38461   1.499   1.145  16.667 -0.2194  0.1365 -0.8539
 8943SOL    HW138462   1.486   1.126  16.759 -1.4484  1.1565 -0.8189
 8943SOL    HW238463   1.469   1.235  16.658 -1.4322 -0.2454 -0.6155
 8944SOL     OW38464   2.941   2.344   2.965 -0.3048  0.3544  0.2495
 8944SOL    HW138465   2.926   2.416   3.026 -0.6899 -0.9419  1.6803
 8944SOL    HW238466   2.995   2.385   2.898 -1.5653 -1.2739 -1.7638
 8945SOL     OW38467   4.069   1.556   9.186 -0.1438 -0.7144 -0.2243
 8945SOL    HW138468   3.973   1.557   9.177 -0.2662 -0.7897  1.0547
 8945SOL    HW238469   4.097   1.548   9.095  1.9495 -2.8849  0.6131
 8946SOL     OW38470   2.332   1.532   9.742  0.1648 -0.1193 -0.3267
 8946SOL    HW138471   2.266   1.601   9.747  2.3035  1.9759 -0.6611
 8946SOL    HW238472   2.351   1.532   9.648  1.6777  2.8478 -0.0283
 8947SOL     OW38473   1.268   3.305   0.632  0.0466  0.0372 -0.0576
 8947SOL    HW138474   1.353   3.303   0.676 -0.5785 -0.8705  1.1081
 8947SOL    HW238475   1.248   3.392   0.666 -1.6967  0.0384 -1.0556
 8948SOL     OW38476   2.149   3.994   8.189  0.2947  0.0221  0.2344
 8948SOL    HW138477   2.147   4.012   8.283 -1.6885 -1.7440  0.5501
 8948SOL    HW238478   2.121   3.902   8.182  0.3642 -0.0434  0.7637
 8949SOL     OW38479   3.384   0.565  17.043 -0.4917 -0.0680  0.6484
 8949SOL    HW138480   3.427   0.483  17.019  0.8944  0.4060  1.5032
 8949SOL    HW238481   3.292   0.546  17.028  0.2798 -0.9395 -3.2135
 8950SOL     OW38482   4.260   2.979   9.867  0.2143 -0.1473  0.4631
 8950SOL    HW138483   4.288   3.059   9.823 -0.9446  0.5098  0.9073
 8950SOL    HW238484   4.338   2.927   9.850 -1.5589 -3.1187  1.3973
 8951SOL     OW38485   4.305   3.230   3.034 -0.2592 -0.1987  0.3076
 8951SOL    HW138486   4.328   3.192   3.119  0.5275  0.2111  0.2773
 8951SOL    HW238487   4.372   3.186   2.981 -1.1191 -1.2421  0.0871
 8952SOL     OW38488   0.140   0.387   5.310  0.0516  0.0526  0.1839
 8952SOL    HW138489   0.064   0.364   5.365 -0.6794  1.4622 -0.2231
 8952SOL    HW238490   0.182   0.303   5.328  0.3456 -0.0157 -0.8647
 8953SOL     OW38491   2.538   0.736  11.581  0.4083  0.2555 -0.5044
 8953SOL    HW138492   2.444   0.726  11.570  0.7603 -1.7061 -1.7481
 8953SOL    HW238493   2.558   0.642  11.583  0.4821  0.3111  1.5193
 8954SOL     OW38494   1.337   4.553  14.755 -0.3299 -0.2171  0.3786
 8954SOL    HW138495   1.284   4.491  14.706 -1.2337 -0.7120  1.9740
 8954SOL    HW238496   1.421   4.509  14.767 -0.1340 -0.1204 -0.7264
 8955SOL     OW38497   1.590   0.187   0.585 -0.4271  0.2960  0.1897
 8955SOL    HW138498   1.584   0.279   0.608 -0.6838 -0.3176  2.5675
 8955SOL    HW238499   1.518   0.145   0.632 -0.2037  0.8586  1.0140
 8956SOL     OW38500   0.909   2.637   5.947  0.2254  0.4118  0.0075
 8956SOL    HW138501   0.970   2.612   5.877  0.6882  0.0623  0.5409
 8956SOL    HW238502   0.840   2.681   5.897 -0.8360 -1.0028  0.2350
 8957SOL     OW38503   2.622   3.346  15.378 -0.3649 -0.3201  1.2612
 8957SOL    HW138504   2.685   3.418  15.374 -1.1621  0.4006  1.6152
 8957SOL    HW238505   2.634   3.313  15.289  1.0617 -0.7966  1.6249
 8958SOL     OW38506   4.503   3.025  13.821 -0.1274 -0.3150  0.1762
 8958SOL    HW138507   4.456   2.982  13.892 -0.3966 -2.8514 -1.5683
 8958SOL    HW238508   4.585   3.049  13.864  0.2008 -0.7555 -0.2112
 8959SOL     OW38509   2.061   3.543   7.824  0.1379  0.3370 -0.3854
 8959SOL    HW138510   2.059   3.600   7.746  0.4512 -0.8035 -1.2155
 8959SOL    HW238511   2.097   3.464   7.785  0.3492  0.1308  0.2473
 8960SOL     OW38512   3.736   4.361  17.249  0.3306 -0.1335  0.4011
 8960SOL    HW138513   3.787   4.373  17.329 -0.8902  3.7794  0.5934
 8960SOL    HW238514   3.722   4.454  17.230 -1.2781 -0.8026 -1.7547
 8961SOL     OW38515   0.146   0.073   5.804  0.0137  0.3652 -0.5219
 8961SOL    HW138516   0.114   4.741   5.753 -3.0294  1.4647 -0.2357
 8961SOL    HW238517   0.118   0.146   5.748  0.5075  1.3267  0.4825
 8962SOL     OW38518   0.993   1.735   7.802 -0.8413 -0.2840 -0.7301
 8962SOL    HW138519   0.936   1.810   7.815 -1.7302 -0.9561 -0.7156
 8962SOL    HW238520   1.025   1.720   7.891  1.8997  4.3527 -0.9222
 8963SOL     OW38521   4.035   1.137   2.699 -0.5357 -0.2219  0.0598
 8963SOL    HW138522   3.980   1.060   2.684 -2.2409  1.2727 -1.3427
 8963SOL    HW238523   4.100   1.106   2.763 -0.0723 -1.7685 -1.1591
 8964SOL     OW38524   2.259   1.726   6.508 -0.0322 -0.5385  0.5256
 8964SOL    HW138525   2.297   1.814   6.505 -1.0665 -0.1005  0.5484
 8964SOL    HW238526   2.225   1.722   6.597 -0.4580  1.7000  0.4576
 8965SOL     OW38527   2.018   4.350   6.736  0.0549  0.0660  0.4912
 8965SOL    HW138528   1.957   4.422   6.723 -2.7901 -2.5937 -1.1462
 8965SOL    HW238529   2.057   4.330   6.651 -0.6867 -1.1854  0.4426
 8966SOL     OW38530   3.042   1.195   5.894 -0.3676 -0.2690  0.2610
 8966SOL    HW138531   3.135   1.212   5.886 -0.2858 -1.1249 -0.6435
 8966SOL    HW238532   2.998   1.280   5.886  0.3745  0.0873 -0.0519
 8967SOL     OW38533   1.384   0.481   0.383 -0.2294  0.1405 -0.3063
 8967SOL    HW138534   1.369   0.514   0.472 -1.2494  0.7355 -0.7023
 8967SOL    HW238535   1.412   0.565   0.346 -2.4383  0.9600 -0.1507
 8968SOL     OW38536   4.132   1.152   4.754 -0.6153  0.1956  0.6987
 8968SOL    HW138537   4.046   1.114   4.771 -0.4013 -0.4497  0.3501
 8968SOL    HW238538   4.154   1.138   4.845  2.0503 -0.0805 -0.0032
 8969SOL     OW38539   2.309   2.235   3.668 -0.3353 -0.7787  0.2955
 8969SOL    HW138540   2.288   2.143   3.680 -1.9730 -0.4094  0.2359
 8969SOL    HW238541   2.349   2.225   3.581 -0.1512  0.5069  0.2318
 8970SOL     OW38542   1.031   1.722   2.281  0.2364 -0.1674 -0.2309
 8970SOL    HW138543   0.951   1.675   2.258  1.3571 -1.2825 -1.8081
 8970SOL    HW238544   1.091   1.689   2.215  0.9786  0.5495  0.0891
 8971SOL     OW38545   3.349   3.760  14.933 -0.3577 -0.4602  0.5888
 8971SOL    HW138546   3.275   3.741  14.990  0.0052 -1.4567  0.7379
 8971SOL    HW238547   3.323   3.733  14.845  1.7269 -0.3826 -0.0430
 8972SOL     OW38548   0.295   3.185   7.625  0.3440  0.4627  0.4754
 8972SOL    HW138549   0.303   3.190   7.721  1.1503  0.5319  0.4075
 8972SOL    HW238550   0.320   3.273   7.597 -2.3393  0.1195 -2.8419
 8973SOL     OW38551   2.594   1.393  17.612  0.2402  0.7014 -0.1367
 8973SOL    HW138552   2.598   1.334  17.538 -2.5654 -0.5835  0.7286
 8973SOL    HW238553   2.635   1.340  17.680 -2.2658 -2.0069 -0.7775
 8974SOL     OW38554   1.934   2.338   9.711  0.3827  0.4393  0.3599
 8974SOL    HW138555   1.994   2.339   9.786  1.4815 -0.2008 -0.5197
 8974SOL    HW238556   1.970   2.400   9.648 -1.0821  2.1390  1.2136
 8975SOL     OW38557   0.592   0.674  16.974  0.5999  0.3952  0.3744
 8975SOL    HW138558   0.567   0.629  16.893 -2.6770 -1.5816  2.5056
 8975SOL    HW238559   0.530   0.747  16.976  1.2544  0.9644 -0.2882
 8976SOL     OW38560   0.113   2.320   1.564  0.3048 -0.0813 -0.4973
 8976SOL    HW138561   0.042   2.306   1.501 -0.6061  1.1969  0.2566
 8976SOL    HW238562   0.053   2.332   1.637  2.1476 -1.8827  1.3007
 8977SOL     OW38563   3.826   1.912   9.015  0.0985  0.0460 -0.2118
 8977SOL    HW138564   3.784   1.884   9.097  0.5166  0.1503  0.0378
 8977SOL    HW238565   3.753   1.948   8.965  0.3042  0.9225  0.1162
 8978SOL     OW38566   1.013   0.739   1.100 -0.4532 -0.2939  0.2632
 8978SOL    HW138567   1.033   0.673   1.166  1.5711 -1.2803 -1.3136
 8978SOL    HW238568   0.944   0.785   1.147  0.4018  0.2322  0.9888
 8979SOL     OW38569   2.395   1.382   1.287  0.0261 -0.0591  0.5303
 8979SOL    HW138570   2.421   1.449   1.349 -0.8314  3.0148 -2.3955
 8979SOL    HW238571   2.429   1.416   1.204  0.1382  3.2751  1.9509
 8980SOL     OW38572   3.505   3.007   8.333 -0.8441 -0.2633  0.0662
 8980SOL    HW138573   3.520   2.969   8.246 -0.4479  1.8513 -0.7990
 8980SOL    HW238574   3.525   2.930   8.386  2.1110  0.0723 -0.5592
 8981SOL     OW38575   3.030   2.864   5.826 -0.0582  0.1232 -0.0948
 8981SOL    HW138576   3.024   2.950   5.786  1.3583  0.6016  0.7005
 8981SOL    HW238577   2.960   2.887   5.887 -0.1268  3.4024 -1.4151
 8982SOL     OW38578   1.500   3.729   2.288  0.3186  0.1067  0.3851
 8982SOL    HW138579   1.554   3.725   2.209  3.4907  1.2384  2.4517
 8982SOL    HW238580   1.484   3.823   2.299  0.7343  0.2633 -0.3244
 8983SOL     OW38581   3.768   1.448   7.301  0.3989  0.1797 -0.3639
 8983SOL    HW138582   3.699   1.473   7.363  1.3786  2.8936 -0.3931
 8983SOL    HW238583   3.841   1.434   7.361  0.8828 -0.8056 -1.1844
 8984SOL     OW38584   3.442   3.770   8.734  0.3897  1.1349  0.1076
 8984SOL    HW138585   3.398   3.804   8.813 -0.6465  1.3459 -0.5489
 8984SOL    HW238586   3.527   3.809   8.753  1.3654 -0.8530 -0.2735
 8985SOL     OW38587   0.664   4.381  14.868 -0.4129  0.3037 -0.2572
 8985SOL    HW138588   0.700   4.453  14.816 -0.0193 -0.1470 -0.6081
 8985SOL    HW238589   0.575   4.369  14.835 -1.0297  1.0530  1.1332
 8986SOL     OW38590   0.566   0.957   7.097  0.4044 -0.1765 -0.7690
 8986SOL    HW138591   0.626   0.882   7.093 -1.9984 -2.1581  0.4628
 8986SOL    HW238592   0.622   1.033   7.079 -4.2254  3.1281 -1.1015
 8987SOL     OW38593   4.414   1.518  16.980  0.1249  0.1943 -0.9171
 8987SOL    HW138594   4.461   1.449  17.027 -0.4872  1.6835  1.9156
 8987SOL    HW238595   4.352   1.465  16.931 -0.5859  0.3387 -0.1684
 8988SOL     OW38596   3.272   1.496  14.410 -0.5450  0.4364 -0.2345
 8988SOL    HW138597   3.228   1.422  14.369 -1.3367  0.3300  0.8129
 8988SOL    HW238598   3.270   1.557  14.336  0.3330 -1.0410 -1.4756
 8989SOL     OW38599   1.159   0.841  12.447  0.2818  0.1160 -0.5851
 8989SOL    HW138600   1.129   0.889  12.524  0.0720  1.0536 -1.2607
 8989SOL    HW238601   1.074   0.818  12.410 -0.7300 -0.7644  2.2265
 8990SOL     OW38602   1.855   1.971  10.029  0.2236  0.5317  0.3239
 8990SOL    HW138603   1.764   1.994  10.009  0.4288  1.1841  0.1498
 8990SOL    HW238604   1.892   1.990   9.943 -1.5573  0.2802 -0.4920
 8991SOL     OW38605   3.079   2.275   3.350  0.2666  0.4940 -0.4479
 8991SOL    HW138606   3.165   2.292   3.388 -0.0858  2.2147 -0.4079
 8991SOL    HW238607   3.016   2.303   3.416 -1.2013 -1.0135 -1.2178
 8992SOL     OW38608   2.140   1.195  12.962 -0.1800 -0.7813  0.6298
 8992SOL    HW138609   2.150   1.159  13.050 -1.1911  1.7861  1.7852
 8992SOL    HW238610   2.054   1.235  12.962 -0.3694 -1.1882  0.6523
 8993SOL     OW38611   0.015   4.244   9.935  0.1076  0.0959  0.0308
 8993SOL    HW138612   4.690   4.282   9.879  1.9870  1.6252 -1.1863
 8993SOL    HW238613   0.061   4.179   9.881  0.4986 -0.0034  0.4765
 8994SOL     OW38614   3.508   1.057   1.562 -0.3283 -0.0755 -0.4685
 8994SOL    HW138615   3.534   1.093   1.647 -0.1614 -0.8883 -0.1678
 8994SOL    HW238616   3.503   0.967   1.595  0.4197  0.6305  1.5416
 8995SOL     OW38617   4.610   4.135   5.701  0.4536 -0.6334  0.0119
 8995SOL    HW138618   4.596   4.051   5.744  0.2500 -0.5995  0.0121
 8995SOL    HW238619   4.671   4.171   5.765  0.3523  1.5376 -1.1085
 8996SOL     OW38620   1.011   2.593   8.495 -0.0111  0.0827 -0.1500
 8996SOL    HW138621   1.063   2.600   8.575 -0.9053  0.8154  0.3663
 8996SOL    HW238622   1.032   2.500   8.489  1.2568  0.3018  0.7938
 8997SOL     OW38623   0.835   3.712   5.825 -0.2201  0.3043 -0.3581
 8997SOL    HW138624   0.864   3.782   5.767  2.0563 -0.1166  0.2639
 8997SOL    HW238625   0.920   3.670   5.837 -0.1339 -0.4212 -3.4888
 8998SOL     OW38626   2.143   2.448   4.633  0.2486 -0.1955  0.0033
 8998SOL    HW138627   2.158   2.497   4.714  1.7981 -2.4373  1.0700
 8998SOL    HW238628   2.132   2.524   4.576  0.2020  0.1786  0.5058
 8999SOL     OW38629   4.259   1.012   4.198  0.2872  0.6930  0.6640
 8999SOL    HW138630   4.210   1.066   4.261 -1.7402 -0.6356  0.2330
 8999SOL    HW238631   4.335   0.986   4.250  0.7828  0.7508 -0.0349
 9000SOL     OW38632   0.441   3.301   2.548 -0.1927 -0.3702 -0.1991
 9000SOL    HW138633   0.522   3.301   2.599 -0.7166 -1.7133  0.6093
 9000SOL    HW238634   0.447   3.394   2.526 -0.9322 -0.7830 -2.1204
 9001SOL     OW38635   3.487   0.547   3.377 -0.0021 -0.2352 -0.5455
 9001SOL    HW138636   3.574   0.514   3.397  0.1613  0.9149  0.6798
 9001SOL    HW238637   3.426   0.504   3.436  0.8175  0.2984  0.6925
 9002SOL     OW38638   0.027   3.020  14.739  0.2978  0.1346 -0.4008
 9002SOL    HW138639   0.078   3.096  14.765  0.6434 -0.4444  0.6001
 9002SOL    HW238640   0.064   2.945  14.785 -0.0227  1.4388  1.9501
 9003SOL     OW38641   1.053   2.828   4.561 -0.3479 -0.4936 -0.0295
 9003SOL    HW138642   1.024   2.857   4.648 -0.7232  1.9918 -0.9746
 9003SOL    HW238643   0.980   2.843   4.502 -0.3331 -0.0027  0.0684
 9004SOL     OW38644   2.386   3.703  11.465  0.2769  0.4515  0.0585
 9004SOL    HW138645   2.313   3.706  11.527 -0.1953 -0.3266 -0.4507
 9004SOL    HW238646   2.335   3.748  11.398 -0.0325  2.2751  1.5461
 9005SOL     OW38647   2.221   2.534   8.913 -0.5284 -0.4032 -0.4800
 9005SOL    HW138648   2.285   2.512   8.982 -0.1007  0.2789 -0.6525
 9005SOL    HW238649   2.274   2.579   8.847 -1.6456 -0.1684 -1.2173
 9006SOL     OW38650   2.389   3.185  15.412 -0.3803 -0.5707  0.0962
 9006SOL    HW138651   2.475   3.212  15.442 -0.5896 -0.4749  0.6215
 9006SOL    HW238652   2.325   3.239  15.459 -1.4345 -2.3163  0.6630
 9007SOL     OW38653   0.801   4.263   5.735  0.7846 -0.5055 -0.3825
 9007SOL    HW138654   0.846   4.345   5.756 -0.3163  0.4058 -1.6320
 9007SOL    HW238655   0.779   4.230   5.822  0.2580  1.1573  0.1008
 9008SOL     OW38656   2.385   1.001   6.755  0.5212  0.5432  0.4454
 9008SOL    HW138657   2.360   1.083   6.712 -1.3070 -0.3424 -0.1807
 9008SOL    HW238658   2.296   0.970   6.772  0.2376 -0.2681 -2.5646
 9009SOL     OW38659   0.176   2.275   9.315 -0.3397  0.0989 -0.1282
 9009SOL    HW138660   0.173   2.215   9.240 -1.0767 -1.4127  1.1043
 9009SOL    HW238661   0.083   2.296   9.325 -0.1061  0.7165  0.6597
 9010SOL     OW38662   1.280   1.570   6.512 -0.2997  0.0296 -0.6259
 9010SOL    HW138663   1.236   1.511   6.451 -1.0334  0.3728 -0.4273
 9010SOL    HW238664   1.221   1.645   6.508  0.5406  0.7934  1.4235
 9011SOL     OW38665   1.917   3.860   4.983  0.2523 -0.4619 -0.1726
 9011SOL    HW138666   1.867   3.800   4.929 -0.2984 -0.2301  0.0795
 9011SOL    HW238667   1.885   3.946   4.957  1.8702  0.9493  2.4570
 9012SOL     OW38668   1.995   1.245   1.808 -0.0076 -0.1284  0.2670
 9012SOL    HW138669   1.926   1.222   1.746 -1.0087  1.6942  0.7014
 9012SOL    HW238670   1.997   1.161   1.854 -0.2379 -1.2401 -1.7709
 9013SOL     OW38671   0.540   2.042   0.334 -0.2324  0.3937 -0.4629
 9013SOL    HW138672   0.569   1.952   0.353 -1.4146  0.0984 -0.0680
 9013SOL    HW238673   0.460   2.012   0.291  0.1081 -0.6965 -0.3576
 9014SOL     OW38674   0.914   1.483  14.189  0.0508  0.2692 -0.3889
 9014SOL    HW138675   0.842   1.453  14.133  0.1105  0.5430 -0.6101
 9014SOL    HW238676   0.931   1.394  14.221  0.1810 -0.3659 -2.1905
 9015SOL     OW38677   4.056   4.416   4.072  0.3597  0.5174 -0.4700
 9015SOL    HW138678   4.100   4.421   3.987 -0.0599 -0.0461 -0.7255
 9015SOL    HW238679   4.065   4.507   4.100 -2.7464  1.1206 -1.2943
 9016SOL     OW38680   0.280   4.492   9.582  0.1836 -0.0537  0.1898
 9016SOL    HW138681   0.344   4.546   9.535 -0.5254  1.2101  0.6518
 9016SOL    HW238682   0.315   4.504   9.670  2.4201  0.1101 -0.7260
 9017SOL     OW38683   2.775   2.878   2.739 -0.0222  0.6027 -0.7090
 9017SOL    HW138684   2.811   2.928   2.812 -0.2869 -0.9728  0.4954
 9017SOL    HW238685   2.821   2.914   2.663 -0.1874 -0.0118 -1.1035
 9018SOL     OW38686   3.589   0.844  17.105 -0.3014 -0.5288  0.2436
 9018SOL    HW138687   3.541   0.903  17.046  0.0102 -2.3978 -1.8532
 9018SOL    HW238688   3.674   0.834  17.063  0.1918 -0.1425  1.1439
 9019SOL     OW38689   4.588   2.865   2.392  0.0835 -0.1379 -0.0834
 9019SOL    HW138690   4.558   2.785   2.351  1.1829 -0.4940 -0.1888
 9019SOL    HW238691   4.582   2.837   2.484  0.4071 -1.7376 -0.5548
 9020SOL     OW38692   0.676   2.027  15.947  0.3476 -0.2593 -0.3548
 9020SOL    HW138693   0.641   2.062  16.028 -0.0197  3.6006 -2.1993
 9020SOL    HW238694   0.591   2.008  15.906  0.4201  1.6801 -1.3700
 9021SOL     OW38695   0.000   0.203   7.960  0.5054 -0.7358 -0.1072
 9021SOL    HW138696   4.676   0.246   7.907  1.6867  1.0794 -0.1289
 9021SOL    HW238697   0.072   0.188   7.899 -0.5973  0.0163 -1.5944
 9022SOL     OW38698   0.900   2.578  11.679  0.5488 -0.1039  0.3422
 9022SOL    HW138699   0.984   2.559  11.638 -0.6425 -2.1386 -1.1252
 9022SOL    HW238700   0.918   2.644  11.746 -1.1045 -0.0025  0.6818
 9023SOL     OW38701   1.171   3.059  13.606 -0.5625 -0.2419  0.6416
 9023SOL    HW138702   1.229   3.024  13.539 -0.6110 -0.0430  0.4966
 9023SOL    HW238703   1.227   3.057  13.684 -2.0008  1.1883  1.7098
 9024SOL     OW38704   2.972   1.450  15.662  0.2860 -0.0635  0.6046
 9024SOL    HW138705   3.065   1.456  15.643  0.3076  0.3820  0.8603
 9024SOL    HW238706   2.962   1.483  15.751 -0.2782  0.4468  0.3537
 9025SOL     OW38707   1.840   1.242  17.096 -0.1141  0.0732 -0.0601
 9025SOL    HW138708   1.816   1.284  17.014 -1.2514 -0.6469 -0.1020
 9025SOL    HW238709   1.935   1.249  17.094 -0.2683  2.3778  1.2619
 9026SOL     OW38710   0.454   3.537   9.235 -0.3903  0.2829  0.5064
 9026SOL    HW138711   0.411   3.612   9.275 -0.5842 -0.5338  1.8465
 9026SOL    HW238712   0.473   3.575   9.149 -0.7078 -1.3101 -0.2653
 9027SOL     OW38713   2.724   1.157   7.626 -0.9534 -0.2408  0.1465
 9027SOL    HW138714   2.765   1.209   7.557 -1.0273  0.2067  0.4379
 9027SOL    HW238715   2.769   1.192   7.703 -0.6382 -0.3201 -0.0023
 9028SOL     OW38716   1.447   2.961   8.574 -0.1015 -0.1473  0.2969
 9028SOL    HW138717   1.424   2.901   8.646  1.1502 -2.1475 -0.9641
 9028SOL    HW238718   1.401   2.922   8.500  0.3234 -1.4068  0.6957
 9029SOL     OW38719   2.950   1.468   8.854 -0.0871  0.0238 -0.1510
 9029SOL    HW138720   2.875   1.425   8.812  0.2807  1.0456 -1.8315
 9029SOL    HW238721   2.978   1.406   8.921 -2.5315 -1.0931 -0.1473
 9030SOL     OW38722   0.421   2.576   4.727  0.5472 -0.4966  0.3055
 9030SOL    HW138723   0.503   2.579   4.677 -1.2589  2.2504 -2.4349
 9030SOL    HW238724   0.417   2.654   4.782  1.5210 -1.3752  1.6529
 9031SOL     OW38725   3.217   1.965  12.903 -0.2688 -0.0534  0.5376
 9031SOL    HW138726   3.127   1.986  12.930  0.3808  1.0794  1.8340
 9031SOL    HW238727   3.220   2.005  12.816 -1.0324 -0.5603  0.2744
 9032SOL     OW38728   2.420   4.121  16.738  0.4347 -0.1354  0.1531
 9032SOL    HW138729   2.476   4.126  16.660 -0.4088  0.6125 -0.4110
 9032SOL    HW238730   2.412   4.031  16.769  3.0888 -0.9759 -1.6319
 9033SOL     OW38731   0.439   2.799   7.810 -0.0900 -0.6214  0.0979
 9033SOL    HW138732   0.362   2.805   7.754 -1.6056 -1.9598  2.0067
 9033SOL    HW238733   0.449   2.704   7.820  1.0570 -0.5024 -0.0353
 9034SOL     OW38734   0.383   2.725   4.371  0.1507  0.3860  0.1432
 9034SOL    HW138735   0.290   2.717   4.392 -0.0533 -2.0755 -1.6977
 9034SOL    HW238736   0.365   2.784   4.297  0.8152  0.4226  0.0143
 9035SOL     OW38737   4.085   1.356   7.024 -0.0702 -0.1384  0.3652
 9035SOL    HW138738   4.157   1.381   6.967 -1.2060  0.1223 -0.9677
 9035SOL    HW238739   4.077   1.262   7.008  0.0799 -0.2069  0.6960
 9036SOL     OW38740   0.384   0.431   3.732 -0.4725  0.0272  0.0373
 9036SOL    HW138741   0.404   0.351   3.684 -0.2641 -0.7626  1.4458
 9036SOL    HW238742   0.420   0.498   3.674 -0.0635 -1.1108 -1.0366
 9037SOL     OW38743   3.642   1.421   5.646  0.0872 -0.0641 -0.3258
 9037SOL    HW138744   3.606   1.388   5.728 -1.5764  4.6927  0.8348
 9037SOL    HW238745   3.635   1.516   5.657 -1.8084 -0.2177 -0.1401
 9038SOL     OW38746   1.899   4.036  13.709  0.1341  0.1911 -0.1621
 9038SOL    HW138747   1.893   4.131  13.721 -1.7116 -0.0382  0.6019
 9038SOL    HW238748   1.857   4.028  13.623 -3.2783  1.0414  1.4561
 9039SOL     OW38749   3.973   2.226   7.057  0.0379  0.4310  0.3042
 9039SOL    HW138750   4.018   2.281   6.992  0.8648 -0.2987  0.2617
 9039SOL    HW238751   4.046   2.170   7.082 -0.4827 -0.6801 -0.6866
 9040SOL     OW38752   0.557   4.418   1.914  0.0093  0.0407  0.3662
 9040SOL    HW138753   0.619   4.475   1.869  0.8307 -0.2592  1.1142
 9040SOL    HW238754   0.502   4.481   1.960 -1.4915 -0.7693 -0.3402
 9041SOL     OW38755   4.501   3.391  15.577 -0.3676  0.0077  0.0177
 9041SOL    HW138756   4.479   3.480  15.550 -0.8235 -1.0186 -2.9598
 9041SOL    HW238757   4.590   3.370  15.549 -0.0575 -0.3348  1.2644
 9042SOL     OW38758   0.359   2.405   5.366 -0.1052 -0.2349  0.6533
 9042SOL    HW138759   0.354   2.381   5.459 -1.1530  2.5928  1.3435
 9042SOL    HW238760   0.388   2.325   5.323  0.8937 -0.4901  1.7916
 9043SOL     OW38761   2.464   2.125  13.102  0.0354 -0.2448 -0.6751
 9043SOL    HW138762   2.553   2.137  13.067 -0.9304  1.6229 -2.4719
 9043SOL    HW238763   2.473   2.166  13.187 -0.4477  1.4515 -1.4535
 9044SOL     OW38764   1.060   0.516   4.994 -0.0874 -0.0723  0.0269
 9044SOL    HW138765   1.100   0.432   5.019  0.1727  0.2203  0.6105
 9044SOL    HW238766   1.068   0.567   5.074  1.6793 -0.1442 -0.1110
 9045SOL     OW38767   1.579   0.015   1.619 -0.6387 -0.0441  0.2189
 9045SOL    HW138768   1.501   0.059   1.652  0.3732  2.5322 -0.8383
 9045SOL    HW238769   1.543   4.679   1.577 -0.9110 -0.8067  1.8925
 9046SOL     OW38770   0.478   0.360  15.465 -0.0178 -0.5783  0.3568
 9046SOL    HW138771   0.496   0.455  15.463  1.4676 -0.8708 -0.5873
 9046SOL    HW238772   0.536   0.327  15.395  1.3346 -1.6185  1.9734
 9047SOL     OW38773   3.594   1.817  14.210 -0.4866 -0.6289  0.4531
 9047SOL    HW138774   3.548   1.901  14.214  0.1560 -0.3067  1.2377
 9047SOL    HW238775   3.525   1.758  14.182 -3.5379  3.3946 -0.4878
 9048SOL     OW38776   3.476   4.346  14.719 -0.6206  0.2593  0.0119
 9048SOL    HW138777   3.416   4.415  14.747 -0.8036  0.5700 -1.1430
 9048SOL    HW238778   3.421   4.268  14.706 -2.5946  1.9321 -1.6472
 9049SOL     OW38779   1.134   1.550   8.396 -0.1290  0.1808  0.2560
 9049SOL    HW138780   1.210   1.584   8.444 -0.8765  2.4888 -0.1837
 9049SOL    HW238781   1.175   1.481   8.343  0.6440  0.0407  1.0253
 9050SOL     OW38782   1.519   1.410   0.527 -0.3696  0.3374  0.1460
 9050SOL    HW138783   1.437   1.367   0.502  0.2119 -1.4967  1.4212
 9050SOL    HW238784   1.493   1.502   0.519  1.1913  0.7895  0.3765
 9051SOL     OW38785   3.048   2.980   8.246 -0.0913 -0.3411  0.1552
 9051SOL    HW138786   2.986   3.052   8.258  1.2016  0.7376  0.3356
 9051SOL    HW238787   3.133   3.024   8.250 -0.3287  0.1214  0.0491
 9052SOL     OW38788   3.922   3.023   5.908 -0.3408 -0.2314 -0.8738
 9052SOL    HW138789   3.921   2.930   5.931 -1.8225  0.1387  0.5679
 9052SOL    HW238790   3.866   3.027   5.831 -1.6433  0.7730  0.1114
 9053SOL     OW38791   1.024   4.488   0.211  0.0770  0.0259 -0.0263
 9053SOL    HW138792   1.118   4.501   0.223  0.2124 -0.7765 -0.2527
 9053SOL    HW238793   0.992   4.501   0.300 -0.5655 -0.3583 -0.1983
 9054SOL     OW38794   1.615   3.138   4.401 -0.7603 -0.0264  0.2216
 9054SOL    HW138795   1.583   3.052   4.376  1.5771 -1.2768  1.5556
 9054SOL    HW238796   1.538   3.176   4.444  0.3288  2.2656  0.1196
 9055SOL     OW38797   0.805   4.194   6.003  0.1546  0.6994 -0.3715
 9055SOL    HW138798   0.792   4.122   6.064 -1.4974  0.5111 -0.9600
 9055SOL    HW238799   0.861   4.247   6.060  1.0788 -0.4122 -0.2337
 9056SOL     OW38800   0.235   1.587  15.796 -0.2675 -0.0318  0.1404
 9056SOL    HW138801   0.194   1.660  15.749 -0.8472 -1.1809 -1.1377
 9056SOL    HW238802   0.172   1.577  15.867  0.8315  1.0485  1.2536
 9057SOL     OW38803   0.924   3.279   2.270 -0.7087 -0.2486 -0.4239
 9057SOL    HW138804   0.956   3.353   2.218  0.0132 -1.2255 -1.3551
 9057SOL    HW238805   0.953   3.309   2.356 -1.0973 -1.2462  0.0567
 9058SOL     OW38806   4.672   4.318   5.899  0.5713  0.3355  0.4233
 9058SOL    HW138807   0.009   4.372   5.901  2.1425 -1.8736 -3.0224
 9058SOL    HW238808   4.618   4.382   5.854 -0.9090 -0.1329  1.5496
 9059SOL     OW38809   0.421   1.230  12.908 -0.4452  0.0055  0.0978
 9059SOL    HW138810   0.418   1.286  12.831 -0.4749 -1.2116 -0.7975
 9059SOL    HW238811   0.494   1.170  12.890  0.1526  0.7742 -0.0227
 9060SOL     OW38812   1.282   3.940  17.360 -0.0694  0.0477  0.3348
 9060SOL    HW138813   1.349   3.955  17.293 -0.2762 -0.0660  0.1018
 9060SOL    HW238814   1.202   3.932  17.308 -0.6738 -2.0336  1.5632
 9061SOL     OW38815   1.211   1.344  12.030 -0.0462  0.0991  0.0002
 9061SOL    HW138816   1.215   1.257  11.990  2.5958  0.2879 -0.1776
 9061SOL    HW238817   1.131   1.351  12.082  1.4347  2.0937  1.9802
 9062SOL     OW38818   2.520   1.019  17.287  0.1287  0.1969  0.7742
 9062SOL    HW138819   2.485   0.990  17.203 -0.8381 -0.0149  1.2464
 9062SOL    HW238820   2.440   1.056  17.326 -1.9979 -0.9998 -2.4130
 9063SOL     OW38821   3.240   2.254   2.672 -0.3418  0.2897 -0.1411
 9063SOL    HW138822   3.261   2.210   2.755 -2.4412  0.6987  0.5893
 9063SOL    HW238823   3.145   2.245   2.675 -0.1520 -2.7399 -3.2067
 9064SOL     OW38824   4.704   3.552   8.915  0.3704  0.7369  0.0417
 9064SOL    HW138825   4.668   3.511   8.837  0.4536 -0.0858  0.4339
 9064SOL    HW238826   4.638   3.615   8.945 -0.8975  0.1639 -1.5908
 9065SOL     OW38827   2.476   0.400   4.572  0.2922 -0.0605 -0.6954
 9065SOL    HW138828   2.489   0.491   4.545 -1.3115 -0.1041 -1.5915
 9065SOL    HW238829   2.525   0.361   4.499  1.4357  0.9788 -0.4819
 9066SOL     OW38830   3.239   0.381  11.174  0.1183  0.3317  0.2128
 9066SOL    HW138831   3.225   0.398  11.081  0.1701 -2.3884 -0.2968
 9066SOL    HW238832   3.330   0.410  11.172  0.5725 -1.1121 -0.5401
 9067SOL     OW38833   0.093   3.454   5.794  0.2063 -0.4064 -0.3682
 9067SOL    HW138834   0.009   3.493   5.770 -0.1361 -0.4599  0.7272
 9067SOL    HW238835   0.062   3.365   5.809  0.5464 -0.6404 -1.0423
 9068SOL     OW38836   0.151   3.673   0.157  0.2657  0.3075  0.2699
 9068SOL    HW138837   0.223   3.727   0.126  0.3953  1.2441  2.2068
 9068SOL    HW238838   0.111   3.731   0.222 -1.2623  0.8724 -1.1696
 9069SOL     OW38839   3.013   3.393  12.367 -0.4609  0.1026  0.1267
 9069SOL    HW138840   2.955   3.456  12.325  0.8856 -0.0094 -1.9051
 9069SOL    HW238841   3.015   3.317  12.310  0.8418  0.0955  0.1596
 9070SOL     OW38842   4.630   4.720   1.037 -0.7980  0.3066  0.9048
 9070SOL    HW138843   4.654   4.733   0.946 -1.9694  1.3816  0.7482
 9070SOL    HW238844   4.540   4.687   1.045  0.0232 -2.3098 -0.8200
 9071SOL     OW38845   2.807   2.175  13.494  0.0828  0.6262 -0.5633
 9071SOL    HW138846   2.757   2.094  13.510  1.4817  0.0120  0.7081
 9071SOL    HW238847   2.843   2.205  13.578 -0.7717  0.6005 -0.1802
 9072SOL     OW38848   1.137   4.122   3.232  0.4853 -0.3113 -0.1454
 9072SOL    HW138849   1.141   4.047   3.291  1.0381 -0.4868 -0.4046
 9072SOL    HW238850   1.102   4.183   3.296  0.2119 -0.7617  0.1313
 9073SOL     OW38851   4.487   3.128   3.722 -0.8145 -0.1292  0.0010
 9073SOL    HW138852   4.419   3.086   3.669 -1.9011 -0.1255  1.3840
 9073SOL    HW238853   4.570   3.083   3.709 -0.8519 -0.0958 -0.3579
 9074SOL     OW38854   3.164   4.275   4.382 -0.2216 -0.7277 -0.0063
 9074SOL    HW138855   3.174   4.365   4.352 -1.2458 -0.8187 -0.6071
 9074SOL    HW238856   3.239   4.263   4.441 -0.0220 -0.9118 -0.2992
 9075SOL     OW38857   1.305   2.673   6.670  0.3011  0.1182 -0.4916
 9075SOL    HW138858   1.353   2.657   6.751 -1.4685 -0.5228  0.4275
 9075SOL    HW238859   1.341   2.596   6.625  0.4845 -0.1354  0.0860
 9076SOL     OW38860   2.401   3.755  14.909  0.7327 -0.0809  0.2868
 9076SOL    HW138861   2.374   3.831  14.859 -0.5044 -0.4772  0.3588
 9076SOL    HW238862   2.330   3.745  14.972 -1.7015  2.0747 -2.1531
 9077SOL     OW38863   0.497   3.743   0.237 -0.4879  0.9609 -0.6997
 9077SOL    HW138864   0.523   3.674   0.298 -0.9204  2.0592  0.7187
 9077SOL    HW238865   0.467   3.696   0.159 -1.0794  0.4250 -0.1402
 9078SOL     OW38866   1.979   4.684   2.446  0.1121 -0.1552 -0.5817
 9078SOL    HW138867   1.968   4.715   2.536 -1.8156  0.2323 -0.9454
 9078SOL    HW238868   2.070   4.711   2.431  0.6987 -2.6674 -1.4366
 9079SOL     OW38869   0.258   1.340   8.495  0.6838 -0.1492 -0.1058
 9079SOL    HW138870   0.245   1.415   8.553 -2.6276  0.6302 -1.8090
 9079SOL    HW238871   0.352   1.329   8.507  0.6848  0.4978  0.4681
 9080SOL     OW38872   0.236   4.169  10.090  0.6657  0.4145  0.0954
 9080SOL    HW138873   0.145   4.178  10.062  1.6858  2.0053 -2.7635
 9080SOL    HW238874   0.241   4.081  10.126  0.9534  0.8628  1.1466
 9081SOL     OW38875   3.532   2.226  11.151 -0.4740  0.2532 -0.3875
 9081SOL    HW138876   3.536   2.301  11.210 -1.8925 -0.5522  0.7182
 9081SOL    HW238877   3.569   2.271  11.074  1.7384 -0.3651  0.3323
 9082SOL     OW38878   2.434   2.051   2.205  0.5799 -0.2641 -0.4270
 9082SOL    HW138879   2.511   2.105   2.190  0.1486  0.5117  0.1580
 9082SOL    HW238880   2.378   2.096   2.143  2.4377  1.2188 -1.0186
 9083SOL     OW38881   0.747   3.306   2.589 -0.0738 -0.8348 -0.0562
 9083SOL    HW138882   0.819   3.330   2.531 -0.1406  2.2941  1.1463
 9083SOL    HW238883   0.802   3.232   2.617  0.4790 -0.6901 -0.7661
 9084SOL     OW38884   2.443   1.385   2.488 -0.0017  0.1329 -0.2781
 9084SOL    HW138885   2.386   1.451   2.528 -1.1225 -1.6634  1.0876
 9084SOL    HW238886   2.491   1.343   2.558 -0.0405  0.0974 -0.2728
 9085SOL     OW38887   3.062   0.910   7.507  0.1940 -0.2696 -0.3409
 9085SOL    HW138888   3.038   0.925   7.416 -2.6653 -0.5092  0.3853
 9085SOL    HW238889   3.131   0.843   7.501 -1.0406 -1.6234  0.7218
 9086SOL     OW38890   0.743   1.666   9.028 -0.5721 -0.5601  0.5471
 9086SOL    HW138891   0.776   1.669   8.938 -0.9246  0.3818  0.4482
 9086SOL    HW238892   0.674   1.601   9.014  0.8299 -1.6357 -1.3056
 9087SOL     OW38893   1.357   3.445   5.623 -0.3860  0.3490 -0.6825
 9087SOL    HW138894   1.336   3.538   5.631  1.5578  0.7137  0.1514
 9087SOL    HW238895   1.345   3.439   5.528 -1.5664  0.4701 -0.5302
 9088SOL     OW38896   3.391   4.641   3.804 -0.6780  0.1508 -0.5098
 9088SOL    HW138897   3.429   4.628   3.891  0.5788 -0.7399 -1.1793
 9088SOL    HW238898   3.315   4.690   3.834 -0.6422  1.1105 -1.9983
 9089SOL     OW38899   1.188   3.730   2.824  0.1620  0.1134  0.0373
 9089SOL    HW138900   1.231   3.770   2.900 -0.4886 -1.5878  1.2976
 9089SOL    HW238901   1.264   3.680   2.794  1.0261  1.1727  0.4311
 9090SOL     OW38902   3.092   0.557   2.789  0.0996 -0.0915 -0.4778
 9090SOL    HW138903   3.188   0.549   2.789  0.1394  0.4227 -0.7302
 9090SOL    HW238904   3.078   0.572   2.883 -0.4124  1.9031 -0.8801
 9091SOL     OW38905   0.192   4.555  17.545 -0.1543  0.0055 -0.1108
 9091SOL    HW138906   0.220   4.476  17.499  1.7545  0.4343  0.3217
 9091SOL    HW238907   0.191   4.520  17.634 -1.1774 -2.8300 -1.2324
 9092SOL     OW38908   3.353   3.937   4.505  0.1693  0.1923 -0.1023
 9092SOL    HW138909   3.367   4.030   4.519 -0.8623  0.4445 -0.7678
 9092SOL    HW238910   3.377   3.904   4.592 -1.1202  1.1144  0.5903
 9093SOL     OW38911   2.105   2.701  12.320 -0.1642 -0.3259 -0.8362
 9093SOL    HW138912   2.175   2.765  12.331 -0.3600 -0.4984  1.4710
 9093SOL    HW238913   2.138   2.620  12.358  1.8966  1.3001  0.8393
 9094SOL     OW38914   4.484   0.948   6.516 -0.3881  0.1749  0.5661
 9094SOL    HW138915   4.412   0.987   6.465 -1.1492 -0.6221  1.0323
 9094SOL    HW238916   4.472   0.994   6.599  1.7360  0.7949  0.5362
 9095SOL     OW38917   0.284   0.208   6.295  0.0555 -0.2907 -0.0683
 9095SOL    HW138918   0.330   0.229   6.377 -0.4773  1.0621 -0.1283
 9095SOL    HW238919   0.287   0.112   6.299 -0.1775 -0.2566  0.9817
 9096SOL     OW38920   4.020   1.591   6.677 -0.7305 -0.0558 -0.4439
 9096SOL    HW138921   3.971   1.592   6.595 -0.4218 -4.5769 -0.6565
 9096SOL    HW238922   4.101   1.629   6.643 -0.7786  1.9226  1.5859
 9097SOL     OW38923   4.358   1.454   0.558 -0.6427  0.1028 -0.0622
 9097SOL    HW138924   4.405   1.395   0.499 -2.2250 -1.7830  0.5752
 9097SOL    HW238925   4.330   1.512   0.487 -0.5894 -1.0204 -1.0021
 9098SOL     OW38926   3.036   1.215  13.495 -0.7471 -0.2963 -0.3426
 9098SOL    HW138927   3.072   1.292  13.452 -1.7702  0.9731  1.1017
 9098SOL    HW238928   3.038   1.246  13.585 -0.5952  1.8330 -1.0826
 9099SOL     OW38929   3.254   1.291   4.261  0.5724  0.3720  0.1352
 9099SOL    HW138930   3.191   1.256   4.323 -0.9137 -0.9430 -2.1143
 9099SOL    HW238931   3.262   1.214   4.205  0.4519 -0.6972  1.6050
 9100SOL     OW38932   2.195   1.826   7.046 -0.0699 -0.2954  0.3705
 9100SOL    HW138933   2.233   1.792   7.127 -2.1117 -0.2295  1.3448
 9100SOL    HW238934   2.257   1.894   7.020 -1.0165  1.2011  2.0410
 9101SOL     OW38935   1.365   4.056   7.713  0.3391 -0.4112  0.0920
 9101SOL    HW138936   1.322   4.061   7.628  0.3880  0.7900  0.1353
 9101SOL    HW238937   1.287   4.047   7.767  0.5155 -1.7679  0.1030
 9102SOL     OW38938   1.186   2.939  12.612  0.3023 -0.0490 -0.1996
 9102SOL    HW138939   1.274   2.973  12.596  0.4649 -0.8240 -0.9578
 9102SOL    HW238940   1.200   2.909  12.702  0.7305 -0.3616 -0.3680
 9103SOL     OW38941   0.081   3.929   5.136 -0.0859 -0.0036 -0.1292
 9103SOL    HW138942   0.078   3.921   5.041  0.3704  2.1352 -0.3305
 9103SOL    HW238943   0.167   3.965   5.156  0.5486 -1.9111  0.5749
 9104SOL     OW38944   0.945   1.298   1.742  0.2251 -0.1966  0.4027
 9104SOL    HW138945   0.907   1.377   1.782  0.0637  0.8197 -1.7341
 9104SOL    HW238946   1.017   1.269   1.798  1.0235 -0.9172 -1.0005
 9105SOL     OW38947   2.967   4.206  13.013 -0.1113  0.3948 -0.0744
 9105SOL    HW138948   3.019   4.192  13.092  0.8387  1.1644 -0.5647
 9105SOL    HW238949   2.961   4.119  12.974 -1.7809  0.4589  0.0466
 9106SOL     OW38950   1.306   1.267  11.125 -0.1737 -0.4110 -0.0226
 9106SOL    HW138951   1.351   1.236  11.204 -1.4730 -2.8414 -0.2344
 9106SOL    HW238952   1.243   1.197  11.109 -0.8177  0.1229  0.1963
 9107SOL     OW38953   0.454   1.751   0.356  0.0318 -0.0309 -0.0339
 9107SOL    HW138954   0.468   1.738   0.450  0.6766  0.9190 -0.0016
 9107SOL    HW238955   0.475   1.660   0.332 -0.9682 -0.0015 -1.0299
 9108SOL     OW38956   3.964   1.067   9.489  0.4266 -0.0766 -0.1772
 9108SOL    HW138957   3.989   1.092   9.578 -1.1565  4.3395 -0.9448
 9108SOL    HW238958   4.044   1.027   9.455 -0.4361  0.2325 -2.5788
 9109SOL     OW38959   0.320   4.526  10.634  0.1050 -0.0555  0.8254
 9109SOL    HW138960   0.401   4.477  10.619 -1.0151 -1.5719 -0.2098
 9109SOL    HW238961   0.292   4.515  10.725 -2.3918  1.0560  0.1743
 9110SOL     OW38962   2.615   3.823  14.204 -0.7379  0.1589 -0.0547
 9110SOL    HW138963   2.689   3.884  14.198  0.8451 -2.1109 -4.0141
 9110SOL    HW238964   2.567   3.840  14.285  1.2496 -2.9287  1.7748
 9111SOL     OW38965   4.441   1.301   8.106  0.1014  0.2880  0.3507
 9111SOL    HW138966   4.474   1.227   8.054 -0.7284 -0.0126  0.2361
 9111SOL    HW238967   4.493   1.360   8.053  1.0422 -3.2638 -2.6762
 9112SOL     OW38968   2.805   4.517  12.554  0.6439  0.6928 -0.0543
 9112SOL    HW138969   2.773   4.504  12.464 -0.2854 -3.0488  0.8432
 9112SOL    HW238970   2.781   4.609  12.566 -1.7516 -0.1508  1.5148
 9113SOL     OW38971   2.712   1.862   7.316 -0.6137  0.0038 -0.6217
 9113SOL    HW138972   2.658   1.783   7.318  0.7040 -0.8799  0.4580
 9113SOL    HW238973   2.800   1.825   7.329 -0.7762 -0.4638 -0.8302
 9114SOL     OW38974   0.828   2.808   8.315  0.3596  0.4313 -0.2340
 9114SOL    HW138975   0.895   2.792   8.381 -0.8516 -0.2456  0.8376
 9114SOL    HW238976   0.867   2.883   8.271  1.8966  0.2918  0.8964
 9115SOL     OW38977   1.266   4.169   0.004 -0.0039  0.0478 -0.2053
 9115SOL    HW138978   1.229   4.250  17.734  0.4822  0.0027 -0.8058
 9115SOL    HW238979   1.335   4.153  17.705 -1.6476  1.8087 -2.3907
 9116SOL     OW38980   1.119   1.390  16.929  0.0501 -0.1544  0.3071
 9116SOL    HW138981   1.119   1.332  16.853 -1.0428 -0.4713  0.5473
 9116SOL    HW238982   1.211   1.414  16.937  0.2191 -1.8803  3.7183
 9117SOL     OW38983   1.353   1.964  16.636 -0.1815 -0.1339 -0.8949
 9117SOL    HW138984   1.396   1.880  16.616 -1.7822 -1.0119 -0.6544
 9117SOL    HW238985   1.336   1.944  16.728 -0.3104 -2.4082 -1.4128
 9118SOL     OW38986   4.730   1.218   1.644  0.4683  0.2703  0.3256
 9118SOL    HW138987   0.009   1.306   1.612  0.3296  0.7861  1.6392
 9118SOL    HW238988   4.634   1.224   1.645  0.3937 -0.4539 -1.8701
 9119SOL     OW38989   2.696   1.342   5.101  0.1596 -0.1673 -0.0002
 9119SOL    HW138990   2.638   1.400   5.150 -0.0249  2.4912 -3.3514
 9119SOL    HW238991   2.628   1.303   5.046  1.8045 -1.0769 -1.3970
 9120SOL     OW38992   0.801   0.527   4.923 -0.3253  0.1781 -0.0760
 9120SOL    HW138993   0.894   0.513   4.943 -0.2428  0.4804 -0.2424
 9120SOL    HW238994   0.799   0.622   4.917  0.2027  0.4349  4.0774
 9121SOL     OW38995   2.245   0.939  15.769 -0.2857 -0.4717 -0.2029
 9121SOL    HW138996   2.339   0.939  15.751  0.2068 -1.7946  2.3399
 9121SOL    HW238997   2.252   1.005  15.838 -0.0208  0.9029 -1.5574
 9122SOL     OW38998   1.826   1.843   5.064 -0.4631  0.1440  0.5712
 9122SOL    HW138999   1.736   1.837   5.033 -0.7482  0.3171  1.3601
 9122SOL    HW239000   1.814   1.904   5.137 -0.7689  1.1504 -0.3301
 9123SOL     OW39001   3.924   3.513   2.856 -0.4101  0.0671 -0.9012
 9123SOL    HW139002   3.912   3.577   2.926 -0.6001 -0.2504 -0.6477
 9123SOL    HW239003   4.006   3.549   2.822  0.1051 -0.3696 -0.1151
 9124SOL     OW39004   0.541   0.721   7.512  0.1520 -0.0449 -0.6879
 9124SOL    HW139005   0.536   0.631   7.480  1.0731  0.7933 -3.1913
 9124SOL    HW239006   0.450   0.734   7.486 -0.5010 -0.7203  1.2336
 9125SOL     OW39007   1.293   3.988   1.384  0.0020  0.2945  0.0150
 9125SOL    HW139008   1.342   3.931   1.442 -0.3648 -0.0571 -0.0180
 9125SOL    HW239009   1.275   4.063   1.442 -1.1585  1.0043 -1.2510
 9126SOL     OW39010   2.168   1.510   2.119 -0.2259  0.1867  0.0950
 9126SOL    HW139011   2.115   1.561   2.180  0.8551  1.3942  0.0387
 9126SOL    HW239012   2.117   1.430   2.133 -0.1018 -0.1714 -1.5560
 9127SOL     OW39013   2.092   1.284   9.694  0.0762  0.6532 -0.5776
 9127SOL    HW139014   2.018   1.309   9.638 -2.2645  0.6339  2.5167
 9127SOL    HW239015   2.158   1.255   9.631  0.3426 -0.1567  0.0658
 9128SOL     OW39016   3.285   3.028  15.785 -0.2699  0.1981  0.1437
 9128SOL    HW139017   3.250   3.052  15.700 -0.8673 -0.3935  0.2280
 9128SOL    HW239018   3.379   3.047  15.778 -0.4113  0.9292  0.1931
 9129SOL     OW39019   0.811   1.155   6.623  0.2746  0.1311 -0.3853
 9129SOL    HW139020   0.849   1.095   6.687 -1.2507 -0.9603 -0.4824
 9129SOL    HW239021   0.724   1.148   6.663  0.8169  1.3356  0.9781
 9130SOL     OW39022   3.946   3.186  16.136 -0.4768 -0.4671  0.2472
 9130SOL    HW139023   3.874   3.230  16.181 -0.5869  0.2207 -0.5845
 9130SOL    HW239024   4.019   3.236  16.171 -1.4070  0.9686  0.1545
 9131SOL     OW39025   0.408   4.038   0.860  0.0723  0.1677  0.8125
 9131SOL    HW139026   0.478   4.068   0.919  0.3749  1.7482 -0.3640
 9131SOL    HW239027   0.339   4.022   0.925 -1.0832  0.1574 -0.4310
 9132SOL     OW39028   0.874   3.252  15.942  0.4634  0.1833 -0.0062
 9132SOL    HW139029   0.909   3.193  16.010 -2.1926 -0.0111  1.2037
 9132SOL    HW239030   0.904   3.339  15.966  2.9012 -1.1623  1.8372
 9133SOL     OW39031   3.941   4.207   4.480 -0.0696 -0.1995 -0.5078
 9133SOL    HW139032   4.037   4.210   4.478 -0.0627 -0.1177 -0.0326
 9133SOL    HW239033   3.918   4.249   4.397 -2.8913 -0.7072  0.0133
 9134SOL     OW39034   1.719   3.039   8.608  0.7765 -0.0980 -0.9402
 9134SOL    HW139035   1.705   3.134   8.605 -0.1084 -0.2560 -1.6577
 9134SOL    HW239036   1.628   3.014   8.624  0.6908  0.6628 -0.2030
 9135SOL     OW39037   1.345   0.754   7.949 -0.3033 -0.0831 -0.1936
 9135SOL    HW139038   1.370   0.682   7.891 -0.1328  0.7372 -1.1412
 9135SOL    HW239039   1.378   0.827   7.897  0.8920  0.4644  1.3300
 9136SOL     OW39040   4.568   2.152   4.237 -0.7130 -0.4096  0.5108
 9136SOL    HW139041   4.629   2.179   4.306  0.9190 -0.4728 -0.9153
 9136SOL    HW239042   4.485   2.161   4.283 -0.7055  1.9149  0.0659
 9137SOL     OW39043   1.184   4.289   2.177  0.1662 -0.2604  0.0425
 9137SOL    HW139044   1.254   4.267   2.239 -0.5005 -1.2299  0.4446
 9137SOL    HW239045   1.163   4.378   2.205  0.7698 -0.1869  0.2662
 9138SOL     OW39046   2.313   3.106  10.542  0.0040  0.0548 -0.7125
 9138SOL    HW139047   2.263   3.051  10.603  0.3562 -1.1249 -1.4851
 9138SOL    HW239048   2.250   3.122  10.471 -0.6811  1.6703  0.2518
 9139SOL     OW39049   3.847   2.330  11.973  0.5438  0.2125  0.4359
 9139SOL    HW139050   3.916   2.396  11.967  0.7067  0.1058  1.0872
 9139SOL    HW239051   3.776   2.393  11.982 -1.9997 -2.5259 -0.1983
 9140SOL     OW39052   4.434   1.315   2.298  0.2904 -0.2981 -0.0010
 9140SOL    HW139053   4.417   1.369   2.222  0.4424  0.9117  0.8180
 9140SOL    HW239054   4.349   1.307   2.342  1.5450  1.2391  2.6936
 9141SOL     OW39055   1.401   1.182   3.210  0.5350 -0.1646  0.2744
 9141SOL    HW139056   1.322   1.231   3.234  1.4198  1.5246 -0.2389
 9141SOL    HW239057   1.458   1.239   3.261 -0.2461  1.2730 -0.4619
 9142SOL     OW39058   1.017   4.565   6.689 -0.7895  0.1843 -0.0249
 9142SOL    HW139059   1.050   4.514   6.616 -0.2862 -0.1601  0.4389
 9142SOL    HW239060   1.099   4.607   6.713 -0.4085 -0.5690 -0.0341
 9143SOL     OW39061   4.325   3.430   5.772  0.8821  0.4389 -0.2124
 9143SOL    HW139062   4.399   3.370   5.788  0.3263 -0.7945 -2.3265
 9143SOL    HW239063   4.288   3.435   5.860  1.5905 -0.8462  0.1578
 9144SOL     OW39064   4.281   1.849   2.914 -0.2753  0.4055  0.2326
 9144SOL    HW139065   4.212   1.783   2.912 -2.0990  2.2983  0.3980
 9144SOL    HW239066   4.299   1.859   2.821  1.2759  2.2236  0.7439
 9145SOL     OW39067   0.909   2.913  16.738  0.1128 -0.4492  0.1945
 9145SOL    HW139068   0.907   2.992  16.793 -1.3743  0.5368 -1.2513
 9145SOL    HW239069   0.914   2.842  16.801  0.8953  0.6990  1.4377
 9146SOL     OW39070   0.141   0.890   8.169 -0.3851 -0.2560 -0.4300
 9146SOL    HW139071   0.183   0.864   8.087 -1.8023  0.3886 -1.3692
 9146SOL    HW239072   0.201   0.961   8.191 -0.4117 -0.0650 -0.9778
 9147SOL     OW39073   2.995   0.132   1.705  0.4660  0.0490 -0.0367
 9147SOL    HW139074   3.019   0.082   1.627  1.1687  2.8632 -1.6136
 9147SOL    HW239075   2.981   0.062   1.769 -1.4308  2.0886  1.7877
 9148SOL     OW39076   2.123   1.161  14.803  0.2575 -0.3570 -0.0961
 9148SOL    HW139077   2.142   1.141  14.894 -2.4747 -0.9543  0.3224
 9148SOL    HW239078   2.073   1.241  14.814  0.1003 -0.5541  0.6029
 9149SOL     OW39079   1.500   2.181   8.077  0.2373 -0.2561  0.2689
 9149SOL    HW139080   1.416   2.207   8.116  0.6615 -0.1807  1.1359
 9149SOL    HW239081   1.488   2.189   7.983 -0.9339  0.7727  0.4957
 9150SOL     OW39082   2.166   2.103   9.433  0.0204  0.4284  0.0516
 9150SOL    HW139083   2.164   2.194   9.403 -1.7201 -0.7575 -3.4408
 9150SOL    HW239084   2.180   2.064   9.347 -0.2932 -2.0338  1.1230
 9151SOL     OW39085   4.622   2.649   4.220  0.8487 -0.0996 -0.2794
 9151SOL    HW139086   4.696   2.643   4.281  0.9830 -1.4997 -0.5846
 9151SOL    HW239087   4.558   2.597   4.269  0.7249  0.5568  0.2456
 9152SOL     OW39088   2.551   1.047   8.489  0.3347 -0.0447 -0.3659
 9152SOL    HW139089   2.515   0.993   8.559 -0.8350  1.5770  0.2887
 9152SOL    HW239090   2.593   1.116   8.540 -0.2717  0.2899 -0.3081
 9153SOL     OW39091   2.360   4.310   4.541 -0.0370  0.5940 -0.4903
 9153SOL    HW139092   2.304   4.380   4.575 -0.3135 -0.5674  1.4245
 9153SOL    HW239093   2.418   4.363   4.487 -0.0806  1.6619  0.5012
 9154SOL     OW39094   0.337   0.306  14.749 -0.0131 -0.2625  0.2177
 9154SOL    HW139095   0.259   0.264  14.783 -0.3890  0.8152  0.6819
 9154SOL    HW239096   0.335   0.258  14.666 -1.4133  0.4762 -0.1649
 9155SOL     OW39097   2.471   3.134   0.184 -0.3441  0.3606  0.2526
 9155SOL    HW139098   2.545   3.193   0.203  1.1668 -1.5940  0.4375
 9155SOL    HW239099   2.420   3.190   0.126  0.1306  0.1753 -0.3373
 9156SOL     OW39100   4.719   3.003   3.715  0.0035  0.3255 -0.0786
 9156SOL    HW139101   0.017   3.004   3.802  3.7225  1.3122 -1.7979
 9156SOL    HW239102   4.727   2.915   3.680  0.7294 -0.1618  1.3343
 9157SOL     OW39103   0.088   3.035   4.995  0.3688  0.5079  0.0097
 9157SOL    HW139104   0.171   3.010   5.037  0.1197 -1.6924 -0.7961
 9157SOL    HW239105   0.032   2.957   4.998  0.5521  0.4636  2.6804
 9158SOL     OW39106   4.465   3.320  12.990 -0.5552 -0.3296  0.2847
 9158SOL    HW139107   4.498   3.275  12.913  1.0897 -2.0924  2.0357
 9158SOL    HW239108   4.406   3.254  13.026 -0.6803 -0.0540  0.5868
 9159SOL     OW39109   1.512   0.630  13.829 -0.3632 -0.1723  0.0776
 9159SOL    HW139110   1.504   0.646  13.923  1.3691 -0.6650  0.3254
 9159SOL    HW239111   1.535   0.719  13.804 -1.8238  0.6291  1.6046
 9160SOL     OW39112   3.838   4.207   1.817 -0.5306 -0.1626  0.1911
 9160SOL    HW139113   3.851   4.302   1.811 -1.2710 -0.0473  0.3532
 9160SOL    HW239114   3.865   4.191   1.907 -0.4473  1.3591  0.4451
 9161SOL     OW39115   0.990   4.138   7.738  0.3216  0.2376 -0.2638
 9161SOL    HW139116   1.039   4.131   7.656  0.4980 -0.5221 -0.0875
 9161SOL    HW239117   1.010   4.056   7.782 -2.9703  0.7955  2.2369
 9162SOL     OW39118   1.611   1.342   3.306  0.0389 -0.0924  0.4196
 9162SOL    HW139119   1.670   1.282   3.352 -0.5683  0.8043  2.3799
 9162SOL    HW239120   1.624   1.408   3.375 -1.2873 -0.5298  1.0891
 9163SOL     OW39121   0.393   3.464  17.284  0.0490  0.1461 -0.1030
 9163SOL    HW139122   0.372   3.554  17.262 -0.4466 -0.0488 -0.4271
 9163SOL    HW239123   0.364   3.420  17.203  1.4556 -1.6454  0.3526
 9164SOL     OW39124   3.561   2.158   5.970 -0.1450 -0.0190  0.3243
 9164SOL    HW139125   3.507   2.085   6.000  1.5817 -0.9618  1.1955
 9164SOL    HW239126   3.568   2.199   6.057 -0.8246  2.2164 -0.6706
 9165SOL     OW39127   0.925   4.206   0.681  0.0047 -0.2853  0.0870
 9165SOL    HW139128   0.972   4.170   0.606 -0.2661  1.8051 -1.0895
 9165SOL    HW239129   0.896   4.124   0.721  0.2512 -0.1010  0.6483
 9166SOL     OW39130   2.961   0.071  11.020 -0.2998  0.0426 -0.1427
 9166SOL    HW139131   2.985   0.135  10.953  0.5201  2.0116  2.0420
 9166SOL    HW239132   3.041   0.046  11.067  0.1787  0.9621 -0.4557
 9167SOL     OW39133   4.482   1.193   5.041 -0.1193  0.1059  0.0762
 9167SOL    HW139134   4.511   1.155   5.124 -1.1798 -0.0470  0.3837
 9167SOL    HW239135   4.475   1.117   4.983  0.9085  0.5010 -0.5618
 9168SOL     OW39136   3.812   3.234   5.692  0.1601  0.0738  0.1159
 9168SOL    HW139137   3.749   3.275   5.633  0.6490 -1.4689 -1.4690
 9168SOL    HW239138   3.780   3.144   5.695  2.9104 -0.8274  2.0916
 9169SOL     OW39139   0.474   4.052   7.196  0.4084 -0.2520  0.1549
 9169SOL    HW139140   0.401   4.105   7.226  1.1270  1.2236 -0.7027
 9169SOL    HW239141   0.516   4.121   7.143  2.4719 -1.8355 -0.2894
 9170SOL     OW39142   2.795   0.204   8.455 -0.5210  0.2348 -0.3241
 9170SOL    HW139143   2.810   0.218   8.549 -0.8044 -0.5088 -0.1697
 9170SOL    HW239144   2.868   0.149   8.429 -0.0908 -0.3547  2.1297
 9171SOL     OW39145   1.000   1.220   3.512  0.1617  0.1825 -0.3789
 9171SOL    HW139146   1.007   1.262   3.598 -0.5143  2.2688 -1.3435
 9171SOL    HW239147   1.090   1.230   3.482  0.3844  0.4629  0.3674
 9172SOL     OW39148   2.091   0.295   8.102 -0.1701 -0.5378 -0.0097
 9172SOL    HW139149   2.013   0.330   8.143  0.6110 -0.0486  1.0606
 9172SOL    HW239150   2.149   0.326   8.172 -0.8346 -0.0882  0.3367
 9173SOL     OW39151   4.620   1.886   1.159  0.1702  0.0402 -0.9068
 9173SOL    HW139152   4.627   1.887   1.255 -2.0715  3.9087 -0.8078
 9173SOL    HW239153   4.537   1.930   1.145 -0.4442 -0.7999  0.0797
 9174SOL     OW39154   2.213   4.563   1.502  0.1808  0.2281 -0.2197
 9174SOL    HW139155   2.221   4.585   1.410  1.0565 -0.1455 -0.2247
 9174SOL    HW239156   2.304   4.537   1.516 -0.2239 -0.9833  0.1685
 9175SOL     OW39157   0.102   3.123   6.817 -0.1347 -0.1635 -0.1031
 9175SOL    HW139158   0.111   3.115   6.722  1.6787 -2.3253  0.2667
 9175SOL    HW239159   0.055   3.206   6.825  1.2538  0.6684 -0.6927
 9176SOL     OW39160   4.637   2.316   7.320  0.0500  0.3802  0.4315
 9176SOL    HW139161   4.616   2.409   7.309  0.4744  0.1896 -1.9564
 9176SOL    HW239162   4.668   2.318   7.411  1.7901 -0.0281 -0.1489
 9177SOL     OW39163   4.340   0.285   6.754 -0.5155 -0.2173  0.0730
 9177SOL    HW139164   4.417   0.340   6.742  0.4281 -1.7331 -0.8696
 9177SOL    HW239165   4.289   0.293   6.673 -0.2667 -0.3446 -0.0953
 9178SOL     OW39166   0.682   3.372   5.176 -0.0186 -0.0271  0.0920
 9178SOL    HW139167   0.638   3.403   5.254  3.1091 -0.0655  1.8683
 9178SOL    HW239168   0.767   3.415   5.185 -0.5570  0.6260  1.8877
 9179SOL     OW39169   2.500   0.025   4.765  0.1597  0.0549 -0.1351
 9179SOL    HW139170   2.562   0.099   4.762 -0.8036  0.9273  1.7073
 9179SOL    HW239171   2.563   4.700   4.790  1.5399  0.6610 -1.9560
 9180SOL     OW39172   1.032   4.371   1.661  0.4719  0.1618  0.8112
 9180SOL    HW139173   1.017   4.443   1.722 -1.6284  0.3736  0.0422
 9180SOL    HW239174   0.978   4.307   1.707 -0.4584  0.8948  0.7345
 9181SOL     OW39175   1.720   3.578  14.492  0.0560 -0.3161 -0.2552
 9181SOL    HW139176   1.659   3.642  14.529  0.5441 -0.0387  0.0758
 9181SOL    HW239177   1.692   3.574  14.400 -1.2743  0.8933  0.0970
 9182SOL     OW39178   4.188   1.699   9.380 -0.0101 -0.3290 -0.0885
 9182SOL    HW139179   4.172   1.625   9.321 -2.8344 -0.2504  0.5671
 9182SOL    HW239180   4.118   1.693   9.445  0.3619 -0.0013  0.3373
 9183SOL     OW39181   0.938   0.731   3.064  0.4871  0.1453 -0.1999
 9183SOL    HW139182   0.915   0.686   2.983 -0.5629  0.1101  0.1272
 9183SOL    HW239183   0.989   0.666   3.112 -1.6612  0.5622  2.5904
 9184SOL     OW39184   0.629   3.748   5.494  0.0576  0.2782  0.4718
 9184SOL    HW139185   0.671   3.783   5.415  0.7763 -1.7913 -0.0613
 9184SOL    HW239186   0.706   3.726   5.546  0.6190  0.2905 -0.3478
 9185SOL     OW39187   2.455   3.329  11.224  0.6031  0.3958 -0.2930
 9185SOL    HW139188   2.519   3.366  11.285 -1.7700  5.3156 -0.7276
 9185SOL    HW239189   2.392   3.307  11.293 -0.3596  4.1756  0.0678
 9186SOL     OW39190   2.248   1.700   4.576  0.3540  0.1372 -0.1207
 9186SOL    HW139191   2.316   1.720   4.640 -1.0062  0.1048  1.3413
 9186SOL    HW239192   2.206   1.785   4.564 -1.0736 -0.4364  0.8412
 9187SOL     OW39193   1.324   4.599   7.027  0.3955 -0.4419 -0.2042
 9187SOL    HW139194   1.248   4.617   6.971 -0.7198 -0.1412  1.3735
 9187SOL    HW239195   1.280   4.562   7.104 -1.5555  0.6248 -0.8117
 9188SOL     OW39196   4.000   0.470  17.324  0.7207  0.0314 -0.5860
 9188SOL    HW139197   4.022   0.474  17.231  1.1852 -0.1822 -0.4865
 9188SOL    HW239198   3.906   0.451  17.324  1.1725 -2.1434  0.8972
 9189SOL     OW39199   1.066   4.584  11.129 -0.1473 -0.3140 -0.0529
 9189SOL    HW139200   1.012   4.575  11.050 -0.6347 -3.7665  0.6677
 9189SOL    HW239201   1.121   4.509  11.105 -1.3125 -1.5146  1.0217
 9190SOL     OW39202   0.763   0.799   7.129  0.2772 -0.2616 -0.2883
 9190SOL    HW139203   0.762   0.788   7.224 -1.3742 -1.5978 -0.4485
 9190SOL    HW239204   0.842   0.851   7.115 -0.5056  1.1508  0.5637
 9191SOL     OW39205   3.242   1.120   6.414  0.2506  0.1206 -0.3111
 9191SOL    HW139206   3.319   1.175   6.401  1.1692 -1.4225 -1.4129
 9191SOL    HW239207   3.280   1.032   6.414 -1.9195 -0.8226 -2.7193
 9192SOL     OW39208   0.557   3.319  17.664  0.0253  0.1401  0.2378
 9192SOL    HW139209   0.479   3.340  17.612  0.1929 -0.3140 -0.1955
 9192SOL    HW239210   0.542   3.235  17.708  0.1193  0.4865  0.9454
 9193SOL     OW39211   2.922   4.336   6.031  0.2059 -0.2902  0.7669
 9193SOL    HW139212   2.854   4.276   6.003 -1.0359  1.0463  0.8792
 9193SOL    HW239213   2.879   4.383   6.103  1.5036  0.9189  0.7669
 9194SOL     OW39214   0.907   1.096   8.517 -0.3820 -0.0919 -0.1491
 9194SOL    HW139215   0.965   1.157   8.563 -1.1219 -0.6846  1.5593
 9194SOL    HW239216   0.901   1.150   8.438  0.6802  0.3802  0.0868
 9195SOL     OW39217   1.263   3.605  11.381  0.3788  0.6823  0.6045
 9195SOL    HW139218   1.194   3.543  11.403  1.8700 -1.2450 -0.1840
 9195SOL    HW239219   1.222   3.654  11.310 -1.3569  1.4367  2.1099
 9196SOL     OW39220   4.507   3.748   3.084 -0.6807  0.9091 -0.1568
 9196SOL    HW139221   4.440   3.747   3.152  1.5311  0.5553  2.0138
 9196SOL    HW239222   4.478   3.686   3.017 -0.7515 -1.9156  2.5110
 9197SOL     OW39223   3.820   3.436  16.274 -0.1209  0.5643 -0.0937
 9197SOL    HW139224   3.753   3.416  16.208  2.0472 -3.9735 -0.9218
 9197SOL    HW239225   3.795   3.526  16.295  0.3030  0.9658 -1.2504
 9198SOL     OW39226   2.939   4.575  12.181 -0.0846 -0.0436 -0.3359
 9198SOL    HW139227   2.946   4.509  12.112 -2.1976 -0.0277 -0.5704
 9198SOL    HW239228   2.897   4.651  12.141 -1.4231 -1.2401 -1.2225
 9199SOL     OW39229   2.408   0.463   4.127  0.1560  0.4447  0.1942
 9199SOL    HW139230   2.313   0.454   4.134  0.2469 -0.6880  0.0209
 9199SOL    HW239231   2.433   0.371   4.126  2.0137  0.9454  2.8125
 9200SOL     OW39232   0.708   3.160   7.336 -0.4972 -0.2527 -0.2796
 9200SOL    HW139233   0.786   3.115   7.366 -1.1281  2.1700  4.9751
 9200SOL    HW239234   0.708   3.243   7.385 -1.5736 -1.4930  1.8278
 9201SOL     OW39235   1.897   3.549   1.686  0.3861 -0.2007 -0.4518
 9201SOL    HW139236   1.943   3.501   1.617  1.7800 -0.4484  0.6389
 9201SOL    HW239237   1.961   3.535   1.756  0.7142 -1.0808 -0.9346
 9202SOL     OW39238   4.257   0.057  10.689 -0.7186 -0.1149  0.1908
 9202SOL    HW139239   4.288   0.147  10.681 -1.4939  0.2210  1.0590
 9202SOL    HW239240   4.177   0.059  10.636  0.4435  1.0116 -1.5404
 9203SOL     OW39241   3.628   2.589   1.043 -0.2553 -0.1100  0.0389
 9203SOL    HW139242   3.604   2.522   1.107  0.1354  1.0775  1.4236
 9203SOL    HW239243   3.568   2.657   1.076 -2.1310 -1.4350 -0.6520
 9204SOL     OW39244   0.203   0.834  11.730  0.5416  0.7605  0.2391
 9204SOL    HW139245   0.134   0.887  11.690 -0.1854  1.0538  1.9166
 9204SOL    HW239246   0.249   0.792  11.656 -2.0425 -2.0152  0.1832
 9205SOL     OW39247   0.327   2.009   2.635  0.0856 -0.6935  0.6443
 9205SOL    HW139248   0.383   2.070   2.587 -0.6476 -1.4897 -1.2199
 9205SOL    HW239249   0.279   1.960   2.568  0.7524 -0.3894 -0.0546
 9206SOL     OW39250   3.955   3.488   4.904  0.3387  0.6319  0.2789
 9206SOL    HW139251   3.904   3.421   4.948  1.4035 -0.6069 -0.3865
 9206SOL    HW239252   4.028   3.438   4.869 -0.8615 -0.3336 -0.8444
 9207SOL     OW39253   4.189   4.530   9.042 -0.9259  0.0029  0.0587
 9207SOL    HW139254   4.268   4.581   9.026 -1.0330  0.2555  0.3321
 9207SOL    HW239255   4.213   4.451   8.994 -0.2892  0.2626 -0.0509
 9208SOL     OW39256   2.498   0.668   7.637 -0.5255 -0.1555  0.2322
 9208SOL    HW139257   2.587   0.680   7.605 -1.8194 -0.0388 -3.4350
 9208SOL    HW239258   2.482   0.579   7.605  0.1872 -0.2605  0.1798
 9209SOL     OW39259   1.656   3.558  13.858  0.7136  0.2936 -0.1341
 9209SOL    HW139260   1.700   3.641  13.875  2.4006 -0.8378  0.9607
 9209SOL    HW239261   1.568   3.568  13.894  0.0167  1.5750 -2.1741
 9210SOL     OW39262   1.800   1.638   2.515 -0.0152 -0.7518  0.6658
 9210SOL    HW139263   1.852   1.718   2.516 -0.8938 -0.2053  1.6641
 9210SOL    HW239264   1.869   1.571   2.519 -0.9414 -1.6835  0.7834
 9211SOL     OW39265   0.859   3.637  10.258  0.5252  0.0775 -0.2849
 9211SOL    HW139266   0.786   3.645  10.319 -0.0250 -2.5733 -0.6154
 9211SOL    HW239267   0.939   3.619  10.308 -0.2089  0.5562  1.0591
 9212SOL     OW39268   3.288   3.421  11.245  0.1926 -0.0014 -0.3133
 9212SOL    HW139269   3.322   3.439  11.157 -2.5576 -0.0444 -1.3691
 9212SOL    HW239270   3.257   3.511  11.255 -0.5578 -0.3406  0.4448
 9213SOL     OW39271   4.166   2.106   2.312 -0.3249  0.0639  0.7665
 9213SOL    HW139272   4.092   2.148   2.269 -1.5095 -1.3890  1.3794
 9213SOL    HW239273   4.119   2.046   2.370  2.4123 -3.2114 -0.3504
 9214SOL     OW39274   4.173   4.662   3.335 -0.1652  0.5724  0.1377
 9214SOL    HW139275   4.231   4.611   3.278  0.4158  0.4770  0.8173
 9214SOL    HW239276   4.215   4.664   3.421 -0.2714 -0.1682  0.2110
 9215SOL     OW39277   1.840   1.256   4.265  0.0070  0.2170 -0.1246
 9215SOL    HW139278   1.831   1.177   4.212 -0.3016  0.4174 -0.3714
 9215SOL    HW239279   1.927   1.290   4.244  0.3948  0.4824  1.9364
 9216SOL     OW39280   3.347   2.266   8.828  0.3637  0.0604  0.2687
 9216SOL    HW139281   3.299   2.282   8.747  0.8522 -4.5635 -0.9762
 9216SOL    HW239282   3.304   2.330   8.884  1.0707 -0.8408  1.8518
 9217SOL     OW39283   2.186   3.330   2.810 -0.0714 -0.1150 -0.1324
 9217SOL    HW139284   2.247   3.256   2.811  0.8067  0.6169  0.5293
 9217SOL    HW239285   2.232   3.380   2.743  0.2532 -0.4107 -0.1304
 9218SOL     OW39286   2.663   2.083   0.859  0.4604  0.3078 -0.1746
 9218SOL    HW139287   2.650   2.096   0.765  1.1116 -2.9733 -0.7059
 9218SOL    HW239288   2.758   2.095   0.865  0.5322 -0.7378  0.7179
 9219SOL     OW39289   3.485   2.419   6.938  0.5122 -0.4295 -0.7697
 9219SOL    HW139290   3.488   2.369   6.857 -0.8018 -0.8127 -0.5816
 9219SOL    HW239291   3.433   2.498   6.924 -1.0249 -1.0924  1.1371
 9220SOL     OW39292   0.674   3.936   1.781  0.4070  0.5828  0.6095
 9220SOL    HW139293   0.611   3.978   1.722 -0.1760 -2.5173 -1.0132
 9220SOL    HW239294   0.621   3.876   1.834  1.2670 -0.7685 -0.0496
 9221SOL     OW39295   1.854   3.794  16.694 -0.2862 -0.2840 -0.0422
 9221SOL    HW139296   1.801   3.841  16.759  1.1770  0.2466  0.7633
 9221SOL    HW239297   1.853   3.711  16.741  0.7860  0.4098  1.2070
 9222SOL     OW39298   4.303   0.003  17.476  0.1809 -0.2658  1.0367
 9222SOL    HW139299   4.276   4.655  17.457  0.3358 -0.2065  0.5437
 9222SOL    HW239300   4.364   4.727  17.548  1.5554  1.1111  0.2103
 9223SOL     OW39301   0.777   4.450   8.786  0.3344  0.1325 -0.2559
 9223SOL    HW139302   0.771   4.356   8.806  4.0276  0.5232  2.5232
 9223SOL    HW239303   0.763   4.440   8.692  3.1781 -1.2078 -0.5328
 9224SOL     OW39304   4.192   0.932  12.215 -0.0775 -0.4472  0.5260
 9224SOL    HW139305   4.164   0.970  12.299  1.1598  1.7046 -0.0460
 9224SOL    HW239306   4.262   0.989  12.184 -0.4055 -0.3429 -0.0340
 9225SOL     OW39307   4.671   4.001   8.425 -0.1238 -0.2722  0.0197
 9225SOL    HW139308   4.697   3.939   8.357 -0.3876 -0.3766  0.0143
 9225SOL    HW239309   4.646   4.077   8.372  1.0304 -0.3757 -0.6862
 9226SOL     OW39310   3.058   0.916  10.925  0.0427 -0.1448  0.2147
 9226SOL    HW139311   3.000   0.980  10.967  0.5240  0.3021  0.1915
 9226SOL    HW239312   3.024   0.830  10.951 -0.6705  0.6264  1.8637
 9227SOL     OW39313   3.209   2.823   8.407  0.0277 -0.4855 -0.3267
 9227SOL    HW139314   3.287   2.871   8.380  0.3252 -1.6697 -1.5766
 9227SOL    HW239315   3.137   2.864   8.360  0.2340  0.8599  0.5398
 9228SOL     OW39316   2.460   1.216   5.324  0.3105 -0.1607 -0.1785
 9228SOL    HW139317   2.460   1.267   5.405  2.0556  1.3890 -1.1575
 9228SOL    HW239318   2.466   1.278   5.251  0.2233 -0.2126 -0.2301
 9229SOL     OW39319   4.380   3.935  10.432 -0.3917  0.1011 -0.1577
 9229SOL    HW139320   4.458   3.977  10.469  0.1331 -0.7582 -0.2920
 9229SOL    HW239321   4.312   3.954  10.497 -1.1703 -1.0136 -0.6440
 9230SOL     OW39322   1.731   3.022   8.160  0.5628 -0.5744  0.0343
 9230SOL    HW139323   1.798   3.013   8.093  3.5156  2.2455  2.5830
 9230SOL    HW239324   1.771   2.997   8.243  0.7429  1.6777  0.6457
 9231SOL     OW39325   3.350   1.459  14.659 -0.5955 -0.2425 -0.4265
 9231SOL    HW139326   3.417   1.391  14.668 -1.1235 -0.8753 -1.3195
 9231SOL    HW239327   3.354   1.486  14.568 -0.6828  0.0855 -0.3333
 9232SOL     OW39328   3.014   1.319   9.647 -0.0680 -0.4104 -0.7589
 9232SOL    HW139329   2.928   1.322   9.687  0.7584  0.2879  0.9491
 9232SOL    HW239330   3.065   1.377   9.704  1.4982 -1.1199 -1.4088
 9233SOL     OW39331   3.226   0.746   1.404 -0.5428 -0.4120  0.0722
 9233SOL    HW139332   3.247   0.653   1.402  1.4179 -0.0111  1.7031
 9233SOL    HW239333   3.142   0.751   1.358 -1.2016  0.5987  1.3822
 9234SOL     OW39334   2.143   1.606   0.877  0.2682 -0.2344  0.5719
 9234SOL    HW139335   2.179   1.694   0.885 -1.4132  0.4782  0.3111
 9234SOL    HW239336   2.179   1.570   0.958  0.4414 -0.2596  0.4851
 9235SOL     OW39337   3.798   1.566   2.940  0.0142  0.1362 -0.3699
 9235SOL    HW139338   3.830   1.487   2.897  1.1960  0.2814  0.2448
 9235SOL    HW239339   3.725   1.588   2.882 -2.4102 -2.1151  1.7912
 9236SOL     OW39340   3.842   0.130   2.505  0.4616  0.5284  0.7021
 9236SOL    HW139341   3.937   0.123   2.510  0.5723  1.3814 -0.3551
 9236SOL    HW239342   3.829   0.079   2.585 -1.0630 -1.6071 -0.9211
 9237SOL     OW39343   2.129   0.143  14.730  0.4336  0.2698 -0.5181
 9237SOL    HW139344   2.225   0.146  14.725  0.5725 -2.9185  0.2547
 9237SOL    HW239345   2.106   0.058  14.692 -0.5367 -0.0438  0.7720
 9238SOL     OW39346   2.659   4.633  11.917  0.1276  0.5627 -0.3297
 9238SOL    HW139347   2.569   4.636  11.884  0.0623 -2.4103 -0.4777
 9238SOL    HW239348   2.644   4.562  11.980 -0.8437  0.4655 -0.6806
 9239SOL     OW39349   3.789   2.806  11.890  0.4337  0.5502  0.3686
 9239SOL    HW139350   3.800   2.884  11.945 -1.7814 -0.2315  1.9063
 9239SOL    HW239351   3.839   2.837  11.815 -0.2209  3.0463  0.9461
 9240SOL     OW39352   3.655   2.792   4.831  0.4999  0.1381  0.5799
 9240SOL    HW139353   3.742   2.751   4.829  1.4025  2.1352 -0.2685
 9240SOL    HW239354   3.660   2.805   4.926  0.5942  1.9149  0.3167
 9241SOL     OW39355   0.616   0.528   6.133 -0.2563 -0.2333 -0.0637
 9241SOL    HW139356   0.698   0.494   6.168 -0.9845 -0.0120  1.8352
 9241SOL    HW239357   0.634   0.615   6.168 -1.8152  0.8805 -2.0428
 9242SOL     OW39358   4.641   0.398   3.230  0.0489  0.0579 -0.2848
 9242SOL    HW139359   4.582   0.469   3.256 -0.7028 -1.0022  0.8688
 9242SOL    HW239360   4.607   0.391   3.141 -0.7243 -0.5802  0.0617
 9243SOL     OW39361   1.317   4.346   8.079  0.1994  0.0721  0.0647
 9243SOL    HW139362   1.350   4.377   8.163  1.7302 -0.3259 -0.3988
 9243SOL    HW239363   1.319   4.252   8.095  1.4125 -0.2698 -2.0885
 9244SOL     OW39364   1.326   4.318   2.623 -0.2775 -0.2991  0.4638
 9244SOL    HW139365   1.262   4.369   2.672  1.0145 -0.2437  2.0650
 9244SOL    HW239366   1.391   4.301   2.690 -0.3959 -0.7359  0.4649
 9245SOL     OW39367   0.966   4.232   8.428 -0.3224  0.3085  0.0764
 9245SOL    HW139368   0.939   4.154   8.380  0.4643 -0.7622  1.3999
 9245SOL    HW239369   1.062   4.226   8.427 -0.4388 -1.7469  1.5452
 9246SOL     OW39370   3.382   3.392  12.311  0.8546  0.0941  0.6513
 9246SOL    HW139371   3.413   3.424  12.226  0.5051 -1.1124  0.0695
 9246SOL    HW239372   3.331   3.314  12.288 -1.2584  1.3068  1.2340
 9247SOL     OW39373   0.771   3.237  14.246  0.8494 -0.5661 -0.0879
 9247SOL    HW139374   0.748   3.149  14.216 -0.4073 -0.5965  0.9802
 9247SOL    HW239375   0.751   3.228  14.339 -0.6463 -1.6525 -0.5104
 9248SOL     OW39376   4.528   1.960   3.894 -0.0206 -0.2730  0.2016
 9248SOL    HW139377   4.518   1.939   3.801  2.8837  0.5596 -0.3246
 9248SOL    HW239378   4.473   2.036   3.913  0.8213  0.3022  0.3729
 9249SOL     OW39379   4.460   0.852   5.285 -0.3679 -0.4229  0.1155
 9249SOL    HW139380   4.381   0.808   5.315 -1.4242  0.2546 -1.6528
 9249SOL    HW239381   4.534   0.811   5.331  0.1143 -1.3594 -1.4815
 9250SOL     OW39382   0.921   0.832  11.390 -0.4584  0.1452 -0.0003
 9250SOL    HW139383   0.951   0.870  11.308 -2.0623  0.1567 -0.5828
 9250SOL    HW239384   0.903   0.746  11.350 -0.1205  0.0503  0.0500
 9251SOL     OW39385   1.473   1.529   4.778  0.1692  0.0233 -0.3441
 9251SOL    HW139386   1.547   1.512   4.836  1.1551  1.9075 -1.0435
 9251SOL    HW239387   1.478   1.475   4.699 -0.9178 -0.6896  0.0825
 9252SOL     OW39388   3.341   0.799   5.928  0.2525  0.1109  1.4954
 9252SOL    HW139389   3.287   0.854   5.984 -0.5506  0.1916  0.6245
 9252SOL    HW239390   3.371   0.873   5.876 -0.6590  2.0110  3.6571
 9253SOL     OW39391   4.010   0.414   4.833 -0.0421  0.1137  0.4248
 9253SOL    HW139392   4.038   0.495   4.873  1.5390 -0.2442  0.0506
 9253SOL    HW239393   3.926   0.405   4.878 -0.2858 -0.1565 -0.0813
 9254SOL     OW39394   2.201   1.447   1.089 -0.4222 -0.4858 -0.3434
 9254SOL    HW139395   2.210   1.429   1.183  0.9590  0.1612 -0.3403
 9254SOL    HW239396   2.163   1.366   1.055 -1.6194 -0.7009  1.5275
 9255SOL     OW39397   1.404   1.661   8.375 -0.0578  0.9281 -0.2162
 9255SOL    HW139398   1.467   1.610   8.324 -0.6260 -0.5104  0.5228
 9255SOL    HW239399   1.401   1.611   8.456 -3.0461  1.0441 -0.2533
 9256SOL     OW39400   4.416   0.535  13.330  0.0365 -0.4287  0.1720
 9256SOL    HW139401   4.444   0.616  13.288 -0.2271 -0.5788 -0.3032
 9256SOL    HW239402   4.427   0.561  13.421  0.0713 -3.6700  1.0878
 9257SOL     OW39403   2.644   3.438   8.492 -0.2377 -0.2441 -0.1759
 9257SOL    HW139404   2.615   3.399   8.574  0.0009 -1.6304 -0.7510
 9257SOL    HW239405   2.615   3.372   8.430 -2.5576  1.9004 -1.3996
 9258SOL     OW39406   4.275   3.683  11.426  0.4813 -1.0399  0.1706
 9258SOL    HW139407   4.255   3.621  11.496 -0.2730 -0.7407  0.2304
 9258SOL    HW239408   4.252   3.628  11.351  0.6493 -1.8379  0.7107
 9259SOL     OW39409   3.518   1.790   4.687  0.3381 -0.5166 -0.3718
 9259SOL    HW139410   3.591   1.820   4.633 -0.7566  1.2563 -0.8564
 9259SOL    HW239411   3.457   1.755   4.622  0.9590  0.2668 -1.3784
 9260SOL     OW39412   1.703   4.636   3.486 -1.0233 -0.4935 -0.6671
 9260SOL    HW139413   1.742   4.551   3.509  0.8898  0.6871  0.3740
 9260SOL    HW239414   1.633   4.604   3.429 -2.7568  0.9671  0.6627
 9261SOL     OW39415   2.333   2.841   7.615  0.7479 -0.3427 -0.1605
 9261SOL    HW139416   2.336   2.916   7.556  0.2374 -0.8359 -0.8133
 9261SOL    HW239417   2.425   2.854   7.639  0.6339  2.9537 -1.4465
 9262SOL     OW39418   0.832   1.811   8.514  0.1802 -0.0304  0.2734
 9262SOL    HW139419   0.851   1.724   8.480 -2.1385 -0.6545  0.5231
 9262SOL    HW239420   0.737   1.799   8.505  0.3937 -0.0091 -1.9872
 9263SOL     OW39421   1.712   1.469  13.168  0.1183  0.6266  0.1685
 9263SOL    HW139422   1.627   1.442  13.134  0.5221  0.2545 -0.5550
 9263SOL    HW239423   1.697   1.543  13.227 -0.7427  0.7493 -0.2066
 9264SOL     OW39424   4.038   2.180   2.841 -0.8541  0.1728  0.3142
 9264SOL    HW139425   4.083   2.257   2.876  1.4729 -0.9592 -0.1420
 9264SOL    HW239426   4.032   2.212   2.751 -1.7297 -2.0218 -0.3924
 9265SOL     OW39427   1.082   2.626   5.721 -0.5682 -0.1330  0.5352
 9265SOL    HW139428   1.118   2.714   5.727 -0.4682 -0.1079 -0.4746
 9265SOL    HW239429   1.163   2.581   5.698 -0.6004  0.2652 -0.3592
 9266SOL     OW39430   2.249   0.057   9.134 -0.1187  0.1068  0.3870
 9266SOL    HW139431   2.213   0.083   9.219  2.4189 -1.1094  1.8360
 9266SOL    HW239432   2.341   0.046   9.155  0.0243 -0.1202 -0.3599
 9267SOL     OW39433   4.569   3.422  15.263 -0.3854  0.3663  0.3283
 9267SOL    HW139434   4.635   3.468  15.316 -1.1029 -0.6620  2.1034
 9267SOL    HW239435   4.600   3.334  15.246  0.1254  0.6208 -0.0546
 9268SOL     OW39436   2.907   2.424   3.544  0.0873  0.0493 -0.2662
 9268SOL    HW139437   2.869   2.499   3.499 -0.3111 -1.6955 -2.8986
 9268SOL    HW239438   2.830   2.370   3.561 -0.8586  1.5496  0.1055
 9269SOL     OW39439   2.096   4.447  12.862  0.0195 -0.3682  0.3970
 9269SOL    HW139440   2.169   4.508  12.871  0.4822 -0.6094 -1.5846
 9269SOL    HW239441   2.120   4.412  12.776 -1.7285  0.8573 -0.5840
 9270SOL     OW39442   3.430   4.456   4.786 -0.3100  0.1042  0.5904
 9270SOL    HW139443   3.469   4.482   4.702 -1.0715  0.9051  0.4946
 9270SOL    HW239444   3.501   4.414   4.835 -0.5224  0.9550  1.6212
 9271SOL     OW39445   4.585   0.245  10.766  0.0760 -0.6537  0.1692
 9271SOL    HW139446   4.569   0.154  10.740  0.4618 -0.5753 -0.3319
 9271SOL    HW239447   4.618   0.233  10.855  0.1441 -0.2547  0.1970
 9272SOL     OW39448   4.577   0.961   7.428 -0.1697  0.2176 -0.5417
 9272SOL    HW139449   4.498   1.012   7.411  0.1811  0.6608 -0.8167
 9272SOL    HW239450   4.547   0.876   7.395  1.7303 -0.6477 -0.0339
 9273SOL     OW39451   2.620   0.503   2.634 -0.6132  0.5158 -0.0862
 9273SOL    HW139452   2.679   0.577   2.620 -0.3670  0.0707 -1.4023
 9273SOL    HW239453   2.539   0.551   2.648  0.5373  2.6394 -0.5904
 9274SOL     OW39454   3.431   2.617   9.404 -0.4333  0.3605  0.0917
 9274SOL    HW139455   3.505   2.568   9.440 -0.6594 -0.2069 -0.2164
 9274SOL    HW239456   3.377   2.620   9.483  1.3709  0.4237  1.3030
 9275SOL     OW39457   4.051   1.031   1.418  0.2895 -0.3592  0.1157
 9275SOL    HW139458   4.139   1.047   1.383  0.9455 -0.6075  1.6435
 9275SOL    HW239459   4.028   0.941   1.395  0.5901 -0.3331 -0.3039
 9276SOL     OW39460   3.228   0.401   1.543  0.6312  0.1355 -0.2466
 9276SOL    HW139461   3.317   0.434   1.552  1.6141 -2.2411 -1.2205
 9276SOL    HW239462   3.179   0.442   1.614  2.0679 -1.8429  1.8790
 9277SOL     OW39463   2.782   1.990   1.716 -0.6207  0.0059  0.1095
 9277SOL    HW139464   2.741   1.946   1.642 -0.0276  0.2286 -0.3492
 9277SOL    HW239465   2.750   1.938   1.789 -2.7289  1.1353 -0.0326
 9278SOL     OW39466   1.187   4.350  14.625 -0.2630  0.1562  0.1782
 9278SOL    HW139467   1.264   4.304  14.592  0.3614  1.6300 -0.4111
 9278SOL    HW239468   1.169   4.303  14.706 -1.3835  0.7025  0.2472
 9279SOL     OW39469   2.964   3.110  14.923 -0.4152 -0.3262 -0.3108
 9279SOL    HW139470   2.878   3.104  14.881 -0.2802  0.6431 -0.7055
 9279SOL    HW239471   2.960   3.050  14.998 -1.0759 -1.3648 -1.1698
 9280SOL     OW39472   1.922   2.312  13.457 -0.0648 -1.1050 -0.6576
 9280SOL    HW139473   1.901   2.396  13.416 -0.1541 -1.6278 -1.6938
 9280SOL    HW239474   1.849   2.295  13.517 -2.9379  2.4794 -3.1268
 9281SOL     OW39475   1.079   0.925   4.905 -0.4003 -0.4056  0.0176
 9281SOL    HW139476   1.101   0.857   4.841  0.0928  0.4807 -0.7577
 9281SOL    HW239477   1.161   0.922   4.953 -1.2982  0.8248  1.6426
 9282SOL     OW39478   0.009   0.411   1.720  0.3919 -0.5396 -0.2770
 9282SOL    HW139479   4.685   0.448   1.779 -0.4922 -0.6279 -1.2288
 9282SOL    HW239480   0.085   0.467   1.739 -0.4404  0.8370 -1.0555
 9283SOL     OW39481   0.674   3.009  16.139 -0.0290  0.3936 -0.1259
 9283SOL    HW139482   0.713   2.926  16.165 -0.1929  1.0590  2.2083
 9283SOL    HW239483   0.592   2.967  16.114 -0.6509  1.5445 -0.0337
 9284SOL     OW39484   4.108   1.908   4.018 -0.0275 -0.0697 -0.0850
 9284SOL    HW139485   4.049   1.877   3.949 -1.3529  1.7832  0.2290
 9284SOL    HW239486   4.156   1.980   3.978 -2.4207 -0.1585 -3.1048
 9285SOL     OW39487   0.317   2.623   8.141 -0.2578  0.4497 -0.7880
 9285SOL    HW139488   0.404   2.651   8.113  0.6202 -0.6616  0.7729
 9285SOL    HW239489   0.338   2.556   8.206 -1.1771  1.1794  0.2830
 9286SOL     OW39490   0.044   3.630   9.321 -0.1535 -0.3729 -0.3401
 9286SOL    HW139491   0.136   3.647   9.343 -1.2589  2.6795  1.8873
 9286SOL    HW239492   0.061   3.540   9.293  1.8900 -0.6119  1.6231
 9287SOL     OW39493   1.030   4.601   3.543  0.4565 -0.0733  0.5650
 9287SOL    HW139494   0.973   4.668   3.580 -0.2368  0.4283 -1.3950
 9287SOL    HW239495   1.080   4.646   3.475  1.6249 -1.2537  0.6369
 9288SOL     OW39496   1.810   3.416   2.776  0.3976 -0.3000 -0.7482
 9288SOL    HW139497   1.740   3.367   2.732 -2.3656  0.9798  2.2285
 9288SOL    HW239498   1.805   3.494   2.721 -0.2638 -2.2763 -3.5209
 9289SOL     OW39499   1.977   2.505   5.631 -0.1809  0.2019  0.1780
 9289SOL    HW139500   2.010   2.488   5.719 -0.9326 -2.0111  0.0204
 9289SOL    HW239501   2.063   2.523   5.593 -0.4403  0.6173 -0.2122
 9290SOL     OW39502   1.629   1.360  11.220 -0.3893 -0.0624  0.3062
 9290SOL    HW139503   1.562   1.299  11.253 -0.6617  0.2843  0.3915
 9290SOL    HW239504   1.598   1.439  11.264  1.3566  1.4029 -1.0949
 9291SOL     OW39505   3.063   0.841   2.608  0.2484  0.5586 -0.0339
 9291SOL    HW139506   3.025   0.785   2.676  0.1385  0.4443 -0.1927
 9291SOL    HW239507   3.134   0.887   2.654 -1.3626  1.8125  1.2215
 9292SOL     OW39508   0.535   1.628   6.676  0.3994  0.0194 -0.4476
 9292SOL    HW139509   0.460   1.655   6.622  2.5521  1.6122 -2.6975
 9292SOL    HW239510   0.514   1.535   6.682 -1.6571  0.5509  0.4737
 9293SOL     OW39511   0.945   0.592   5.685 -0.3061 -0.0714 -0.5933
 9293SOL    HW139512   0.929   0.686   5.677 -0.6494 -0.1873 -1.3469
 9293SOL    HW239513   0.855   0.557   5.680  0.0378 -1.2816  1.6423
 9294SOL     OW39514   2.895   3.311  12.610 -0.4915  0.1257 -0.5188
 9294SOL    HW139515   2.930   3.367  12.541  0.0794 -0.2224 -0.5116
 9294SOL    HW239516   2.951   3.235  12.595 -2.5989 -1.2668 -1.3308
 9295SOL     OW39517   1.479   3.339   9.656  0.0782  0.6912 -0.3434
 9295SOL    HW139518   1.473   3.377   9.744 -2.1049  2.2556 -1.1606
 9295SOL    HW239519   1.437   3.254   9.664  0.8199  0.1798 -1.8025
 9296SOL     OW39520   3.184   1.969  17.281  0.1220  0.4270 -0.2846
 9296SOL    HW139521   3.234   2.010  17.351 -0.3047 -1.5232  1.1611
 9296SOL    HW239522   3.101   1.955  17.325  0.2888  0.6994  0.1168
 9297SOL     OW39523   1.997   4.528  10.838 -0.6111 -0.3742 -0.3717
 9297SOL    HW139524   2.026   4.601  10.894  2.6800 -1.6176 -0.4390
 9297SOL    HW239525   1.996   4.569  10.752 -1.8289 -0.0557 -0.2030
 9298SOL     OW39526   2.488   0.191   1.691  0.0546 -0.2604  0.5057
 9298SOL    HW139527   2.524   0.163   1.607  2.0421 -0.6312  1.4926
 9298SOL    HW239528   2.411   0.135   1.700 -0.2654 -0.1273 -1.3792
 9299SOL     OW39529   4.043   3.394  14.756  0.7174  0.6837 -0.5090
 9299SOL    HW139530   4.032   3.478  14.711  0.5122  0.8906 -0.0714
 9299SOL    HW239531   4.138   3.392  14.765  0.7774  0.7358 -1.0879
 9300SOL     OW39532   1.692   3.334   5.005  0.0447  0.5836 -0.2483
 9300SOL    HW139533   1.732   3.366   5.086 -1.0313 -0.8403  0.8521
 9300SOL    HW239534   1.647   3.252   5.026  1.2462  0.4556  1.8500
 9301SOL     OW39535   1.239   3.488   5.153 -0.1087 -0.1440  0.1961
 9301SOL    HW139536   1.308   3.427   5.179  2.4350  2.5568 -0.3241
 9301SOL    HW239537   1.236   3.473   5.059  0.9824  0.2990  0.1005
 9302SOL     OW39538   0.659   1.915   6.052  0.8595  0.4150  0.5435
 9302SOL    HW139539   0.680   1.944   5.963 -0.3187 -0.7682 -0.1129
 9302SOL    HW239540   0.644   1.823   6.030  0.7886  0.7050 -0.6186
 9303SOL     OW39541   2.680   0.796   7.250  0.9365 -0.0646  0.4385
 9303SOL    HW139542   2.597   0.825   7.287 -0.4297 -2.2554 -0.8996
 9303SOL    HW239543   2.661   0.702   7.244 -1.7176  0.5667 -1.0219
 9304SOL     OW39544   0.402   4.379  12.005 -0.3955  0.2628 -0.0415
 9304SOL    HW139545   0.355   4.462  12.012 -1.8832 -0.6119  0.0859
 9304SOL    HW239546   0.422   4.388  11.912  0.0762  1.3410  0.1503
 9305SOL     OW39547   2.644   2.668   9.159  0.3140 -0.3747  1.1444
 9305SOL    HW139548   2.711   2.679   9.226  0.0489  0.5051  1.2710
 9305SOL    HW239549   2.575   2.690   9.221  0.7455 -1.7270  2.0945
 9306SOL     OW39550   0.780   1.470   5.237 -0.1899  0.0973  0.7662
 9306SOL    HW139551   0.853   1.515   5.194 -0.0333 -1.2102 -0.3345
 9306SOL    HW239552   0.764   1.532   5.308  0.2758 -0.2427  1.1665
 9307SOL     OW39553   3.339   4.648   1.623 -0.0200 -0.1588  0.7950
 9307SOL    HW139554   3.270   4.691   1.573  1.6767  0.6513 -0.8099
 9307SOL    HW239555   3.301   4.655   1.711 -0.7371 -1.0993  0.5689
 9308SOL     OW39556   0.078   2.171   7.742  0.3902 -0.0161  0.5285
 9308SOL    HW139557   0.173   2.166   7.727  0.1234 -1.8713 -0.5175
 9308SOL    HW239558   0.041   2.093   7.701  1.3146  1.0187 -2.2158
 9309SOL     OW39559   0.646   3.654   1.538  0.2720  0.2927  0.5272
 9309SOL    HW139560   0.654   3.674   1.631 -2.1928 -2.2343  1.2698
 9309SOL    HW239561   0.699   3.574   1.532 -0.9616 -0.4341 -0.5898
 9310SOL     OW39562   0.937   0.392  15.219  0.0501  0.3085  0.4261
 9310SOL    HW139563   0.875   0.357  15.154  2.5695  0.8871 -2.2590
 9310SOL    HW239564   0.925   0.334  15.294 -0.3942 -1.0181 -0.6560
 9311SOL     OW39565   0.998   0.887   1.388 -0.1563 -0.0519 -0.4850
 9311SOL    HW139566   1.084   0.855   1.415  1.1139  0.3760 -3.9752
 9311SOL    HW239567   1.023   0.976   1.362  1.6610 -0.3395  0.2521
 9312SOL     OW39568   3.661   2.328  10.936  0.3100 -0.1094  0.5296
 9312SOL    HW139569   3.606   2.283  10.872 -0.1892  0.7644  0.3383
 9312SOL    HW239570   3.692   2.401  10.883 -1.6988  2.3477  2.6963
 9313SOL     OW39571   1.451   1.296   6.262 -0.1859 -0.3282  0.3178
 9313SOL    HW139572   1.411   1.296   6.348 -0.6134 -2.7812  0.0976
 9313SOL    HW239573   1.546   1.291   6.276  0.0407 -0.8523 -1.4146
 9314SOL     OW39574   0.496   1.544   8.993 -0.1685 -0.5833  0.1501
 9314SOL    HW139575   0.478   1.537   9.087  0.2866 -0.1604  0.2661
 9314SOL    HW239576   0.407   1.559   8.961 -0.5820  1.6738  2.3705
 9315SOL     OW39577   0.467   3.110  10.336 -0.2443  0.2316  0.0798
 9315SOL    HW139578   0.404   3.174  10.368  0.9380  1.1240  0.6106
 9315SOL    HW239579   0.550   3.157  10.327  0.1424 -0.6379 -0.9597
 9316SOL     OW39580   1.183   4.503   5.142  0.0728  0.0828 -0.0824
 9316SOL    HW139581   1.257   4.493   5.201 -0.8614 -0.1888  1.0396
 9316SOL    HW239582   1.113   4.492   5.207 -0.3380  0.9182 -0.3845
 9317SOL     OW39583   2.336   3.441   9.839  0.0062  0.2678 -0.1206
 9317SOL    HW139584   2.350   3.376   9.909 -1.0263  0.9885  0.7543
 9317SOL    HW239585   2.295   3.516   9.882 -1.1826  0.6673 -1.9489
 9318SOL     OW39586   2.843   1.294  10.216  0.2211  0.0886 -0.0964
 9318SOL    HW139587   2.761   1.245  10.206  1.3936 -1.3396 -2.6242
 9318SOL    HW239588   2.852   1.299  10.311 -1.3186 -0.1364  0.0607
 9319SOL     OW39589   2.688   2.501   8.691 -0.4637 -0.7385 -0.1744
 9319SOL    HW139590   2.705   2.518   8.783  0.8122  0.6686 -0.6573
 9319SOL    HW239591   2.759   2.440   8.670  0.8003  0.8272 -0.4978
 9320SOL     OW39592   3.375   3.696   5.908  0.1277  0.8890  0.4216
 9320SOL    HW139593   3.292   3.736   5.934  0.5977  1.1281  1.5810
 9320SOL    HW239594   3.390   3.657   5.994 -0.4240 -0.5978 -0.1585
 9321SOL     OW39595   4.274   1.604   1.151 -0.2185  0.2213 -0.4722
 9321SOL    HW139596   4.241   1.631   1.065 -0.6923  0.2033 -0.2939
 9321SOL    HW239597   4.189   1.588   1.192  0.6945  0.6820  1.5540
 9322SOL     OW39598   1.742   0.893   4.574 -0.4250  0.0453 -0.1882
 9322SOL    HW139599   1.696   0.894   4.489 -0.2292 -0.7287 -0.3048
 9322SOL    HW239600   1.780   0.980   4.579  1.0448 -0.5521 -1.0504
 9323SOL     OW39601   4.594   1.628   3.301 -0.1683 -0.4177 -0.7605
 9323SOL    HW139602   4.664   1.670   3.351  0.1696 -0.9154 -0.8054
 9323SOL    HW239603   4.630   1.636   3.213 -0.6990  0.0998 -0.9251
 9324SOL     OW39604   2.045   0.582   2.228  0.1634 -0.3751 -0.5062
 9324SOL    HW139605   2.112   0.649   2.211  1.1633 -1.4395 -0.7485
 9324SOL    HW239606   1.994   0.583   2.147  0.0878  0.8254 -0.4384
 9325SOL     OW39607   1.974   4.392   5.857 -0.4029  0.1217 -0.0703
 9325SOL    HW139608   2.017   4.395   5.942  0.1403  1.2744 -0.3836
 9325SOL    HW239609   2.031   4.443   5.799  0.8615 -1.2343  0.0054
 9326SOL     OW39610   1.386   3.700  16.435 -0.4271  0.4184  0.1899
 9326SOL    HW139611   1.384   3.659  16.349  0.1579 -0.2754  0.5044
 9326SOL    HW239612   1.457   3.763  16.431 -0.3332  0.2286 -1.3144
 9327SOL     OW39613   3.666   0.751   7.358 -0.0503 -0.1217  0.1893
 9327SOL    HW139614   3.758   0.761   7.381  0.1216  1.3980 -1.1210
 9327SOL    HW239615   3.651   0.846   7.351 -0.9065 -0.3874 -1.6212
 9328SOL     OW39616   1.461   4.303   4.890 -0.0018 -0.6428 -0.0718
 9328SOL    HW139617   1.522   4.308   4.817  0.5260 -0.1669  0.3944
 9328SOL    HW239618   1.500   4.366   4.951  1.5661 -0.8754 -0.8536
 9329SOL     OW39619   4.493   2.451   7.800 -0.0920  0.1245  0.4603
 9329SOL    HW139620   4.541   2.494   7.729 -0.0288  0.1958  0.5471
 9329SOL    HW239621   4.407   2.446   7.759  0.5728 -1.0596 -0.8004
 9330SOL     OW39622   3.495   3.324   6.956 -0.2453  0.4103  0.3986
 9330SOL    HW139623   3.555   3.250   6.952  0.0525  0.7369 -1.4256
 9330SOL    HW239624   3.439   3.290   7.025 -0.2216  1.0578  0.7450
 9331SOL     OW39625   2.486   4.512   1.593  0.4333  0.0300 -0.2745
 9331SOL    HW139626   2.540   4.591   1.589  1.0371 -0.3478  0.6889
 9331SOL    HW239627   2.466   4.502   1.686  1.7472  0.8276  0.0990
 9332SOL     OW39628   4.629   2.259   7.928  0.7953 -0.0633  0.2068
 9332SOL    HW139629   4.579   2.333   7.895  0.0166 -0.4359  0.5596
 9332SOL    HW239630   4.686   2.231   7.857  2.4242  1.3003  0.9572
 9333SOL     OW39631   4.650   0.104   3.081  0.4082 -0.5420 -0.5421
 9333SOL    HW139632   4.726   0.125   3.135 -0.6104  0.9419  0.2948
 9333SOL    HW239633   4.684   0.063   3.001 -1.5701  0.6832 -2.0135
 9334SOL     OW39634   1.410   0.528   7.798 -0.3735  0.0733  0.3218
 9334SOL    HW139635   1.461   0.453   7.766  0.9663  1.6006 -1.1446
 9334SOL    HW239636   1.325   0.484   7.806 -0.4313 -0.3578 -2.6474
 9335SOL     OW39637   3.928   1.813  14.114 -0.0426  0.3507 -0.7847
 9335SOL    HW139638   3.853   1.839  14.060 -0.5169  0.4308 -0.0874
 9335SOL    HW239639   3.904   1.723  14.136  0.4014  0.2424 -0.7421
 9336SOL     OW39640   1.114   0.230   8.943  0.1575  0.8698 -0.3406
 9336SOL    HW139641   1.143   0.242   9.033 -1.9072 -2.4083  0.7621
 9336SOL    HW239642   1.028   0.192   8.961  0.7649 -0.6180 -0.6046
 9337SOL     OW39643   0.003   3.195   9.005  0.0412 -0.0960  0.5068
 9337SOL    HW139644   4.655   3.217   9.029 -0.2916 -0.2157 -0.6577
 9337SOL    HW239645   0.008   3.227   8.915  0.3638 -0.3716  0.4261
 9338SOL     OW39646   1.439   0.180  14.592  0.5363 -0.0212 -0.2667
 9338SOL    HW139647   1.346   0.201  14.601  0.5233  0.6329 -1.9519
 9338SOL    HW239648   1.456   0.129  14.671 -1.2897 -2.5739 -1.4993
 9339SOL     OW39649   1.822   2.566   5.411  0.1105  0.3337  0.1714
 9339SOL    HW139650   1.875   2.493   5.379  0.3966 -0.6431  2.8850
 9339SOL    HW239651   1.847   2.557   5.503 -0.1002 -1.4314  0.0593
 9340SOL     OW39652   1.417   3.660  16.702  0.1316  0.4908 -0.1704
 9340SOL    HW139653   1.509   3.635  16.708  0.2066  0.5463 -1.2014
 9340SOL    HW239654   1.402   3.641  16.610  1.4803  1.8442 -0.6620
 9341SOL     OW39655   2.594   2.675   1.678 -0.1683  0.0252  0.0301
 9341SOL    HW139656   2.639   2.675   1.593 -2.2985 -0.1251 -1.0898
 9341SOL    HW239657   2.603   2.767   1.702  1.3577 -0.2531  0.5563
 9342SOL     OW39658   1.401   0.362   4.109 -0.8634  0.1319  0.4132
 9342SOL    HW139659   1.479   0.418   4.108 -1.7076  1.3007  0.7796
 9342SOL    HW239660   1.428   0.309   4.183 -0.8832 -0.2118  0.1722
 9343SOL     OW39661   4.199   2.253   5.476  0.4965  0.4222 -0.4989
 9343SOL    HW139662   4.138   2.327   5.472  0.2989  0.3048  0.4354
 9343SOL    HW239663   4.281   2.288   5.442 -0.6095  4.2852  0.8057
 9344SOL     OW39664   0.942   4.313   2.046  0.2245 -0.5506 -0.3232
 9344SOL    HW139665   1.027   4.296   2.087 -0.9598 -0.5868  2.1293
 9344SOL    HW239666   0.917   4.238   1.992 -1.1576 -0.0245 -0.4131
 9345SOL     OW39667   3.111   0.637   7.261 -0.0544  0.0584  0.0540
 9345SOL    HW139668   3.178   0.700   7.287  1.8072 -2.0108  0.2620
 9345SOL    HW239669   3.046   0.696   7.224 -1.1658  0.7647  3.1043
 9346SOL     OW39670   4.506   0.657  17.171 -0.3589  0.0746  0.0034
 9346SOL    HW139671   4.512   0.605  17.251  0.1124 -1.1416 -0.8293
 9346SOL    HW239672   4.582   0.621  17.126  0.3381  0.8784  0.5246
 9347SOL     OW39673   0.241   2.518  14.443  0.2241  0.5769 -0.0409
 9347SOL    HW139674   0.300   2.585  14.478  1.1815 -0.6168  0.6521
 9347SOL    HW239675   0.305   2.493  14.375 -1.5362  0.1978 -1.5520
 9348SOL     OW39676   1.225   4.616  17.456 -0.3734 -0.3425 -0.2418
 9348SOL    HW139677   1.244   4.689  17.397  0.3952  0.5126  1.0630
 9348SOL    HW239678   1.136   4.647  17.475 -0.2593  0.7748 -1.5616
 9349SOL     OW39679   2.131   1.209   3.965 -0.6605  0.0518 -0.1953
 9349SOL    HW139680   2.178   1.288   3.938 -0.2163 -0.0357  0.3216
 9349SOL    HW239681   2.166   1.148   3.899  0.6656 -1.2145  1.6950
 9350SOL     OW39682   0.745   0.735   6.749  0.0809  0.1565 -0.3859
 9350SOL    HW139683   0.687   0.728   6.825  1.8158 -0.6650  0.8670
 9350SOL    HW239684   0.730   0.650   6.708 -0.7261  0.9075 -1.6327
 9351SOL     OW39685   4.236   1.446   3.012  0.3352  0.2883 -0.1358
 9351SOL    HW139686   4.330   1.429   3.011  0.2033 -0.3825 -1.3778
 9351SOL    HW239687   4.234   1.532   2.968 -0.3697  0.4705  0.2673
 9352SOL     OW39688   3.055   1.281   2.558 -0.7593  0.3425  0.1899
 9352SOL    HW139689   3.010   1.344   2.502 -0.1766  1.3607  0.8479
 9352SOL    HW239690   3.136   1.266   2.508  0.2561  2.3139  1.2446
 9353SOL     OW39691   1.539   1.838  10.182  0.2101 -0.3798 -0.1426
 9353SOL    HW139692   1.483   1.849  10.258  0.0540  0.3072 -0.3591
 9353SOL    HW239693   1.556   1.744  10.184  2.2243 -0.0178 -0.2943
 9354SOL     OW39694   1.823   2.527   8.748 -0.3229  0.2502 -0.0995
 9354SOL    HW139695   1.807   2.451   8.692  0.5065 -1.4154  1.9438
 9354SOL    HW239696   1.819   2.599   8.684 -1.2763  0.1019 -0.1951
 9355SOL     OW39697   2.243   4.340   4.239  0.5299  0.7525 -0.0656
 9355SOL    HW139698   2.258   4.270   4.303  0.2721  1.1850  0.4726
 9355SOL    HW239699   2.321   4.390   4.262  1.2762  0.1213 -1.2586
 9356SOL     OW39700   1.114   0.608   7.431 -0.5778  0.3401  0.0996
 9356SOL    HW139701   1.096   0.696   7.464  0.6412 -0.3489  2.5927
 9356SOL    HW239702   1.208   0.619   7.448 -0.1592 -0.6444 -1.5914
 9357SOL     OW39703   4.493   0.784  13.197  0.3815  0.3325  0.3235
 9357SOL    HW139704   4.522   0.866  13.238 -0.4439  0.9830 -0.4034
 9357SOL    HW239705   4.571   0.740  13.163 -0.1901 -0.8222  0.5270
 9358SOL     OW39706   2.988   2.212   2.729 -0.1295 -0.0723 -0.2445
 9358SOL    HW139707   2.918   2.193   2.667 -0.1286  0.2883 -0.3545
 9358SOL    HW239708   2.940   2.194   2.810 -1.2224  1.6947 -0.5098
 9359SOL     OW39709   4.525   0.524   3.921  0.4474  0.0300 -0.0862
 9359SOL    HW139710   4.560   0.570   3.997 -0.6000  1.4681 -0.4728
 9359SOL    HW239711   4.459   0.585   3.888 -0.3298 -0.6780  0.1335
 9360SOL     OW39712   2.452   2.899  10.162  0.0018 -0.3061 -0.0291
 9360SOL    HW139713   2.454   2.987  10.199  1.1735 -0.6295  0.6648
 9360SOL    HW239714   2.511   2.855  10.224 -0.6133  1.5152  1.8755
 9361SOL     OW39715   3.314   4.197   8.697  0.2596 -0.0494 -0.4806
 9361SOL    HW139716   3.326   4.124   8.757  3.5995  1.6299  0.8912
 9361SOL    HW239717   3.224   4.178   8.670  0.1884  0.0172 -0.2958
 9362SOL     OW39718   1.110   2.084   4.576 -0.0610  0.0842 -0.0899
 9362SOL    HW139719   1.128   2.172   4.544 -1.6442  0.4199 -0.0148
 9362SOL    HW239720   1.031   2.065   4.527 -0.1413  2.0862 -0.7234
 9363SOL     OW39721   1.528   0.229   4.589  0.5254 -0.1770  0.3573
 9363SOL    HW139722   1.477   0.287   4.645  0.4633  0.9743 -0.8890
 9363SOL    HW239723   1.614   0.253   4.624  0.1749 -0.0072  1.1021
 9364SOL     OW39724   0.055   0.946   4.189 -0.1320  0.1504  0.1213
 9364SOL    HW139725   0.104   1.028   4.178  1.0470 -0.6219 -0.3188
 9364SOL    HW239726   0.049   0.927   4.095  2.1919  0.0016  0.0123
 9365SOL     OW39727   3.144   2.897   4.797  0.1258 -0.1393  0.4287
 9365SOL    HW139728   3.224   2.910   4.848  1.5199 -1.4974 -1.4109
 9365SOL    HW239729   3.175   2.849   4.721 -1.4963 -0.0745 -0.2634
 9366SOL     OW39730   0.636   1.656   2.437  0.0793 -0.0478  0.6053
 9366SOL    HW139731   0.612   1.681   2.526 -3.3363 -0.6623 -0.1332
 9366SOL    HW239732   0.691   1.729   2.410 -1.0063  1.4023  2.3099
 9367SOL     OW39733   3.485   1.884   7.586 -0.2274 -0.2008  0.3525
 9367SOL    HW139734   3.436   1.902   7.506 -2.5737 -0.5416  1.7031
 9367SOL    HW239735   3.549   1.953   7.570 -2.3272  1.5389 -0.5699
 9368SOL     OW39736   4.260   1.862  16.982 -0.1662 -0.2330  0.5571
 9368SOL    HW139737   4.183   1.897  17.026  0.6289  0.4027  1.4542
 9368SOL    HW239738   4.280   1.787  17.038 -1.0839  0.3610  1.6800
 9369SOL     OW39739   4.337   2.631   7.420  0.0717  0.1457 -0.0267
 9369SOL    HW139740   4.298   2.576   7.488  0.4796  0.4090  0.4238
 9369SOL    HW239741   4.428   2.633   7.450  0.5317  0.0220 -1.4132
 9370SOL     OW39742   1.395   0.826   2.203 -0.1345 -0.1991  0.3504
 9370SOL    HW139743   1.440   0.748   2.236  2.3405  0.7915 -0.6506
 9370SOL    HW239744   1.436   0.879   2.271  0.6265  1.4413 -1.3972
 9371SOL     OW39745   0.138   2.185  12.057  0.0319 -0.2029 -0.0375
 9371SOL    HW139746   0.117   2.233  12.137  1.1685 -0.3867  0.3770
 9371SOL    HW239747   0.165   2.255  11.998  1.4500 -2.0681 -1.6216
 9372SOL     OW39748   1.033   2.441   4.946 -0.2833 -0.2509  0.3620
 9372SOL    HW139749   1.114   2.410   4.987 -0.0207 -2.2910 -1.7152
 9372SOL    HW239750   1.060   2.435   4.855  1.7307  0.6510  0.8949
 9373SOL     OW39751   1.263   0.958  16.717  0.2108 -0.1887 -0.8747
 9373SOL    HW139752   1.305   0.876  16.691 -1.3891 -1.4162  0.4498
 9373SOL    HW239753   1.305   0.968  16.802  0.8050 -0.3820 -1.1450
 9374SOL     OW39754   3.234   1.038   4.995 -0.3252 -0.4665  0.3088
 9374SOL    HW139755   3.161   1.046   5.056 -1.2618  1.3548 -1.0438
 9374SOL    HW239756   3.188   0.982   4.933 -0.5381 -0.1011  0.1373
 9375SOL     OW39757   0.405   1.356  10.730  0.4768 -0.6540  0.7657
 9375SOL    HW139758   0.371   1.279  10.777 -2.8181  0.8844  0.9379
 9375SOL    HW239759   0.450   1.386  10.809 -1.6105 -2.2475  2.5885
 9376SOL     OW39760   3.744   3.930   0.736 -0.2341  0.0483 -0.2540
 9376SOL    HW139761   3.734   3.886   0.652  1.3321  2.1455 -1.5612
 9376SOL    HW239762   3.659   3.922   0.778  0.7280 -1.4287  1.4252
 9377SOL     OW39763   3.077   2.119   3.074 -0.2932 -0.1216 -0.7429
 9377SOL    HW139764   3.012   2.154   3.013 -0.8267 -0.1544 -0.1950
 9377SOL    HW239765   3.048   2.171   3.148 -0.2713 -2.8451  1.1785
 9378SOL     OW39766   0.586   1.303   1.812  0.1506  0.1733  0.3013
 9378SOL    HW139767   0.609   1.378   1.757 -2.1379  0.5067 -0.2149
 9378SOL    HW239768   0.615   1.225   1.763  0.2486 -0.2254  0.9944
 9379SOL     OW39769   1.108   1.176   4.145 -0.0055 -0.2603 -0.0975
 9379SOL    HW139770   1.194   1.172   4.103  0.6110 -0.8775  1.2212
 9379SOL    HW239771   1.117   1.265   4.179  0.3470 -1.0773  1.9127
 9380SOL     OW39772   1.960   1.540   8.455 -0.1270 -0.4385 -0.0821
 9380SOL    HW139773   2.055   1.541   8.473 -0.2127 -0.9840  0.3977
 9380SOL    HW239774   1.933   1.596   8.528 -0.3736  0.0991 -0.5851
 9381SOL     OW39775   3.089   2.581   1.587  0.2664 -0.4822  0.3259
 9381SOL    HW139776   3.026   2.653   1.592 -0.8574 -1.4268 -0.3838
 9381SOL    HW239777   3.029   2.511   1.612 -0.7159  0.5421  0.8227
 9382SOL     OW39778   2.223   4.166  12.305 -0.1370 -0.3289 -0.1556
 9382SOL    HW139779   2.282   4.186  12.377  0.9011 -1.6599 -0.6392
 9382SOL    HW239780   2.182   4.253  12.300 -0.0828 -0.2415  0.9789
 9383SOL     OW39781   2.115   3.036   8.436  0.0503  0.7497  0.0084
 9383SOL    HW139782   2.131   2.997   8.350  1.3062  0.1032  0.5485
 9383SOL    HW239783   2.177   2.993   8.494 -0.9834  0.7901  1.1345
 9384SOL     OW39784   4.382   0.205   5.638 -0.1924  0.0679 -0.5436
 9384SOL    HW139785   4.450   0.157   5.685 -1.7391  1.8512  3.5055
 9384SOL    HW239786   4.383   0.290   5.683 -0.6946  0.6725 -1.6864
 9385SOL     OW39787   4.205   1.754   4.697  0.2311  0.9214 -0.3951
 9385SOL    HW139788   4.262   1.696   4.646  0.6054 -1.1021  2.3110
 9385SOL    HW239789   4.121   1.722   4.665  1.1272 -2.8539  1.0082
 9386SOL     OW39790   0.669   1.504  10.860 -0.1009  0.0706 -0.8410
 9386SOL    HW139791   0.675   1.429  10.801 -3.2121 -0.0475 -0.9955
 9386SOL    HW239792   0.675   1.465  10.948 -1.1027  0.8778 -0.4120
 9387SOL     OW39793   4.405   3.240   4.337 -0.2658  0.1281 -0.4723
 9387SOL    HW139794   4.323   3.191   4.327 -0.4001  0.6480 -1.8575
 9387SOL    HW239795   4.407   3.265   4.429 -2.9885 -3.0269  0.4435
 9388SOL     OW39796   2.861   3.588   3.245 -0.0069 -0.2420 -0.2308
 9388SOL    HW139797   2.834   3.576   3.336  0.8994 -0.2778  0.0418
 9388SOL    HW239798   2.945   3.631   3.262  0.8359 -2.0113  0.1790
 9389SOL     OW39799   3.367   4.577  12.493  0.1548  0.6485  0.2686
 9389SOL    HW139800   3.308   4.652  12.483  2.6053  2.1771 -2.7189
 9389SOL    HW239801   3.308   4.533  12.555 -2.3570  1.4637 -1.5509
 9390SOL     OW39802   3.653   0.775   2.886 -0.1297  0.4361 -0.1713
 9390SOL    HW139803   3.688   0.687   2.874  0.4658  0.2005  3.1763
 9390SOL    HW239804   3.730   0.823   2.918  0.1551 -0.4461  0.4633
 9391SOL     OW39805   0.093   3.943   9.431  0.6836  0.0610  0.2285
 9391SOL    HW139806   0.006   3.977   9.409  0.5554 -0.4306 -0.0224
 9391SOL    HW239807   0.140   3.974   9.353 -1.3611  2.1665 -0.1926
 9392SOL     OW39808   1.213   3.870   6.827  0.6934  0.5787  0.3147
 9392SOL    HW139809   1.292   3.822   6.853  0.5530 -0.7041 -1.6180
 9392SOL    HW239810   1.259   3.900   6.749 -0.2437 -1.1796 -0.9121
 9393SOL     OW39811   4.485   4.387  11.355 -0.3555  0.2609 -0.0673
 9393SOL    HW139812   4.426   4.360  11.284 -1.6862  2.5219  0.1834
 9393SOL    HW239813   4.508   4.473  11.319 -0.0136  0.1470 -0.1207
 9394SOL     OW39814   0.806   4.339   4.589 -0.6885 -0.1740  0.5371
 9394SOL    HW139815   0.824   4.268   4.650  0.0925  0.0651  0.5851
 9394SOL    HW239816   0.887   4.390   4.591 -1.0599  0.4685 -0.6907
 9395SOL     OW39817   3.561   4.182   2.152  0.0723  0.0574 -0.0450
 9395SOL    HW139818   3.539   4.149   2.065 -0.2046 -0.8279  0.3587
 9395SOL    HW239819   3.621   4.249   2.121 -1.8132  2.1709  0.9104
 9396SOL     OW39820   4.682   4.334   0.820  0.4626 -0.3660 -0.0821
 9396SOL    HW139821   4.661   4.428   0.820 -1.8938 -0.9102 -1.9262
 9396SOL    HW239822   4.639   4.314   0.903  0.8144  0.8098  0.3904
 9397SOL     OW39823   4.622   0.493  11.222  0.0210  0.3111  0.2811
 9397SOL    HW139824   4.637   0.449  11.306 -2.9166 -1.0120  0.1236
 9397SOL    HW239825   4.592   0.574  11.262 -0.1506 -0.3328  1.4931
 9398SOL     OW39826   0.871   3.640   0.249  0.3497 -0.3881  0.1063
 9398SOL    HW139827   0.852   3.556   0.290 -2.8239  0.3205  0.0768
 9398SOL    HW239828   0.925   3.618   0.173  0.4271  1.1891 -0.3070
 9399SOL     OW39829   3.783   4.176   7.422  0.5971 -0.0203 -0.2764
 9399SOL    HW139830   3.868   4.211   7.450  0.4931  1.2803 -1.5411
 9399SOL    HW239831   3.738   4.172   7.507 -1.4493  0.3313 -1.3420
 9400SOL     OW39832   1.959   2.259   2.063  0.5852 -0.9715 -0.5136
 9400SOL    HW139833   1.952   2.221   1.975 -3.5772  1.7831 -1.3633
 9400SOL    HW239834   1.875   2.235   2.103 -0.2522  2.0845 -0.4526
 9401SOL     OW39835   4.438   2.399   6.357 -0.6639 -0.0591  0.3834
 9401SOL    HW139836   4.448   2.487   6.394  1.1538 -0.6413  1.2901
 9401SOL    HW239837   4.527   2.384   6.324 -1.0487  0.1955 -0.7731
 9402SOL     OW39838   2.558   4.276  16.526 -0.0710 -0.4364  0.5251
 9402SOL    HW139839   2.481   4.237  16.485 -0.5373  0.6823  0.3163
 9402SOL    HW239840   2.622   4.207  16.510  0.9753  0.6493  0.0561
 9403SOL     OW39841   2.803   3.374  16.901  0.1689  0.1196 -0.0003
 9403SOL    HW139842   2.742   3.408  16.835 -0.3226  0.8957  0.8618
 9403SOL    HW239843   2.890   3.409  16.883 -0.1579  1.4846  1.1330
 9404SOL     OW39844   1.943   2.572  15.631 -0.0920  0.0190 -0.0598
 9404SOL    HW139845   1.931   2.666  15.645 -0.0664  0.0085  0.0281
 9404SOL    HW239846   1.869   2.546  15.687 -1.5389  0.1272 -1.9246
 9405SOL     OW39847   4.626   1.913   2.199 -0.6422  0.7305 -0.0318
 9405SOL    HW139848   4.673   1.957   2.128 -1.0458  0.0316 -0.7214
 9405SOL    HW239849   4.637   1.823   2.171 -0.1224  0.1313  2.0459
 9406SOL     OW39850   2.925   1.542  14.918  0.3615 -0.0619  0.1498
 9406SOL    HW139851   2.979   1.621  14.923  1.5551 -0.7797 -1.4258
 9406SOL    HW239852   2.959   1.497  14.996  0.0032  0.6507  0.7101
 9407SOL     OW39853   2.380   4.199  17.087 -0.1980  0.1143  0.3794
 9407SOL    HW139854   2.392   4.104  17.080 -0.6115  0.0128  1.0477
 9407SOL    HW239855   2.290   4.199  17.120  0.7875 -0.6487  3.1255
 9408SOL     OW39856   0.349   0.139   1.642 -0.0716  0.2177 -0.3001
 9408SOL    HW139857   0.320   0.075   1.707  0.9542 -0.5301 -0.5719
 9408SOL    HW239858   0.278   0.134   1.578 -0.8413  1.4348  0.4549
 9409SOL     OW39859   0.542   1.728   0.991  0.1959  0.4601 -0.6003
 9409SOL    HW139860   0.576   1.644   0.962  2.5143  0.5505  1.9240
 9409SOL    HW239861   0.615   1.785   0.969  0.3644  0.3765 -0.2465
 9410SOL     OW39862   1.625   3.082  14.240 -0.2438  0.3257 -0.1037
 9410SOL    HW139863   1.666   3.084  14.154 -0.5241 -4.0344 -0.3371
 9410SOL    HW239864   1.557   3.015  14.235  0.0501  0.0128  0.1048
 9411SOL     OW39865   3.246   0.153   6.701 -0.0680  0.1042  0.5230
 9411SOL    HW139866   3.173   0.092   6.716  0.1774 -0.5656 -0.9707
 9411SOL    HW239867   3.286   0.122   6.619  1.1531 -0.1598  1.2280
 9412SOL     OW39868   2.997   1.860   1.872 -0.3908  0.3228  0.2725
 9412SOL    HW139869   3.054   1.786   1.849  1.4112  1.5209  0.8255
 9412SOL    HW239870   2.913   1.815   1.872 -0.7555  1.0241 -0.2660
 9413SOL     OW39871   3.756   2.770   2.392 -0.5522  0.3662 -0.5118
 9413SOL    HW139872   3.772   2.709   2.321 -2.7720 -1.2303  0.3662
 9413SOL    HW239873   3.676   2.730   2.426 -1.3070  1.6323 -0.7911
 9414SOL     OW39874   0.113   1.054   5.912  0.7970 -0.3332  0.1083
 9414SOL    HW139875   0.148   1.029   5.998 -2.8806  1.1881  2.0920
 9414SOL    HW239876   0.121   1.149   5.917  0.2423 -0.1106 -3.2610
 9415SOL     OW39877   1.979   4.537   3.220 -0.7301 -0.8178 -0.3049
 9415SOL    HW139878   1.939   4.615   3.257  1.2317 -0.3700  0.8381
 9415SOL    HW239879   1.933   4.469   3.269 -1.6307  1.4620  2.0048
 9416SOL     OW39880   2.984   0.444  10.025 -0.0184  0.5679 -0.4843
 9416SOL    HW139881   3.028   0.516  10.072 -0.0715 -0.0240  0.4667
 9416SOL    HW239882   2.906   0.482   9.984  1.1034  2.0588 -1.2485
 9417SOL     OW39883   0.582   4.413  10.801  0.1214  0.1386 -0.1005
 9417SOL    HW139884   0.597   4.464  10.722 -1.2837 -0.5023 -0.7836
 9417SOL    HW239885   0.566   4.331  10.753  0.1473 -0.0169  0.1565
 9418SOL     OW39886   2.800   1.047   3.128  0.3962  0.4597  0.0303
 9418SOL    HW139887   2.830   1.137   3.124  0.8011  0.3574  0.8936
 9418SOL    HW239888   2.847   1.005   3.056  1.0218  0.8294  0.2287
 9419SOL     OW39889   2.993   1.467   5.814  0.1861  0.1575  0.3784
 9419SOL    HW139890   3.022   1.541   5.868  0.4359  0.4400 -0.1432
 9419SOL    HW239891   3.072   1.442   5.766 -0.7518 -1.3540 -0.3434
 9420SOL     OW39892   2.341   1.064   2.519  0.0692 -0.1302 -0.4272
 9420SOL    HW139893   2.400   1.111   2.577  2.3535 -0.7550 -2.2535
 9420SOL    HW239894   2.305   0.990   2.568  1.6890 -0.6069  0.0250
 9421SOL     OW39895   4.158   4.360  14.673 -0.1134 -0.1054 -0.0430
 9421SOL    HW139896   4.131   4.278  14.633 -0.4210 -0.1291  0.2108
 9421SOL    HW239897   4.137   4.419  14.600  0.6834 -1.5840 -1.4672
 9422SOL     OW39898   3.116   1.180   3.285  0.5500  0.5691 -0.1339
 9422SOL    HW139899   3.182   1.110   3.281 -1.4047 -1.2905  0.2444
 9422SOL    HW239900   3.110   1.180   3.381  0.9884  2.0706 -0.1036
 9423SOL     OW39901   2.014   2.748   2.329  0.2401  0.2049 -0.8397
 9423SOL    HW139902   2.029   2.686   2.258 -1.4834 -1.6990  0.4689
 9423SOL    HW239903   1.945   2.800   2.287  1.8299  2.6405 -0.4172
 9424SOL     OW39904   3.099   3.706   3.603  0.2543 -0.5225  0.3880
 9424SOL    HW139905   3.097   3.794   3.639 -3.1656 -1.0927  1.5866
 9424SOL    HW239906   3.193   3.694   3.592  0.3946  1.4533 -0.5067
 9425SOL     OW39907   4.558   0.702  12.216  0.3992 -0.6124 -0.0214
 9425SOL    HW139908   4.480   0.649  12.198  0.5888 -0.2542 -1.8739
 9425SOL    HW239909   4.544   0.779  12.161  0.4602 -0.7253 -0.1934
 9426SOL     OW39910   3.350   2.858  17.174  0.3683  0.3603 -0.6297
 9426SOL    HW139911   3.418   2.926  17.173 -0.2990  1.0384  2.4468
 9426SOL    HW239912   3.403   2.779  17.162  0.3404  0.1407  0.7203
 9427SOL     OW39913   0.864   1.504   6.376  0.3334  0.6430  0.7791
 9427SOL    HW139914   0.816   1.487   6.295  0.7206  0.8845  0.4983
 9427SOL    HW239915   0.850   1.599   6.385 -1.1167  0.7386 -2.4581
 9428SOL     OW39916   2.208   2.608   5.514  0.0365 -0.4415 -0.5602
 9428SOL    HW139917   2.229   2.612   5.421 -0.5095  1.9019 -0.5781
 9428SOL    HW239918   2.225   2.702   5.529  0.5757 -0.2919 -2.0962
 9429SOL     OW39919   3.556   1.567  15.969 -0.6364  0.5382  0.2913
 9429SOL    HW139920   3.556   1.497  15.904  1.1680 -1.4178  2.3656
 9429SOL    HW239921   3.527   1.641  15.916 -2.6042 -1.3490 -1.2750
 9430SOL     OW39922   3.178   0.493   2.205 -0.5860 -0.6009  0.3023
 9430SOL    HW139923   3.205   0.584   2.193  1.3387 -1.2250 -0.1567
 9430SOL    HW239924   3.101   0.494   2.261 -1.3326  2.1970 -0.7805
 9431SOL     OW39925   3.545   2.295   2.490  0.3748 -0.5018  0.0454
 9431SOL    HW139926   3.509   2.212   2.458  1.6895 -0.6740 -0.9684
 9431SOL    HW239927   3.630   2.277   2.530  0.7895 -0.8742 -1.0033
 9432SOL     OW39928   2.086   0.518   4.506 -0.1419 -0.3439  0.1363
 9432SOL    HW139929   2.166   0.498   4.554 -0.0574  1.1197  0.6008
 9432SOL    HW239930   2.025   0.487   4.573 -1.1249  0.4130 -0.4068
 9433SOL     OW39931   1.354   2.112   5.024 -0.0750  0.1568 -0.0007
 9433SOL    HW139932   1.268   2.096   5.064  0.1333 -0.8187  0.0437
 9433SOL    HW239933   1.382   2.189   5.073  0.9748 -0.3558  0.1989
 9434SOL     OW39934   3.362   3.421  16.189 -0.1958 -0.9710 -0.4094
 9434SOL    HW139935   3.327   3.366  16.260  0.6086 -0.8935  0.0515
 9434SOL    HW239936   3.280   3.451  16.150 -0.4867  0.9247  1.6501
 9435SOL     OW39937   0.005   2.386   5.807 -0.0823 -0.4030  0.0168
 9435SOL    HW139938   4.731   2.400   5.713  0.9377  0.2903 -0.0431
 9435SOL    HW239939   0.048   2.467   5.831  0.5912  0.3299 -3.5993
 9436SOL     OW39940   3.107   2.580   4.231  0.7976 -0.2381 -0.3966
 9436SOL    HW139941   3.028   2.622   4.196 -1.5224 -4.2582  0.1515
 9436SOL    HW239942   3.078   2.491   4.249  1.6599 -0.6318 -0.9722
 9437SOL     OW39943   1.662   2.328   6.111 -0.1719 -0.4257 -0.6460
 9437SOL    HW139944   1.577   2.311   6.153 -0.7815  0.4432 -1.5269
 9437SOL    HW239945   1.713   2.356   6.187  2.6845  1.9370 -3.4692
 9438SOL     OW39946   0.776   4.122  10.106 -0.2966  0.2827 -0.3938
 9438SOL    HW139947   0.857   4.167  10.084  0.8964 -1.3216  0.7775
 9438SOL    HW239948   0.745   4.094  10.019  0.9789  0.4545 -0.8944
 9439SOL     OW39949   4.227   1.678   6.222  0.1887 -0.4148 -0.0346
 9439SOL    HW139950   4.268   1.755   6.260  1.0383 -0.2475 -1.2858
 9439SOL    HW239951   4.185   1.717   6.145  0.2992  2.5492  1.4177
 9440SOL     OW39952   4.282   2.877  10.141 -0.4416  0.4018  0.0600
 9440SOL    HW139953   4.316   2.792  10.114  1.0328  1.3819 -1.1243
 9440SOL    HW239954   4.245   2.907  10.058  0.8403  0.1518 -0.5874
 9441SOL     OW39955   3.376   2.491   7.774 -0.6095  0.1891 -0.2389
 9441SOL    HW139956   3.362   2.575   7.731 -1.2781 -0.3621 -1.0794
 9441SOL    HW239957   3.337   2.433   7.709  0.9565  0.0849 -1.0791
 9442SOL     OW39958   2.668   2.897   8.790 -0.2380  0.3060 -0.6502
 9442SOL    HW139959   2.612   2.926   8.718 -0.6887  2.1792  0.4603
 9442SOL    HW239960   2.611   2.834   8.834 -0.6552  0.0969 -1.4881
 9443SOL     OW39961   2.705   0.565  11.195 -0.6470 -0.1524 -0.4841
 9443SOL    HW139962   2.646   0.529  11.128 -1.4122  0.1436  0.0333
 9443SOL    HW239963   2.750   0.490  11.235 -0.7697  0.1991  0.3029
 9444SOL     OW39964   1.650   0.610   5.709  0.1451 -0.0409  0.6672
 9444SOL    HW139965   1.588   0.616   5.636  0.3984  1.1804  0.5585
 9444SOL    HW239966   1.589   0.588   5.780 -0.8757  1.2264  0.1827
 9445SOL     OW39967   2.625   2.161   9.661 -0.1193 -0.9916  0.0647
 9445SOL    HW139968   2.625   2.236   9.720  1.4624  0.0459 -1.2654
 9445SOL    HW239969   2.532   2.140   9.651  0.0899 -1.8744 -0.0152
 9446SOL     OW39970   4.282   4.660  16.704  0.2921 -0.2068 -0.3080
 9446SOL    HW139971   4.323   4.584  16.744  0.4652 -0.9025 -1.8244
 9446SOL    HW239972   4.228   4.697  16.774  1.6225 -0.9193  1.0963
 9447SOL     OW39973   2.823   0.097   7.060 -0.0128 -0.0788  0.9709
 9447SOL    HW139974   2.853   0.134   6.977 -2.7011  1.5289  0.7114
 9447SOL    HW239975   2.818   0.004   7.037 -0.4707  0.5525 -1.4888
 9448SOL     OW39976   0.728   0.583   1.501 -0.0085 -0.5857 -0.4155
 9448SOL    HW139977   0.641   0.557   1.472  0.2566 -2.9082  0.8724
 9448SOL    HW239978   0.735   0.666   1.453  2.5537 -0.3000  0.4587
 9449SOL     OW39979   1.989   2.727   7.930  0.1810  0.6877 -0.7575
 9449SOL    HW139980   2.067   2.772   7.899  0.7493 -0.5289 -1.0949
 9449SOL    HW239981   2.018   2.641   7.961 -2.1316  0.9139  2.1140
 9450SOL     OW39982   2.437   4.445  14.301 -0.5099 -0.4169  0.1733
 9450SOL    HW139983   2.351   4.443  14.258 -1.7419  1.0576  2.5533
 9450SOL    HW239984   2.479   4.374  14.253 -0.3329 -0.8909  1.0170
 9451SOL     OW39985   1.861   0.782   3.292  0.0469 -0.4025  0.0118
 9451SOL    HW139986   1.909   0.745   3.218  0.6267  1.1924 -0.3921
 9451SOL    HW239987   1.918   0.850   3.326 -0.7629 -0.1250  0.8452
 9452SOL     OW39988   2.747   0.972   3.567  0.1576  0.0880  0.4410
 9452SOL    HW139989   2.840   0.979   3.588  1.0149 -0.2557 -3.0838
 9452SOL    HW239990   2.752   0.939   3.477 -2.2949 -2.0945  1.1387
 9453SOL     OW39991   3.066   3.918   7.388 -0.3679 -0.0160 -0.4910
 9453SOL    HW139992   3.048   3.997   7.439 -2.4974 -1.8950  1.6296
 9453SOL    HW239993   3.083   3.949   7.298  1.5318 -1.0028 -0.4899
 9454SOL     OW39994   3.939   1.365   3.768  0.1148  0.0421 -0.0964
 9454SOL    HW139995   3.845   1.382   3.779  0.5281  1.6319  0.8517
 9454SOL    HW239996   3.977   1.430   3.710  2.2750 -1.2110 -0.0983
 9455SOL     OW39997   1.482   2.619   8.108  0.6235 -0.0794 -0.3208
 9455SOL    HW139998   1.434   2.603   8.027 -1.2309 -1.5022  1.0603
 9455SOL    HW239999   1.560   2.663   8.075 -0.4805  2.3277  0.2555
 9456SOL     OW40000   4.186   4.180   8.093 -0.3821 -0.1563 -0.6503
 9456SOL    HW140001   4.149   4.100   8.131 -0.9912  0.5602  0.2551
 9456SOL    HW240002   4.197   4.227   8.176 -0.7644 -0.3478 -0.4892
 9457SOL     OW40003   4.275   3.535   8.172 -0.3197 -0.4165  0.1552
 9457SOL    HW140004   4.312   3.448   8.185  1.4549  0.1958 -0.8451
 9457SOL    HW240005   4.184   3.511   8.192 -0.9246  1.9601  0.2813
 9458SOL     OW40006   4.546   3.063  14.615 -0.8618  0.7399 -0.7931
 9458SOL    HW140007   4.513   3.117  14.686 -0.0364 -0.6991  0.6751
 9458SOL    HW240008   4.638   3.050  14.639 -1.1234 -0.8407 -0.6001
 9459SOL     OW40009   2.441   2.400   2.908 -0.2508 -0.1673 -0.2822
 9459SOL    HW140010   2.500   2.442   2.971 -0.8888  0.7405 -0.2857
 9459SOL    HW240011   2.453   2.452   2.828 -0.0320  2.3994  1.3885
 9460SOL     OW40012   0.504   0.630   4.953 -0.1033  0.2273 -0.5261
 9460SOL    HW140013   0.437   0.699   4.960 -0.3675 -0.2770  2.0344
 9460SOL    HW240014   0.562   0.668   5.019  0.7348  1.2799 -1.8698
 9461SOL     OW40015   0.288   1.875  13.437 -0.4750  0.1123 -0.5811
 9461SOL    HW140016   0.198   1.890  13.465  0.6817 -0.5537  3.4806
 9461SOL    HW240017   0.286   1.825  13.355 -0.2524  0.5081 -0.8296
 9462SOL     OW40018   0.789   1.920   0.470 -0.0755 -0.1254  0.0756
 9462SOL    HW140019   0.805   1.990   0.406  2.1985 -0.5570  0.1560
 9462SOL    HW240020   0.760   1.976   0.542  2.7297 -0.3878  1.4263
 9463SOL     OW40021   1.982   2.376   7.601  0.1039 -0.5014  0.0355
 9463SOL    HW140022   2.031   2.350   7.522 -0.1763  1.3064 -0.7212
 9463SOL    HW240023   1.983   2.471   7.594  1.2781 -0.5347 -0.2122
 9464SOL     OW40024   3.761   1.709   4.024 -0.0091  0.0647  0.4192
 9464SOL    HW140025   3.764   1.751   3.938 -1.3921 -0.9167 -0.1110
 9464SOL    HW240026   3.855   1.693   4.026  0.0839  0.5704  0.0983
 9465SOL     OW40027   0.325   1.642   6.509  0.6364  0.3402 -0.0263
 9465SOL    HW140028   0.283   1.723   6.478  1.1603  0.1124 -1.3307
 9465SOL    HW240029   0.292   1.581   6.443  1.5551  0.6701 -0.7895
 9466SOL     OW40030   3.180   3.879  14.470  0.2300  0.7355 -0.0158
 9466SOL    HW140031   3.133   3.940  14.412 -2.1815  0.6006  1.7858
 9466SOL    HW240032   3.197   3.931  14.548 -0.5187 -0.9932  1.2886
 9467SOL     OW40033   0.825   1.441   6.650  0.0308 -0.3560  0.6620
 9467SOL    HW140034   0.880   1.482   6.583  0.5575  1.1623  2.0265
 9467SOL    HW240035   0.812   1.357   6.606  0.6069 -0.7790  1.2949
 9468SOL     OW40036   4.703   2.522   5.534  0.1013 -0.4644  0.5771
 9468SOL    HW140037   0.002   2.523   5.448 -1.4594 -0.6025 -0.1730
 9468SOL    HW240038   4.699   2.615   5.557  0.9592  0.0838 -1.5260
 9469SOL     OW40039   3.792   3.247   9.498  0.2577 -0.4027 -0.0719
 9469SOL    HW140040   3.760   3.200   9.421 -0.6668  0.0761  0.0215
 9469SOL    HW240041   3.885   3.226   9.507  0.0013 -1.5603 -0.0117
 9470SOL     OW40042   2.960   1.313   4.852  0.2561  0.4431 -0.6365
 9470SOL    HW140043   3.048   1.312   4.888  0.1838  0.2365 -0.4642
 9470SOL    HW240044   2.962   1.395   4.803 -1.0897  1.1204  0.4442
 9471SOL     OW40045   4.056   1.038  17.285  0.1415  0.3166 -0.3240
 9471SOL    HW140046   4.020   0.949  17.294  0.4511 -0.0616 -2.7240
 9471SOL    HW240047   4.061   1.044  17.189 -0.8934 -0.1864 -0.4122
 9472SOL     OW40048   3.041   3.415  11.420 -0.6832  0.3885  0.1521
 9472SOL    HW140049   2.980   3.404  11.348  0.6967 -3.3911 -0.4652
 9472SOL    HW240050   3.128   3.401  11.383 -0.7998 -1.2457  0.4615
 9473SOL     OW40051   4.392   0.132   8.686 -0.1602 -0.2697 -0.4868
 9473SOL    HW140052   4.401   0.074   8.610 -0.6333 -0.8621 -0.0903
 9473SOL    HW240053   4.433   0.212   8.654  0.6418 -1.3975 -2.2941
 9474SOL     OW40054   2.587   2.825  11.580  0.3049 -0.2972 -0.5205
 9474SOL    HW140055   2.601   2.813  11.486  0.8209 -2.5187 -0.1685
 9474SOL    HW240056   2.495   2.851  11.578  0.3138 -0.3341 -1.3730
 9475SOL     OW40057   2.025   3.939   9.325 -0.0167  0.6281  0.3451
 9475SOL    HW140058   2.067   4.015   9.367  1.7342  0.8439 -1.8198
 9475SOL    HW240059   2.023   3.887   9.406 -1.7247  0.4824  0.1999
 9476SOL     OW40060   2.797   4.246  13.706 -0.3516  0.1316  0.5813
 9476SOL    HW140061   2.774   4.290  13.788 -0.4660  0.1964  0.5126
 9476SOL    HW240062   2.745   4.298  13.645  3.5428  1.7848 -1.3095
 9477SOL     OW40063   0.894   2.619  11.240  0.0344  0.2060 -0.2731
 9477SOL    HW140064   0.804   2.629  11.270  0.4214  1.0714  0.6048
 9477SOL    HW240065   0.931   2.582  11.320 -1.1104 -0.0572  0.1287
 9478SOL     OW40066   0.071   0.386   6.293 -0.2236 -0.2760 -0.0925
 9478SOL    HW140067   0.022   0.354   6.218 -0.4841 -1.9785  0.8009
 9478SOL    HW240068   0.144   0.325   6.281  0.5903  0.5442  0.7164
 9479SOL     OW40069   0.985   2.023   3.019 -0.6951  0.7337  0.6262
 9479SOL    HW140070   0.897   1.987   3.029  0.1875 -1.7160 -0.3636
 9479SOL    HW240071   1.036   1.963   3.073 -0.4271  0.7498  0.3924
 9480SOL     OW40072   3.251   0.782   4.108  0.2240 -0.4082  0.0878
 9480SOL    HW140073   3.281   0.723   4.177  0.4380 -2.9822 -2.2294
 9480SOL    HW240074   3.324   0.771   4.048  2.2763  1.3333  2.2794
 9481SOL     OW40075   1.419   2.976   4.322  0.2574 -0.8781  0.0440
 9481SOL    HW140076   1.330   2.989   4.354  0.8465  2.4077  0.3833
 9481SOL    HW240077   1.438   2.884   4.340 -0.6306 -0.9989  0.3820
 9482SOL     OW40078   3.457   2.210   8.497  0.3812  0.2966  0.5226
 9482SOL    HW140079   3.388   2.271   8.523 -0.1421 -0.6276  1.2911
 9482SOL    HW240080   3.470   2.148   8.568  1.4643  0.0709  0.1245
 9483SOL     OW40081   2.564   3.027   4.647 -0.3981 -0.1413  0.4685
 9483SOL    HW140082   2.506   3.098   4.675 -0.5179  0.0096 -0.1509
 9483SOL    HW240083   2.645   3.078   4.651 -1.0167  0.8717  0.2518
 9484SOL     OW40084   0.627   0.060   5.620 -0.0806  0.6884 -0.0651
 9484SOL    HW140085   0.692   0.130   5.608  0.2745  0.5684  1.1872
 9484SOL    HW240086   0.668   4.733   5.672  1.1222  0.9898 -0.5996
 9485SOL     OW40087   2.472   0.353   7.558 -0.0347  0.3234  0.2585
 9485SOL    HW140088   2.562   0.357   7.526 -0.4953  0.7062 -0.9884
 9485SOL    HW240089   2.491   0.362   7.652 -0.2107  0.2847  0.2982
 9486SOL     OW40090   1.767   4.733   7.627 -0.1479 -0.5424  0.1530
 9486SOL    HW140091   1.808   4.650   7.651  2.7232  1.4280  2.1240
 9486SOL    HW240092   1.791   0.047   7.701 -0.5608 -0.1270 -0.0304
 9487SOL     OW40093   0.555   2.408  15.199  0.2094  0.0478  0.3760
 9487SOL    HW140094   0.588   2.495  15.222 -3.8297  1.5837  0.2848
 9487SOL    HW240095   0.603   2.341  15.248  2.3516  0.2407 -1.4629
 9488SOL     OW40096   3.378   0.301   2.182  0.3243 -0.5161 -0.3405
 9488SOL    HW140097   3.328   0.226   2.217 -0.7953  1.3395  2.0168
 9488SOL    HW240098   3.322   0.372   2.214 -0.5677 -0.8542 -1.1341
 9489SOL     OW40099   0.082   2.723   3.813  0.0617  0.2477 -0.5922
 9489SOL    HW140100   0.105   2.693   3.725  0.1196  0.8309 -0.7798
 9489SOL    HW240101   0.168   2.711   3.854 -0.7486 -0.5126  0.8698
 9490SOL     OW40102   4.460   4.298   5.162  0.4656 -0.4049  0.0936
 9490SOL    HW140103   4.479   4.359   5.234 -2.6818 -1.0701  1.4702
 9490SOL    HW240104   4.550   4.293   5.130  0.5070 -1.3083  0.3511
 9491SOL     OW40105   1.052   0.987   3.108  0.4083 -0.1664 -0.2124
 9491SOL    HW140106   1.010   1.044   3.043  0.3005 -1.4951 -1.3187
 9491SOL    HW240107   0.995   0.910   3.097  1.3784 -0.4327 -3.4037
 9492SOL     OW40108   2.057   2.066   5.752  0.4335  0.1247  0.1202
 9492SOL    HW140109   1.999   2.129   5.710  0.2524  0.6881  1.2366
 9492SOL    HW240110   2.021   1.989   5.707  0.4576  1.3909 -2.0426
 9493SOL     OW40111   3.387   3.306   4.224  0.1598 -0.6552  0.1434
 9493SOL    HW140112   3.361   3.271   4.309  1.4364  2.0364  1.6382
 9493SOL    HW240113   3.329   3.382   4.222  1.8638  0.6172 -1.0739
 9494SOL     OW40114   2.252   2.705   1.501  0.0973 -0.5731  0.0400
 9494SOL    HW140115   2.289   2.715   1.413 -0.6632  0.2898 -0.1856
 9494SOL    HW240116   2.306   2.631   1.528  1.5488  0.4812  0.0394
 9495SOL     OW40117   3.695   3.471   2.438  0.4863  0.0712  0.4898
 9495SOL    HW140118   3.617   3.497   2.486 -0.6394 -0.1115 -1.2471
 9495SOL    HW240119   3.650   3.406   2.384  0.2727  1.2452 -0.7428
 9496SOL     OW40120   1.409   1.071   4.773 -0.8007  0.5742 -0.3279
 9496SOL    HW140121   1.482   1.010   4.785 -1.4481 -0.0512  0.4680
 9496SOL    HW240122   1.376   1.046   4.687 -4.9866  2.6180  0.6610
 9497SOL     OW40123   2.863   4.186   6.788 -0.1396  0.9089 -0.0597
 9497SOL    HW140124   2.879   4.092   6.802  0.2253  1.1638  1.2053
 9497SOL    HW240125   2.793   4.181   6.722  1.7495  0.1671 -2.0204
 9498SOL     OW40126   4.576   3.272  14.239  0.2541  0.5229  0.3010
 9498SOL    HW140127   4.549   3.182  14.256  0.3463  0.3132 -0.7026
 9498SOL    HW240128   4.657   3.248  14.194  0.4934  0.5839  0.7013
 9499SOL     OW40129   2.154   2.364   9.290 -0.7387  0.0495  0.2692
 9499SOL    HW140130   2.163   2.459   9.280  1.8156 -0.3124 -0.8559
 9499SOL    HW240131   2.060   2.358   9.275 -0.2801 -0.3789 -2.4051
 9500SOL     OW40132   0.874   3.737   1.203 -0.0696  0.5395 -0.1612
 9500SOL    HW140133   0.942   3.674   1.225 -1.9605 -1.4368 -0.0132
 9500SOL    HW240134   0.906   3.818   1.243 -0.6174  0.2263  0.9222
 9501SOL     OW40135   3.515   2.660   6.517  0.4608 -0.0826 -0.0828
 9501SOL    HW140136   3.481   2.575   6.546 -1.6129  1.0488  0.8613
 9501SOL    HW240137   3.549   2.699   6.597  0.0230  0.1047  0.0141
 9502SOL     OW40138   1.439   1.045  13.133 -0.1642 -0.4136  0.0485
 9502SOL    HW140139   1.529   1.018  13.149  0.0275  1.6990  2.6265
 9502SOL    HW240140   1.388   0.970  13.163 -0.7718  1.4851  3.7690
 9503SOL     OW40141   1.166   4.653   7.571  0.3392  0.2213 -0.2758
 9503SOL    HW140142   1.098   4.586   7.560 -0.9267  1.5870 -0.6401
 9503SOL    HW240143   1.229   4.591   7.607 -0.5021 -1.5629 -1.8569
 9504SOL     OW40144   2.997   0.550   7.839  0.0714  0.1426 -0.5414
 9504SOL    HW140145   3.082   0.557   7.882 -0.6731  1.2235  0.7411
 9504SOL    HW240146   2.948   0.631   7.850  1.1695  0.8944 -1.1887
 9505SOL     OW40147   3.470   3.397   5.314 -0.9020  0.1768  0.4419
 9505SOL    HW140148   3.432   3.371   5.397  2.1216 -0.9362  1.4806
 9505SOL    HW240149   3.399   3.455   5.286 -1.5086 -0.0564  1.5197
 9506SOL     OW40150   2.211   4.452  14.128 -0.1466  0.7683 -0.4991
 9506SOL    HW140151   2.119   4.454  14.155 -0.6168  0.2500 -2.0471
 9506SOL    HW240152   2.198   4.494  14.042  2.0226  1.1972 -0.6248
 9507SOL     OW40153   0.665   0.536   3.558 -0.3748  0.0089 -0.1909
 9507SOL    HW140154   0.590   0.527   3.501 -1.6840 -0.6875  1.6365
 9507SOL    HW240155   0.706   0.607   3.509 -3.7692  1.1995 -1.2863
 9508SOL     OW40156   0.603   1.403   5.619 -0.1790  0.5698  0.0024
 9508SOL    HW140157   0.652   1.340   5.566 -2.0666 -0.8228 -0.0699
 9508SOL    HW240158   0.666   1.406   5.691  0.0034 -0.1175 -0.1219
 9509SOL     OW40159   3.567   0.889   9.288  0.3368  0.4853 -0.0102
 9509SOL    HW140160   3.496   0.949   9.312 -0.2130  0.2379 -1.0278
 9509SOL    HW240161   3.618   0.951   9.234  1.4892  0.7370  1.3642
 9510SOL     OW40162   2.188   3.644   5.683  0.0191 -0.2886  0.0329
 9510SOL    HW140163   2.201   3.686   5.598 -1.5199 -0.4878 -0.3044
 9510SOL    HW240164   2.093   3.653   5.689  0.0067 -1.1054  0.8972
 9511SOL     OW40165   4.184   0.860   9.173  0.2181  0.9845 -0.1763
 9511SOL    HW140166   4.199   0.839   9.081 -1.9044  0.6530 -0.4304
 9511SOL    HW240167   4.089   0.854   9.166  0.2609 -0.1081  0.1682
 9512SOL     OW40168   0.932   3.169   4.501 -0.1377  0.7378  0.0877
 9512SOL    HW140169   0.855   3.126   4.538  1.2176 -1.1130  0.7421
 9512SOL    HW240170   0.908   3.261   4.517 -2.0918  0.3449 -0.5308
 9513SOL     OW40171   4.646   4.401   3.853 -0.1133 -0.0165 -0.0800
 9513SOL    HW140172   4.585   4.372   3.785  2.2680 -2.4304 -1.1744
 9513SOL    HW240173   4.592   4.420   3.930 -1.4311  0.0507 -1.0166
 9514SOL     OW40174   4.447   2.582   8.826 -0.1449  1.1998  0.3825
 9514SOL    HW140175   4.371   2.638   8.837  0.6352  2.3577 -0.1483
 9514SOL    HW240176   4.507   2.647   8.788 -0.3321  1.1544  0.0132
 9515SOL     OW40177   1.111   3.720   1.534  0.1978 -0.4906  0.2481
 9515SOL    HW140178   1.145   3.725   1.623 -0.9964  1.8012  0.5841
 9515SOL    HW240179   1.033   3.775   1.547  0.4257  0.0045 -0.4883
 9516SOL     OW40180   3.450   4.059   4.861  0.2830 -0.6400  0.3982
 9516SOL    HW140181   3.426   4.096   4.946 -0.0602 -0.3430  0.1724
 9516SOL    HW240182   3.501   4.137   4.836 -0.2391  0.2993  2.2768
 9517SOL     OW40183   3.851   2.071   5.968  0.4220 -0.5558  0.0522
 9517SOL    HW140184   3.812   2.002   5.915 -0.6775  0.3929 -0.3682
 9517SOL    HW240185   3.785   2.140   5.975  0.1310 -0.5569 -2.7606
 9518SOL     OW40186   1.610   2.977   2.886  1.6437 -0.3002  0.1327
 9518SOL    HW140187   1.560   3.055   2.862  1.5293 -0.5441 -0.4179
 9518SOL    HW240188   1.680   3.020   2.936  1.4049 -2.5431  2.3939
 9519SOL     OW40189   2.197   0.088   1.435 -0.6476 -0.0709  0.4639
 9519SOL    HW140190   2.210   0.015   1.496 -2.0060 -3.8475 -3.7856
 9519SOL    HW240191   2.193   0.157   1.501  1.9138 -0.1747  0.7357
 9520SOL     OW40192   1.440   4.287  14.536  0.8257 -0.2623  0.1087
 9520SOL    HW140193   1.517   4.330  14.574  0.6851  0.1550 -0.0863
 9520SOL    HW240194   1.457   4.303  14.443  0.1351 -3.6453 -0.6047
 9521SOL     OW40195   0.025   4.432   1.819 -0.8485  0.5550  0.5592
 9521SOL    HW140196   0.055   4.517   1.852  0.0081  0.0407  1.0959
 9521SOL    HW240197   4.730   4.403   1.902 -1.2323  0.9432  0.5262
 9522SOL     OW40198   4.079   1.888   1.159 -0.0572 -0.1176 -0.0453
 9522SOL    HW140199   4.112   1.968   1.200 -2.0598  1.0915 -0.7933
 9522SOL    HW240200   4.140   1.880   1.086  0.9400 -1.2420  0.8864
 9523SOL     OW40201   0.795   3.747   5.271  0.7189 -0.3424 -0.0415
 9523SOL    HW140202   0.816   3.654   5.280 -2.7365 -1.3999 -2.4601
 9523SOL    HW240203   0.862   3.791   5.219  0.4986 -0.6807 -0.6137
 9524SOL     OW40204   3.216   3.031   5.250  0.1309 -0.7036 -0.0895
 9524SOL    HW140205   3.281   3.046   5.181 -2.2526  0.2894 -2.0912
 9524SOL    HW240206   3.189   2.943   5.225  1.4263 -1.7066  2.0935
 9525SOL     OW40207   1.814   4.368  13.976 -0.0754 -0.2101 -0.0216
 9525SOL    HW140208   1.764   4.287  13.968 -1.6834  0.8691 -0.9845
 9525SOL    HW240209   1.767   4.425  13.914 -0.2033 -0.5329 -0.2206
 9526SOL     OW40210   0.521   2.859   7.453 -0.2923 -0.0564 -0.1837
 9526SOL    HW140211   0.436   2.815   7.452 -0.9203  1.1561 -0.7448
 9526SOL    HW240212   0.582   2.792   7.422  0.2245  0.0666  0.5691
 9527SOL     OW40213   4.094   3.053   2.155 -0.3179 -0.1467  0.1644
 9527SOL    HW140214   4.129   2.999   2.226 -0.3851 -0.9238 -0.3960
 9527SOL    HW240215   4.005   3.074   2.183 -0.6806 -0.1437 -1.0071
 9528SOL     OW40216   1.375   1.582   8.894 -0.5491 -0.0724 -0.3613
 9528SOL    HW140217   1.325   1.607   8.972  2.9768  0.0375  1.9019
 9528SOL    HW240218   1.412   1.667   8.869 -0.2698  0.4124  1.6911
 9529SOL     OW40219   2.456   1.201   2.751  0.1940  0.4476  0.1192
 9529SOL    HW140220   2.365   1.226   2.767 -0.3459 -0.5326 -1.4780
 9529SOL    HW240221   2.494   1.284   2.778 -1.4230  1.0857  0.3848
 9530SOL     OW40222   4.160   0.909   2.092 -0.1353 -0.0537  0.5656
 9530SOL    HW140223   4.067   0.920   2.072 -0.8843  0.2445  4.2943
 9530SOL    HW240224   4.187   0.999   2.111 -2.4746  0.4785  1.3864
 9531SOL     OW40225   0.185   1.585   9.797 -0.7420  0.0029 -0.2701
 9531SOL    HW140226   0.230   1.532   9.731 -2.0723  0.5509 -1.5944
 9531SOL    HW240227   0.136   1.515   9.840  0.3878 -0.8977 -0.4523
 9532SOL     OW40228   3.821   3.791   9.993 -0.4984  0.3391  0.6072
 9532SOL    HW140229   3.844   3.776   9.901 -1.8417 -0.8406  0.4553
 9532SOL    HW240230   3.905   3.788  10.039 -1.6836  0.8340  2.8152
 9533SOL     OW40231   4.403   2.289   0.860 -0.0383 -0.4508  0.3990
 9533SOL    HW140232   4.364   2.297   0.773  0.4613 -0.3779  0.1822
 9533SOL    HW240233   4.451   2.207   0.850  0.4986 -0.1840  0.7238
 9534SOL     OW40234   2.044   2.745  12.064 -0.1054 -0.1878 -0.0516
 9534SOL    HW140235   2.075   2.726  12.152  0.5397  1.5146  0.0790
 9534SOL    HW240236   2.123   2.761  12.012  1.5324  1.9932  3.1459
 9535SOL     OW40237   3.309   4.429   2.088 -0.2508 -0.3528  0.3513
 9535SOL    HW140238   3.322   4.411   2.182  2.0443 -2.3554 -0.3463
 9535SOL    HW240239   3.217   4.456   2.087 -0.1823 -0.2739 -2.0324
 9536SOL     OW40240   0.164   1.028   9.615 -0.0066 -0.2327  0.2902
 9536SOL    HW140241   0.216   1.069   9.546  1.2836  1.3810  2.1857
 9536SOL    HW240242   0.080   1.021   9.570  1.3570  0.4609 -2.3787
 9537SOL     OW40243   0.724   3.202   8.373 -0.3611  0.0358  0.2178
 9537SOL    HW140244   0.635   3.176   8.396 -0.1113 -1.7496 -0.8313
 9537SOL    HW240245   0.759   3.199   8.462 -1.0157 -1.8231  0.4078
 9538SOL     OW40246   2.969   1.071   8.169  0.1618 -0.7737  0.7796
 9538SOL    HW140247   2.875   1.085   8.155 -0.0057 -0.1699  2.5920
 9538SOL    HW240248   3.004   1.158   8.147 -0.0456 -0.7636  0.4816
 9539SOL     OW40249   3.696   1.298   4.071  0.2112  0.3467  0.0252
 9539SOL    HW140250   3.691   1.232   4.140  1.8784 -0.2562 -0.4438
 9539SOL    HW240251   3.789   1.319   4.069 -0.0848  1.5918 -0.6762
 9540SOL     OW40252   4.237   2.736   5.832 -0.2433 -0.3530  0.1128
 9540SOL    HW140253   4.293   2.813   5.834  0.7914 -1.1285  0.6776
 9540SOL    HW240254   4.276   2.700   5.753  1.6169 -2.3968  1.9439
 9541SOL     OW40255   3.334   2.728   7.052 -0.2557 -0.6648 -0.4117
 9541SOL    HW140256   3.284   2.705   6.973  0.3203 -1.1911 -0.6244
 9541SOL    HW240257   3.285   2.806   7.077 -1.0153 -0.8988 -1.1586
 9542SOL     OW40258   2.613   0.510   5.565 -0.2395  0.2780  0.2118
 9542SOL    HW140259   2.552   0.436   5.565  0.2788 -0.1419  2.4675
 9542SOL    HW240260   2.566   0.559   5.631 -0.6733 -0.0315  0.1314
 9543SOL     OW40261   1.349   4.673   2.033  0.0173 -0.2105 -0.4845
 9543SOL    HW140262   1.313   4.643   2.117  0.5334  2.2388  0.6375
 9543SOL    HW240263   1.335   4.605   1.968  2.8741 -0.6042 -0.6995
 9544SOL     OW40264   3.155   0.016   1.459 -0.4396  0.3663  0.5031
 9544SOL    HW140265   3.184   0.099   1.422 -1.6808  0.7074  0.2888
 9544SOL    HW240266   3.157   4.706   1.379  1.6493 -1.8297  1.9603
 9545SOL     OW40267   2.587   0.086   2.352  0.5276  0.5178  0.0414
 9545SOL    HW140268   2.525   0.013   2.351  0.6802  0.3969 -0.3697
 9545SOL    HW240269   2.642   0.061   2.427  2.3940  0.5355 -1.3181
 9546SOL     OW40270   0.579   0.809   1.317 -0.2834  0.1381  0.3389
 9546SOL    HW140271   0.542   0.746   1.255 -1.8789 -0.0510  1.4941
 9546SOL    HW240272   0.509   0.835   1.376 -1.5406 -0.4369 -0.9127
 9547SOL     OW40273   2.193   0.029  17.366  0.3317 -0.3676  0.4492
 9547SOL    HW140274   2.195   0.017  17.271  1.0401 -0.7681  0.5070
 9547SOL    HW240275   2.282   0.060  17.383  0.0355  0.1457  1.0437
 9548SOL     OW40276   3.279   0.935   2.809  0.3744 -0.1672  0.0038
 9548SOL    HW140277   3.341   0.924   2.881 -0.8352 -0.5449  0.9733
 9548SOL    HW240278   3.333   1.000   2.763 -0.7039  0.7789  0.0584
 9549SOL     OW40279   1.546   1.640  15.778  0.2663  0.1189 -0.4046
 9549SOL    HW140280   1.472   1.660  15.721 -0.8537  0.9608  1.3828
 9549SOL    HW240281   1.621   1.692  15.749 -0.3889  1.8826  1.1018
 9550SOL     OW40282   2.100   4.621   2.062 -0.6976  0.3157  0.2094
 9550SOL    HW140283   2.103   4.716   2.059  1.1213  0.2209 -1.1243
 9550SOL    HW240284   2.006   4.614   2.078 -0.7602  1.9877  0.5100
 9551SOL     OW40285   0.904   0.060   6.211 -0.3779 -0.1892  0.2299
 9551SOL    HW140286   0.955   4.726   6.239  0.8921  0.0962 -1.2746
 9551SOL    HW240287   0.962   0.136   6.218 -0.8899  0.3397 -1.2480
 9552SOL     OW40288   0.697   0.944   3.650  0.0426  0.3785 -0.3682
 9552SOL    HW140289   0.762   0.985   3.593 -0.0551 -0.4499 -1.0700
 9552SOL    HW240290   0.617   0.986   3.619  1.3517  1.9163 -1.6734
 9553SOL     OW40291   3.874   1.810   2.645  0.1377  0.3108 -0.4295
 9553SOL    HW140292   3.789   1.855   2.654 -0.0516  0.0367 -0.8589
 9553SOL    HW240293   3.865   1.768   2.560 -0.8107 -0.7923  0.2264
 9554SOL     OW40294   3.475   2.396   3.670 -0.1519  0.2677 -0.3216
 9554SOL    HW140295   3.567   2.397   3.697  0.2270 -1.6536 -1.5551
 9554SOL    HW240296   3.427   2.362   3.746  0.3588 -1.0385 -0.5890
 9555SOL     OW40297   3.725   0.068   5.882 -1.0316 -0.1878 -0.2022
 9555SOL    HW140298   3.645   0.068   5.935  0.0229 -1.4745  1.3903
 9555SOL    HW240299   3.719   4.730   5.830  0.3421 -0.2403 -0.2612
 9556SOL     OW40300   0.060   3.226  14.095  0.3108  0.0956  0.0092
 9556SOL    HW140301   0.082   3.317  14.075  2.6768 -0.4673  0.1330
 9556SOL    HW240302   0.094   3.179  14.019 -1.9524 -1.8366  0.1856
 9557SOL     OW40303   0.880   3.304  11.614  0.1936 -0.2333 -0.4331
 9557SOL    HW140304   0.910   3.294  11.705 -1.0095 -2.1976 -0.2526
 9557SOL    HW240305   0.815   3.234  11.612  1.2405 -1.1827 -1.6307
 9558SOL     OW40306   2.011   0.075  14.256 -0.0633  0.0155  0.1283
 9558SOL    HW140307   2.102   0.046  14.268  0.5913  1.3575 -1.6239
 9558SOL    HW240308   1.983   0.004  14.199  0.7764 -0.1179 -0.1204
 9559SOL     OW40309   1.985   0.240   6.940  0.1414 -0.4706 -0.6994
 9559SOL    HW140310   1.904   0.270   6.899 -0.9760 -1.8938  0.4634
 9559SOL    HW240311   1.966   0.148   6.959 -0.7104 -0.0290  0.6056
 9560SOL     OW40312   1.814   0.427   3.677  0.4465  0.5763  0.1988
 9560SOL    HW140313   1.832   0.343   3.720  1.0689 -0.4390 -2.0629
 9560SOL    HW240314   1.850   0.485   3.744  0.7563 -2.3472  2.5836
 9561SOL     OW40315   1.465   1.665   2.146 -0.4480 -0.2012 -0.4966
 9561SOL    HW140316   1.552   1.627   2.139 -0.5896 -0.1850 -2.3645
 9561SOL    HW240317   1.490   1.752   2.178 -1.3332  0.7335 -2.3065
 9562SOL     OW40318   2.947   2.128   0.840  0.2772 -0.5482 -0.0868
 9562SOL    HW140319   2.992   2.208   0.866 -0.6150 -0.1037  0.1099
 9562SOL    HW240320   3.003   2.065   0.885 -0.1444 -0.5516  0.4290
 9563SOL     OW40321   4.535   1.667   1.393 -0.0673  0.1789  0.2629
 9563SOL    HW140322   4.505   1.617   1.317 -0.8235 -0.0670  0.7222
 9563SOL    HW240323   4.467   1.644   1.456  1.8346 -0.6678  1.9595
 9564SOL     OW40324   0.530   4.494  17.643  0.2764  0.0971  0.8573
 9564SOL    HW140325   0.447   4.452  17.661 -1.1483  1.7488 -1.7869
 9564SOL    HW240326   0.503   4.584  17.662  1.5835  1.3930 -3.4001
 9565SOL     OW40327   3.067   1.898  10.421 -0.1970 -0.1871 -0.2979
 9565SOL    HW140328   2.995   1.951  10.384 -0.4082  0.9686  1.8057
 9565SOL    HW240329   3.096   1.955  10.491  0.1294 -0.3505 -0.3029
 9566SOL     OW40330   3.353   2.138   7.614  0.2060  0.2919 -0.1436
 9566SOL    HW140331   3.328   2.224   7.579 -1.3123  0.8796  2.4186
 9566SOL    HW240332   3.447   2.141   7.594 -0.0235  0.1206 -1.3042
 9567SOL     OW40333   1.902   0.602   3.875 -0.2375  0.0644 -0.5061
 9567SOL    HW140334   1.880   0.695   3.882  1.0860  0.4016 -0.9787
 9567SOL    HW240335   1.853   0.577   3.954  1.2703 -2.6816 -0.4379
 9568SOL     OW40336   1.740   4.536   6.957 -0.1529 -0.4235 -0.1173
 9568SOL    HW140337   1.696   4.621   6.966  0.5732  0.1457 -1.8444
 9568SOL    HW240338   1.749   4.507   7.047  5.2292 -2.4083 -1.3110
 9569SOL     OW40339   0.025   2.842   4.593 -0.1205  0.4683 -0.8445
 9569SOL    HW140340   4.679   2.821   4.564  0.1559 -2.7407  0.6355
 9569SOL    HW240341   0.009   2.930   4.627 -0.5866 -0.3962  1.1478
 9570SOL     OW40342   2.806   0.750   7.805 -0.5936  0.4830  0.0542
 9570SOL    HW140343   2.827   0.719   7.717  1.3604  0.7850  0.4136
 9570SOL    HW240344   2.835   0.840   7.793  1.0318  0.1995  1.7434
 9571SOL     OW40345   2.066   4.672   8.196 -0.4503 -0.2694  0.3007
 9571SOL    HW140346   2.095   4.728   8.267  0.2581  1.6380 -1.4818
 9571SOL    HW240347   2.094   4.584   8.223  2.8661  1.4737  2.5443
   4.74205   4.74205  17.76528
