Membrane in water
40347
    1TMC1    C1    1   0.214   1.562  11.425  0.1368  0.0980 -0.0196
    1TMC1    C2    2   0.100   1.632  11.407  0.2343 -0.7622  0.4144
    1TMC1    C3    3   0.091   1.699  11.290 -0.4519 -0.0451 -0.9254
    1TMC1    C4    4   0.321   1.567  11.334 -0.0654 -0.6628 -0.1144
    1TMC1    C5    5   0.301   1.637  11.227  0.0045 -0.4941 -0.7160
    1TMC1    C6    6   0.188   1.706  11.192  0.3337 -0.3452  0.2909
    1TMC1     C    7   0.223   1.475  11.542  0.1449  0.6648 -0.0076
    1TMC1     O    8   0.116   1.439  11.592  0.0348  0.0953 -0.1890
    1TMC1     H    9   0.023   1.639  11.483 -0.1113 -1.3266  0.1099
    1TMC1    H1   10   0.414   1.514  11.346  1.5652  2.4329  0.8891
    1TMC1    H2   11   0.162   1.757  11.100  1.2260 -1.1746 -0.4171
    1TMC1    C7   12   0.397   1.612  11.123 -0.2105  0.1183 -0.3757
    1TMC1    C8   13   4.702   1.752  11.255 -0.1576 -0.3678 -0.4709
    1TMC1    O1   14   0.501   1.558  11.145 -0.1090  0.0607 -0.4774
    1TMC1    O2   15   4.682   1.852  11.187 -0.2226  0.1632 -0.4236
    1TMC1    O3   16   0.316   1.592  11.017  0.2325 -0.7717  0.2541
    1TMC1    H3   17   0.225   1.628  11.024 -0.2222 -1.7715 -0.4863
    1TMC1    O5   18   4.614   1.654  11.282  0.0707  0.0858 -0.9161
    1TMC1    H5   19   4.651   1.575  11.326 -1.6491 -0.6080 -0.7201
    2MPD2     C   20   0.524   1.144  11.758  0.0584  0.3703  0.2428
    2MPD2    C1   21   0.385   1.144  11.766 -0.0668  0.0629 -0.7250
    2MPD2    C2   22   0.320   1.254  11.707  0.1226  0.2398  0.5934
    2MPD2    C3   23   0.398   1.352  11.642 -0.0581 -0.3178 -0.5271
    2MPD2    C4   24   0.537   1.339  11.631  0.1618  0.6644 -0.8131
    2MPD2    C5   25   0.597   1.239  11.701 -0.1387  0.5547  0.4530
    2MPD2     H   26   0.213   1.267  11.722  0.0946 -1.3727  1.8647
    2MPD2    H1   27   0.595   1.413  11.578  1.3433  1.5375  1.7082
    2MPD2    H2   28   0.584   1.066  11.804 -3.1769 -1.2532  1.7220
    2MPD2    H3   29   0.705   1.236  11.697 -0.1949  0.6057 -1.1523
    2MPD2     N   30   0.353   1.458  11.569  0.1192 -0.8664  0.2457
    2MPD2    H5   31   0.425   1.504  11.514 -3.1186  1.0047 -2.4890
    2MPD2    N1   32   0.311   1.048  11.834 -0.5140  0.2471  0.6310
    2MPD2    H7   33   0.212   1.065  11.850 -0.3559 -1.2208  3.2747
    3TMC1    C1   34   4.034   2.155  11.027  0.5780 -0.5188  0.3075
    3TMC1    C2   35   4.121   2.261  11.030  0.2422  0.1218 -0.1648
    3TMC1    C3   36   4.157   2.318  10.911 -0.8440 -0.3639 -0.2978
    3TMC1    C4   37   3.999   2.095  10.910 -0.3105  0.1578  0.6049
    3TMC1    C5   38   4.047   2.151  10.798 -0.1197 -0.7691 -0.6416
    3TMC1    C6   39   4.121   2.263  10.794  0.3685 -0.5686 -0.3998
    3TMC1     C   40   3.980   2.099  11.154 -0.0723 -0.0642  0.1530
    3TMC1     O   41   3.915   1.997  11.149  0.0852 -0.4088 -0.5591
    3TMC1     H   42   4.160   2.299  11.124 -1.6161  1.8257 -0.0934
    3TMC1    H1   43   3.924   2.017  10.911  0.2415 -0.3261  2.5141
    3TMC1    H2   44   4.147   2.309  10.700  1.4533  0.5441  0.4488
    3TMC1    C7   45   4.032   2.081  10.673 -0.1118 -0.7355  0.1928
    3TMC1    C8   46   4.207   2.457  10.917  0.8700 -0.0519 -0.4080
    3TMC1    O1   47   3.935   2.007  10.647  0.5163  0.2510 -0.0060
    3TMC1    O2   48   4.207   2.516  11.023 -0.2946  0.1886 -0.3192
    3TMC1    O3   49   4.153   2.058  10.639  0.3056 -0.0728  0.4607
    3TMC1    H3   50   4.217   2.088  10.707 -0.1397 -1.3333  1.4397
    3TMC1    O5   51   4.271   2.499  10.808  0.0887  0.3346 -0.2917
    3TMC1    H5   52   4.291   2.432  10.739 -0.3488 -1.0015  0.8583
    4MPD2     C   53   3.940   2.065  11.670 -1.0099 -0.6404 -0.2631
    4MPD2    C1   54   3.965   2.196  11.638  0.5999  0.1951  0.3152
    4MPD2    C2   55   3.992   2.230  11.503  0.4539  0.1354 -0.0473
    4MPD2    C3   56   3.973   2.142  11.403 -0.5606 -0.9235  0.4204
    4MPD2    C4   57   3.943   2.008  11.435 -0.4981  0.5583  0.0408
    4MPD2    C5   58   3.928   1.968  11.566 -0.1881  0.6088  0.1584
    4MPD2     H   59   4.032   2.324  11.467 -0.3412 -0.1018 -1.5296
    4MPD2    H1   60   3.948   1.923  11.368  0.2903  1.7896 -1.4526
    4MPD2    H2   61   3.916   2.037  11.772  0.6651 -1.9999 -0.2524
    4MPD2    H3   62   3.918   1.863  11.592 -0.6872  0.1859 -1.6994
    4MPD2     N   63   4.000   2.182  11.264  0.5985 -0.7122 -0.1433
    4MPD2    H5   64   4.039   2.275  11.252 -0.4806 -0.3867 -1.0709
    4MPD2    N1   65   3.969   2.305  11.730  0.4521  0.0451  0.8682
    4MPD2    H7   66   3.994   2.392  11.685 -1.2974 -0.1136 -0.4182
    5TCq1    O1   67   4.157   4.690  10.933 -0.2454  0.2011 -0.6317
    5TCq1    C1   68   4.286   4.649  10.920 -0.0909 -0.7190 -0.6879
    5TCq1    O2   69   4.382   4.725  10.928 -0.0860  0.4954 -0.0999
    5TCq1    C2   70   4.297   4.500  10.923 -0.2363  0.4768 -0.8358
    5TCq1    C3   71   4.204   4.432  11.004  0.1646  0.1231 -0.6166
    5TCq1    C4   72   4.231   4.301  11.025  0.5152 -0.9305  0.5288
    5TCq1    C5   73   4.350   4.246  10.970  0.4189  0.0001 -0.1218
    5TCq1    C6   74   4.442   4.316  10.894 -0.5575  0.0018 -0.4062
    5TCq1    C7   75   4.415   4.446  10.874 -0.3032  0.1506 -0.1911
    5TCq1    C8   76   4.535   4.241  10.804  0.3185 -0.4203 -0.3075
    5TCq1    O4   77   4.566   4.120  10.820 -0.0549 -0.3788  0.6748
    5TCq1    C9   78   4.157   4.229  11.127 -0.0010  0.7142  0.3768
    5TCq1    O5   79   4.059   4.287  11.179  0.3496 -0.5568 -0.2368
    5TCq1    O6   80   4.225   4.149  11.194 -0.5757 -0.0982  0.4139
    5TCq1    H1   81   4.094   4.623  10.900  0.9609 -1.7100  0.9624
    5TCq1    H2   82   4.124   4.487  11.053  0.0472  1.1792 -1.9877
    5TCq1    H3   83   4.373   4.142  10.990  1.5638  0.9720  3.6332
    5TCq1    H4   84   4.474   4.516  10.816 -0.6542  0.0963 -0.6206
    6MPD2     C   85   4.658   4.367  10.482 -0.0276 -0.0398 -0.4804
    6MPD2    C1   86   4.637   4.272  10.581 -0.7867  0.7285  0.4255
    6MPD2    C2   87   4.700   4.147  10.563 -0.6982  0.5257 -0.0936
    6MPD2    C3   88   0.031   4.114  10.447 -0.1109 -0.2755 -0.9456
    6MPD2    C4   89   0.036   4.211  10.348 -0.5919 -0.1887 -0.6908
    6MPD2    C5   90   4.720   4.341  10.369  0.4987  0.0952  0.2141
    6MPD2     H   91   4.698   4.070  10.638 -1.6327  1.9961  1.3968
    6MPD2    H1   92   0.105   4.199  10.266 -1.2477 -1.2441 -1.0853
    6MPD2    H2   93   4.607   4.462  10.488 -0.2683 -0.1708 -0.4422
    6MPD2    H3   94   0.004   4.425  10.305 -0.5204  0.1836 -0.0365
    6MPD2     N   95   0.078   3.979  10.432  0.2238 -0.2078  0.5832
    6MPD2    H5   96   0.077   3.923  10.517  3.0370  1.4507  1.7155
    6MPD2    N1   97   4.564   4.318  10.694 -0.4844  0.0402  0.4934
    6MPD2    H7   98   4.530   4.412  10.678  0.0144  0.1837  0.2368
    7TCq1    O1   99   2.445   3.552  13.076  0.5720  0.1069  0.0722
    7TCq1    C1  100   2.550   3.540  12.989 -0.5047  0.3895  0.1389
    7TCq1    O2  101   2.655   3.594  13.006 -0.2453 -0.5288 -0.3661
    7TCq1    C2  102   2.536   3.397  12.974 -0.0140 -0.1362  0.7869
    7TCq1    C3  103   2.430   3.345  12.902  0.7348 -0.3885  0.2738
    7TCq1    C4  104   2.419   3.206  12.892  0.4799 -0.1453 -0.3228
    7TCq1    C5  105   2.508   3.126  12.967 -0.0859 -0.5260  0.8846
    7TCq1    C6  106   2.605   3.183  13.044 -0.2910  0.3035 -0.2906
    7TCq1    C7  107   2.622   3.321  13.051  0.0492  0.2798 -0.2755
    7TCq1    C8  108   2.642   3.111  13.160  0.1666  1.3551 -0.0200
    7TCq1    O4  109   2.642   2.991  13.155 -0.0864  0.5099  0.2183
    7TCq1    C9  110   2.308   3.141  12.824  0.3629  1.1500 -1.0351
    7TCq1    O5  111   2.300   3.017  12.841 -0.2411  0.5264  0.2130
    7TCq1    O6  112   2.250   3.207  12.734 -0.1254  0.2027 -0.1045
    7TCq1    H1  113   2.381   3.481  13.054 -0.4756  0.4358  1.9996
    7TCq1    H2  114   2.365   3.417  12.855 -1.0940 -0.6774  2.3573
    7TCq1    H3  115   2.478   3.023  12.982  0.6263 -0.6828  1.2107
    7TCq1    H4  116   2.709   3.359  13.103 -0.7348  0.5630  0.8119
    8MPD2     C  117   2.776   3.087  13.658  1.0563  0.3021 -0.4695
    8MPD2    C1  118   2.782   2.997  13.559 -0.1583 -0.6980 -0.1066
    8MPD2    C2  119   2.738   3.032  13.433 -0.4035  0.0168  0.5931
    8MPD2    C3  120   2.699   3.160  13.397  0.0578  0.7022 -0.7614
    8MPD2    C4  121   2.703   3.255  13.495  0.0661  0.7682  0.5024
    8MPD2    C5  122   2.742   3.216  13.623 -0.2210  0.3131 -0.5748
    8MPD2     H  123   2.730   2.957  13.356  1.4671 -0.8932  1.2729
    8MPD2    H1  124   2.682   3.360  13.476 -0.3614  0.6847  0.5156
    8MPD2    H2  125   2.808   3.067  13.760  0.1828  1.2947 -0.0075
    8MPD2    H3  126   2.723   3.289  13.700  0.2355 -0.7702  0.5599
    8MPD2     N  127   2.656   3.193  13.269  0.4764 -0.7143  0.0405
    8MPD2    H5  128   2.643   3.292  13.252 -0.7842 -1.0211 -0.7319
    8MPD2    N1  129   2.826   2.864  13.592  0.0833 -1.2454 -0.3800
    8MPD2    H7  130   2.862   2.844  13.685 -0.9978  0.0867  0.3358
    9TMC1    C1  131   0.103   2.098  10.891  0.1916 -0.7060 -0.1342
    9TMC1    C2  132   4.715   2.060  10.919  0.3265 -0.2035  0.0633
    9TMC1    C3  133   4.623   2.097  10.826  0.0977 -0.3032 -0.2025
    9TMC1    C4  134   0.150   2.169  10.783 -0.4843  0.3176  0.7077
    9TMC1    C5  135   0.055   2.192  10.684 -0.2224  0.2078 -0.1775
    9TMC1    C6  136   4.658   2.166  10.711  0.3579  0.3204  0.0745
    9TMC1     C  137   0.206   2.034  10.970 -0.0851 -0.0283 -0.1412
    9TMC1     O  138   0.307   2.006  10.908 -0.1386  0.1347  0.0238
    9TMC1     H  139   4.690   2.003  11.008  0.8221  2.5856  1.9942
    9TMC1    H1  140   0.255   2.191  10.768 -1.5502  2.4261 -3.6589
    9TMC1    H2  141   4.575   2.211  10.658 -0.2537  1.7678  2.2878
    9TMC1    C7  142   0.088   2.286  10.580  0.1558 -0.0475 -0.2388
    9TMC1    C8  143   4.480   2.102  10.861  0.2173 -0.1621 -0.3973
    9TMC1    O1  144   0.004   2.352  10.516  0.8498 -0.0963  0.2133
    9TMC1    O2  145   4.387   2.119  10.785 -0.0795 -0.6376  0.4036
    9TMC1    O3  146   0.218   2.268  10.544 -0.3897  0.5093  0.2629
    9TMC1    H3  147   0.277   2.211  10.598 -0.6427  1.2210  1.2855
    9TMC1    O5  148   4.482   2.164  10.982 -0.0542  0.1158 -0.2181
    9TMC1    H5  149   4.574   2.155  11.013  0.0620 -2.8873 -1.4649
   10MPD2     C  150   0.414   2.013  11.181  0.0061 -0.3869  0.2937
   10MPD2    C1  151   0.275   2.009  11.201  0.4583  0.0287  0.1820
   10MPD2    C2  152   0.226   1.999  11.331  0.1090 -0.2519  0.8814
   10MPD2    C3  153   0.313   1.981  11.434  0.2679  0.1531  0.4127
   10MPD2    C4  154   0.446   1.978  11.410  0.6195  0.2465  0.5081
   10MPD2    C5  155   0.496   1.985  11.285 -0.1378  0.2370  0.4198
   10MPD2     H  156   0.121   2.016  11.349 -0.0249 -0.8167  0.6225
   10MPD2    H1  157   0.519   1.947  11.484  3.1019  1.2424 -1.5621
   10MPD2    H2  158   0.456   2.039  11.085  1.3192  1.3473  1.3556
   10MPD2    H3  159   0.603   1.979  11.270 -0.0902 -0.5753  1.0889
   10MPD2     N  160   0.266   1.972  11.566  0.4403 -0.2286 -0.2484
   10MPD2    H5  161   0.338   1.963  11.637  0.6558  0.4814 -0.3814
   10MPD2    N1  162   0.178   2.034  11.104 -0.8032 -0.2249 -0.4876
   10MPD2    H7  163   0.081   2.050  11.129 -0.9550 -2.6202  0.4780
   11TCq1    O1  164   1.426   2.502  14.166 -1.0436  0.1205 -0.1599
   11TCq1    C1  165   1.453   2.472  14.298 -0.7046 -0.0424 -0.0597
   11TCq1    O2  166   1.552   2.475  14.366  0.3606  0.1859 -0.5290
   11TCq1    C2  167   1.325   2.410  14.355  0.2307  0.1241 -0.0236
   11TCq1    C3  168   1.341   2.325  14.459  0.1392 -0.3555 -0.6598
   11TCq1    C4  169   1.234   2.251  14.505 -0.4709 -0.3466 -0.2690
   11TCq1    C5  170   1.107   2.267  14.458  0.3287 -0.0684 -0.0140
   11TCq1    C6  171   1.098   2.346  14.348 -0.1979 -0.4741  0.1423
   11TCq1    C7  172   1.199   2.427  14.304  0.2458 -0.0828 -0.6741
   11TCq1    C8  173   0.981   2.342  14.256  0.3786  0.9000 -0.5608
   11TCq1    O4  174   0.972   2.439  14.183  0.3203 -0.2197  0.4328
   11TCq1    C9  175   1.249   2.144  14.603  0.4399 -0.0613  0.1619
   11TCq1    O5  176   1.157   2.065  14.629 -0.1175  0.2410 -0.3134
   11TCq1    O6  177   1.361   2.104  14.622 -0.2212 -0.1251 -0.5775
   11TCq1    H1  178   1.333   2.484  14.143 -0.5578 -0.1423 -1.9144
   11TCq1    H2  179   1.440   2.313  14.501  0.9636 -3.7059 -3.6041
   11TCq1    H3  180   1.028   2.205  14.499  1.2200 -0.1589  1.5657
   11TCq1    H4  181   1.185   2.497  14.222  0.9874  2.5550  1.4199
   12MPD2     C  182   0.717   2.328  14.127 -0.7737 -0.2304 -0.3471
   12MPD2    C1  183   0.776   2.220  14.195  0.5721  0.5988  0.1332
   12MPD2    C2  184   0.704   2.099  14.213 -1.1092  0.3852  0.3279
   12MPD2    C3  185   0.586   2.078  14.132 -0.3249 -0.5239  0.2601
   12MPD2    C4  186   0.523   2.192  14.089 -0.1863  0.2627  0.1894
   12MPD2    C5  187   0.589   2.309  14.087  0.1250  0.1120 -0.2077
   12MPD2     H  188   0.766   2.022  14.258 -0.9841 -0.5900 -1.4995
   12MPD2    H1  189   0.425   2.186  14.043  0.4562 -0.5438 -1.0864
   12MPD2    H2  190   0.754   2.430  14.124  0.0875 -0.5228  0.3583
   12MPD2    H3  191   0.534   2.390  14.040 -0.1956 -0.2629 -0.4728
   12MPD2     N  192   0.527   1.948  14.114 -0.5187  0.1502  0.2533
   12MPD2    H5  193   0.459   1.947  14.038 -1.2005  0.6908  0.8536
   12MPD2    N1  194   0.902   2.232  14.260  0.0941  0.0255 -0.1535
   12MPD2    H7  195   0.932   2.154  14.317 -0.1566  2.1184  2.8051
   13TCq1    O1  196   0.308   1.866  10.253 -0.3375  1.0117 -0.5596
   13TCq1    C1  197   0.236   1.923  10.353  0.7568  0.0237  0.3486
   13TCq1    O2  198   0.133   1.985  10.343 -0.2321 -0.2972 -0.3916
   13TCq1    C2  199   0.270   1.867  10.479 -0.3341 -0.1641 -0.3411
   13TCq1    C3  200   0.399   1.840  10.509  0.2050 -0.0362  0.5310
   13TCq1    C4  201   0.422   1.769  10.620 -0.2609 -0.0258 -0.2195
   13TCq1    C5  202   0.324   1.722  10.701  0.7603 -0.1913 -0.2268
   13TCq1    C6  203   0.197   1.760  10.665 -0.3308 -0.6222 -0.3188
   13TCq1    C7  204   0.166   1.838  10.559 -0.9171 -0.6957 -0.8294
   13TCq1    C8  205   0.090   1.742  10.760  0.1501 -0.7763  0.2051
   13TCq1    O4  206   0.117   1.726  10.880 -0.4731 -0.0860  0.1844
   13TCq1    C9  207   0.562   1.745  10.652  0.2542 -0.1637  0.3241
   13TCq1    O5  208   0.580   1.680  10.757  0.4792  0.2140  0.3747
   13TCq1    O6  209   0.652   1.819  10.600 -0.4172  0.0861 -0.4100
   13TCq1    H1  210   0.379   1.811  10.292 -0.0020  1.0399 -1.1282
   13TCq1    H2  211   0.487   1.877  10.458 -0.6088  1.3834  0.1765
   13TCq1    H3  212   0.344   1.673  10.796 -0.8400 -1.0932 -0.3545
   13TCq1    H4  213   0.066   1.870  10.529 -0.9026 -0.2175 -0.3639
   14MPD2     C  214   4.469   1.718  10.673  0.4574 -0.1002  0.7961
   14MPD2    C1  215   4.575   1.735  10.756  0.0740 -0.5317  0.3131
   14MPD2    C2  216   4.557   1.739  10.891  0.0167 -0.1239 -0.4672
   14MPD2    C3  217   4.429   1.754  10.940 -0.1181 -0.6845  0.0919
   14MPD2    C4  218   4.318   1.728  10.861  0.7216 -0.9224 -0.2509
   14MPD2    C5  219   4.345   1.710  10.725 -0.4289 -0.2761  0.5679
   14MPD2     H  220   4.643   1.746  10.956 -0.3340 -1.6048  0.1536
   14MPD2    H1  221   4.215   1.730  10.893  1.0112 -1.0384  0.6851
   14MPD2    H2  222   4.475   1.691  10.568  0.2009  3.2652 -0.0888
   14MPD2    H3  223   4.268   1.688  10.652  0.7327  0.5332 -0.9026
   14MPD2     N  224   4.413   1.786  11.079 -0.1230  0.0442  0.2548
   14MPD2    H5  225   4.500   1.795  11.130  0.5268  1.4281 -1.1169
   14MPD2    N1  226   4.705   1.733  10.699  0.1370  0.0615  0.2106
   14MPD2    H7  227   4.704   1.739  10.597 -0.4129 -0.4947  0.1847
   15TCq1    O1  228   3.132   1.065   2.167  0.4585  0.1596  0.1630
   15TCq1    C1  229   3.140   1.100   2.037 -0.3451 -0.7626  0.3529
   15TCq1    O2  230   3.249   1.110   1.982 -0.1087  0.0575 -0.1696
   15TCq1    C2  231   3.029   1.037   1.963 -1.0192 -0.1811  0.3653
   15TCq1    C3  232   2.906   1.045   2.013  0.9871 -0.2234  0.5285
   15TCq1    C4  233   2.806   0.972   1.949 -0.4676  0.3542  0.4551
   15TCq1    C5  234   2.831   0.902   1.832  0.0264  0.0102 -0.3245
   15TCq1    C6  235   2.960   0.912   1.781  0.4361 -0.3593  0.7354
   15TCq1    C7  236   3.062   0.977   1.843  0.4238  0.0522 -0.5222
   15TCq1    C8  237   2.987   0.854   1.656  0.9403 -0.0196 -0.1161
   15TCq1    O4  238   3.104   0.824   1.633  0.5153 -0.4626 -0.0091
   15TCq1    C9  239   2.673   0.969   2.001  0.2044 -0.2531  0.5905
   15TCq1    O5  240   2.590   0.913   1.923  0.0558  0.4246 -0.1784
   15TCq1    O6  241   2.638   1.046   2.099  0.2709 -0.3241  0.3015
   15TCq1    H1  242   3.042   1.028   2.182  0.2879  0.3111 -0.4917
   15TCq1    H2  243   2.889   1.082   2.114  2.2132  0.3959  0.5004
   15TCq1    H3  244   2.758   0.831   1.795  0.4345 -1.3525  1.4563
   15TCq1    H4  245   3.166   0.982   1.812  0.2808  1.7413 -0.7625
   16MPD2     C  246   2.734   0.717   1.414 -0.2287  0.5656  0.0539
   16MPD2    C1  247   2.864   0.736   1.475 -1.0434 -0.5713  0.5836
   16MPD2    C2  248   2.972   0.664   1.418  0.1711 -0.3647  0.3675
   16MPD2    C3  249   2.956   0.582   1.308  0.2116  0.1471 -0.5577
   16MPD2    C4  250   2.829   0.566   1.257  0.2062  0.0142 -0.1836
   16MPD2    C5  251   2.723   0.635   1.311 -0.3491  0.2937  0.0972
   16MPD2     H  252   3.070   0.681   1.461 -1.0938 -0.4371  3.3024
   16MPD2    H1  253   2.807   0.502   1.172 -2.1270  2.1621 -1.1870
   16MPD2    H2  254   2.648   0.768   1.457 -1.5108 -1.5410 -0.0048
   16MPD2    H3  255   2.622   0.623   1.275  0.6081 -1.5090 -1.9551
   16MPD2     N  256   3.071   0.520   1.251 -0.3273 -0.5502 -0.2696
   16MPD2    H5  257   3.161   0.529   1.297  0.1860  0.7549 -1.5494
   16MPD2    N1  258   2.874   0.820   1.585 -0.0880  0.2376  0.0519
   16MPD2    H7  259   2.786   0.860   1.617 -0.5381 -0.5864 -0.1557
   17TMC1    C1  260   3.897   1.021  10.326  0.1349 -0.0158  0.0528
   17TMC1    C2  261   3.941   0.933  10.420  0.1329  0.1080  0.1691
   17TMC1    C3  262   3.853   0.853  10.487 -0.5121 -0.2985  0.1679
   17TMC1    C4  263   3.762   1.037  10.300 -0.1488 -0.1283  0.3764
   17TMC1    C5  264   3.678   0.958  10.374  0.6668 -0.4850  0.2848
   17TMC1    C6  265   3.716   0.872  10.470  0.6938 -0.6423 -0.4775
   17TMC1     C  266   3.992   1.114  10.263  0.7203 -0.1233 -1.1284
   17TMC1     O  267   3.944   1.179  10.170 -0.0386 -0.0516  0.3358
   17TMC1     H  268   4.044   0.909  10.443  0.3662  1.4096  0.4409
   17TMC1    H1  269   3.714   1.117  10.245  0.0427  0.3996  0.9872
   17TMC1    H2  270   3.646   0.816  10.532  1.4447  0.5255  1.4388
   17TMC1    C7  271   3.534   0.951  10.355  0.1153  0.0935  0.2690
   17TMC1    C8  272   3.901   0.760  10.589 -0.7098 -0.0674  0.7282
   17TMC1    O1  273   3.453   0.947  10.445 -0.1809 -0.5838  0.1158
   17TMC1    O2  274   4.015   0.766  10.634  0.1660  0.1452 -0.4179
   17TMC1    O3  275   3.501   0.981  10.233  0.5953  0.5461  0.5909
   17TMC1    H3  276   3.573   0.978  10.167  0.7683 -1.0485  0.8642
   17TMC1    O5  277   3.821   0.650  10.587  0.4531 -0.5806 -0.1986
   17TMC1    H5  278   3.742   0.658  10.529 -1.7551 -4.0332  2.3412
   18MPD2     C  279   4.202   1.318  10.204 -0.3879  0.2845 -0.6835
   18MPD2    C1  280   4.195   1.250  10.323  1.0329  0.5376  0.0899
   18MPD2    C2  281   4.290   1.284  10.418  0.8292 -0.0704 -0.2990
   18MPD2    C3  282   4.384   1.380  10.394 -0.1482 -0.3119 -0.6270
   18MPD2    C4  283   4.372   1.464  10.286 -0.2431  0.2827 -0.6119
   18MPD2    C5  284   4.280   1.434  10.191  0.5247  0.0825  0.3336
   18MPD2     H  285   4.288   1.226  10.510 -1.3899 -1.3810 -1.1776
   18MPD2    H1  286   4.450   1.537  10.267 -1.2107  1.1105 -1.4045
   18MPD2    H2  287   4.132   1.302  10.122  0.2887 -0.6457 -1.0813
   18MPD2    H3  288   4.285   1.480  10.093  1.3657 -0.4303  0.1378
   18MPD2     N  289   4.497   1.402  10.482  0.0948 -0.7379  0.0527
   18MPD2    H5  290   4.564   1.473  10.452 -0.7754  0.5907  1.2465
   18MPD2    N1  291   4.105   1.149  10.347 -0.0132  0.0182  0.0965
   18MPD2    H7  292   4.115   1.098  10.433  0.2355  1.8098  1.1350
   19TMC2    C1  293   2.236   1.890  14.280 -0.6087  0.0045  0.5135
   19TMC2    C2  294   2.198   1.974  14.382  0.0011 -0.5651  0.1539
   19TMC2    C3  295   2.063   2.000  14.388  0.1707  0.1871  0.0444
   19TMC2    C4  296   2.154   1.838  14.183  0.1403  0.1009  0.1936
   19TMC2    C5  297   2.024   1.867  14.203  0.1922  0.0055  0.3358
   19TMC2    C6  298   1.972   1.943  14.299 -0.5217  0.2171 -0.5628
   19TMC2     C  299   2.362   1.811  14.297 -0.8066  0.6317 -0.3532
   19TMC2     O  300   2.405   1.746  14.204  0.4890 -0.4354 -0.2880
   19TMC2     H  301   2.257   2.008  14.466 -2.5149 -0.7195  1.9701
   19TMC2    H1  302   2.201   1.767  14.116  1.5982  1.0978  0.1491
   19TMC2    H2  303   1.865   1.944  14.315 -0.2412  1.4104  1.2134
   19TMC2    C7  304   1.934   1.784  14.124  0.6444  0.2771 -0.2079
   19TMC2    C8  305   2.015   2.107  14.468 -0.0239 -0.6179 -0.4108
   19TMC2    O1  306   1.971   1.674  14.084 -0.1852 -0.1159  0.3840
   19TMC2    O2  307   2.067   2.154  14.571 -0.4474 -0.5517 -0.0568
   19TMC2    O5  308   1.912   2.171  14.402  0.8553  0.4189 -0.2739
   19TMC2    H5  309   1.885   2.137  14.314  1.0954  0.2564 -0.2835
   20MPD2     C  310   2.615   1.677  14.386  0.1025 -0.2313  0.0892
   20MPD2    C1  311   2.533   1.752  14.468  0.3079  0.1910 -0.4118
   20MPD2    C2  312   2.565   1.767  14.602  0.0586 -0.5200 -0.4538
   20MPD2    C3  313   2.675   1.706  14.650  0.0834  0.7461 -0.4350
   20MPD2    C4  314   2.754   1.631  14.570  0.2293  0.0634 -0.0241
   20MPD2    C5  315   2.721   1.608  14.439 -0.7764  0.2956 -0.0702
   20MPD2     H  316   2.502   1.840  14.652  0.0583 -0.6819 -0.2170
   20MPD2    H1  317   2.845   1.586  14.606  0.7932  0.1352 -1.3508
   20MPD2    H2  318   2.599   1.653  14.282  0.4190  2.2118 -0.5406
   20MPD2    H3  319   2.789   1.559  14.371 -0.3953  0.2879  0.3206
   20MPD2     N  320   2.718   1.722  14.784 -0.8471 -0.2810  0.0597
   20MPD2    H5  321   2.790   1.658  14.818 -0.5707  1.0775  2.0469
   20MPD2    N1  322   2.416   1.815  14.426  0.3299 -0.1486 -0.2484
   20MPD2    H7  323   2.358   1.857  14.498 -1.5612 -0.8252 -1.3579
   21TMC2    C1  324   4.312   2.121  14.873  0.8903 -0.5140  0.3921
   21TMC2    C2  325   4.320   2.032  14.975 -0.5921 -0.3615 -0.3448
   21TMC2    C3  326   4.262   1.914  14.956 -0.2794 -0.2988  0.8237
   21TMC2    C4  327   4.230   2.100  14.761  0.3247 -0.3617  0.1992
   21TMC2    C5  328   4.182   1.974  14.744  0.0133  0.4270  0.1084
   21TMC2    C6  329   4.193   1.881  14.843 -0.3443  0.1194  0.9159
   21TMC2     C  330   4.447   2.156  14.843  0.4685 -0.2271  0.1977
   21TMC2     O  331   4.538   2.092  14.898  0.2051  0.2406  0.2338
   21TMC2     H  332   4.380   2.037  15.065  0.7318  0.7404 -1.2856
   21TMC2    H1  333   4.225   2.174  14.681  3.8431  0.9911  1.2328
   21TMC2    H2  334   4.147   1.785  14.824  1.6899 -0.3649 -1.5185
   21TMC2    C7  335   4.074   1.949  14.646 -0.3394 -1.1051  0.2387
   21TMC2    C8  336   4.333   1.801  15.013 -0.1728  0.3192  0.2522
   21TMC2    O1  337   4.070   1.834  14.606  0.2066  0.1629 -0.2301
   21TMC2    O2  338   4.279   1.690  15.023  0.4551 -0.0658  0.1354
   21TMC2    O5  339   4.462   1.825  14.984  0.2135  0.0871  0.3213
   21TMC2    H5  340   4.491   1.917  14.970 -1.9114  0.3688 -2.0867
   22MPD2     C  341   0.036   2.417  14.556 -0.3727  1.3311  1.3985
   22MPD2    C1  342   0.043   2.287  14.609  0.1758 -0.2771  0.2238
   22MPD2    C2  343   4.668   2.239  14.668 -1.0379  0.2477 -0.4788
   22MPD2    C3  344   4.571   2.323  14.700 -0.1692 -0.8262  0.7699
   22MPD2    C4  345   4.559   2.455  14.638 -0.2066 -0.9192 -0.2714
   22MPD2    C5  346   4.666   2.500  14.562 -0.8097 -0.2262  0.1808
   22MPD2     H  347   4.648   2.136  14.693  2.7582 -0.2818  0.4433
   22MPD2    H1  348   4.463   2.505  14.642  0.6157  0.5281  1.6112
   22MPD2    H2  349   0.121   2.457  14.503 -0.3514  0.9347  1.1332
   22MPD2    H3  350   4.674   2.600  14.520  0.8067 -0.6284 -0.4430
   22MPD2     N  351   4.454   2.272  14.767 -0.1613 -0.4367  0.0636
   22MPD2    H5  352   4.372   2.331  14.758  0.1515 -0.3845 -2.4254
   22MPD2    N1  353   0.135   2.184  14.578 -0.3152 -0.1871 -0.1617
   22MPD2    H7  354   0.118   2.092  14.616  1.7129 -0.4925  0.0157
   23TMC2    C1  355   0.980   3.144  14.148  0.5050 -0.4837  0.0888
   23TMC2    C2  356   1.041   3.210  14.046  1.0834 -0.4269  0.1731
   23TMC2    C3  357   0.974   3.228  13.929 -0.3377  0.2221 -0.9441
   23TMC2    C4  358   0.848   3.106  14.139 -0.2606  0.0226 -0.5059
   23TMC2    C5  359   0.786   3.116  14.016 -0.4011 -0.1370  0.2323
   23TMC2    C6  360   0.850   3.172  13.915  0.5054 -0.1855 -0.1590
   23TMC2     C  361   1.041   3.132  14.280  1.0182  0.2166  0.7790
   23TMC2     O  362   0.964   3.098  14.373 -0.8259  0.0252 -0.2833
   23TMC2     H  363   1.144   3.243  14.049  0.5449  1.3149 -0.8886
   23TMC2    H1  364   0.805   3.057  14.226  0.4650 -0.3903 -0.3777
   23TMC2    H2  365   0.797   3.182  13.821 -1.8916  0.0945  1.2196
   23TMC2    C7  366   0.644   3.093  14.000 -0.4978 -0.2285  0.4840
   23TMC2    C8  367   1.013   3.341  13.846  0.3214 -0.0599  0.4515
   23TMC2    O1  368   0.599   3.118  13.891 -0.0178  0.0322 -0.3026
   23TMC2    O2  369   1.060   3.441  13.899  0.1226 -0.4724  0.2901
   23TMC2    O5  370   1.001   3.330  13.712  0.2649 -0.3311 -0.8447
   23TMC2    H5  371   0.971   3.241  13.684 -2.2910  0.3841 -0.4266
   24MPD2     C  372   1.412   3.186  14.633 -0.0593 -0.3459 -0.0639
   24MPD2    C1  373   1.307   3.100  14.621  0.0661 -0.4371 -0.1444
   24MPD2    C2  374   1.212   3.110  14.515  0.0786  0.0216  0.1265
   24MPD2    C3  375   1.238   3.188  14.405  0.6235 -0.2005  0.1900
   24MPD2    C4  376   1.355   3.267  14.411  0.5497 -0.4217 -0.8206
   24MPD2    C5  377   1.436   3.264  14.520  0.4798  0.8525  0.1600
   24MPD2     H  378   1.122   3.049  14.518 -0.3421  0.7009  1.1885
   24MPD2    H1  379   1.375   3.327  14.323  3.6029  0.9870  0.8244
   24MPD2    H2  380   1.485   3.187  14.713  1.1747 -0.7282 -1.1944
   24MPD2    H3  381   1.519   3.332  14.510  2.5536 -1.6881  0.1306
   24MPD2     N  382   1.166   3.186  14.282  0.6179 -0.6947 -0.4119
   24MPD2    H5  383   1.205   3.231  14.200 -0.6549 -0.2805 -0.7941
   24MPD2    N1  384   1.278   3.012  14.728 -0.5306  0.3988  0.2170
   24MPD2    H7  385   1.187   2.969  14.737 -1.8640  2.8437 -1.6620
   25TMC2    C1  386   0.046   0.554  11.743 -0.0115 -0.1581 -0.1091
   25TMC2    C2  387   0.152   0.496  11.811 -0.2420 -0.0814 -0.3111
   25TMC2    C3  388   0.153   0.501  11.947 -0.0173  0.2177 -0.0471
   25TMC2    C4  389   4.679   0.611  11.808  0.7428  0.0120  0.1411
   25TMC2    C5  390   4.692   0.627  11.948 -0.7155  0.5401 -1.1329
   25TMC2    C6  391   0.061   0.570  12.015  0.0782 -0.4689 -0.3401
   25TMC2     C  392   0.031   0.512  11.606  0.2262  0.0614 -0.3319
   25TMC2     O  393   0.131   0.471  11.542 -0.4636 -0.2115 -0.2007
   25TMC2     H  394   0.220   0.433  11.755 -0.2011 -3.1242  3.1527
   25TMC2    H1  395   4.598   0.655  11.752  1.4273 -1.1073 -1.7127
   25TMC2    H2  396   0.072   0.578  12.123 -0.1211  2.2832 -0.5123
   25TMC2    C7  397   4.584   0.666  12.036  0.8008  0.1020 -0.0992
   25TMC2    C8  398   0.275   0.458  12.014  0.3972  0.1198  0.6468
   25TMC2    O1  399   4.603   0.643  12.154  0.2720 -0.0626  0.2466
   25TMC2    O2  400   0.321   0.519  12.112 -0.3171 -0.3759 -0.1845
   25TMC2    O5  401   0.332   0.351  11.964 -0.3398  0.3276  0.1178
   25TMC2    H5  402   0.272   0.302  11.903 -0.9460  0.1391  0.8672
   26MPD2     C  403   4.483   0.326  11.217  0.3727  0.3733 -0.8629
   26MPD2    C1  404   4.403   0.387  11.307  0.9916  0.2483 -0.4813
   26MPD2    C2  405   4.462   0.452  11.417  0.4796  0.6966  1.1570
   26MPD2    C3  406   4.595   0.442  11.443  0.7763  0.1267 -0.2679
   26MPD2    C4  407   4.675   0.366  11.361  0.5617  0.3514 -0.3250
   26MPD2    C5  408   4.618   0.312  11.246 -0.1343  0.1029  0.0308
   26MPD2     H  409   4.409   0.492  11.503 -2.3980  0.7569 -0.6364
   26MPD2    H1  410   0.044   0.359  11.371  0.3098 -2.9983  0.0186
   26MPD2    H2  411   4.446   0.255  11.144 -1.4130  0.7156 -0.3059
   26MPD2    H3  412   4.680   0.258  11.176 -0.1992 -1.2460  1.0087
   26MPD2     N  413   4.640   0.518  11.552  0.3865  0.2569 -0.3509
   26MPD2    H5  414   4.575   0.578  11.603 -1.3166 -0.5352 -1.5748
   26MPD2    N1  415   4.261   0.376  11.302  0.3631  0.1684  0.2871
   26MPD2    H7  416   4.230   0.314  11.227 -2.6770  1.8140  0.1995
   27TMC2    C1  417   3.530   2.596  12.353 -0.1337 -0.2649 -0.0121
   27TMC2    C2  418   3.470   2.657  12.248 -0.0951 -0.2297 -0.0625
   27TMC2    C3  419   3.534   2.764  12.197 -0.5572  0.0235 -0.1854
   27TMC2    C4  420   3.633   2.652  12.414 -0.7262 -0.5065 -0.0243
   27TMC2    C5  421   3.686   2.768  12.372 -0.2552 -0.1192  0.1640
   27TMC2    C6  422   3.645   2.822  12.255 -0.0866 -0.8006 -1.0374
   27TMC2     C  423   3.445   2.515  12.441  0.0361  0.7106 -0.2832
   27TMC2     O  424   3.506   2.435  12.512  0.3850  0.2342 -0.3410
   27TMC2     H  425   3.390   2.607  12.194 -1.5703  2.1721 -0.1173
   27TMC2    H1  426   3.646   2.629  12.519 -1.1422  1.9364  0.5760
   27TMC2    H2  427   3.694   2.913  12.220 -1.3001 -0.3048 -1.4426
   27TMC2    C7  428   3.689   2.868  12.476 -0.4615 -0.3015  0.2347
   27TMC2    C8  429   3.469   2.841  12.096  0.7641 -0.3072 -0.5604
   27TMC2    O1  430   3.735   2.840  12.583 -0.3208  0.4909  0.2014
   27TMC2    O2  431   3.350   2.827  12.077  0.3811  0.4110  0.1392
   27TMC2    O5  432   3.559   2.914  12.024  0.0646 -0.2857  0.6868
   27TMC2    H5  433   3.649   2.878  12.011  0.2314  0.8622 -1.3463
   28MPD2     C  434   3.049   2.481  12.748 -0.1941 -0.3877 -0.4098
   28MPD2    C1  435   3.063   2.607  12.715 -0.0046 -0.2694  0.2205
   28MPD2    C2  436   3.151   2.647  12.615  0.2369 -0.0170  0.5499
   28MPD2    C3  437   3.234   2.547  12.562  0.4744 -0.4372  0.0697
   28MPD2    C4  438   3.227   2.414  12.605 -0.0981 -0.2491  0.0277
   28MPD2    C5  439   3.130   2.386  12.691  0.5117  0.3259  0.1326
   28MPD2     H  440   3.165   2.751  12.588 -0.4987 -0.5515 -1.8931
   28MPD2    H1  441   3.286   2.338  12.556 -0.0005  0.8307 -1.5470
   28MPD2    H2  442   2.971   2.450  12.816  0.8031 -1.2819  0.3445
   28MPD2    H3  443   3.122   2.282  12.719  0.1944  0.1146 -0.7503
   28MPD2     N  444   3.332   2.584  12.463 -0.3211  0.7278 -0.7098
   28MPD2    H5  445   3.322   2.675  12.418 -0.6042  0.9467 -0.2100
   28MPD2    N1  446   2.976   2.699  12.775  0.5705  0.5528  0.6541
   28MPD2    H7  447   2.926   2.666  12.857  0.1665 -0.5059 -0.0167
   29TMC2    C1  448   3.659   0.460  14.624 -0.0552 -0.0355  0.1748
   29TMC2    C2  449   3.750   0.452  14.727  0.0287  0.1981 -0.0590
   29TMC2    C3  450   3.819   0.568  14.760 -0.4161  0.3738 -1.1454
   29TMC2    C4  451   3.631   0.585  14.564 -0.2819  0.1709 -0.2402
   29TMC2    C5  452   3.713   0.692  14.600 -0.3109 -0.0761 -0.3127
   29TMC2    C6  453   3.807   0.687  14.698  0.0769  0.0834  0.7386
   29TMC2     C  454   3.560   0.360  14.611 -0.3475 -0.1086  0.4011
   29TMC2     O  455   3.597   0.243  14.628  0.3987 -0.4917 -0.3559
   29TMC2     H  456   3.768   0.356  14.774 -2.5465 -0.2191  0.1069
   29TMC2    H1  457   3.558   0.605  14.487 -0.2484 -2.0234 -0.8518
   29TMC2    H2  458   3.857   0.771  14.745  0.6945 -1.9825  3.7648
   29TMC2    C7  459   3.713   0.792  14.500  0.3698  0.2894  0.3809
   29TMC2    C8  460   3.915   0.562  14.864 -0.3099 -0.0740  0.0971
   29TMC2    O1  461   3.619   0.792  14.422 -0.0396  0.0414  0.2549
   29TMC2    O2  462   3.950   0.662  14.927  0.7102  0.0136  0.2852
   29TMC2    O5  463   3.951   0.437  14.894  0.4663 -0.0619 -0.2991
   29TMC2    H5  464   3.917   0.374  14.827  0.0675  0.3170 -0.4617
   30MPD2     C  465   3.120   0.190  14.439  0.5882  0.4873 -0.3794
   30MPD2    C1  466   3.241   0.142  14.431  0.0675 -0.4499 -0.3817
   30MPD2    C2  467   3.343   0.213  14.482 -0.0729  0.3936  0.1180
   30MPD2    C3  468   3.322   0.338  14.532 -0.2275 -0.3463  0.6128
   30MPD2    C4  469   3.193   0.386  14.544 -0.6573 -0.7278  0.2259
   30MPD2    C5  470   3.088   0.315  14.493 -0.9031 -0.4504  0.2765
   30MPD2     H  471   3.440   0.165  14.477 -0.2343  0.2227 -1.2578
   30MPD2    H1  472   3.162   0.473  14.601  0.5333 -0.6398  0.7284
   30MPD2    H2  473   3.031   0.151  14.390  0.2242  1.4654 -0.5084
   30MPD2    H3  474   2.985   0.340  14.515 -0.0486  2.6013  0.8494
   30MPD2     N  475   3.435   0.413  14.582  0.7818  0.1231 -0.5414
   30MPD2    H5  476   3.425   0.508  14.615  0.4741 -0.0474 -0.1351
   30MPD2    N1  477   3.262   0.010  14.385 -0.4903 -0.0275 -0.6661
   30MPD2    H7  478   3.360   4.721  14.386 -0.4466  0.2022  0.9309
   31TMC2    C1  479   0.690   3.744  15.103  0.0781  0.5529 -0.1304
   31TMC2    C2  480   0.581   3.771  15.029  0.0846 -0.5839  0.1420
   31TMC2    C3  481   0.464   3.804  15.088  0.1149 -0.9920  0.0103
   31TMC2    C4  482   0.696   3.759  15.241 -0.1968 -0.2968  0.1638
   31TMC2    C5  483   0.580   3.793  15.297 -0.0874 -0.0348  0.5012
   31TMC2    C6  484   0.462   3.817  15.228  0.3772 -0.1339  0.9507
   31TMC2     C  485   0.808   3.756  15.024 -0.7387  0.6590 -0.1471
   31TMC2     O  486   0.804   3.800  14.911 -0.5193  0.7208 -0.4196
   31TMC2     H  487   0.573   3.762  14.921  1.2574 -1.6412  0.1525
   31TMC2    H1  488   0.794   3.770  15.286 -0.2208  1.6663 -0.2940
   31TMC2    H2  489   0.363   3.823  15.274 -0.8338  0.0069 -1.6867
   31TMC2    C7  490   0.574   3.795  15.448  1.0905  0.0567 -0.4645
   31TMC2    C8  491   0.343   3.774  15.016 -0.1055 -0.7499  0.2488
   31TMC2    O1  492   0.462   3.811  15.497 -0.6968  0.0269  0.0941
   31TMC2    O2  493   0.351   3.709  14.912 -0.2722 -0.1375  0.5527
   31TMC2    O5  494   0.227   3.834  15.057  0.1030  0.4017  0.1505
   31TMC2    H5  495   0.231   3.890  15.137 -0.5773 -2.0851  1.9453
   32MPD2     C  496   1.314   3.697  14.981  0.2068  0.4822 -0.0427
   32MPD2    C1  497   1.216   3.740  14.893  1.0199  0.6962  0.2834
   32MPD2    C2  498   1.081   3.730  14.928  0.1391 -0.2378  0.0385
   32MPD2    C3  499   1.039   3.679  15.047 -0.2829 -0.0999  0.2819
   32MPD2    C4  500   1.138   3.631  15.133  0.3762 -0.5657 -0.5801
   32MPD2    C5  501   1.275   3.647  15.103  0.4878  0.2565 -0.3697
   32MPD2     H  502   1.017   3.780  14.855  1.1755  1.1346  0.0764
   32MPD2    H1  503   1.111   3.590  15.230  0.0272 -3.1478 -1.7449
   32MPD2    H2  504   1.418   3.714  14.958  0.6955 -0.9628  1.0766
   32MPD2    H3  505   1.349   3.628  15.179 -0.7919 -1.1145  0.5433
   32MPD2     N  506   0.913   3.695  15.090  0.1388  0.3305 -0.6986
   32MPD2    H5  507   0.900   3.664  15.185 -0.6968  2.0414 -0.2466
   32MPD2    N1  508   1.264   3.818  14.784  0.1440  0.1406  0.1410
   32MPD2    H7  509   1.364   3.838  14.791 -0.0799  2.2876 -2.8411
   33TMC2    C1  510   0.764   1.813  10.217  0.2462  0.6143  0.1151
   33TMC2    C2  511   0.899   1.777  10.230  0.8550 -0.0619  0.3049
   33TMC2    C3  512   0.981   1.878  10.197  0.5033  0.3450  0.5904
   33TMC2    C4  513   0.718   1.940  10.193  0.2219 -0.4080 -0.3145
   33TMC2    C5  514   0.811   2.033  10.156  0.5095  0.0018  0.1773
   33TMC2    C6  515   0.944   1.997  10.156  0.0094 -0.6404 -0.0573
   33TMC2     C  516   0.663   1.719  10.262  0.7120 -0.2916  0.5709
   33TMC2     O  517   0.547   1.755  10.256 -0.9795  0.1618  0.3026
   33TMC2     H  518   0.938   1.680  10.258 -0.8648 -0.9993 -0.4903
   33TMC2    H1  519   0.611   1.951  10.194  0.2368 -0.2915 -0.0117
   33TMC2    H2  520   1.020   2.067  10.125 -1.4267  1.6765  1.7068
   33TMC2    C7  521   0.789   2.178  10.152  0.3604  0.2301  0.6281
   33TMC2    C8  522   1.119   1.864  10.225 -0.1043  0.3362 -0.0282
   33TMC2    O1  523   0.882   2.244  10.110  0.2880 -0.1407  0.3499
   33TMC2    O2  524   1.204   1.908  10.146 -0.0108 -0.6600 -0.2363
   33TMC2    O5  525   1.117   1.888  10.353  0.1713 -0.6003 -0.2568
   33TMC2    H5  526   1.040   1.852  10.401 -1.3097  3.7736  0.5759
   34MPD2     C  527   0.561   1.260  10.494  0.0212  0.9270  1.0986
   34MPD2    C1  528   0.479   1.370  10.482 -0.2200 -0.0751 -0.0828
   34MPD2    C2  529   0.524   1.480  10.416 -0.0749  1.3527  0.1723
   34MPD2    C3  530   0.652   1.481  10.354  0.3398 -0.2706  0.0423
   34MPD2    C4  531   0.733   1.374  10.366  0.6122  0.0156  0.3474
   34MPD2    C5  532   0.684   1.264  10.439  0.0214 -0.2242 -0.3276
   34MPD2     H  533   0.465   1.571  10.418 -1.7912  0.1145  4.3549
   34MPD2    H1  534   0.839   1.374  10.342  0.2197  1.3168 -1.4046
   34MPD2    H2  535   0.522   1.169  10.539 -0.3845  1.1736  1.2453
   34MPD2    H3  536   0.744   1.174  10.452  1.1624  0.4967 -0.5514
   34MPD2     N  537   0.712   1.593  10.282 -0.0490  0.2055  0.9825
   34MPD2    H5  538   0.804   1.570  10.245 -1.5409 -1.8964 -1.3746
   34MPD2    N1  539   0.356   1.371  10.553  0.1360  0.0998 -0.2468
   34MPD2    H7  540   0.346   1.300  10.625 -0.0354  1.1720  0.7877
   35TMC2    C1  541   1.526   2.808  11.237  0.1770 -0.3685  0.8681
   35TMC2    C2  542   1.487   2.758  11.114 -0.1451 -0.8503 -0.2603
   35TMC2    C3  543   1.361   2.716  11.102  0.0395  0.2240  0.1761
   35TMC2    C4  544   1.439   2.817  11.346  0.1494 -0.2889  0.0544
   35TMC2    C5  545   1.312   2.776  11.323 -0.0609  0.6459  1.1169
   35TMC2    C6  546   1.269   2.723  11.200 -0.4343 -0.5441 -0.2160
   35TMC2     C  547   1.649   2.885  11.231  0.0237  0.4654 -0.0807
   35TMC2     O  548   1.679   2.940  11.126 -0.7191 -0.0744  0.7579
   35TMC2     H  549   1.556   2.743  11.032  0.5888  0.6906  0.0636
   35TMC2    H1  550   1.470   2.860  11.440 -1.5760  0.7228  0.1624
   35TMC2    H2  551   1.173   2.677  11.184 -0.0438 -1.3358 -0.2741
   35TMC2    C7  552   1.241   2.733  11.444 -0.9751  0.1202  0.5030
   35TMC2    C8  553   1.325   2.645  10.977  0.3962 -0.6712 -0.2232
   35TMC2    O1  554   1.310   2.741  11.542  0.3718  0.5377  0.4969
   35TMC2    O2  555   1.210   2.626  10.950  0.3152 -0.3874  0.0413
   35TMC2    O5  556   1.428   2.551  10.959 -0.3798 -0.2620 -0.0078
   35TMC2    H5  557   1.510   2.556  11.013 -1.6440  0.1113  1.9020
   36MPD2     C  558   2.049   3.119  11.466  0.4779  0.1387  0.4444
   36MPD2    C1  559   2.013   3.009  11.536 -0.3624  0.2947  0.6377
   36MPD2    C2  560   1.905   2.933  11.497  0.0701 -0.6875 -0.2314
   36MPD2    C3  561   1.833   2.960  11.382 -0.3999  0.3745 -0.1100
   36MPD2    C4  562   1.878   3.064  11.299 -0.3114  0.0389  0.9908
   36MPD2    C5  563   1.977   3.146  11.350  0.2234  0.2500 -0.0725
   36MPD2     H  564   1.877   2.843  11.551 -0.0685  0.0394  0.9061
   36MPD2    H1  565   1.851   3.083  11.196  0.0882  1.7466  1.1999
   36MPD2    H2  566   2.126   3.188  11.498  0.8836  0.6163 -1.5361
   36MPD2    H3  567   2.017   3.233  11.298 -0.4985  0.0128 -1.0371
   36MPD2     N  568   1.717   2.886  11.350 -0.0598  0.0843  1.1174
   36MPD2    H5  569   1.686   2.824  11.424  1.4915 -1.9383  0.0545
   36MPD2    N1  570   2.088   2.981  11.652  0.2330  0.1427 -0.4032
   36MPD2    H7  571   2.154   3.048  11.689 -0.2977  0.8183 -0.6756
   37TMC2    C1  572   3.783   3.937  11.481  0.2340  0.2985  0.3083
   37TMC2    C2  573   3.734   4.035  11.394 -0.2940 -0.3778 -0.4728
   37TMC2    C3  574   3.814   4.072  11.295 -0.3130 -0.0725  0.2834
   37TMC2    C4  575   3.913   3.900  11.466 -0.4422  0.2698 -0.3454
   37TMC2    C5  576   3.996   3.944  11.364  0.6646  0.1331  0.1214
   37TMC2    C6  577   3.943   4.028  11.273 -0.1690 -0.5647 -0.2852
   37TMC2     C  578   3.688   3.857  11.559 -0.4216 -0.5586 -0.3165
   37TMC2     O  579   3.576   3.892  11.578  0.1985  0.2973 -0.8712
   37TMC2     H  580   3.632   4.072  11.387 -0.8568 -1.6829  0.7203
   37TMC2    H1  581   3.975   3.871  11.550 -2.2137 -0.7199  0.6204
   37TMC2    H2  582   3.985   4.038  11.173 -1.6813 -1.9501 -1.0513
   37TMC2    C7  583   4.089   3.841  11.330  0.7851 -0.0516 -0.1926
   37TMC2    C8  584   3.749   4.146  11.193  0.1341  0.1478  0.2764
   37TMC2    O1  585   4.072   3.735  11.385 -0.0561  0.6913 -0.1444
   37TMC2    O2  586   3.630   4.127  11.160 -0.5170  0.3342  0.4298
   37TMC2    O5  587   3.840   4.198  11.105 -0.3744 -0.2708 -0.6719
   37TMC2    H5  588   3.919   4.229  11.153 -0.8709 -0.8910  0.5436
   38MPD2     C  589   3.607   3.411  11.806 -0.1596  0.0816 -0.9207
   38MPD2    C1  590   3.742   3.422  11.779  0.6595 -0.0945  0.4461
   38MPD2    C2  591   3.788   3.533  11.709 -0.1332 -0.4429  0.4782
   38MPD2    C3  592   3.702   3.629  11.665 -0.4309  0.4988  0.4412
   38MPD2    C4  593   3.571   3.621  11.708  0.0377 -0.1147 -0.7578
   38MPD2    C5  594   3.527   3.511  11.773 -0.0915  0.0791  0.0889
   38MPD2     H  595   3.892   3.538  11.680  0.0218 -0.2130  1.0692
   38MPD2    H1  596   3.503   3.705  11.716  0.2733 -0.1386  1.3598
   38MPD2    H2  597   3.568   3.331  11.868 -2.3603  2.0139  0.1864
   38MPD2    H3  598   3.423   3.500  11.802 -0.5782  1.6688 -1.0374
   38MPD2     N  599   3.754   3.741  11.594 -0.1961 -0.2566  0.0129
   38MPD2    H5  600   3.849   3.734  11.559 -0.3965 -1.0091 -0.3957
   38MPD2    N1  601   3.827   3.320  11.826  0.0435 -0.0474  0.0677
   38MPD2    H7  602   3.922   3.330  11.793  0.4593 -2.3256  0.5377
   39TMC2    C1  603   3.445   0.627   1.536  0.5382 -0.7692 -0.2689
   39TMC2    C2  604   3.369   0.734   1.514 -0.0405  0.7849  0.3259
   39TMC2    C3  605   3.418   0.856   1.539  0.0276  0.1743 -0.4829
   39TMC2    C4  606   3.569   0.638   1.596 -0.2700 -0.5581  0.5607
   39TMC2    C5  607   3.617   0.766   1.613  1.5385 -0.3171  0.2093
   39TMC2    C6  608   3.546   0.875   1.583  0.5239 -0.5345 -0.0907
   39TMC2     C  609   3.395   0.501   1.478  0.1687 -0.2944  0.0218
   39TMC2     O  610   3.273   0.495   1.467 -0.2761  0.7469 -1.2027
   39TMC2     H  611   3.278   0.716   1.458 -0.2749  1.5733  0.4421
   39TMC2    H1  612   3.630   0.549   1.609  0.5242 -0.1973 -0.6270
   39TMC2    H2  613   3.592   0.973   1.577  2.4650 -1.3628  0.9471
   39TMC2    C7  614   3.750   0.776   1.664  0.4971 -0.4914 -0.6023
   39TMC2    C8  615   3.350   0.974   1.479 -0.1127  0.1403 -0.5865
   39TMC2    O1  616   3.824   0.682   1.652 -0.6648 -0.0477 -0.1010
   39TMC2    O2  617   3.292   0.969   1.373  0.0456 -1.3805 -0.2328
   39TMC2    O5  618   3.374   1.083   1.548 -0.8387 -0.0686 -0.0682
   39TMC2    H5  619   3.426   1.067   1.630 -0.3178  1.2279 -0.1452
   40MPD2     C  620   3.580   0.242   1.285  0.0611 -0.4775  0.5015
   40MPD2    C1  621   3.477   0.299   1.352 -0.0885  0.1328 -0.5360
   40MPD2    C2  622   3.348   0.244   1.330 -0.3739  0.1687  0.8966
   40MPD2    C3  623   3.321   0.160   1.221 -0.2563 -0.4934 -0.3211
   40MPD2    C4  624   3.427   0.113   1.155  0.2907 -0.4284 -0.3691
   40MPD2    C5  625   3.552   0.138   1.194 -0.0935 -0.7887 -0.9867
   40MPD2     H  626   3.262   0.291   1.375 -0.8003  3.2509 -3.0876
   40MPD2    H1  627   3.413   0.033   1.084 -1.7039  0.0474 -0.5240
   40MPD2    H2  628   3.686   0.261   1.298  0.4309 -1.8206 -0.4871
   40MPD2    H3  629   3.641   0.099   1.148 -0.3626  0.0699 -2.2264
   40MPD2     N  630   3.192   0.107   1.186 -0.3738 -0.1200 -0.3343
   40MPD2    H5  631   3.185   0.056   1.099 -0.3224 -2.5112  1.0715
   40MPD2    N1  632   3.499   0.419   1.429  0.0546 -0.4060 -0.3449
   40MPD2    H7  633   3.591   0.460   1.443 -0.0690 -0.1671 -0.2257
   41TMC2    C1  634   2.368   3.026  13.375 -0.4766 -0.0825 -0.0385
   41TMC2    C2  635   2.322   3.150  13.333 -0.0930  0.5914  0.0043
   41TMC2    C3  636   2.260   3.151  13.213  0.1783  0.2877 -0.0294
   41TMC2    C4  637   2.346   2.910  13.309 -0.5257 -0.5439  0.0464
   41TMC2    C5  638   2.286   2.920  13.187 -0.1391  0.2142  0.0652
   41TMC2    C6  639   2.237   3.039  13.141  0.0619 -0.1137  0.1417
   41TMC2     C  640   2.400   3.017  13.518  0.6240 -0.8192 -0.1677
   41TMC2     O  641   2.455   2.912  13.553 -0.1629  0.2676  0.2399
   41TMC2     H  642   2.351   3.242  13.384 -0.7922  1.5154 -1.2595
   41TMC2    H1  643   2.376   2.813  13.347  1.9540  0.3048  0.2574
   41TMC2    H2  644   2.185   3.051  13.047 -1.0706  1.1695  0.9246
   41TMC2    C7  645   2.222   2.796  13.138 -0.0680  0.5068  0.8395
   41TMC2    C8  646   2.198   3.276  13.165  0.3348 -0.2408 -0.2113
   41TMC2    O1  647   2.224   2.698  13.211 -0.0280  0.3910 -0.4011
   41TMC2    O2  648   2.267   3.371  13.122 -0.5240  0.5732  0.8736
   41TMC2    O5  649   2.077   3.247  13.126 -0.4861  0.7147 -0.2054
   41TMC2    H5  650   2.045   3.170  13.178  0.5700  1.3323  1.3671
   42MPD2     C  651   2.399   3.047  13.796 -0.3196 -0.7575 -0.0217
   42MPD2    C1  652   2.293   3.091  13.721 -0.2311 -0.5558  0.6052
   42MPD2    C2  653   2.174   3.132  13.779 -0.1432  0.1155 -0.0750
   42MPD2    C3  654   2.162   3.122  13.918  0.0356  0.3354 -0.4091
   42MPD2    C4  655   2.273   3.085  13.993 -0.0712  0.1280 -0.2492
   42MPD2    C5  656   2.391   3.047  13.933  0.1760 -0.6281 -0.2241
   42MPD2     H  657   2.094   3.167  13.715 -1.0784 -1.8484  0.0198
   42MPD2    H1  658   2.265   3.085  14.101 -1.0366 -1.4787 -0.3178
   42MPD2    H2  659   2.493   3.009  13.759  1.2569  2.1084  1.0389
   42MPD2    H3  660   2.485   3.034  13.985  1.6762  3.6780 -1.8872
   42MPD2     N  661   2.039   3.143  13.985  0.7462  0.3590 -0.2192
   42MPD2    H5  662   2.048   3.175  14.081 -1.6993 -0.8150  0.3953
   42MPD2    N1  663   2.313   3.097  13.583 -0.1801 -0.4475  0.2991
   42MPD2    H7  664   2.245   3.144  13.523  0.3493  0.6134  0.5456
   43TMC2    C1  665   3.473   0.917   0.796  0.4772 -0.0260  0.5573
   43TMC2    C2  666   3.359   0.999   0.771  0.1850 -0.6374 -0.1563
   43TMC2    C3  667   3.338   1.094   0.872  0.2336  0.4515  0.0837
   43TMC2    C4  668   3.555   0.940   0.902 -0.2894 -0.0343 -0.1014
   43TMC2    C5  669   3.525   1.035   0.995  0.0839  0.1358 -0.4947
   43TMC2    C6  670   3.430   1.127   0.975  0.3995  0.2018  0.5976
   43TMC2     C  671   3.539   0.862   0.675 -0.2613 -0.3038 -0.1336
   43TMC2     O  672   3.662   0.870   0.673 -0.1696 -0.6494 -0.1290
   43TMC2     H  673   3.289   0.997   0.688 -0.4108 -0.8687  0.3572
   43TMC2    H1  674   3.644   0.879   0.916  0.5564  0.8213 -1.6887
   43TMC2    H2  675   3.421   1.223   1.024  0.1032  0.3080  0.3408
   43TMC2    C7  676   3.626   1.066   1.090  0.1801  0.1593  0.4311
   43TMC2    C8  677   3.233   1.190   0.847 -0.0093  0.4491 -0.2202
   43TMC2    O1  678   3.738   1.047   1.056  0.1478 -0.3851  0.3192
   43TMC2    O2  679   3.166   1.192   0.745 -0.2945 -0.4426  0.2145
   43TMC2    O5  680   3.188   1.246   0.964  0.1988 -0.0932  0.0167
   43TMC2    H5  681   3.245   1.234   1.043  1.0355 -0.0716 -0.5976
   44MPD2     C  682   3.553   0.782   0.180  0.5197 -0.7944  0.6557
   44MPD2    C1  683   3.658   0.787   0.269  1.1007 -0.4928  0.2744
   44MPD2    C2  684   3.620   0.819   0.397 -0.3835 -0.1961  0.0284
   44MPD2    C3  685   3.488   0.832   0.436 -0.0358 -0.1188 -0.0348
   44MPD2    C4  686   3.393   0.787   0.350  0.7751  0.3853  0.7859
   44MPD2    C5  687   3.424   0.759   0.226 -0.0598  0.1533  0.5531
   44MPD2     H  688   3.703   0.839   0.464  1.7538  2.1024 -3.3452
   44MPD2    H1  689   3.292   0.760   0.379 -0.1494 -0.4239 -3.2747
   44MPD2    H2  690   3.575   0.762   0.076 -0.8600 -3.9170  0.9681
   44MPD2    H3  691   3.355   0.711   0.158 -0.6327  1.3267  0.3115
   44MPD2     N  692   3.442   0.840   0.569 -0.4376  0.2736 -0.1561
   44MPD2    H5  693   3.346   0.865   0.587 -0.2944  1.8459 -1.6363
   44MPD2    N1  694   3.795   0.777   0.229  0.6859 -0.4032  0.6110
   44MPD2    H7  695   3.857   0.814   0.300  1.6540 -0.3995 -0.2314
   45TMC2    C1  696   4.099   3.507   9.558 -0.4124  0.1437 -0.2032
   45TMC2    C2  697   4.221   3.519   9.501  0.1404 -0.4516 -0.2119
   45TMC2    C3  698   4.298   3.626   9.549  0.5820 -0.3312 -0.1367
   45TMC2    C4  699   4.062   3.576   9.668  0.1429  0.6849  0.4509
   45TMC2    C5  700   4.143   3.680   9.708  0.5254  0.1039 -0.1908
   45TMC2    C6  701   4.265   3.707   9.651 -0.1620  0.0518  0.0952
   45TMC2     C  702   4.023   3.392   9.522  0.4516 -0.5653 -0.4917
   45TMC2     O  703   4.088   3.293   9.489  0.0081  0.7968 -0.0897
   45TMC2     H  704   4.250   3.459   9.415  1.1271 -0.2491 -0.0175
   45TMC2    H1  705   3.969   3.549   9.717 -0.1782  0.4129 -0.3092
   45TMC2    H2  706   4.340   3.780   9.680 -0.4624 -0.2218  1.5520
   45TMC2    C7  707   4.095   3.772   9.810 -0.1307 -0.0198  0.1734
   45TMC2    C8  708   4.427   3.636   9.489  0.2301 -0.1257 -1.0503
   45TMC2    O1  709   4.176   3.833   9.876 -0.2494  0.1549 -0.2460
   45TMC2    O2  710   4.492   3.739   9.486  0.2747 -0.0629 -0.0047
   45TMC2    O5  711   4.472   3.514   9.466 -0.3847  0.3944  0.1450
   45TMC2    H5  712   4.416   3.454   9.520 -1.0466  0.2952 -0.6438
   46MPD2     C  713   3.815   3.193   9.417  0.1734 -0.2282 -0.1446
   46MPD2    C1  714   3.787   3.322   9.465 -0.2957 -0.4886 -0.8043
   46MPD2    C2  715   3.648   3.358   9.474  0.0189 -0.4474 -0.1585
   46MPD2    C3  716   3.549   3.265   9.442 -0.5438  0.2014 -0.5726
   46MPD2    C4  717   3.583   3.134   9.400  0.4167 -0.2396  0.2899
   46MPD2    C5  718   3.716   3.105   9.381 -0.2816 -0.0763 -0.9915
   46MPD2     H  719   3.615   3.459   9.495  1.5348  0.8138 -3.7955
   46MPD2    H1  720   3.509   3.068   9.358  2.5667 -0.3681 -3.3104
   46MPD2    H2  721   3.916   3.155   9.406 -0.2783 -1.2918 -0.7179
   46MPD2    H3  722   3.748   3.008   9.347  2.8301  0.3673  0.7038
   46MPD2     N  723   3.415   3.308   9.441 -0.6115 -0.0327  0.0439
   46MPD2    H5  724   3.397   3.401   9.478 -1.1451 -0.3453  0.5761
   46MPD2    N1  725   3.882   3.410   9.526 -0.2683 -0.6733 -0.6018
   46MPD2    H7  726   3.849   3.502   9.553  2.7105  0.3402 -0.4448
   47TMC2    C1  727   1.030   4.681   9.196 -0.4294 -0.4297 -0.1334
   47TMC2    C2  728   1.088   0.045   9.131  0.1542 -0.1091 -0.1320
   47TMC2    C3  729   1.110   0.167   9.198  1.1921  0.0196  0.1327
   47TMC2    C4  730   0.973   4.698   9.323 -0.8275 -0.0857  0.1142
   47TMC2    C5  731   0.986   0.085   9.381 -0.4217  0.6444 -0.0921
   47TMC2    C6  732   1.048   0.189   9.322 -0.6900  0.6919  0.4250
   47TMC2     C  733   0.978   4.565   9.116 -0.1464  0.8173  0.4933
   47TMC2     O  734   0.875   4.591   9.056  0.2936 -0.1260  0.1420
   47TMC2     H  735   1.110   0.031   9.026 -1.2222 -1.2330 -0.2812
   47TMC2    H1  736   0.923   4.617   9.377 -1.2977 -0.4650 -0.8968
   47TMC2    H2  737   1.067   0.285   9.369  1.2721  0.5048  0.0303
   47TMC2    C7  738   0.907   0.125   9.498 -0.4985 -0.2961 -0.5201
   47TMC2    C8  739   1.164   0.277   9.129  0.3598  0.6102 -0.2958
   47TMC2    O1  740   0.901   0.242   9.524 -0.2223  0.1772 -1.0615
   47TMC2    O2  741   1.255   0.257   9.055 -0.1278  0.1085 -0.0471
   47TMC2    O5  742   1.142   0.389   9.198 -0.2314 -0.2477  0.0394
   47TMC2    H5  743   1.045   0.393   9.213 -0.2915 -0.1386 -0.3961
   48MPD2     C  744   0.885   4.297   9.003  0.7969 -0.9609  0.5005
   48MPD2    C1  745   0.977   4.312   9.106  0.0291  0.3451  0.0211
   48MPD2    C2  746   1.026   4.197   9.165 -0.0922  0.3687 -0.5915
   48MPD2    C3  747   1.003   4.073   9.104  0.5210 -0.2162 -0.2934
   48MPD2    C4  748   0.908   4.063   9.000  0.0360  0.2645  0.2706
   48MPD2    C5  749   0.846   4.175   8.956 -0.4566  0.1816  0.1282
   48MPD2     H  750   1.091   4.214   9.249 -3.0395  0.2842  1.6832
   48MPD2    H1  751   0.882   3.969   8.952 -2.0934  1.7856 -1.5490
   48MPD2    H2  752   0.834   4.384   8.960  1.4734 -1.1998 -0.7903
   48MPD2    H3  753   0.762   4.167   8.888  0.1857 -1.0736 -0.5278
   48MPD2     N  754   1.069   3.963   9.157  0.6977 -0.1341 -0.0277
   48MPD2    H5  755   1.128   3.976   9.238 -0.6517  2.2592  0.5652
   48MPD2    N1  756   1.021   4.439   9.155 -0.2661  0.2648 -0.1863
   48MPD2    H7  757   1.082   4.431   9.236 -2.8761 -0.0460  1.7466
   49TMC2    C1  758   3.053   0.950  10.292  0.6677 -0.2691 -0.7174
   49TMC2    C2  759   2.987   0.876  10.206  0.2719  0.0429 -0.0289
   49TMC2    C3  760   2.950   0.752  10.218 -0.1899 -0.2109 -0.3333
   49TMC2    C4  761   3.098   0.883  10.406 -0.4218  0.0783  0.4046
   49TMC2    C5  762   3.056   0.749  10.421  0.5675  0.5632 -0.3673
   49TMC2    C6  763   2.988   0.683  10.325  1.0134 -0.1747  0.0681
   49TMC2     C  764   3.100   1.089  10.263 -0.0735 -0.1288  1.0555
   49TMC2     O  765   3.041   1.146  10.173  0.4178  0.7073  0.2579
   49TMC2     H  766   2.960   0.931  10.116  1.6951  1.4613  0.4229
   49TMC2    H1  767   3.166   0.934  10.472 -1.4029  1.2875  0.4742
   49TMC2    H2  768   2.947   0.582  10.326  1.5228 -0.3812  0.0546
   49TMC2    C7  769   3.144   0.667  10.497  0.3621  0.0335  0.1445
   49TMC2    C8  770   2.901   0.673  10.101  0.2855 -0.2422  0.2056
   49TMC2    O1  771   3.198   0.723  10.589 -0.1311 -0.2501 -0.0475
   49TMC2    O2  772   2.903   0.551  10.091  0.1677 -0.0677  0.1182
   49TMC2    O5  773   2.822   0.756  10.024 -0.0697 -0.4650 -0.3521
   49TMC2    H5  774   2.818   0.843  10.068 -0.3447 -1.3149  1.3058
   50MPD2     C  775   3.202   1.370  10.263 -0.1749 -0.1726 -0.5484
   50MPD2    C1  776   3.257   1.263  10.325 -0.2198  0.2822 -0.6728
   50MPD2    C2  777   3.383   1.282  10.376 -0.1360  0.3487  0.5706
   50MPD2    C3  778   3.455   1.396  10.376 -0.9760 -0.3353  0.3967
   50MPD2    C4  779   3.397   1.499  10.309  0.1321 -0.4382  0.5907
   50MPD2    C5  780   3.271   1.484  10.259  0.1386 -0.0208  0.7401
   50MPD2     H  781   3.436   1.196  10.416  0.8785  0.3651 -0.7453
   50MPD2    H1  782   3.452   1.591  10.292 -1.4435  0.3867 -0.0351
   50MPD2    H2  783   3.106   1.372  10.212  0.0868  0.6325 -0.9965
   50MPD2    H3  784   3.238   1.572  10.205  0.2871 -0.6532 -0.3941
   50MPD2     N  785   3.589   1.408  10.417  0.2282 -0.0631  0.4048
   50MPD2    H5  786   3.636   1.495  10.397  0.6129 -0.3448  0.0776
   50MPD2    N1  787   3.208   1.132  10.328  0.4929 -1.0180  0.6833
   50MPD2    H7  788   3.261   1.065  10.382  0.5662 -1.9763 -0.5640
   51TMC2    C1  789   0.159   4.502   1.362  0.2128  0.4810  0.0203
   51TMC2    C2  790   0.035   4.541   1.398 -0.3993  0.7973 -0.7186
   51TMC2    C3  791   0.016   4.677   1.427  1.1524 -0.3877  0.0455
   51TMC2    C4  792   0.263   4.598   1.339  0.6457  1.2907  0.2489
   51TMC2    C5  793   0.233   4.733   1.354  0.5032  0.5817 -0.2491
   51TMC2    C6  794   0.111   0.042   1.401 -0.1669 -0.3237 -0.0906
   51TMC2     C  795   0.175   4.362   1.317  0.0558  0.2479 -0.0239
   51TMC2     O  796   0.279   4.344   1.254  0.0124 -0.2249  0.1007
   51TMC2     H  797   4.685   4.481   1.412 -0.7193  1.2440 -0.8061
   51TMC2    H1  798   0.367   4.567   1.329  0.0206 -0.8134  0.3043
   51TMC2    H2  799   0.087   0.147   1.388  2.3322  0.1538 -0.8926
   51TMC2    C7  800   0.334   0.097   1.326 -0.0942  0.2540 -0.0074
   51TMC2    C8  801   4.616   4.721   1.429  0.3144 -0.1042  0.3728
   51TMC2    O1  802   0.314   0.215   1.341  0.1114 -0.0280  0.3980
   51TMC2    O2  803   4.517   4.661   1.386  0.0814 -0.9565  0.2707
   51TMC2    O5  804   4.612   0.112   1.466  0.0218  0.4128 -0.2574
   51TMC2    H5  805   4.697   0.141   1.505 -0.0112  0.6370 -0.3565
   52MPD2     C  806   4.715   3.911   1.144 -0.1128  0.3688  0.0072
   52MPD2    C1  807   0.104   3.971   1.125  0.5187 -0.4377 -0.3257
   52MPD2    C2  808   0.139   4.086   1.198 -0.1895  0.4451  0.0740
   52MPD2    C3  809   0.045   4.147   1.274  0.3635  0.0032  0.1419
   52MPD2    C4  810   4.663   4.086   1.293  0.4334  0.2621  0.3188
   52MPD2    C5  811   4.629   3.965   1.231 -0.2510  1.2930 -0.1147
   52MPD2     H  812   0.235   4.132   1.178 -0.2853  0.8321  0.4779
   52MPD2    H1  813   4.578   4.129   1.345  1.0166  0.0888  1.4193
   52MPD2    H2  814   4.681   3.823   1.092 -0.2871  0.0918  0.5932
   52MPD2    H3  815   4.529   3.926   1.250  0.6669 -1.7614 -1.5005
   52MPD2     N  816   0.060   4.280   1.324 -0.6906 -0.5069 -0.0371
   52MPD2    H5  817   4.732   4.304   1.395  2.1780  1.7426  1.8811
   52MPD2    N1  818   0.207   3.920   1.039 -0.0755 -0.1834  0.0592
   52MPD2    H7  819   0.293   3.973   1.044  0.8399 -1.7435  0.9692
   53TMC2    C1  820   4.596   3.372  11.499  0.4160 -0.4874 -0.1520
   53TMC2    C2  821   4.698   3.287  11.490 -0.5024  0.3712 -0.5890
   53TMC2    C3  822   4.715   3.209  11.607 -0.2519  0.2840 -0.0384
   53TMC2    C4  823   4.519   3.387  11.605 -0.1757 -0.0929 -0.7953
   53TMC2    C5  824   4.537   3.300  11.717  0.1954  0.6820  0.2772
   53TMC2    C6  825   4.642   3.211  11.721 -0.1860 -0.3718 -0.3435
   53TMC2     C  826   4.594   3.464  11.383  0.1790 -0.2826 -0.2062
   53TMC2     O  827   4.686   3.456  11.306  0.2468  0.2003  0.1547
   53TMC2     H  828   0.029   3.285  11.407  0.3923  2.8435  0.1246
   53TMC2    H1  829   4.440   3.461  11.609  0.2190  0.1943  2.0630
   53TMC2    H2  830   4.664   3.146  11.805  1.5141 -1.6267 -1.7535
   53TMC2    C7  831   4.465   3.343  11.832 -0.9603  0.6722 -0.1666
   53TMC2    C8  832   0.109   3.158  11.622  0.9026 -0.6037 -0.2361
   53TMC2    O1  833   4.364   3.409  11.825  0.2101  0.2844 -0.3765
   53TMC2    O2  834   0.173   3.113  11.527  0.2065 -0.6467 -0.2605
   53TMC2    O5  835   0.157   3.189  11.744  0.2385 -0.2462  0.3429
   53TMC2    H5  836   0.112   3.258  11.797 -0.1821  0.0591 -0.4088
   54MPD2     C  837   4.530   3.666  11.169  0.3174  0.4597  0.1042
   54MPD2    C1  838   4.459   3.646  11.288 -0.1196 -0.9579  0.1547
   54MPD2    C2  839   4.343   3.718  11.309  0.5016  0.0977 -0.6059
   54MPD2    C3  840   4.312   3.819  11.233  0.8234  0.3218  0.0999
   54MPD2    C4  841   4.388   3.859  11.122 -0.0130  0.2110 -0.0718
   54MPD2    C5  842   4.493   3.775  11.090 -0.1771  0.2373  0.0410
   54MPD2     H  843   4.308   3.703  11.410  1.9479 -1.2143 -0.2953
   54MPD2    H1  844   4.347   3.934  11.055 -2.1540 -0.3923  0.5413
   54MPD2    H2  845   4.618   3.612  11.134  0.1482  0.8029 -0.8567
   54MPD2    H3  846   4.553   3.789  11.001  1.2609  0.6713  1.0803
   54MPD2     N  847   4.195   3.892  11.252  0.8593  0.4497 -0.0093
   54MPD2    H5  848   4.188   3.988  11.219  0.2584  0.8805  1.3733
   54MPD2    N1  849   4.486   3.546  11.384  0.5412  1.0647  0.3017
   54MPD2    H7  850   4.422   3.548  11.463 -1.2265 -0.6614 -1.0790
   55TMC2    C1  851   1.673   1.230   0.308  0.0261  0.2455 -0.0254
   55TMC2    C2  852   1.770   1.255   0.211 -0.8814  0.4718  0.0499
   55TMC2    C3  853   1.857   1.147   0.201 -0.4169 -0.2006 -0.1524
   55TMC2    C4  854   1.676   1.123   0.396  0.0729  0.6860 -0.7545
   55TMC2    C5  855   1.769   1.022   0.385  0.2985 -0.1074 -0.3388
   55TMC2    C6  856   1.858   1.032   0.282 -0.1715 -1.0455  0.4683
   55TMC2     C  857   1.559   1.317   0.314  0.4415 -0.4423  0.6658
   55TMC2     O  858   1.491   1.298   0.413  0.6232  0.1042  0.5538
   55TMC2     H  859   1.757   1.341   0.146  0.1878 -0.6712 -1.6710
   55TMC2    H1  860   1.582   1.105   0.447  0.7635 -0.4348  0.1138
   55TMC2    H2  861   1.933   0.959   0.254  0.8877 -0.1386  0.9770
   55TMC2    C7  862   1.747   0.894   0.453 -0.0008  0.7440  0.0073
   55TMC2    C8  863   1.953   1.164   0.097 -0.3005  0.8044 -0.5348
   55TMC2    O1  864   1.776   0.794   0.391  0.0051 -0.0935 -0.2099
   55TMC2    O2  865   1.928   1.230   0.001 -0.1070 -0.3557 -0.4462
   55TMC2    O5  866   2.068   1.170   0.164 -0.4336  0.6309  0.1918
   55TMC2    H5  867   2.068   1.163   0.262  0.2530  0.8042  0.2104
   56MPD2     C  868   1.445   1.584   0.087  0.8062 -0.1007  0.6345
   56MPD2    C1  869   1.442   1.509   0.203  0.2195 -0.2996  0.0992
   56MPD2    C2  870   1.347   1.535   0.299  0.0075 -0.4311 -0.4565
   56MPD2    C3  871   1.247   1.625   0.277 -0.0851  0.4431  0.2755
   56MPD2    C4  872   1.253   1.700   0.162 -0.8295 -0.1999  0.1339
   56MPD2    C5  873   1.351   1.682   0.069 -0.6351 -0.2806  0.0158
   56MPD2     H  874   1.336   1.475   0.388  0.1379  0.2402  0.0124
   56MPD2    H1  875   1.198   1.791   0.144  0.7235  0.6137 -0.4249
   56MPD2    H2  876   1.519   1.575   0.008  1.6253 -2.9458  1.7323
   56MPD2    H3  877   1.366   1.749  17.737 -1.9776  0.7885  0.6329
   56MPD2     N  878   1.153   1.635   0.380  0.2900  0.4113  0.1665
   56MPD2    H5  879   1.163   1.581   0.465  3.3161 -1.8742 -1.6305
   56MPD2    N1  880   1.542   1.406   0.209 -0.4257  0.3928  0.2917
   56MPD2    H7  881   1.608   1.395   0.133  0.8096 -0.1332  1.4443
   57TMC2    C1  882   0.685   2.004  13.483 -0.4356  0.4774  0.4877
   57TMC2    C2  883   0.666   1.915  13.590  0.3035  0.3350  0.0322
   57TMC2    C3  884   0.773   1.862  13.655 -0.6283 -0.2257 -0.3211
   57TMC2    C4  885   0.808   2.043  13.447 -0.5986 -0.2297 -0.7164
   57TMC2    C5  886   0.914   1.975  13.509 -0.5842  0.2554  0.0621
   57TMC2    C6  887   0.898   1.885  13.610 -0.6634  0.3137 -0.2333
   57TMC2     C  888   0.581   2.033  13.390 -0.6940 -0.9629 -0.1915
   57TMC2     O  889   0.594   2.144  13.344  0.4311 -0.2025  0.4214
   57TMC2     H  890   0.568   1.896  13.633  0.3946  0.6301  0.3629
   57TMC2    H1  891   0.828   2.121  13.375 -0.6856 -2.1328 -2.8088
   57TMC2    H2  892   0.986   1.845  13.659 -0.4244 -0.1085 -0.9917
   57TMC2    C7  893   1.041   2.007  13.457 -0.3532 -0.1221 -0.6077
   57TMC2    C8  894   0.750   1.794  13.782 -1.2960 -0.6926 -0.4243
   57TMC2    O1  895   1.040   2.110  13.395 -0.1891  0.1050 -0.1511
   57TMC2    O2  896   0.818   1.693  13.805  0.2661 -0.1200  0.6642
   57TMC2    O5  897   0.692   1.873  13.869 -0.2255 -0.2566 -0.6634
   57TMC2    H5  898   0.673   1.957  13.822 -2.2623 -0.2698  0.1381
   58MPD2     C  899   0.153   1.945  13.138 -0.0259 -0.1057 -0.8332
   58MPD2    C1  900   0.214   2.060  13.173  0.4251  0.9799 -0.0989
   58MPD2    C2  901   0.329   2.063  13.244  0.0836  0.8185 -0.3397
   58MPD2    C3  902   0.365   1.946  13.309  0.3086 -0.1422  0.7888
   58MPD2    C4  903   0.290   1.831  13.291  0.2410 -0.2752  0.7358
   58MPD2    C5  904   0.190   1.832  13.199  0.0575  0.0710  0.3637
   58MPD2     H  905   0.381   2.155  13.268 -0.1665  0.6942  0.6916
   58MPD2    H1  906   0.314   1.733  13.329  1.1499 -0.9812 -1.6761
   58MPD2    H2  907   0.084   1.945  13.054 -1.3155 -0.6255  0.2253
   58MPD2    H3  908   0.136   1.743  13.170  0.2471 -0.4381  1.5920
   58MPD2     N  909   0.482   1.937  13.387 -0.2648  0.2893 -0.1474
   58MPD2    H5  910   0.502   1.847  13.428  0.0935 -0.7622 -2.6649
   58MPD2    N1  911   0.152   2.171  13.120 -0.0802 -0.2456  0.4344
   58MPD2    H7  912   0.066   2.159  13.067 -0.4138  3.4220  0.1596
   59TMC2    C1  913   2.709   2.233  12.692 -0.0001 -0.0652  0.0271
   59TMC2    C2  914   2.774   2.117  12.715 -1.1171  0.3782  0.0843
   59TMC2    C3  915   2.751   2.009  12.636 -0.1027  0.2844  0.5586
   59TMC2    C4  916   2.624   2.249  12.592 -0.7475  0.0652 -0.0512
   59TMC2    C5  917   2.588   2.135  12.522  0.7800  0.8324  1.2526
   59TMC2    C6  918   2.643   2.013  12.550  0.8476 -0.2872  0.0257
   59TMC2     C  919   2.729   2.345  12.780  0.2550  0.5671 -0.8535
   59TMC2     O  920   2.704   2.458  12.745 -0.3094  0.2898 -0.1208
   59TMC2     H  921   2.865   2.112  12.774 -2.1201 -2.4331  1.4127
   59TMC2    H1  922   2.580   2.348  12.581 -0.8356  0.0832  0.4533
   59TMC2    H2  923   2.611   1.918  12.510  1.0449 -0.3224 -0.0477
   59TMC2    C7  924   2.468   2.140  12.440  0.2945  0.4786  1.3820
   59TMC2    C8  925   2.795   1.881  12.692  0.0417  0.5181  0.7911
   59TMC2    O1  926   2.426   2.031  12.412  0.1471 -0.2478 -0.5703
   59TMC2    O2  927   2.894   1.877  12.764 -0.1908 -0.3148 -0.1816
   59TMC2    O5  928   2.678   1.819  12.720  0.2350  0.2119  0.1830
   59TMC2    H5  929   2.596   1.861  12.686 -0.4611  0.2903  1.9553
   60MPD2     C  930   2.795   2.522  13.022 -0.7149  0.4615  0.1089
   60MPD2    C1  931   2.825   2.391  13.005  1.0994  0.1903 -0.6163
   60MPD2    C2  932   2.915   2.340  13.098  0.1676 -0.0247  0.0378
   60MPD2    C3  933   2.978   2.423  13.189 -0.9489  0.1542  0.3657
   60MPD2    C4  934   2.956   2.554  13.190 -0.7183 -0.0837  0.3491
   60MPD2    C5  935   2.859   2.605  13.109 -0.1022  0.2574  0.4701
   60MPD2     H  936   2.923   2.232  13.093 -0.4578 -0.0350 -0.6221
   60MPD2    H1  937   2.995   2.605  13.278  0.2598 -2.4413  1.2797
   60MPD2    H2  938   2.726   2.565  12.950 -0.7774  1.6494  0.8930
   60MPD2    H3  939   2.833   2.709  13.123  0.7732  0.7053 -1.0962
   60MPD2     N  940   3.073   2.376  13.283  0.2722 -0.0157  0.1989
   60MPD2    H5  941   3.125   2.441  13.340 -0.3057 -0.5480  1.3459
   60MPD2    N1  942   2.778   2.304  12.901  0.0861  0.2650  0.3552
   60MPD2    H7  943   2.809   2.207  12.902 -1.3552 -0.1935  0.4880
   61TMC2    C1  944   1.793   3.799  15.643  0.0879 -0.6114 -0.6641
   61TMC2    C2  945   1.724   3.750  15.749  0.1140 -0.4638 -0.3820
   61TMC2    C3  946   1.784   3.741  15.871 -0.6928 -0.0184  0.2180
   61TMC2    C4  947   1.923   3.854  15.659  0.6360  0.2778 -0.2130
   61TMC2    C5  948   1.974   3.859  15.787 -0.0592 -0.1185 -0.2877
   61TMC2    C6  949   1.898   3.813  15.894 -0.7185  0.7155  0.1191
   61TMC2     C  950   1.743   3.751  15.514 -0.3394  0.0630 -0.6368
   61TMC2     O  951   1.640   3.688  15.502 -0.0613 -0.0672 -0.1952
   61TMC2     H  952   1.619   3.729  15.731 -0.3359  0.8761  0.7495
   61TMC2    H1  953   1.984   3.876  15.572  0.7806  1.1762  0.1144
   61TMC2    H2  954   1.937   3.826  15.994  0.8669 -1.1147 -0.2626
   61TMC2    C7  955   2.074   3.963  15.812 -0.6876 -0.7216  0.3523
   61TMC2    C8  956   1.698   3.714  15.984 -0.0826 -0.6106  0.1771
   61TMC2    O1  957   2.110   4.016  15.711  0.3174 -0.3048  0.5387
   61TMC2    O2  958   1.600   3.779  16.004 -0.7226 -0.3840  0.0196
   61TMC2    O5  959   1.781   3.665  16.081 -0.2690 -0.1091 -0.1735
   61TMC2    H5  960   1.845   3.607  16.035 -1.7033 -0.2977 -1.9107
   62MPD2     C  961   1.681   3.668  15.228 -0.2237  0.1940  0.0904
   62MPD2    C1  962   1.803   3.723  15.276 -0.3052  0.2881  0.7605
   62MPD2    C2  963   1.915   3.736  15.190  0.3890 -0.4590  0.1994
   62MPD2    C3  964   1.906   3.693  15.064 -0.3818  0.8273 -0.4384
   62MPD2    C4  965   1.791   3.631  15.022 -1.0916 -0.9093 -0.5812
   62MPD2    C5  966   1.682   3.626  15.102  0.2724 -0.2591 -0.0723
   62MPD2     H  967   2.003   3.777  15.238 -0.7720  1.1087  1.0026
   62MPD2    H1  968   1.785   3.586  14.924 -0.9416 -1.5813 -0.2855
   62MPD2    H2  969   1.594   3.643  15.288 -0.4808  0.8264 -0.0141
   62MPD2    H3  970   1.590   3.580  15.068  0.7859 -0.6804 -0.8733
   62MPD2     N  971   2.013   3.714  14.972 -0.4279 -0.6545 -0.1517
   62MPD2    H5  972   1.991   3.684  14.877 -0.5403 -0.6455 -0.1288
   62MPD2    N1  973   1.829   3.772  15.409  0.0774  0.0412  0.4787
   62MPD2    H7  974   1.920   3.816  15.415  0.6031 -0.8858 -0.5987
   63TMC2    C1  975   1.545   3.902  10.422 -0.0042 -0.3994 -0.0183
   63TMC2    C2  976   1.630   3.851  10.516  0.1731 -0.8924 -0.4427
   63TMC2    C3  977   1.745   3.918  10.545  0.2544  0.3041 -0.1807
   63TMC2    C4  978   1.577   4.017  10.360 -0.0743  0.5025 -0.5355
   63TMC2    C5  979   1.697   4.083  10.392 -0.0567  0.5697  0.6677
   63TMC2    C6  980   1.787   4.034  10.484 -0.3780  0.5363 -0.1972
   63TMC2     C  981   1.412   3.849  10.408 -0.8013 -0.3371  1.0095
   63TMC2     O  982   1.330   3.918  10.350  0.0249  0.3032 -0.1681
   63TMC2     H  983   1.613   3.756  10.565  1.1646 -1.5549 -1.3748
   63TMC2    H1  984   1.509   4.054  10.284 -0.1662 -3.2325 -2.2634
   63TMC2    H2  985   1.880   4.086  10.505 -0.0155  0.5368 -1.8516
   63TMC2    C7  986   1.734   4.186  10.296  0.0108 -0.6407 -0.2564
   63TMC2    C8  987   1.818   3.880  10.661  0.7371  0.2707  0.2897
   63TMC2    O1  988   1.700   4.170  10.182 -0.1096  0.1293  0.0015
   63TMC2    O2  989   1.761   3.814  10.752  0.1674  0.3376  0.3644
   63TMC2    O5  990   1.945   3.878  10.636 -0.1871  0.0403  0.5704
   63TMC2    H5  991   1.961   3.884  10.539 -1.8695  1.5184  0.4081
   64MPD2     C  992   1.057   3.493  10.497 -0.2526  0.8957 -0.3391
   64MPD2    C1  993   1.174   3.438  10.523  0.1414  0.4775  0.3677
   64MPD2    C2  994   1.283   3.522  10.519  0.2555  0.8072  0.8982
   64MPD2    C3  995   1.284   3.649  10.469 -0.6516 -0.0504  0.1002
   64MPD2    C4  996   1.157   3.697  10.435 -1.3412  0.7325  0.6886
   64MPD2    C5  997   1.046   3.623  10.471 -0.4042  0.3307  0.5943
   64MPD2     H  998   1.377   3.483  10.558 -0.4586 -2.7503 -0.9695
   64MPD2    H1  999   1.128   3.798  10.409  0.7769  0.3954 -2.8969
   64MPD2    H2 1000   0.963   3.442  10.516  1.3750 -2.2857 -0.8361
   64MPD2    H3 1001   0.955   3.665  10.430  1.2778  1.3582 -2.1400
   64MPD2     N 1002   1.405   3.720  10.456 -0.2571  0.5276 -1.2987
   64MPD2    H5 1003   1.490   3.666  10.472 -1.7072 -1.5771 -0.7786
   64MPD2    N1 1004   1.204   3.304  10.565  0.4435 -0.0918  0.6252
   64MPD2    H7 1005   1.303   3.289  10.581  0.2451 -0.8308  1.1796
   65TMC2    C1 1006   3.034   3.325  15.739  0.6103 -0.3757 -0.7712
   65TMC2    C2 1007   3.098   3.330  15.618  0.4380 -0.4763  0.5862
   65TMC2    C3 1008   3.062   3.431  15.534  0.6635 -1.1321  0.1913
   65TMC2    C4 1009   2.933   3.416  15.771 -0.3823 -1.2563  0.1088
   65TMC2    C5 1010   2.903   3.511  15.677 -0.0698  0.2663  0.0464
   65TMC2    C6 1011   2.963   3.517  15.552 -0.7834 -0.2257 -0.4796
   65TMC2     C 1012   3.046   3.206  15.816 -0.4340 -0.1303  0.2095
   65TMC2     O 1013   3.030   3.227  15.934 -0.0661 -0.1503 -0.6303
   65TMC2     H 1014   3.186   3.268  15.608 -0.8183 -2.3595  1.2452
   65TMC2    H1 1015   2.875   3.400  15.861 -0.5844  1.1232  0.4101
   65TMC2    H2 1016   2.943   3.589  15.473  0.4095 -0.9735 -1.4570
   65TMC2    C7 1017   2.794   3.604  15.696 -0.3854  0.2380  0.4003
   65TMC2    C8 1018   3.154   3.448  15.426  0.2021  0.4789  0.7062
   65TMC2    O1 1019   2.745   3.661  15.599  0.3594  0.3075  0.0149
   65TMC2    O2 1020   3.234   3.362  15.400  0.2836  0.7130 -0.3864
   65TMC2    O5 1021   3.175   3.577  15.402  0.0302  0.7739  0.1855
   65TMC2    H5 1022   3.126   3.635  15.464 -0.8548 -0.4032  0.5753
   66MPD2     C 1023   3.124   2.949  15.946 -0.4009  0.0589  0.3429
   66MPD2    C1 1024   3.119   2.970  15.816  0.1154 -0.2581  0.8188
   66MPD2    C2 1025   3.150   2.869  15.731  0.2657  0.0086 -0.2523
   66MPD2    C3 1026   3.158   2.741  15.779  0.9386  0.2564  0.1015
   66MPD2    C4 1027   3.157   2.715  15.918  0.2322 -0.0841  0.1031
   66MPD2    C5 1028   3.145   2.822  16.005  0.1485  0.7597  0.1278
   66MPD2     H 1029   3.141   2.891  15.625 -2.0733 -1.7938 -0.4284
   66MPD2    H1 1030   3.175   2.614  15.953  1.9024  0.1088 -0.2000
   66MPD2    H2 1031   3.093   3.027  16.015 -0.9807 -2.0791  2.5236
   66MPD2    H3 1032   3.129   2.810  16.112  0.6103 -2.2833 -0.1467
   66MPD2     N 1033   3.152   2.629  15.693  0.0138  0.1083  0.0352
   66MPD2    H5 1034   3.148   2.541  15.744  1.7117 -1.6109 -2.8282
   66MPD2    N1 1035   3.089   3.095  15.751 -0.6309  0.0021  0.1095
   66MPD2    H7 1036   3.091   3.084  15.650  0.0642  1.0897  0.0083
   67TMC2    C1 1037   2.833   2.924  14.412 -0.3731  0.1580  0.0152
   67TMC2    C2 1038   2.843   3.054  14.461  0.0437  0.3887 -0.1839
   67TMC2    C3 1039   2.917   3.071  14.577  0.5672 -0.0403 -0.1984
   67TMC2    C4 1040   2.887   2.818  14.481  0.5804 -0.1185 -0.3435
   67TMC2    C5 1041   2.944   2.840  14.602 -0.1829  0.4786  0.5662
   67TMC2    C6 1042   2.970   2.966  14.644  0.0702  0.6140 -0.4734
   67TMC2     C 1043   2.812   2.908  14.275 -0.6976 -0.4800  0.0774
   67TMC2     O 1044   2.817   3.011  14.211 -0.6247 -0.3653 -0.3217
   67TMC2     H 1045   2.808   3.137  14.401  0.6424  0.4799 -0.4110
   67TMC2    H1 1046   2.893   2.718  14.440  0.6505 -1.1214  2.1183
   67TMC2    H2 1047   3.028   2.985  14.734  0.9804 -1.3522 -0.6242
   67TMC2    C7 1048   3.016   2.726  14.652 -0.8683  0.0263 -0.2019
   67TMC2    C8 1049   2.958   3.205  14.607  0.2966 -0.1009  0.2033
   67TMC2    O1 1050   2.989   2.618  14.603 -0.3117  0.2108 -0.1490
   67TMC2    O2 1051   3.072   3.235  14.637 -0.7790 -0.3778  0.6827
   67TMC2    O5 1052   2.848   3.283  14.619 -0.2079  0.4306 -0.1755
   67TMC2    H5 1053   2.768   3.242  14.580  1.2057 -2.6125  0.1534
   68MPD2     C 1054   2.685   2.836  14.020 -0.3520 -0.4761 -0.3149
   68MPD2    C1 1055   2.720   2.741  14.114 -0.1118 -0.1485  0.1387
   68MPD2    C2 1056   2.715   2.605  14.082 -1.5319  0.2609  0.4764
   68MPD2    C3 1057   2.677   2.571  13.957 -0.0547 -0.7084  0.0773
   68MPD2    C4 1058   2.663   2.663  13.861 -0.0067  0.0920  0.1309
   68MPD2    C5 1059   2.666   2.797  13.894  0.7934 -0.3538  0.1156
   68MPD2     H 1060   2.725   2.534  14.164 -0.8449 -0.2775 -0.0801
   68MPD2    H1 1061   2.645   2.636  13.758 -0.3081  0.3076  0.1270
   68MPD2    H2 1062   2.689   2.942  14.038 -1.0967 -0.7255  1.3585
   68MPD2    H3 1063   2.640   2.870  13.819  0.7480 -0.9763 -0.4776
   68MPD2     N 1064   2.659   2.438  13.906 -0.0009  0.0042 -0.0940
   68MPD2    H5 1065   2.623   2.430  13.812 -0.1696  1.4332 -0.1411
   68MPD2    N1 1066   2.770   2.787  14.242 -0.5736  0.2331  0.3646
   68MPD2    H7 1067   2.781   2.710  14.308 -0.2177 -0.4344 -0.4642
   69TMC2    C1 1068   4.434   3.617  12.206 -0.5615  0.7157  0.8214
   69TMC2    C2 1069   4.304   3.612  12.160 -0.4779  0.8845 -0.1952
   69TMC2    C3 1070   4.287   3.628  12.027  0.3025  0.3865  0.8422
   69TMC2    C4 1071   4.538   3.642  12.120  0.4973 -0.1294 -0.0247
   69TMC2    C5 1072   4.507   3.673  11.994  0.1339 -0.8189  0.0545
   69TMC2    C6 1073   4.379   3.670  11.939 -0.0661 -0.0776 -0.2457
   69TMC2     C 1074   4.450   3.606  12.349 -0.8365  0.6051  0.4505
   69TMC2     O 1075   4.369   3.558  12.421 -0.0360  0.0074  0.4097
   69TMC2     H 1076   4.224   3.572  12.221 -0.0707 -0.8872 -0.8173
   69TMC2    H1 1077   4.640   3.626  12.153  0.7284  2.3118  0.4303
   69TMC2    H2 1078   4.364   3.672  11.831 -1.0787 -0.0428 -0.1080
   69TMC2    C7 1079   4.621   3.691  11.906 -0.0818 -0.1803 -0.2857
   69TMC2    C8 1080   4.150   3.609  11.986 -0.4107  0.6884  0.2977
   69TMC2    O1 1081   4.727   3.636  11.936  0.4874 -0.2064 -0.3221
   69TMC2    O2 1082   4.077   3.522  12.040  0.4558 -0.4602 -0.4642
   69TMC2    O5 1083   4.118   3.681  11.877  0.3394  0.1089 -0.2645
   69TMC2    H5 1084   4.184   3.750  11.857 -2.3389  2.4249 -1.1549
   70MPD2     C 1085   4.719   3.745  12.546  0.0845  0.2751 -0.2216
   70MPD2    C1 1086   4.607   3.669  12.530  0.0232 -0.0065  0.1269
   70MPD2    C2 1087   4.564   3.580  12.630  0.2762 -0.6280  0.1261
   70MPD2    C3 1088   4.632   3.581  12.746 -0.2916  0.0689  0.3233
   70MPD2    C4 1089   0.005   3.659  12.772 -0.2535 -0.0160 -0.2424
   70MPD2    C5 1090   0.048   3.733  12.665  0.0436  0.2580 -0.2412
   70MPD2     H 1091   4.489   3.504  12.617  0.3603 -0.6283 -0.3607
   70MPD2    H1 1092   0.062   3.651  12.864  0.2282  1.5519 -0.3956
   70MPD2    H2 1093   0.022   3.799  12.462  1.1120  1.7701  1.2506
   70MPD2    H3 1094   0.137   3.793  12.680 -0.3674  0.9777 -0.6748
   70MPD2     N 1095   4.610   3.489  12.852  0.7255 -0.1281 -0.7465
   70MPD2    H5 1096   4.671   3.496  12.934  0.5984 -0.8893 -0.5890
   70MPD2    N1 1097   4.566   3.667  12.396 -0.0134  0.1525  0.9772
   70MPD2    H7 1098   4.616   3.718  12.323 -2.0041  0.2173 -0.3496
   71TMC2    C1 1099   3.238   4.218   1.488 -0.5462 -0.3199  1.2551
   71TMC2    C2 1100   3.370   4.188   1.525 -1.0436 -0.3842 -0.1903
   71TMC2    C3 1101   3.396   4.210   1.659  0.0995  0.5145 -0.1994
   71TMC2    C4 1102   3.155   4.292   1.559 -0.1315 -0.3396 -0.8317
   71TMC2    C5 1103   3.192   4.318   1.688 -0.4419  0.6363  0.3572
   71TMC2    C6 1104   3.309   4.274   1.742 -0.1493 -0.5442  0.0588
   71TMC2     C 1105   3.212   4.165   1.347  0.3535 -0.1143 -0.3131
   71TMC2     O 1106   3.305   4.117   1.283 -0.2446  0.4117  0.9655
   71TMC2     H 1107   3.435   4.123   1.469  0.2405  1.1376 -0.4589
   71TMC2    H1 1108   3.059   4.312   1.513 -0.1898  0.2659 -0.4458
   71TMC2    H2 1109   3.309   4.256   1.848 -1.2696 -0.1297  0.1344
   71TMC2    C7 1110   3.101   4.380   1.778 -0.9434 -0.2240 -0.5130
   71TMC2    C8 1111   3.502   4.133   1.719 -0.1389  0.0996 -0.2914
   71TMC2    O1 1112   3.142   4.411   1.889  0.1031 -0.1092 -0.4191
   71TMC2    O2 1113   3.541   4.031   1.661 -0.2023  0.5240  0.5723
   71TMC2    O5 1114   3.560   4.200   1.816  0.4922 -0.1923 -0.0293
   71TMC2    H5 1115   3.508   4.282   1.830 -0.3502 -0.7757  0.2467
   72MPD2     C 1116   2.908   4.133   0.930  0.1861 -0.2409 -0.6197
   72MPD2    C1 1117   3.049   4.156   0.939 -0.2725 -0.0841  0.8610
   72MPD2    C2 1118   3.104   4.163   1.062  0.3863 -0.1762 -0.5785
   72MPD2    C3 1119   3.029   4.154   1.178  0.6870  0.1484 -0.2093
   72MPD2    C4 1120   2.890   4.124   1.167 -0.3137  0.6133  0.1174
   72MPD2    C5 1121   2.836   4.119   1.042 -0.0486 -0.4321  0.3671
   72MPD2     H 1122   3.212   4.160   1.069  0.3576  0.1545  0.0392
   72MPD2    H1 1123   2.831   4.114   1.258 -1.5519  2.4306 -0.4900
   72MPD2    H2 1124   2.855   4.131   0.836 -0.8654  1.9255 -0.0774
   72MPD2    H3 1125   2.730   4.102   1.035  0.1622 -0.7475 -2.1748
   72MPD2     N 1126   3.074   4.168   1.311  0.3287  0.0629  0.4031
   72MPD2    H5 1127   3.000   4.152   1.378  1.4654  0.1592  1.6847
   72MPD2    N1 1128   3.146   4.168   0.828  0.1401 -0.2619 -0.5493
   72MPD2    H7 1129   3.240   4.192   0.858 -0.4592  1.6841 -0.2163
   73TMC2    C1 1130   3.439   1.413  15.026  0.0740  0.5969 -0.5857
   73TMC2    C2 1131   3.370   1.306  15.080 -0.3828  0.4176 -0.3099
   73TMC2    C3 1132   3.281   1.333  15.183  0.0955  0.3852 -0.0097
   73TMC2    C4 1133   3.412   1.543  15.066  0.8008 -0.4278 -0.1804
   73TMC2    C5 1134   3.301   1.564  15.147  0.4363  0.2045  0.5781
   73TMC2    C6 1135   3.239   1.463  15.205  0.3988 -0.0490 -0.5810
   73TMC2     C 1136   3.467   1.407  14.884 -0.3702 -0.0867 -0.3981
   73TMC2     O 1137   3.447   1.515  14.833  0.0947 -0.6160 -0.7740
   73TMC2     H 1138   3.394   1.201  15.068  0.3262  0.3455  1.7167
   73TMC2    H1 1139   3.466   1.625  15.021  1.9790  0.1900  2.3799
   73TMC2    H2 1140   3.152   1.488  15.265  1.5907 -0.3397  1.2512
   73TMC2    C7 1141   3.216   1.670  15.099  0.2582 -0.7791 -0.7434
   73TMC2    C8 1142   3.208   1.219  15.226 -0.8030  0.0143 -0.1413
   73TMC2    O1 1143   3.133   1.721  15.176  0.3849  0.5358 -0.0646
   73TMC2    O2 1144   3.194   1.121  15.155  0.3793  0.2994  0.0946
   73TMC2    O5 1145   3.189   1.232  15.359  0.0221  0.4062  0.3046
   73TMC2    H5 1146   3.212   1.318  15.401 -2.3570  1.0963  0.1637
   74MPD2     C 1147   3.423   1.175  14.428 -0.3172 -0.5162  0.1515
   74MPD2    C1 1148   3.393   1.306  14.466 -0.7512 -0.7328  0.3401
   74MPD2    C2 1149   3.424   1.343  14.600  0.5618  0.5598 -0.1902
   74MPD2    C3 1150   3.476   1.255  14.691  0.4831 -0.1620  0.0980
   74MPD2    C4 1151   3.505   1.125  14.647  0.4269  0.3865 -0.2819
   74MPD2    C5 1152   3.486   1.090  14.514 -0.2869  0.1688 -0.1515
   74MPD2     H 1153   3.393   1.445  14.619 -1.3316 -0.0514 -0.0446
   74MPD2    H1 1154   3.546   1.054  14.718 -0.5657  0.9198  0.8299
   74MPD2    H2 1155   3.398   1.138  14.329 -1.3751  0.9198 -0.1254
   74MPD2    H3 1156   3.515   0.993  14.475  1.0886  0.8379 -0.7704
   74MPD2     N 1157   3.483   1.278  14.829  0.4675 -0.0858  0.2194
   74MPD2    H5 1158   3.531   1.205  14.881  0.6473  0.6204  1.0402
   74MPD2    N1 1159   3.329   1.396  14.382 -0.0184 -0.1724  0.2275
   74MPD2    H7 1160   3.320   1.494  14.408  1.9482 -0.3498  1.5969
   75TMC2    C1 1161   2.697   2.204  13.888  0.5050 -0.5528 -0.1496
   75TMC2    C2 1162   2.753   2.091  13.937  0.0755  0.6320 -0.6468
   75TMC2    C3 1163   2.741   1.973  13.874 -0.0818  0.1977 -0.1501
   75TMC2    C4 1164   2.625   2.202  13.769 -0.2589 -0.0195  0.0844
   75TMC2    C5 1165   2.599   2.079  13.710  0.3634  0.2668 -0.0241
   75TMC2    C6 1166   2.669   1.966  13.757 -0.2174  0.0190 -0.0233
   75TMC2     C 1167   2.703   2.322  13.970  0.8516 -0.0473  0.5680
   75TMC2     O 1168   2.747   2.312  14.084 -0.0105 -0.8198  0.1091
   75TMC2     H 1169   2.823   2.082  14.020 -1.0197  1.7393  0.3969
   75TMC2    H1 1170   2.580   2.288  13.722 -0.0645  0.0155 -0.0368
   75TMC2    H2 1171   2.676   1.875  13.698  1.9604  0.3672 -0.2958
   75TMC2    C7 1172   2.515   2.068  13.596  0.2845  0.0322 -0.1706
   75TMC2    C8 1173   2.818   1.856  13.923  0.0603 -0.2072 -1.0332
   75TMC2    O1 1174   2.487   2.167  13.539 -0.0785  0.5412 -0.1105
   75TMC2    O2 1175   2.852   1.761  13.849  0.1214  0.0956  0.1293
   75TMC2    O5 1176   2.768   1.840  14.048  0.0262 -0.3556 -0.1569
   75TMC2    H5 1177   2.716   1.919  14.071  0.3150  0.1590 -1.2868
   76TMC2    C1 1178   0.740   2.966  12.186  0.0388  0.3095  0.2989
   76TMC2    C2 1179   0.633   3.005  12.260  0.3930  0.2840  0.1373
   76TMC2    C3 1180   0.594   2.929  12.370  0.5484 -0.5342 -0.9152
   76TMC2    C4 1181   0.817   2.854  12.218 -0.1587 -0.1125 -0.0276
   76TMC2    C5 1182   0.785   2.790  12.337  0.1629  0.0543  0.5094
   76TMC2    C6 1183   0.675   2.825  12.411  0.8194 -0.0747  0.5124
   76TMC2     C 1184   0.766   3.035  12.057  0.2305 -0.2531  0.2164
   76TMC2     O 1185   0.731   3.156  12.050  0.4057  0.5882 -0.3628
   76TMC2     H 1186   0.579   3.092  12.223 -2.6427 -1.9897 -0.7516
   76TMC2    H1 1187   0.901   2.820  12.159 -2.0067 -0.7498 -2.3003
   76TMC2    H2 1188   0.668   2.767  12.502  0.1500  0.0338  0.5324
   76TMC2    C7 1189   0.817   2.650  12.340 -0.0747 -0.2064  0.0210
   76TMC2    C8 1190   0.509   2.991  12.462  0.0804 -0.1705  0.2363
   76TMC2    O1 1191   0.726   2.574  12.362 -0.3105  0.0640  0.6627
   76TMC2    O2 1192   0.474   3.107  12.477 -0.4238 -0.0316 -0.2085
   76TMC2    O5 1193   0.440   2.892  12.521  0.1065  0.6000 -0.1068
   76TMC2    H5 1194   0.467   2.804  12.488  0.5131  1.7343 -2.7649
   77MPD2     C 1195   0.786   3.036  11.548  0.1700 -0.1653 -0.3913
   77MPD2    C1 1196   0.706   3.112  11.635  1.1283  0.2245 -0.5015
   77MPD2    C2 1197   0.722   3.090  11.768  0.4802  0.3737  0.1907
   77MPD2    C3 1198   0.808   2.993  11.818  0.7776  0.4666  0.0285
   77MPD2    C4 1199   0.886   2.917  11.731  0.1545  1.1392 -0.3223
   77MPD2    C5 1200   0.869   2.941  11.594  0.4549  0.2143  0.0129
   77MPD2     H 1201   0.657   3.141  11.839  2.6074  1.9001  1.0449
   77MPD2    H1 1202   0.960   2.842  11.755 -2.5397 -1.1246  0.8658
   77MPD2    H2 1203   0.782   3.051  11.440 -0.9275  2.8170  0.0793
   77MPD2    H3 1204   0.941   2.884  11.538 -0.8157 -1.7325  0.3783
   77MPD2     N 1205   0.814   2.954  11.956  0.5426  0.0330 -0.3904
   77MPD2    H5 1206   0.847   2.859  11.972  3.5548  0.8506 -1.6824
   77MPD2    N1 1207   0.614   3.207  11.586 -0.0754 -0.9002 -0.6799
   77MPD2    H7 1208   0.579   3.278  11.651 -1.0043 -1.0622 -1.0017
   78TMC2    C1 1209   2.439   4.089   1.881  0.3415 -0.0563  0.3279
   78TMC2    C2 1210   2.423   4.158   1.995  0.1784  0.2430 -0.3311
   78TMC2    C3 1211   2.532   4.200   2.067 -0.1872 -0.2950 -0.4823
   78TMC2    C4 1212   2.562   4.041   1.839 -0.4930  0.1480 -0.2993
   78TMC2    C5 1213   2.668   4.102   1.903 -0.1498  0.1619 -0.2613
   78TMC2    C6 1214   2.657   4.178   2.020  0.6370 -0.0523  0.2953
   78TMC2     C 1215   2.319   4.059   1.809  1.0252  0.0119 -0.0688
   78TMC2     O 1216   2.221   4.130   1.831 -0.5260 -0.0791  0.1383
   78TMC2     H 1217   2.324   4.184   2.031  0.2076 -2.6577  1.7843
   78TMC2    H1 1218   2.576   3.987   1.746  0.7175 -1.5718  0.9072
   78TMC2    H2 1219   2.735   4.240   2.062  0.0337  1.8389 -1.3884
   78TMC2    C7 1220   2.799   4.057   1.859 -0.3699 -0.5981 -0.6324
   78TMC2    C8 1221   2.517   4.297   2.178 -0.1990 -0.0255 -0.2209
   78TMC2    O1 1222   2.795   4.008   1.745 -0.4853  0.6037  0.0518
   78TMC2    O2 1223   2.591   4.388   2.196  0.4280 -0.1362 -0.2572
   78TMC2    O5 1224   2.400   4.270   2.242 -0.0841 -0.3202 -0.4102
   78TMC2    H5 1225   2.365   4.180   2.228 -0.8361  0.5035 -3.6858
   79MPD1     C 1226   2.082   3.837   1.423 -0.0148  0.0953  0.2781
   79MPD1    C1 1227   2.048   3.950   1.487  0.0771  0.5010  0.1094
   79MPD1    C2 1228   2.129   3.986   1.592  0.0574 -0.5960  0.2499
   79MPD1    C3 1229   2.244   3.914   1.630  0.4537 -0.0863 -0.3721
   79MPD1    C4 1230   2.281   3.800   1.560 -0.1665 -0.2508 -0.4961
   79MPD1    C5 1231   2.201   3.768   1.457  0.1811  0.4232 -0.1889
   79MPD1     H 1232   2.103   4.074   1.649  0.0361  0.0610 -0.7736
   79MPD1    H1 1233   2.373   3.743   1.567 -1.7309 -2.6899 -0.1406
   79MPD1    H2 1234   2.019   3.798   1.344 -0.9619  1.9847  0.0987
   79MPD1    H3 1235   2.216   3.670   1.413  0.6154  1.0570 -1.4720
   79MPD1     N 1236   2.341   3.960   1.719  0.3633 -0.0412 -0.1796
   79MPD1    H5 1237   2.427   3.907   1.724  1.1448  1.2286  0.0156
   79MPD1    N1 1238   1.915   3.992   1.468 -0.2785  0.4343  0.7136
   79MPD1    H6 1239   1.904   4.087   1.505 -0.6737  1.1769 -1.3427
   79MPD1    H7 1240   1.869   3.975   1.379  1.1730 -0.3987  0.1265
   80TMC2    C1 1241   0.020   2.710  11.373 -0.1262 -0.1455  0.7162
   80TMC2    C2 1242   0.119   2.687  11.278  0.1943  0.4102 -0.1842
   80TMC2    C3 1243   0.171   2.558  11.269  0.9250 -0.4210  0.0150
   80TMC2    C4 1244   4.712   2.604  11.446 -0.3666  0.0285 -0.2619
   80TMC2    C5 1245   0.024   2.473  11.424 -0.0629 -0.1027 -0.5058
   80TMC2    C6 1246   0.132   2.449  11.342 -0.3698 -0.0496  0.6865
   80TMC2     C 1247   4.690   2.835  11.377  0.3169  0.0334 -0.2065
   80TMC2     O 1248   4.707   2.908  11.282 -0.3059 -0.0214  0.0615
   80TMC2     H 1249   0.160   2.772  11.226 -0.0154  1.2798  1.0836
   80TMC2    H1 1250   4.623   2.610  11.507 -0.5406  0.9885 -0.6128
   80TMC2    H2 1251   0.177   2.350  11.342  1.6835  0.8841  3.5315
   80TMC2    C7 1252   4.700   2.365  11.488  0.0372  0.1989 -0.2826
   80TMC2    C8 1253   0.277   2.535  11.169  0.0491  0.0877 -0.0641
   80TMC2    O1 1254   4.684   2.256  11.432  0.4578 -0.1088  0.5366
   80TMC2    O2 1255   0.315   2.623  11.089 -0.3053 -0.2009 -0.6024
   80TMC2    O5 1256   0.295   2.403  11.160 -0.2948  0.3404 -0.4347
   80TMC2    H5 1257   0.351   2.381  11.082  1.0519  0.7200  0.4357
   81MPD2     C 1258   4.473   3.031  11.358  0.4905 -0.5806 -0.4778
   81MPD2    C1 1259   4.499   2.956  11.473 -0.2055 -0.0242  0.6282
   81MPD2    C2 1260   4.426   2.992  11.593  0.0226  0.1883  0.4565
   81MPD2    C3 1261   4.322   3.082  11.587  0.9081  0.0210 -0.4604
   81MPD2    C4 1262   4.293   3.151  11.476  0.0384 -0.1063  0.6644
   81MPD2    C5 1263   4.378   3.131  11.366  0.3171 -0.4379 -0.1024
   81MPD2     H 1264   4.453   2.947  11.687 -0.3927  1.1695  1.0443
   81MPD2    H1 1265   4.211   3.222  11.480  0.5485  0.5855 -1.3643
   81MPD2    H2 1266   4.527   3.022  11.264  1.6269 -0.6374  0.1779
   81MPD2    H3 1267   4.360   3.187  11.275 -0.4671 -1.8010 -0.7781
   81MPD2     N 1268   4.248   3.112  11.707  0.7467  0.9389  0.1202
   81MPD2    H5 1269   4.177   3.185  11.705 -0.2139  0.0080  0.2429
   81MPD2    N1 1270   4.602   2.856  11.481 -0.5668 -0.3550  0.0245
   81MPD2    H7 1271   4.616   2.797  11.563  0.7005 -1.5504 -1.0682
   82TMC2    C1 1272   2.351   2.420  11.531  0.1583  0.5428 -0.0902
   82TMC2    C2 1273   2.427   2.531  11.554  0.6519  0.1017  0.9031
   82TMC2    C3 1274   2.477   2.545  11.677  0.4876  0.5873  0.4817
   82TMC2    C4 1275   2.323   2.336  11.637 -0.1573 -0.1691  0.2719
   82TMC2    C5 1276   2.384   2.351  11.759 -0.1530 -0.5244 -0.6485
   82TMC2    C6 1277   2.461   2.461  11.778  0.3285 -0.3309  0.1438
   82TMC2     C 1278   2.312   2.383  11.396 -0.1849  0.4709 -0.0574
   82TMC2     O 1279   2.349   2.452  11.309 -0.2820  0.7790 -0.4232
   82TMC2     H 1280   2.454   2.595  11.471  2.7362 -1.2929  0.5160
   82TMC2    H1 1281   2.287   2.238  11.608  0.5979 -0.2284 -0.4694
   82TMC2    H2 1282   2.491   2.472  11.882 -1.1195  0.1318  0.5135
   82TMC2    C7 1283   2.410   2.233  11.837  0.3762 -0.0139  0.4684
   82TMC2    C8 1284   2.533   2.673  11.716 -0.1454  0.2494  0.1139
   82TMC2    O1 1285   2.327   2.144  11.837  0.5525  0.4111  0.2814
   82TMC2    O2 1286   2.608   2.678  11.812 -0.2544  0.0058 -0.4885
   82TMC2    O5 1287   2.433   2.761  11.700  0.1500 -0.6772 -0.1534
   82TMC2    H5 1288   2.397   2.744  11.610 -0.8208  1.9313 -0.2698
   83MPD2     C 1289   1.932   2.245  11.085 -0.1610  0.6030  0.3611
   83MPD2    C1 1290   2.052   2.304  11.057  0.8089  0.1174  0.4684
   83MPD2    C2 1291   2.138   2.331  11.157 -0.1216 -0.0843  0.2798
   83MPD2    C3 1292   2.115   2.287  11.290 -0.7166 -0.2775  0.4386
   83MPD2    C4 1293   1.993   2.228  11.318  0.4682 -0.2284  0.5043
   83MPD2    C5 1294   1.904   2.218  11.217 -0.7275 -0.9205 -0.3700
   83MPD2     H 1295   2.237   2.372  11.137  0.2126 -1.0577 -0.0840
   83MPD2    H1 1296   1.948   2.212  11.415  2.6502 -0.1131  1.5474
   83MPD2    H2 1297   1.849   2.232  11.016 -1.5566  1.2516  1.9350
   83MPD2    H3 1298   1.806   2.176  11.236 -0.4543 -1.7586 -0.7878
   83MPD2     N 1299   2.200   2.302  11.402 -0.3835  0.2895  0.3157
   83MPD2    H5 1300   2.162   2.266  11.489 -0.7159 -2.2529 -0.8627
   83MPD2    N1 1301   2.076   2.329  10.921  0.3358  0.0291  0.3861
   83MPD2    H7 1302   2.006   2.303  10.853 -1.0006 -0.5187  1.9852
   84TMC2    C1 1303   3.997   1.332  10.625 -0.1360  0.6904  0.2950
   84TMC2    C2 1304   4.056   1.429  10.556 -0.5088 -0.7413  0.0670
   84TMC2    C3 1305   3.984   1.489  10.461 -0.4666  0.4921 -0.7115
   84TMC2    C4 1306   3.871   1.286  10.603  0.3931 -0.1022  0.0996
   84TMC2    C5 1307   3.802   1.354  10.504 -0.1189 -0.9597 -0.2200
   84TMC2    C6 1308   3.857   1.455  10.423  0.3907 -0.1397  0.5692
   84TMC2     C 1309   4.025   1.320  10.766  0.7707 -0.1568 -0.1315
   84TMC2     O 1310   3.941   1.265  10.834  0.1306  0.2094  0.1474
   84TMC2     H 1311   4.153   1.468  10.584 -0.9583  0.5628 -0.1731
   84TMC2    H1 1312   3.837   1.198  10.656 -0.6422 -0.0370 -0.4618
   84TMC2    H2 1313   3.799   1.503  10.345 -0.0919 -0.2281  0.8764
   84TMC2    C7 1314   3.666   1.314  10.484 -0.0785 -0.8101  0.0028
   84TMC2    C8 1315   4.061   1.586  10.389  0.0008 -0.4807 -0.1476
   84TMC2    O1 1316   3.634   1.213  10.548 -0.5646  0.0284  0.3367
   84TMC2    O2 1317   4.155   1.653  10.434  0.1235 -0.1613  0.2366
   84TMC2    O5 1318   4.000   1.609  10.268 -0.4885 -0.0082 -0.1871
   84TMC2    H5 1319   3.935   1.549  10.225 -1.2514 -0.0618  1.0557
   85TMC2    C1 1320   0.561   4.500  15.879  0.8375 -0.4543  0.2872
   85TMC2    C2 1321   0.494   4.620  15.875 -0.0679  0.3178  0.1077
   85TMC2    C3 1322   0.513   4.701  15.768 -0.0853 -0.0131  0.3708
   85TMC2    C4 1323   0.647   4.461  15.778 -0.2879 -0.5994  0.5096
   85TMC2    C5 1324   0.670   4.547  15.676  0.1468 -0.1627 -0.8382
   85TMC2    C6 1325   0.596   4.666  15.666 -0.2549  0.5940 -0.6574
   85TMC2     C 1326   0.549   4.427  15.993  1.4033  0.4580 -0.2972
   85TMC2     O 1327   0.555   4.484  16.100 -0.4065 -0.2450  0.1627
   85TMC2     H 1328   0.440   4.657  15.962  0.7542  0.4566  0.5576
   85TMC2    H1 1329   0.695   4.367  15.799  0.5408 -0.1007  0.8662
   85TMC2    H2 1330   0.609   4.737  15.586  0.8808 -0.9149 -1.7884
   85TMC2    C7 1331   0.780   4.517  15.591 -0.3966 -0.9125  0.0315
   85TMC2    C8 1332   0.408   0.062  15.745  0.5950  0.2283  0.3639
   85TMC2    O1 1333   0.836   4.408  15.605 -0.1045 -0.6068  0.5108
   85TMC2    O2 1334   0.417   0.138  15.651  0.3597 -0.0205 -0.0817
   85TMC2    O5 1335   0.300   0.020  15.806  0.2425 -0.3576  0.1518
   85TMC2    H5 1336   0.313   4.676  15.857 -1.9670 -1.5918 -1.3172
   86MPD2     C 1337   0.399   3.993  16.220  0.3250 -0.4378 -0.5006
   86MPD2    C1 1338   0.362   3.986  16.093 -0.5762  0.8295  0.4723
   86MPD2    C2 1339   0.406   4.089  16.013  0.4501  0.2297  0.0116
   86MPD2    C3 1340   0.480   4.190  16.055 -0.9337  0.1239 -0.7743
   86MPD2    C4 1341   0.516   4.192  16.189  0.3404  0.0106 -0.6371
   86MPD2    C5 1342   0.488   4.085  16.262 -0.1448 -0.1667  0.3399
   86MPD2     H 1343   0.375   4.092  15.909 -0.8369  0.3164  0.4059
   86MPD2    H1 1344   0.561   4.279  16.233  1.2154  0.3725 -2.2271
   86MPD2    H2 1345   0.360   3.924  16.294  1.3369  2.1214  2.4256
   86MPD2    H3 1346   0.504   4.087  16.369  0.5593  0.0960  0.2278
   86MPD2     N 1347   0.519   4.293  15.964  0.0328  0.2191 -0.1559
   86MPD2    H5 1348   0.510   4.271  15.865  0.7689  0.6285 -0.3113
   86MPD2    N1 1349   0.271   3.893  16.037 -0.1430 -0.2451 -0.0803
   86MPD2    H7 1350   0.273   3.875  15.937 -1.4596  1.4044 -0.3944
   87TMC2    C1 1351   2.999   2.268   1.371  0.1895  0.3221  0.0029
   87TMC2    C2 1352   3.004   2.214   1.497  0.3946  0.3176  0.7999
   87TMC2    C3 1353   2.979   2.295   1.606  0.5699  0.1699 -0.4335
   87TMC2    C4 1354   2.963   2.404   1.351 -0.1682  0.5603 -0.2570
   87TMC2    C5 1355   2.947   2.488   1.460 -0.0947 -0.0674  0.4467
   87TMC2    C6 1356   2.947   2.429   1.587 -0.7359 -0.6956 -0.3951
   87TMC2     C 1357   3.033   2.197   1.249  0.5288 -0.5199  1.0334
   87TMC2     O 1358   2.977   2.229   1.143 -0.3369  0.1167  0.6039
   87TMC2     H 1359   3.008   2.107   1.512 -4.5866  0.0024  0.0228
   87TMC2    H1 1360   2.947   2.429   1.247  1.4958  0.0180 -0.6489
   87TMC2    H2 1361   2.936   2.486   1.679 -2.5584 -1.7010  0.0114
   87TMC2    C7 1362   2.878   2.610   1.439 -0.5994  0.0172 -0.1719
   87TMC2    C8 1363   2.982   2.251   1.737 -0.2593 -0.1915 -0.5667
   87TMC2    O1 1364   2.828   2.626   1.326  0.0449 -0.1410  1.0637
   87TMC2    O2 1365   3.034   2.318   1.828 -0.5574  0.0811  0.0352
   87TMC2    O5 1366   2.897   2.148   1.757 -0.1269 -0.2941 -0.1884
   87TMC2    H5 1367   2.877   2.120   1.665 -0.4144  0.1479 -0.2571
   88MPD2     C 1368   2.860   2.897   1.664  0.6961 -0.4985 -0.0525
   88MPD2    C1 1369   2.821   2.823   1.552 -0.1285 -0.8957  0.7762
   88MPD2    C2 1370   2.737   2.880   1.457  0.1308  0.3942 -0.2312
   88MPD2    C3 1371   2.680   3.007   1.476 -0.2009 -0.0010  0.0343
   88MPD2    C4 1372   2.725   3.084   1.585  0.2512 -0.5666  0.5980
   88MPD2    C5 1373   2.802   3.024   1.677 -1.0194  0.4788  0.1885
   88MPD2     H 1374   2.704   2.813   1.378 -1.0879  0.2939  0.3653
   88MPD2    H1 1375   2.695   3.187   1.588  1.7507 -0.0901 -0.2827
   88MPD2    H2 1376   2.932   2.874   1.741  0.4377 -2.5695 -0.4274
   88MPD2    H3 1377   2.828   3.075   1.770 -2.7143  0.4962  0.6469
   88MPD2     N 1378   2.579   3.064   1.391  0.2102 -0.1930  0.7880
   88MPD2    H5 1379   2.540   3.155   1.413 -1.2162 -1.5384  3.7115
   88MPD2    N1 1380   2.889   2.697   1.541  0.1420  0.0940 -0.1161
   88MPD2    H7 1381   2.958   2.677   1.613 -0.8220  0.3483  0.8759
   89TMC2    C1 1382   4.082   1.479   1.979 -0.3103  0.6202 -0.0140
   89TMC2    C2 1383   4.135   1.556   2.084 -0.3606 -0.2115  0.1846
   89TMC2    C3 1384   4.116   1.692   2.069 -0.1752  0.0269  0.0359
   89TMC2    C4 1385   4.012   1.527   1.868 -0.5044  0.2818  0.2459
   89TMC2    C5 1386   3.986   1.661   1.872  0.2531  0.0030 -0.7033
   89TMC2    C6 1387   4.034   1.743   1.971  0.0758  0.1741  0.2578
   89TMC2     C 1388   4.090   1.339   2.003 -0.2898  0.7222  0.0541
   89TMC2     O 1389   4.173   1.299   2.080  0.0237 -0.4679  0.8288
   89TMC2     H 1390   4.171   1.519   2.179 -2.4603 -0.6570  0.8036
   89TMC2    H1 1391   3.985   1.463   1.784  0.1256  0.6486 -0.2400
   89TMC2    H2 1392   4.009   1.847   1.988 -2.0794 -0.1159 -1.2317
   89TMC2    C7 1393   3.905   1.725   1.774 -0.4162 -0.4498 -0.8746
   89TMC2    C8 1394   4.190   1.778   2.167 -0.3702  0.8681 -0.3794
   89TMC2    O1 1395   3.848   1.828   1.806  0.6619  0.1299  0.3457
   89TMC2    O2 1396   4.151   1.885   2.203  0.5888 -0.3325  0.3357
   89TMC2    O5 1397   4.309   1.723   2.191 -0.3159  0.0508  0.9366
   89TMC2    H5 1398   4.325   1.651   2.126  0.5040  0.9964  0.0706
   90MPD2     C 1399   3.987   0.862   1.826  0.1962 -0.4999  0.1589
   90MPD2    C1 1400   3.885   0.945   1.792  0.1393  0.6589 -0.6232
   90MPD2    C2 1401   3.882   1.079   1.834  0.5127 -1.0563  0.7449
   90MPD2    C3 1402   3.986   1.132   1.911  0.0758  0.1251  0.5653
   90MPD2    C4 1403   4.096   1.046   1.935 -0.6751  0.4035  0.0480
   90MPD2    C5 1404   4.098   0.909   1.892  0.5572  0.3495 -0.3071
   90MPD2     H 1405   3.795   1.140   1.816  0.6759 -0.8941  0.5076
   90MPD2    H1 1406   4.182   1.082   1.990 -0.4413  0.3447 -0.2792
   90MPD2    H2 1407   4.001   0.761   1.788  0.7843 -0.6564  0.7892
   90MPD2    H3 1408   4.184   0.845   1.907  1.2245  0.8675 -1.8930
   90MPD2     N 1409   3.993   1.269   1.927 -0.2168 -0.0043  0.0642
   90MPD2    H5 1410   3.914   1.322   1.891 -0.6868 -1.1747 -0.6306
   90MPD2    N1 1411   3.772   0.902   1.720 -0.3248  0.5148 -0.1505
   90MPD2    H7 1412   3.692   0.964   1.715 -0.4132  0.5147  1.2739
   91TMC2    C1 1413   0.380   0.168  16.252  0.2141  0.1961 -0.1796
   91TMC2    C2 1414   0.424   0.199  16.378 -0.2763  0.0956 -0.3247
   91TMC2    C3 1415   0.332   0.196  16.481 -0.5206  0.0571  0.3528
   91TMC2    C4 1416   0.254   0.118  16.229  0.2162 -0.3069 -0.0887
   91TMC2    C5 1417   0.177   0.093  16.335 -0.3947  0.2082 -0.8542
   91TMC2    C6 1418   0.211   0.137  16.458 -0.0758  0.2513 -0.2729
   91TMC2     C 1419   0.469   0.167  16.137 -0.8701  0.1273  0.2658
   91TMC2     O 1420   0.422   0.151  16.021  0.0028 -0.5381 -0.4546
   91TMC2     H 1421   0.514   0.258  16.396 -0.4738 -0.2050  1.6956
   91TMC2    H1 1422   0.246   0.076  16.130 -0.9327 -0.5828  0.1175
   91TMC2    H2 1423   0.152   0.109  16.544  0.9796 -0.1026  0.3316
   91TMC2    C7 1424   0.072   4.729  16.323 -0.0170 -0.1916  0.3948
   91TMC2    C8 1425   0.393   0.206  16.615  0.3138 -0.1427 -0.4808
   91TMC2    O1 1426   0.046   4.669  16.428 -0.0066 -0.3986  0.1107
   91TMC2    O2 1427   0.514   0.224  16.629  0.6293 -0.2132  0.3607
   91TMC2    O5 1428   0.300   0.206  16.717  0.2554 -0.5660  0.0098
   91TMC2    H5 1429   0.206   0.210  16.690  0.0391 -1.3853  0.6400
   92MPD2     C 1430   0.712   0.157  15.958  0.4706  0.6190 -0.3260
   92MPD2    C1 1431   0.718   0.189  16.097 -0.6114  0.4881  0.3074
   92MPD2    C2 1432   0.843   0.189  16.155 -0.0027  0.2209  0.4457
   92MPD2    C3 1433   0.965   0.159  16.086  0.5022  0.3019  0.0610
   92MPD2    C4 1434   0.952   0.123  15.953 -0.5394  0.4506  0.4094
   92MPD2    C5 1435   0.826   0.121  15.892  0.6337 -0.1219 -0.1051
   92MPD2     H 1436   0.850   0.215  16.260 -2.6613  0.8014  0.4878
   92MPD2    H1 1437   1.033   0.085  15.892  0.3899  1.2142  1.1689
   92MPD2    H2 1438   0.622   0.155  15.897 -0.5771 -2.3884  1.2901
   92MPD2    H3 1439   0.823   0.102  15.786 -0.2575  0.7949 -0.2446
   92MPD2     N 1440   1.097   0.172  16.140 -0.4064 -0.6518  0.4398
   92MPD2    H5 1441   1.172   0.137  16.082 -1.4299  0.3528 -1.4875
   92MPD2    N1 1442   0.599   0.200  16.173 -0.4360  0.2054 -0.1004
   92MPD2    H7 1443   0.611   0.233  16.268 -2.6567 -1.5379  0.7900
   93TMC2    C1 1444   2.556   0.514  13.498 -0.6306  0.0189  0.3632
   93TMC2    C2 1445   2.483   0.634  13.488  0.6746 -0.1149 -0.8986
   93TMC2    C3 1446   2.544   0.755  13.509 -0.6661  0.0625 -0.7350
   93TMC2    C4 1447   2.696   0.532  13.498 -0.4753 -0.0158  0.4251
   93TMC2    C5 1448   2.757   0.657  13.512  0.1265 -0.5902 -0.4389
   93TMC2    C6 1449   2.681   0.768  13.523  0.7598 -0.7801 -0.1599
   93TMC2     C 1450   2.488   0.390  13.453 -0.3056  0.1654 -0.2561
   93TMC2     O 1451   2.552   0.305  13.393  0.0925  1.1328  0.1832
   93TMC2     H 1452   2.377   0.635  13.466  0.6515 -0.9192 -0.8212
   93TMC2    H1 1453   2.765   0.450  13.510  0.8033  1.0011 -0.0374
   93TMC2    H2 1454   2.724   0.867  13.531 -2.1403  0.6325 -2.2203
   93TMC2    C7 1455   2.890   0.656  13.567  0.1393  0.1366 -0.2665
   93TMC2    C8 1456   2.460   0.877  13.522 -0.1348 -0.4431  0.4570
   93TMC2    O1 1457   2.923   0.559  13.635  0.9048 -0.3499 -0.1168
   93TMC2    O2 1458   2.395   0.915  13.422 -0.2192 -0.5367  0.8188
   93TMC2    O5 1459   2.403   0.866  13.643  0.0845  0.3083  0.3412
   93TMC2    H5 1460   2.454   0.815  13.709  0.4663 -1.1351 -1.0800
   94MPD2     C 1461   2.321   0.146  13.435 -0.2819  0.6109  0.4158
   94MPD2    C1 1462   2.310   0.238  13.532  0.0028  0.9673  0.0816
   94MPD2    C2 1463   2.225   0.216  13.638 -0.4479 -0.7060  0.0996
   94MPD2    C3 1464   2.151   0.107  13.661  0.6272 -0.6232 -0.0167
   94MPD2    C4 1465   2.158   0.009  13.561 -0.2501 -0.7670 -0.4159
   94MPD2    C5 1466   2.243   0.035  13.454  0.8381  0.5183  0.2753
   94MPD2     H 1467   2.206   0.297  13.707  0.6694 -0.4938  0.1567
   94MPD2    H1 1468   2.100   4.656  13.562  0.1725 -1.0574 -2.5273
   94MPD2    H2 1469   2.387   0.151  13.349 -1.5019 -0.0673 -0.5741
   94MPD2    H3 1470   2.252   4.690  13.387  1.0206 -0.1221  1.1016
   94MPD2     N 1471   2.062   0.094  13.776 -0.4384 -0.6131  1.2688
   94MPD2    H5 1472   2.001   0.014  13.766  1.0827 -1.2464 -3.1914
   94MPD2    N1 1473   2.382   0.361  13.531  0.5578  0.3239  0.6107
   94MPD2    H7 1474   2.367   0.424  13.609  0.0954  2.5933 -1.2838
   95TMC2    C1 1475   2.286   2.871  15.850  0.8987 -0.2105 -0.1016
   95TMC2    C2 1476   2.283   2.879  15.987 -0.3425 -0.0139 -0.2399
   95TMC2    C3 1477   2.284   3.011  16.039 -0.1656  0.2950  0.0851
   95TMC2    C4 1478   2.270   2.980  15.767  0.4228  0.1668 -0.3183
   95TMC2    C5 1479   2.254   3.105  15.819 -0.3255  0.1165  0.0053
   95TMC2    C6 1480   2.265   3.117  15.956 -0.4004  0.6301  0.2168
   95TMC2     C 1481   2.360   2.762  15.793  0.2797  0.9723 -1.2286
   95TMC2     O 1482   2.460   2.796  15.730 -0.1380  0.1425  0.1590
   95TMC2     H 1483   2.294   2.788  16.044 -0.0220  1.0087  1.3329
   95TMC2    H1 1484   2.271   2.962  15.661  1.1619 -0.0126 -0.2799
   95TMC2    H2 1485   2.241   3.210  16.006  2.0238  0.7848  1.0663
   95TMC2    C7 1486   2.199   3.205  15.735 -0.3488  0.3995 -0.0077
   95TMC2    C8 1487   2.286   3.032  16.178 -0.0428  0.1356  0.2292
   95TMC2    O1 1488   2.132   3.291  15.792 -0.0616 -0.0627  0.4425
   95TMC2    O2 1489   2.254   3.144  16.221 -0.1485  0.0793  0.3457
   95TMC2    O5 1490   2.372   2.938  16.238  0.0532  0.5238  0.2437
   95TMC2    H5 1491   2.393   2.860  16.182 -4.1915  1.3294 -2.4515
   96MPD2     C 1492   2.437   2.282  15.681  0.5155 -0.1007 -0.3885
   96MPD2    C1 1493   2.519   2.386  15.679  0.0744 -0.3744 -0.7512
   96MPD2    C2 1494   2.472   2.507  15.718  0.0111  0.1641 -1.0788
   96MPD2    C3 1495   2.342   2.526  15.771 -0.3059  0.4340 -0.4825
   96MPD2    C4 1496   2.268   2.415  15.782  0.3065  0.1840  0.1381
   96MPD2    C5 1497   2.318   2.295  15.741  0.4690  0.2197  1.2712
   96MPD2     H 1498   2.539   2.589  15.694  2.8158 -1.9520 -0.4835
   96MPD2    H1 1499   2.173   2.406  15.832  0.7706  0.8106  1.1354
   96MPD2    H2 1500   2.466   2.182  15.650 -0.4713 -0.5134  0.0399
   96MPD2    H3 1501   2.257   2.206  15.758  0.5435 -0.3840 -1.6933
   96MPD2     N 1502   2.296   2.646  15.824 -0.7952 -0.1307  0.6878
   96MPD2    H5 1503   2.210   2.646  15.877  0.1544 -1.6651  2.2119
   96MPD2    N1 1504   2.652   2.365  15.627  0.3208 -0.3790 -0.2903
   96MPD2    H7 1505   2.658   2.274  15.582 -2.0619 -0.6441 -0.1053
   97TMC2    C1 1506   0.485   4.284   0.278  0.4182 -0.2699 -0.1938
   97TMC2    C2 1507   0.486   4.240   0.148 -0.5781 -0.5650  0.3010
   97TMC2    C3 1508   0.578   4.306   0.066 -0.6554 -0.5628  0.3031
   97TMC2    C4 1509   0.559   4.393   0.323 -0.0210 -0.0907 -0.3829
   97TMC2    C5 1510   0.650   4.451   0.240  0.3776 -0.7859 -0.0335
   97TMC2    C6 1511   0.647   4.420   0.109 -0.2547  0.3425  0.1744
   97TMC2     C 1512   0.387   4.229   0.375 -0.4134 -0.0881  0.0972
   97TMC2     O 1513   0.345   4.302   0.465  0.2749 -0.5497  0.3396
   97TMC2     H 1514   0.433   4.154   0.109 -0.3744  0.1074 -1.4350
   97TMC2    H1 1515   0.540   4.427   0.424 -3.2220  0.1795 -1.0601
   97TMC2    H2 1516   0.718   4.466   0.041  0.8520 -2.2313 -0.4218
   97TMC2    C7 1517   0.727   4.563   0.295  0.4733  0.8529  0.0557
   97TMC2    C8 1518   0.601   4.237  17.692 -0.0908  0.0656 -0.2214
   97TMC2    O1 1519   0.742   4.656   0.221  0.2042 -0.0537 -0.2391
   97TMC2    O2 1520   0.568   4.120  17.664 -0.0330 -0.4324  0.0063
   97TMC2    O5 1521   0.652   4.316  17.599  0.1751  0.4138  0.1765
   97TMC2    H5 1522   0.690   4.402  17.627  2.0079 -0.1058 -0.6596
   98MPD2     C 1523   0.081   3.847   0.540  0.4369  0.0846  0.0009
   98MPD2    C1 1524   0.114   3.971   0.596 -0.8219  0.0711 -0.2840
   98MPD2    C2 1525   0.197   4.059   0.530 -0.3768  0.2351  0.0066
   98MPD2    C3 1526   0.271   4.022   0.417  0.0911 -0.8308  0.0038
   98MPD2    C4 1527   0.251   3.892   0.376  0.1161  0.3547 -0.7667
   98MPD2    C5 1528   0.160   3.803   0.431 -0.1605 -0.2085  0.5745
   98MPD2     H 1529   0.210   4.157   0.575  1.6223  0.1630 -0.4091
   98MPD2    H1 1530   0.296   3.856   0.284  1.4787  1.7263 -0.6421
   98MPD2    H2 1531   0.010   3.777   0.583  0.4363  0.1384  0.0885
   98MPD2    H3 1532   0.135   3.710   0.382 -0.7745 -0.3541  1.1481
   98MPD2     N 1533   0.355   4.103   0.339 -0.1084 -0.3880  0.3768
   98MPD2    H5 1534   0.406   4.064   0.261 -1.6388  0.1689 -0.9006
   98MPD2    N1 1535   0.031   4.023   0.700 -0.6061 -0.0693 -0.0348
   98MPD2    H7 1536   4.693   3.963   0.728 -0.1797 -1.3095 -1.5089
   99TMC2    C1 1537   3.565   1.442   1.855 -0.3999 -0.3989  0.5474
   99TMC2    C2 1538   3.623   1.520   1.949 -0.2615 -0.5344  0.5794
   99TMC2    C3 1539   3.551   1.585   2.043  0.1837  0.1229  0.1700
   99TMC2    C4 1540   3.430   1.410   1.866  0.0675  0.4088 -0.4128
   99TMC2    C5 1541   3.365   1.464   1.968 -0.6873  0.6410  0.3761
   99TMC2    C6 1542   3.419   1.551   2.059 -0.9570 -0.0529 -0.1255
   99TMC2     C 1543   3.648   1.388   1.746 -0.3621 -0.0561  0.4116
   99TMC2     O 1544   3.767   1.397   1.772  0.3222 -0.1075 -0.0793
   99TMC2     H 1545   3.731   1.526   1.945 -0.2249 -1.0273  0.8106
   99TMC2    H1 1546   3.380   1.342   1.798  1.4308 -1.7402  0.7314
   99TMC2    H2 1547   3.353   1.602   2.128 -3.4293 -0.7829 -1.9857
   99TMC2    C7 1548   3.225   1.431   1.990 -0.4761 -0.3285 -0.4714
   99TMC2    C8 1549   3.608   1.671   2.147 -0.1245 -0.2382  0.3887
   99TMC2    O1 1550   3.177   1.422   2.108  0.0123  0.4749 -0.1561
   99TMC2    O2 1551   3.572   1.784   2.157 -0.3967 -0.7408  0.5756
   99TMC2    O5 1552   3.735   1.620   2.168 -0.0208  0.0147 -0.6114
   99TMC2    H5 1553   3.732   1.523   2.155  2.1706  0.0472 -1.2645
  100MPD2     C 1554   3.794   1.274   1.514  0.0026 -0.7308  0.1144
  100MPD2    C1 1555   3.655   1.292   1.519  1.0580 -0.0273 -0.2057
  100MPD2    C2 1556   3.584   1.247   1.406  0.3455 -0.3552 -0.2300
  100MPD2    C3 1557   3.650   1.173   1.308  0.8242  0.8787 -0.6351
  100MPD2    C4 1558   3.784   1.140   1.314  0.4306 -0.1340 -0.4811
  100MPD2    C5 1559   3.851   1.189   1.421 -0.0842 -0.1697  0.6844
  100MPD2     H 1560   3.477   1.264   1.397  0.3213 -1.9406 -2.6764
  100MPD2    H1 1561   3.849   1.093   1.240  2.5984  1.6285  0.3009
  100MPD2    H2 1562   3.865   1.315   1.585  0.2045 -1.2037  0.1831
  100MPD2    H3 1563   3.958   1.171   1.421 -0.1195 -0.3762  0.3654
  100MPD2     N 1564   3.572   1.127   1.203  0.5189 -0.0485  0.1252
  100MPD2    H5 1565   3.471   1.139   1.201  0.3909 -1.4199 -2.0769
  100MPD2    N1 1566   3.589   1.363   1.629  0.0526  0.4224  0.4157
  100MPD2    H7 1567   3.488   1.363   1.620 -0.1598  0.7094  2.7790
  101TMC2    C1 1568   3.608   2.908  13.405  0.2170 -0.2643  0.7217
  101TMC2    C2 1569   3.590   2.978  13.519 -0.4138 -0.3878  0.5083
  101TMC2    C3 1570   3.542   3.107  13.511  0.7522 -0.5753 -0.4130
  101TMC2    C4 1571   3.587   2.967  13.285  0.6494  0.1829 -0.8978
  101TMC2    C5 1572   3.539   3.095  13.279  0.4499 -0.2855  0.3030
  101TMC2    C6 1573   3.516   3.170  13.389 -0.0544  0.3800  0.1954
  101TMC2     C 1574   3.609   2.759  13.422 -0.2814  0.1273  0.3012
  101TMC2     O 1575   3.586   2.705  13.528 -0.9260 -0.6162 -0.2453
  101TMC2     H 1576   3.604   2.925  13.613 -0.1014 -1.4734 -0.1529
  101TMC2    H1 1577   3.611   2.917  13.192  0.1095 -2.5978  0.4397
  101TMC2    H2 1578   3.480   3.273  13.384  0.7736  0.6461 -0.2286
  101TMC2    C7 1579   3.565   3.170  13.156  0.4927 -0.0738  0.6190
  101TMC2    C8 1580   3.478   3.171  13.618  0.4496 -0.0671 -0.0853
  101TMC2    O1 1581   3.661   3.126  13.095 -0.0269  0.4623  0.2277
  101TMC2    O2 1582   3.390   3.252  13.596  1.0931 -0.0107 -0.1254
  101TMC2    O5 1583   3.519   3.127  13.735  0.2772 -0.2981 -0.5902
  101TMC2    H5 1584   3.606   3.081  13.741  0.8323  0.8794  0.5081
  102MPD2     C 1585   3.759   2.501  13.195  0.0835  0.1520 -0.0592
  102MPD2    C1 1586   3.685   2.556  13.305 -0.4504  0.7997  0.0124
  102MPD2    C2 1587   3.635   2.460  13.394 -0.2526  0.3169  0.3766
  102MPD2    C3 1588   3.645   2.321  13.362  0.6824 -0.8728 -0.0961
  102MPD2    C4 1589   3.711   2.278  13.248  0.4904 -0.3120  0.2104
  102MPD2    C5 1590   3.766   2.370  13.156  0.3028 -0.8500 -0.6317
  102MPD2     H 1591   3.565   2.494  13.469  0.1460 -0.5558  1.1438
  102MPD2    H1 1592   3.739   2.174  13.230  0.5628 -0.4097  0.8709
  102MPD2    H2 1593   3.801   2.579  13.133 -0.6825 -1.9470 -3.1965
  102MPD2    H3 1594   3.802   2.337  13.059  1.1444 -0.0297 -0.5943
  102MPD2     N 1595   3.585   2.233  13.453  0.6377  0.2436  0.3841
  102MPD2    H5 1596   3.565   2.277  13.542 -0.3823  0.9725 -0.2094
  102MPD2    N1 1597   3.658   2.693  13.309 -0.8952  0.5385  0.3140
  102MPD2    H7 1598   3.686   2.749  13.230 -1.3955  1.2476  0.6345
  103TMC2    C1 1599   1.582   2.451  12.363  0.3002  0.0920 -0.4762
  103TMC2    C2 1600   1.679   2.487  12.268 -0.2026  0.3018  0.0483
  103TMC2    C3 1601   1.808   2.505  12.326  0.6246 -0.7663 -0.5556
  103TMC2    C4 1602   1.607   2.450  12.495 -0.8418 -0.1866 -0.3719
  103TMC2    C5 1603   1.728   2.487  12.541 -0.6697  0.4934 -0.9285
  103TMC2    C6 1604   1.837   2.510  12.456 -0.4137  0.6397  0.5680
  103TMC2     C 1605   1.445   2.461  12.320 -0.4025 -0.2355  0.3809
  103TMC2     O 1606   1.430   2.531  12.219  0.4031  0.3192  0.3621
  103TMC2     H 1607   1.651   2.486  12.163  2.1468  1.9605 -0.6160
  103TMC2    H1 1608   1.529   2.423  12.565 -0.7497  0.9565  0.1754
  103TMC2    H2 1609   1.940   2.521  12.486 -0.6887  2.3098  0.8909
  103TMC2    C7 1610   1.743   2.504  12.681  0.0578 -0.2044 -0.0299
  103TMC2    C8 1611   1.907   2.579  12.249  0.0248  0.1403 -0.5205
  103TMC2    O1 1612   1.660   2.445  12.752  0.5886  0.0643 -0.4983
  103TMC2    O2 1613   1.964   2.675  12.292  0.0779  0.0924  0.3662
  103TMC2    O5 1614   1.878   2.550  12.125 -0.6623 -0.1977 -0.2158
  103TMC2    H5 1615   1.824   2.469  12.106  1.2766 -1.8546  1.3936
  104MPD2     C 1616   1.147   2.264  12.400  0.3205 -0.6002 -0.3807
  104MPD2    C1 1617   1.221   2.379  12.375 -0.5122 -0.0478  1.0678
  104MPD2    C2 1618   1.154   2.500  12.342  0.9253  0.8018  0.5979
  104MPD2    C3 1619   1.018   2.506  12.355  0.4187  0.4576  0.6660
  104MPD2    C4 1620   0.945   2.390  12.379  0.0289  0.4573 -0.3258
  104MPD2    C5 1621   1.011   2.272  12.404  0.5129 -0.0770 -0.1989
  104MPD2     H 1622   1.216   2.586  12.319 -0.0228  0.7633 -2.1859
  104MPD2    H1 1623   0.837   2.389  12.382  0.0573  1.5124  1.1560
  104MPD2    H2 1624   1.199   2.169  12.414  1.6564  0.5846  2.7166
  104MPD2    H3 1625   0.953   2.186  12.435 -1.5452  2.1345  2.1131
  104MPD2     N 1626   0.952   2.633  12.343  0.1778 -0.1233  0.0450
  104MPD2    H5 1627   1.003   2.721  12.336 -2.6919  1.5660  0.1386
  104MPD2    N1 1628   1.363   2.371  12.377 -0.0876  0.0160  0.2252
  104MPD2    H7 1629   1.406   2.301  12.436 -1.4276 -0.8321  0.1960
  105TMC2    C1 1630   3.218   1.878   0.367 -0.5110 -0.1923 -0.3923
  105TMC2    C2 1631   3.210   2.006   0.341  0.2112  0.4847 -0.6420
  105TMC2    C3 1632   3.172   2.097   0.436  0.1366 -0.1020 -0.4327
  105TMC2    C4 1633   3.200   1.830   0.490  0.1085 -0.2313  0.9965
  105TMC2    C5 1634   3.166   1.920   0.583 -0.1833 -0.2239 -0.9363
  105TMC2    C6 1635   3.162   2.060   0.565 -0.4539 -1.1204  0.3903
  105TMC2     C 1636   3.263   1.791   0.260  0.2886 -0.2829  0.2093
  105TMC2     O 1637   3.248   1.672   0.278 -0.3331  0.1749  0.2079
  105TMC2     H 1638   3.200   2.041   0.238  1.9608  0.2192 -0.9033
  105TMC2    H1 1639   3.216   1.724   0.505 -2.5212 -0.7121  0.3328
  105TMC2    H2 1640   3.140   2.129   0.646 -0.6601 -1.3085  0.4976
  105TMC2    C7 1641   3.201   1.877   0.716  0.7106 -0.9688 -0.2071
  105TMC2    C8 1642   3.208   2.227   0.412  0.2341 -0.3264  0.1158
  105TMC2    O1 1643   3.266   1.774   0.732 -0.3507  0.1233 -0.2838
  105TMC2    O2 1644   3.305   2.249   0.339 -0.1171  0.7664  0.3558
  105TMC2    O5 1645   3.087   2.291   0.386 -0.0109  0.1411 -0.3626
  105TMC2    H5 1646   3.019   2.261   0.450  1.3202 -0.4554  0.7589
  106MPD2     C 1647   3.517   1.702  17.589  0.1139  0.8010 -0.8722
  106MPD2    C1 1648   3.553   1.827  17.629 -0.5728 -0.5027  0.1911
  106MPD2    C2 1649   3.496   1.877  17.744  0.2447  0.3419  0.0285
  106MPD2    C3 1650   3.408   1.803   0.065  0.0195 -0.0008  0.1663
  106MPD2    C4 1651   3.361   1.689   0.015  0.2297  0.4012  0.3461
  106MPD2    C5 1652   3.417   1.636  17.655  0.0973  0.2778 -0.4775
  106MPD2     H 1653   3.524   1.978   0.018 -2.0311  1.2777 -1.0926
  106MPD2    H1 1654   3.290   1.628   0.069 -0.7533  1.8298  0.6718
  106MPD2    H2 1655   3.523   1.669  17.486 -0.6838 -0.0531 -0.6474
  106MPD2    H3 1656   3.383   1.536  17.630  3.4611 -0.7096 -1.1058
  106MPD2     N 1657   3.347   1.868   0.176  0.2289  0.3674  0.5407
  106MPD2    H5 1658   3.367   1.966   0.193  0.6297  0.1586  1.2862
  106MPD2    N1 1659   3.642   1.907  17.548 -0.1104 -0.1648 -0.4657
  106MPD2    H7 1660   3.649   2.004  17.578 -2.6364 -0.4067  0.8500
  107TMC2    C1 1661   3.715   1.668  11.499 -0.0750  0.7839 -0.2601
  107TMC2    C2 1662   3.647   1.724  11.395 -0.5834  0.0297 -0.1435
  107TMC2    C3 1663   3.708   1.734  11.280  0.2160 -0.4457 -0.3020
  107TMC2    C4 1664   3.846   1.642  11.488 -0.0574  1.0596 -0.6413
  107TMC2    C5 1665   3.904   1.662  11.368  0.1020  0.1723  0.2809
  107TMC2    C6 1666   3.840   1.713  11.258 -0.3939 -0.6877 -0.2535
  107TMC2     C 1667   3.648   1.652  11.630  0.7335 -0.2865  0.0116
  107TMC2     O 1668   3.719   1.630  11.727  0.1392  0.0798 -0.0728
  107TMC2     H 1669   3.544   1.755  11.409 -0.8009  0.0857 -1.8934
  107TMC2    H1 1670   3.904   1.596  11.567 -1.4546  1.6670  0.7286
  107TMC2    H2 1671   3.874   1.705  11.156  0.0344  0.9513 -0.2302
  107TMC2    C7 1672   4.027   1.594  11.340 -0.3642 -0.0935 -0.2723
  107TMC2    C8 1673   3.611   1.771  11.176  0.3499 -0.4484 -0.2129
  107TMC2    O1 1674   4.112   1.573  11.424 -0.1124 -0.5108  0.2894
  107TMC2    O2 1675   3.491   1.742  11.178  0.0772  0.6610 -0.1650
  107TMC2    O5 1676   3.677   1.851  11.084 -0.0214  0.6689 -0.0228
  107TMC2    H5 1677   3.760   1.891  11.118 -2.1255 -0.1867  6.1308
  108MPD2     C 1678   3.289   1.601  11.703 -0.4066  0.4808 -0.6631
  108MPD2    C1 1679   3.422   1.634  11.728  0.5375 -0.3853 -0.4432
  108MPD2    C2 1680   3.453   1.657  11.866 -0.0215  0.5775  0.6648
  108MPD2    C3 1681   3.347   1.656  11.961 -0.4157 -0.2391 -0.2652
  108MPD2    C4 1682   3.215   1.625  11.926 -0.6193 -0.1017  0.1363
  108MPD2    C5 1683   3.190   1.602  11.797 -0.0729 -0.5185  0.2317
  108MPD2     H 1684   3.558   1.677  11.887 -0.3559  0.7053  2.2304
  108MPD2    H1 1685   3.134   1.625  11.998 -0.9484  1.3780 -0.2520
  108MPD2    H2 1686   3.261   1.579  11.600 -0.1665  1.3131 -0.9048
  108MPD2    H3 1687   3.087   1.581  11.769 -0.5674  0.6685  1.1185
  108MPD2     N 1688   3.370   1.682  12.094 -0.1238 -0.1149 -0.0911
  108MPD2    H5 1689   3.283   1.665  12.143  0.9787 -0.3836  1.8012
  108MPD2    N1 1690   3.514   1.640  11.620 -0.8267 -0.6454  0.3946
  108MPD2    H7 1691   3.482   1.638  11.524 -1.4498  0.2816  0.5837
  109TMC2    C1 1692   3.658   3.747   0.518 -0.3179 -0.1207 -0.4842
  109TMC2    C2 1693   3.657   3.771   0.385 -0.2193 -0.1806  0.5212
  109TMC2    C3 1694   3.755   3.855   0.333 -0.1402  0.0461  0.2047
  109TMC2    C4 1695   3.737   3.814   0.605 -0.0529  0.9580 -0.6842
  109TMC2    C5 1696   3.840   3.891   0.552  0.5227 -0.2672 -0.2660
  109TMC2    C6 1697   3.856   3.907   0.419 -0.2966 -0.5881  0.6838
  109TMC2     C 1698   3.568   3.648   0.558  0.1808  0.4734  0.2242
  109TMC2     O 1699   3.533   3.565   0.475 -0.1767 -0.1814 -0.2572
  109TMC2     H 1700   3.599   3.721   0.308  1.9005  0.6637 -1.6485
  109TMC2    H1 1701   3.749   3.787   0.709  0.2153 -0.8142 -1.1812
  109TMC2    H2 1702   3.943   3.954   0.376 -0.4579 -0.4760  0.4748
  109TMC2    C7 1703   3.907   3.993   0.625 -0.6492  0.4481 -0.1874
  109TMC2    C8 1704   3.780   3.835   0.192 -0.0741 -0.1519 -0.3302
  109TMC2    O1 1705   3.996   4.049   0.566  0.3735  0.1268  0.6369
  109TMC2    O2 1706   3.758   3.732   0.133  0.2377  0.0521 -0.7006
  109TMC2    O5 1707   3.854   3.938   0.143 -0.5032 -0.5808 -0.2305
  109TMC2    H5 1708   3.858   4.018   0.199 -2.6831  1.5362 -3.0914
  110MPD2     C 1709   3.263   3.382   0.879  0.7654 -0.1220 -0.0693
  110MPD2    C1 1710   3.293   3.499   0.944  0.3681  0.5290 -0.2588
  110MPD2    C2 1711   3.373   3.593   0.878  0.3528  0.0245 -0.4353
  110MPD2    C3 1712   3.428   3.560   0.755  0.3754 -0.4588 -0.6536
  110MPD2    C4 1713   3.384   3.451   0.687  0.5309  0.4822 -0.2063
  110MPD2    C5 1714   3.301   3.359   0.748 -0.2061  0.5654 -0.7879
  110MPD2     H 1715   3.406   3.678   0.936 -0.5428 -0.0823  0.2466
  110MPD2    H1 1716   3.413   3.431   0.584 -0.2151  0.5892 -0.4397
  110MPD2    H2 1717   3.196   3.308   0.921  0.2972 -0.2000 -0.9614
  110MPD2    H3 1718   3.261   3.269   0.702 -1.1493  0.5883 -0.0078
  110MPD2     N 1719   3.520   3.656   0.692 -0.2061  0.3152 -0.1711
  110MPD2    H5 1720   3.552   3.732   0.751 -0.2540  0.3822 -0.2315
  110MPD2    N1 1721   3.252   3.526   1.077 -0.2949  0.1975  0.0940
  110MPD2    H7 1722   3.193   3.453   1.115 -4.0078  2.8443 -0.6292
  111TMC2    C1 1723   3.091   4.015  11.923  0.2145 -0.2717 -0.8586
  111TMC2    C2 1724   3.051   4.145  11.928 -0.6760  0.1180 -0.2175
  111TMC2    C3 1725   3.112   4.234  12.015  0.0057 -0.7966  0.0997
  111TMC2    C4 1726   3.192   3.973  12.006 -0.0072 -0.2211  0.7661
  111TMC2    C5 1727   3.251   4.058  12.090  0.3140 -0.3102  0.1148
  111TMC2    C6 1728   3.205   4.187  12.102 -0.2935 -0.7049  0.2060
  111TMC2     C 1729   3.110   3.954  11.785 -0.1845 -0.4317  0.2867
  111TMC2     O 1730   3.147   4.028  11.692  0.1438  0.1092 -0.3332
  111TMC2     H 1731   2.978   4.183  11.858 -0.0279  0.6969 -0.5747
  111TMC2    H1 1732   3.231   3.874  11.987  0.7383  0.2043  0.0631
  111TMC2    H2 1733   3.253   4.238  12.185 -1.2652  1.7553 -0.7319
  111TMC2    C7 1734   3.392   4.041  12.106  0.4073 -0.3464 -0.5290
  111TMC2    C8 1735   3.045   4.364  12.036  0.2600 -0.2832  0.4076
  111TMC2    O1 1736   3.461   4.139  12.088  0.2258  0.2589 -0.6807
  111TMC2    O2 1737   2.930   4.379  12.009 -0.1045 -0.0733  0.2270
  111TMC2    O5 1738   3.100   4.427  12.141  0.0318  0.1073 -0.4620
  111TMC2    H5 1739   3.198   4.440  12.136  0.2186 -2.3778 -3.0217
  112MPD2     C 1740   3.282   3.540  11.518 -0.4141  0.0526  0.1329
  112MPD2    C1 1741   3.298   3.672  11.496 -0.1149 -0.0913  0.1217
  112MPD2    C2 1742   3.251   3.767  11.582 -0.1529  0.3833 -0.9063
  112MPD2    C3 1743   3.178   3.730  11.698  0.3411 -0.3395 -0.2149
  112MPD2    C4 1744   3.169   3.596  11.723 -0.4015  0.6363  0.2508
  112MPD2    C5 1745   3.212   3.499  11.629 -0.1044  0.0430 -0.1761
  112MPD2     H 1746   3.259   3.870  11.551  0.7601  1.0616  1.6365
  112MPD2    H1 1747   3.116   3.556  11.808  1.3250 -4.3838 -1.0146
  112MPD2    H2 1748   3.294   3.462  11.443  2.6418  1.3281 -0.6913
  112MPD2    H3 1749   3.204   3.395  11.657 -0.6679 -0.3169 -1.6829
  112MPD2     N 1750   3.116   3.816  11.794 -0.2304  0.3697 -0.5507
  112MPD2    H5 1751   3.069   3.770  11.871  0.2315  0.7649 -0.0348
  112MPD2    N1 1752   3.363   3.733  11.387 -0.4508 -0.7703  0.1334
  112MPD2    H7 1753   3.336   3.826  11.357  0.6713 -0.8263 -1.0454
  113TMC2    C1 1754   2.344   1.485   0.658  0.3687 -0.3001  0.6691
  113TMC2    C2 1755   2.302   1.601   0.595 -0.0229  0.5532  0.3944
  113TMC2    C3 1756   2.201   1.582   0.502  0.1692  0.3608  0.4287
  113TMC2    C4 1757   2.298   1.362   0.642 -0.3215 -0.3117  0.3307
  113TMC2    C5 1758   2.186   1.357   0.562  0.0132 -0.4772 -0.0016
  113TMC2    C6 1759   2.136   1.461   0.485 -0.3811 -0.4659  0.0330
  113TMC2     C 1760   2.457   1.520   0.748 -0.1116 -0.8208 -0.4687
  113TMC2     O 1761   2.426   1.614   0.820 -0.1825  0.2607 -0.3696
  113TMC2     H 1762   2.362   1.691   0.609 -0.7084  1.2495 -1.1117
  113TMC2    H1 1763   2.335   1.276   0.696  1.2197  1.9807  2.9033
  113TMC2    H2 1764   2.048   1.452   0.422  0.1125 -3.5718 -0.1921
  113TMC2    C7 1765   2.125   1.226   0.537  0.2028  0.1909  0.0459
  113TMC2    C8 1766   2.163   1.700   0.431 -0.1496  0.2613 -0.7167
  113TMC2    O1 1767   2.063   1.199   0.431 -0.2849  0.5810  0.5861
  113TMC2    O2 1768   2.201   1.815   0.454  0.5429 -0.5132  0.7561
  113TMC2    O5 1769   2.101   1.670   0.317 -0.1040 -0.0216 -0.1057
  113TMC2    H5 1770   2.106   1.577   0.285  0.8133 -0.6363  1.8765
  114MPD2     C 1771   2.839   1.370   1.060 -0.4125 -0.3771 -0.3997
  114MPD2    C1 1772   2.738   1.469   1.069  0.6938 -0.0025  0.4106
  114MPD2    C2 1773   2.657   1.493   0.958  0.0668  0.0558  0.4053
  114MPD2    C3 1774   2.668   1.429   0.840 -0.6261  0.1232 -0.1550
  114MPD2    C4 1775   2.770   1.342   0.828 -0.0215 -0.1270  0.6331
  114MPD2    C5 1776   2.850   1.306   0.935  0.2646 -0.2042  0.5828
  114MPD2     H 1777   2.579   1.567   0.975 -0.5751 -0.4523 -0.3537
  114MPD2    H1 1778   2.783   1.295   0.731 -0.6561  1.7539 -0.3581
  114MPD2    H2 1779   2.901   1.343   1.145 -1.5141 -0.6611  0.3072
  114MPD2    H3 1780   2.932   1.238   0.913  0.9579  0.4034  1.2982
  114MPD2     N 1781   2.563   1.433   0.744 -0.1549  0.5234 -0.3320
  114MPD2    H5 1782   2.566   1.376   0.660  1.4073 -0.6100  0.4817
  114MPD2    N1 1783   2.715   1.551   1.180  0.0173  0.2137 -0.3406
  114MPD2    H7 1784   2.650   1.627   1.162 -0.2379  0.1464  0.3187
  115TMC2    C1 1785   3.840   4.511  17.577  0.4088 -0.0092  0.3069
  115TMC2    C2 1786   3.839   4.480  17.710 -0.6235  0.0361  1.0049
  115TMC2    C3 1787   3.918   4.551   0.028  0.1580 -0.6198  0.4809
  115TMC2    C4 1788   3.907   4.615  17.523 -0.1695  0.1997 -0.3300
  115TMC2    C5 1789   3.977   4.699  17.609 -0.9204  0.1912 -0.8653
  115TMC2    C6 1790   3.986   4.660  17.740  0.1569  0.1897  0.4348
  115TMC2     C 1791   3.754   4.439  17.493 -0.2019 -0.3301  0.0070
  115TMC2     O 1792   3.722   4.326  17.524  0.2584  0.0165  0.0411
  115TMC2     H 1793   3.773   4.400  17.743  2.1990 -2.2646  1.1383
  115TMC2    H1 1794   3.905   4.638  17.417 -0.1778  0.2465 -0.3195
  115TMC2    H2 1795   4.042   4.721   0.057  0.8429 -0.7521  0.7054
  115TMC2    C7 1796   4.083   0.039  17.551  0.4026 -0.2134 -1.3905
  115TMC2    C8 1797   3.891   4.530   0.166 -0.2533  0.6516  0.2442
  115TMC2    O1 1798   4.190   0.051  17.613 -0.6091  0.1547 -0.0662
  115TMC2    O2 1799   3.856   4.419   0.210 -0.5533  0.4112 -0.7970
  115TMC2    O5 1800   3.828   4.646   0.201  0.3055  0.4104  0.1416
  115TMC2    H5 1801   3.843   4.732   0.156 -1.5225  1.1186  0.9166
  116MPD2     C 1802   3.412   4.357  17.136 -0.6580 -0.2625 -0.4937
  116MPD2    C1 1803   3.507   4.266  17.183  0.5658 -0.4376  1.2018
  116MPD2    C2 1804   3.607   4.310  17.271  0.1358 -0.1678 -0.4417
  116MPD2    C3 1805   3.606   4.447  17.305 -0.7258 -0.2726  0.5543
  116MPD2    C4 1806   3.520   4.539  17.250 -0.1125 -0.4625  0.1195
  116MPD2    C5 1807   3.421   4.489  17.161 -0.1271  0.0220  0.1347
  116MPD2     H 1808   3.685   4.244  17.305  0.2965  0.8626  1.1572
  116MPD2    H1 1809   3.525   4.645  17.274 -0.0205 -0.3327 -0.4658
  116MPD2    H2 1810   3.332   4.321  17.072 -1.4566 -0.5564  0.6680
  116MPD2    H3 1811   3.341   4.551  17.121  1.4974  0.6203 -2.1987
  116MPD2     N 1812   3.691   4.510  17.402 -0.4373 -0.5219  0.4015
  116MPD2    H5 1813   3.688   4.611  17.403  2.5543 -0.3985 -2.6198
  116MPD2    N1 1814   3.505   4.134  17.147 -0.4370 -0.4807 -0.1040
  116MPD2    H7 1815   3.430   4.106  17.084 -1.4040  0.8281  0.4578
  117TMC2    C1 1816   1.389   1.046  14.127 -0.4359 -0.9281  0.1869
  117TMC2    C2 1817   1.466   0.953  14.190 -0.6120  0.3470  0.8485
  117TMC2    C3 1818   1.583   0.992  14.252 -0.4671  0.8687  0.3082
  117TMC2    C4 1819   1.428   1.180  14.121  0.2236  1.1890  0.9308
  117TMC2    C5 1820   1.554   1.209  14.175 -0.1482  0.4548 -0.1782
  117TMC2    C6 1821   1.634   1.115  14.239 -0.1575  0.0353  1.1013
  117TMC2     C 1822   1.261   1.007  14.075 -0.4404  1.0568 -0.2059
  117TMC2     O 1823   1.225   0.890  14.091 -0.5466  0.6826 -0.1787
  117TMC2     H 1824   1.451   0.846  14.180  2.4670  0.1673 -1.8518
  117TMC2    H1 1825   1.377   1.256  14.064  0.3572  0.2372 -0.4470
  117TMC2    H2 1826   1.724   1.147  14.290 -0.2061  0.7728  0.7331
  117TMC2    C7 1827   1.611   1.348  14.166  0.3328  0.5361 -0.1898
  117TMC2    C8 1828   1.645   0.891  14.346  0.3292 -0.9975  0.0072
  117TMC2    O1 1829   1.729   1.362  14.200 -0.2568 -0.2669 -0.3024
  117TMC2    O2 1830   1.750   0.919  14.396  0.0519  0.7533 -0.3315
  117TMC2    O5 1831   1.541   0.843  14.421 -0.1655  0.1541  0.4396
  117TMC2    H5 1832   1.450   0.853  14.387  0.5079  1.7987 -0.9093
  118MPD2     C 1833   1.442   1.668  14.075 -0.6522 -0.1209  0.2870
  118MPD2    C1 1834   1.546   1.579  14.094 -0.4846 -0.4480  0.5225
  118MPD2    C2 1835   1.677   1.635  14.081 -0.8377  0.2586 -0.2832
  118MPD2    C3 1836   1.691   1.774  14.075  0.2758  0.1621  0.0473
  118MPD2    C4 1837   1.578   1.855  14.066 -0.0674  0.1411  0.8202
  118MPD2    C5 1838   1.452   1.804  14.065  0.0052 -0.3100 -0.4360
  118MPD2     H 1839   1.762   1.569  14.093 -1.5860 -0.5795  0.4870
  118MPD2    H1 1840   1.593   1.962  14.073  1.1587  0.0649 -0.6905
  118MPD2    H2 1841   1.341   1.627  14.075  0.3027 -2.4705  2.4200
  118MPD2    H3 1842   1.361   1.863  14.069 -0.2816 -0.7129 -1.1327
  118MPD2     N 1843   1.814   1.843  14.101  0.5761  0.2099  0.5851
  118MPD2    H5 1844   1.807   1.941  14.127 -3.4350  0.0207  0.2317
  118MPD2    N1 1845   1.518   1.441  14.119  0.1640 -0.6341  0.2324
  118MPD2    H7 1846   1.425   1.411  14.093 -0.0031  0.5704 -0.6100
  119TMC2    C1 1847   4.419   1.611  12.761  0.5702 -0.1862  0.1044
  119TMC2    C2 1848   4.386   1.556  12.640 -0.0756  0.0915 -0.2908
  119TMC2    C3 1849   4.323   1.431  12.636 -0.1346 -0.1696 -0.3372
  119TMC2    C4 1850   4.398   1.535  12.879  0.0583  0.1954 -0.3861
  119TMC2    C5 1851   4.328   1.419  12.872 -0.0223 -0.2791  0.1621
  119TMC2    C6 1852   4.287   1.367  12.751  0.1526 -0.5180  0.1537
  119TMC2     C 1853   4.445   1.750  12.777  0.2776  0.1634 -0.7309
  119TMC2     O 1854   4.520   1.782  12.867  0.1533  0.5898  0.0049
  119TMC2     H 1855   4.407   1.607  12.547  2.3818  1.9577  1.3003
  119TMC2    H1 1856   4.422   1.578  12.975  0.7420 -1.3554  0.1246
  119TMC2    H2 1857   4.224   1.280  12.739  2.5382 -2.1533 -0.3264
  119TMC2    C7 1858   4.269   1.350  12.988 -0.1519 -0.2696  0.0312
  119TMC2    C8 1859   4.292   1.364  12.512 -0.0755  0.3211  0.0990
  119TMC2    O1 1860   4.220   1.237  12.971 -0.0205  0.0724 -0.3847
  119TMC2    O2 1861   4.274   1.242  12.514  0.1063 -0.1553  0.0900
  119TMC2    O5 1862   4.223   1.441  12.431 -0.7812 -0.3617 -0.0434
  119TMC2    H5 1863   4.255   1.533  12.443 -2.7581  0.4444 -1.1526
  120MPD2     C 1864   4.309   2.235  12.666 -0.3263  0.4325 -0.2416
  120MPD2    C1 1865   4.410   2.181  12.740 -0.2794 -0.7497  0.1094
  120MPD2    C2 1866   4.441   2.049  12.746  0.3579  0.5361 -0.8699
  120MPD2    C3 1867   4.361   1.961  12.677  0.7221  0.3502  0.6692
  120MPD2    C4 1868   4.258   2.011  12.606  0.0514 -0.4143  0.3680
  120MPD2    C5 1869   4.235   2.146  12.592 -0.1220  0.1364 -0.0649
  120MPD2     H 1870   4.525   2.012  12.804 -1.9373  1.5009  3.1060
  120MPD2    H1 1871   4.197   1.942  12.549  1.3817 -0.5690 -0.8464
  120MPD2    H2 1872   4.305   2.342  12.653  0.8005  0.8123  2.6266
  120MPD2    H3 1873   4.154   2.174  12.526  0.1894  1.6122  0.1910
  120MPD2     N 1874   4.385   1.825  12.677 -0.1842  0.6220 -0.4375
  120MPD2    H5 1875   4.325   1.784  12.606 -0.1412 -1.4665  0.7569
  120MPD2    N1 1876   4.485   2.274  12.808  0.6268  0.1917  0.4772
  120MPD2    H7 1877   4.465   2.373  12.799 -1.0411 -0.1598  0.3498
  121TMC2    C1 1878   1.183   3.558  14.475 -0.7120  0.3125 -0.2913
  121TMC2    C2 1879   1.179   3.498  14.595 -0.7307  0.7271  0.4838
  121TMC2    C3 1880   1.081   3.408  14.630  0.0313  0.1622 -0.0197
  121TMC2    C4 1881   1.077   3.543  14.389 -0.2404  0.1641  0.7077
  121TMC2    C5 1882   0.970   3.465  14.430 -0.0441 -0.4814  0.3969
  121TMC2    C6 1883   0.976   3.385  14.542 -0.3318  0.0449  0.2365
  121TMC2     C 1884   1.296   3.652  14.441  0.0216 -0.4909 -0.0232
  121TMC2     O 1885   1.391   3.660  14.516  0.2675  0.0436  0.2696
  121TMC2     H 1886   1.255   3.528  14.666  2.1205 -0.6475 -2.0328
  121TMC2    H1 1887   1.077   3.581  14.287  0.3705 -1.3989  0.1189
  121TMC2    H2 1888   0.892   3.326  14.577  0.8777 -2.0379 -0.3655
  121TMC2    C7 1889   0.861   3.431  14.342  0.2775  0.1271 -1.3746
  121TMC2    C8 1890   1.088   3.347  14.764  0.2042  0.2087  0.1957
  121TMC2    O1 1891   0.790   3.334  14.378 -0.0604 -0.1498  0.2135
  121TMC2    O2 1892   1.177   3.362  14.846 -0.6880 -0.0858  0.9884
  121TMC2    O5 1893   0.976   3.266  14.782  1.0353  0.0931  0.2847
  121TMC2    H5 1894   0.945   3.226  14.699  0.1217 -0.3814  0.8555
  122MPD2     C 1895   1.478   3.869  14.320 -0.7517  0.7075 -0.3313
  122MPD2    C1 1896   1.365   3.802  14.258  0.4228  0.4319  0.7871
  122MPD2    C2 1897   1.321   3.843  14.133  0.3923  1.0515 -0.0631
  122MPD2    C3 1898   1.395   3.938  14.062 -0.0608 -0.0173 -0.1485
  122MPD2    C4 1899   1.508   3.994  14.121  0.1883 -0.4877 -0.1551
  122MPD2    C5 1900   1.545   3.963  14.254  0.4626 -0.3475 -0.4426
  122MPD2     H 1901   1.233   3.792  14.095 -0.1607  2.3699 -0.5641
  122MPD2    H1 1902   1.558   4.078  14.073  0.3940  0.0304  0.9549
  122MPD2    H2 1903   1.508   3.842  14.420 -0.6018 -0.6171 -0.7367
  122MPD2    H3 1904   1.626   4.017  14.300  1.9850 -2.7372 -0.3272
  122MPD2     N 1905   1.358   3.976  13.928  0.3696 -0.1425 -0.1814
  122MPD2    H5 1906   1.394   4.057  13.879  3.7324 -0.8743  1.1254
  122MPD2    N1 1907   1.288   3.701  14.315  0.5930 -0.4221 -0.5672
  122MPD2    H7 1908   1.212   3.668  14.257 -0.1942  1.8528 -0.8427
  123TMC2    C1 1909   3.992   2.725  10.916  0.0708 -0.3162 -0.3700
  123TMC2    C2 1910   4.110   2.781  10.947 -0.0666  0.7063 -0.0460
  123TMC2    C3 1911   4.198   2.822  10.846 -0.5706  0.1466 -0.1023
  123TMC2    C4 1912   3.953   2.714  10.787  0.1109  0.9644 -0.1554
  123TMC2    C5 1913   4.042   2.739  10.690 -0.2144  0.5946 -0.6815
  123TMC2    C6 1914   4.160   2.802  10.718 -0.1287  0.0210 -0.0471
  123TMC2     C 1915   3.914   2.655  11.017  0.2624 -0.3353 -0.1536
  123TMC2     O 1916   3.929   2.687  11.133 -0.1486  0.1449 -0.2528
  123TMC2     H 1917   4.149   2.791  11.047 -1.0289 -0.4108  0.4442
  123TMC2    H1 1918   3.862   2.664  10.754  0.8557 -0.4684 -0.0319
  123TMC2    H2 1919   4.230   2.825  10.638 -1.0813 -3.0128 -1.7686
  123TMC2    C7 1920   4.038   2.635  10.581  0.5963  0.9919 -0.0078
  123TMC2    C8 1921   4.339   2.852  10.866 -0.0135 -0.1642  0.2193
  123TMC2    O1 1922   3.978   2.529  10.608 -0.2805 -0.2785  0.5983
  123TMC2    O2 1923   4.424   2.797  10.797  0.0713 -0.0140  0.0706
  123TMC2    O5 1924   4.350   2.915  10.984 -0.0979  0.0929  0.1017
  123TMC2    H5 1925   4.269   2.956  11.020 -0.6137  0.6473 -1.6632
  124MPD2     C 1926   3.647   2.249  11.189 -0.1127  0.4376 -0.7218
  124MPD2    C1 1927   3.664   2.240  11.052 -0.7498 -0.6248 -0.4427
  124MPD2    C2 1928   3.753   2.324  10.995 -0.1759  0.1131 -0.0007
  124MPD2    C3 1929   3.798   2.444  11.055  0.3125  0.4370  0.1705
  124MPD2    C4 1930   3.762   2.462  11.187 -0.3467  0.6093  0.1466
  124MPD2    C5 1931   3.685   2.368  11.250  0.0502 -0.2497 -0.0922
  124MPD2     H 1932   3.778   2.311  10.891  0.3578  1.1769 -0.0107
  124MPD2    H1 1933   3.798   2.545  11.247  1.3725  1.1832 -1.6844
  124MPD2    H2 1934   3.588   2.184  11.252  0.1904  0.4953 -0.3766
  124MPD2    H3 1935   3.672   2.376  11.357  1.8798  1.4105 -0.0025
  124MPD2     N 1936   3.862   2.537  10.971  0.7365  0.3814 -0.0835
  124MPD2    H5 1937   3.876   2.514  10.873 -1.9569 -0.8240 -0.1694
  124MPD2    N1 1938   3.598   2.128  10.992 -0.1627  0.2186 -0.3420
  124MPD2    H7 1939   3.547   2.058  11.046  1.5428 -0.8033 -0.0465
  125TMC2    C1 1940   0.223   0.514  10.112  0.2516  0.1210  0.1051
  125TMC2    C2 1941   0.307   0.627  10.107  0.9561  0.4581  0.4386
  125TMC2    C3 1942   0.428   0.604  10.048  0.4735 -0.3205 -0.1764
  125TMC2    C4 1943   0.252   0.400  10.046 -0.1729 -0.1339  0.5291
  125TMC2    C5 1944   0.377   0.391   9.978  0.2578 -0.1627 -0.7053
  125TMC2    C6 1945   0.465   0.496   9.986 -0.2245 -0.1687 -0.5144
  125TMC2     C 1946   0.113   0.513  10.197 -1.0779 -0.6476  0.1288
  125TMC2     O 1947   0.028   0.425  10.188  0.5097  0.3811 -0.1031
  125TMC2     H 1948   0.282   0.723  10.149 -0.1732 -0.4253  1.7986
  125TMC2    H1 1949   0.173   0.326  10.042 -0.4327  0.1051  1.2330
  125TMC2    H2 1950   0.568   0.487   9.954  0.0352  0.2769  0.1829
  125TMC2    C7 1951   0.410   0.260   9.921 -0.6095 -0.1238 -0.1205
  125TMC2    C8 1952   0.514   0.725  10.017 -0.1294  0.5026  0.1718
  125TMC2    O1 1953   0.323   0.176   9.933 -0.2176  0.1651  0.2569
  125TMC2    O2 1954   0.527   0.825  10.091  0.0925  0.4222 -0.2186
  125TMC2    O5 1955   0.560   0.715   9.895 -0.5263 -0.4993 -0.4262
  125TMC2    H5 1956   0.545   0.632   9.845  1.5902 -2.0899  1.5906
  126MPD1     C 1957   4.566   0.652  10.599  0.3266  0.0585  0.8664
  126MPD1    C1 1958   4.619   0.764  10.541  0.5650  0.6628 -0.4500
  126MPD1    C2 1959   4.705   0.752  10.438  0.3282 -0.7583 -0.6178
  126MPD1    C3 1960   0.003   0.627  10.381  0.5527 -0.9961 -0.8620
  126MPD1    C4 1961   4.689   0.514  10.447  0.1650  0.0879  0.2078
  126MPD1    C5 1962   4.605   0.531  10.549 -0.5872  0.7187 -0.8582
  126MPD1     H 1963   4.736   0.841  10.385 -1.2073  0.3474  0.3304
  126MPD1    H1 1964   4.707   0.410  10.421 -0.9435 -0.4241  1.5253
  126MPD1    H2 1965   4.503   0.648  10.686  0.7200  0.4191  1.1671
  126MPD1    H3 1966   4.570   0.435  10.588 -2.9138  1.2962 -1.5091
  126MPD1     N 1967   0.101   0.624  10.273  0.4945 -0.1001  0.4671
  126MPD1    H5 1968   0.149   0.714  10.269 -0.5527  0.4101 -0.8478
  126MPD1    N1 1969   4.576   0.888  10.581  0.4543 -0.0657 -0.0896
  126MPD1    H6 1970   4.654   0.954  10.578  1.1220 -0.8669 -0.4060
  126MPD1    H7 1971   4.532   0.885  10.672 -0.5744 -1.5627 -0.6417
  127TMC2    C1 1972   0.932   3.048  10.076 -0.0392 -0.1476  0.6997
  127TMC2    C2 1973   1.057   3.005  10.129  0.8611  0.2075  0.4833
  127TMC2    C3 1974   1.043   2.914  10.226 -0.1489  0.6664  0.0382
  127TMC2    C4 1975   0.809   3.002  10.111  0.1618 -0.4662 -0.6010
  127TMC2    C5 1976   0.809   2.904  10.210  0.5291 -0.6543  0.4461
  127TMC2    C6 1977   0.927   2.858  10.263 -0.0707 -0.4966 -0.5412
  127TMC2     C 1978   0.942   3.143   9.965 -0.1017  0.3315  0.1931
  127TMC2     O 1979   1.051   3.170   9.915  0.2860 -0.3404  0.3794
  127TMC2     H 1980   1.146   3.051  10.089 -0.5940 -0.5913 -3.6381
  127TMC2    H1 1981   0.713   3.045  10.088 -0.8554 -1.4522  1.7886
  127TMC2    H2 1982   0.913   2.787  10.344 -1.4044  0.8980  0.4477
  127TMC2    C7 1983   0.690   2.821  10.226 -0.1472  0.1698 -0.4295
  127TMC2    C8 1984   1.155   2.845  10.286  0.3325  0.1336  0.8784
  127TMC2    O1 1985   0.579   2.868  10.210  0.1770  0.1022 -0.0854
  127TMC2    O2 1986   1.163   2.731  10.329  0.0024 -0.1981  0.1161
  127TMC2    O5 1987   1.257   2.932  10.291  0.0786  0.0490 -0.0511
  127TMC2    H5 1988   1.237   3.027  10.279  0.0362  0.1823  1.0687
  128MPD2     C 1989   0.682   3.380   9.860  0.6338  0.0446  0.1948
  128MPD2    C1 1990   0.807   3.326   9.850 -0.0769  0.5385  0.2950
  128MPD2    C2 1991   0.896   3.353   9.748  0.5542 -0.0541 -0.4093
  128MPD2    C3 1992   0.867   3.458   9.660  0.0252 -0.1304  0.9324
  128MPD2    C4 1993   0.737   3.513   9.671  0.3011 -0.1509  0.3993
  128MPD2    C5 1994   0.649   3.470   9.767  0.2874 -0.0677 -0.4081
  128MPD2     H 1995   0.986   3.297   9.726  0.1272 -0.9254  0.0725
  128MPD2    H1 1996   0.702   3.586   9.598  1.3321  0.2437  0.3035
  128MPD2    H2 1997   0.615   3.356   9.941  1.4229 -0.2576  0.7560
  128MPD2    H3 1998   0.554   3.519   9.783  0.2373 -0.4268  0.3945
  128MPD2     N 1999   0.960   3.505   9.560 -0.6853 -0.3375 -0.1089
  128MPD2    H5 2000   1.046   3.451   9.563  0.1629  1.2406  3.2357
  128MPD2    N1 2001   0.827   3.215   9.939 -0.2515  0.3758 -0.6601
  128MPD2    H7 2002   0.749   3.193  10.000  1.0242 -1.0166  0.4590
  129TMC2    C1 2003   0.175   2.838   0.497 -0.3450 -0.0259 -0.4499
  129TMC2    C2 2004   0.224   2.717   0.463  0.1566  0.3310  0.3064
  129TMC2    C3 2005   0.172   2.614   0.536  0.0022  0.3621  0.2313
  129TMC2    C4 2006   0.086   2.873   0.598 -0.0585 -0.3630 -0.1796
  129TMC2    C5 2007   0.047   2.761   0.673  0.2461  0.0861  0.1986
  129TMC2    C6 2008   0.086   2.638   0.642  0.8043 -0.6730  0.3363
  129TMC2     C 2009   0.217   2.946   0.412  0.1935 -0.0724 -0.5021
  129TMC2     O 2010   0.225   2.928   0.291 -1.0070  0.0757 -0.5146
  129TMC2     H 2011   0.283   2.688   0.377 -1.3776 -0.2970 -0.5231
  129TMC2    H1 2012   0.050   2.974   0.614  0.1469 -0.6858  2.2531
  129TMC2    H2 2013   0.046   2.555   0.699 -2.5092  1.1550  0.6931
  129TMC2    C7 2014   4.736   2.781   0.811  0.1899 -0.0336  0.4303
  129TMC2    C8 2015   0.179   2.484   0.474  0.0264 -0.3234  0.0782
  129TMC2    O1 2016   0.033   2.711   0.907 -0.1145 -0.4155 -0.8717
  129TMC2    O2 2017   0.156   2.382   0.536  0.1117  0.0554 -0.1086
  129TMC2    O5 2018   0.150   2.504   0.346 -0.0179 -0.0070 -0.2661
  129TMC2    H5 2019   0.126   2.595   0.319 -0.3016 -0.0668 -0.2130
  130MPD2     C 2020   0.253   3.221   0.295  0.2988 -0.2216 -0.1504
  130MPD2    C1 2021   0.258   3.195   0.423  0.1367 -0.7462 -0.3442
  130MPD2    C2 2022   0.287   3.296   0.516  0.1621 -0.5381  0.0857
  130MPD2    C3 2023   0.308   3.424   0.473 -0.0944  0.5532  0.1680
  130MPD2    C4 2024   0.310   3.446   0.335 -0.1293  0.0570  0.7055
  130MPD2    C5 2025   0.283   3.347   0.251 -0.1796  0.1077 -0.6255
  130MPD2     H 2026   0.290   3.270   0.622 -0.2786  0.8766  0.4465
  130MPD2    H1 2027   0.325   3.543   0.288 -1.2384  0.1122  0.4615
  130MPD2    H2 2028   0.243   3.143   0.221 -0.8291 -0.1453 -0.0818
  130MPD2    H3 2029   0.271   3.362   0.144 -1.3315 -0.4742 -0.5714
  130MPD2     N 2030   0.343   3.519   0.569  0.9479  0.2945 -0.5556
  130MPD2    H5 2031   0.322   3.497   0.666 -0.0881  0.7060 -0.6875
  130MPD2    N1 2032   0.226   3.068   0.479  0.2759 -0.4711  0.6795
  130MPD2    H7 2033   0.229   3.065   0.581 -1.7530 -2.5253  0.6768
  131TMC2    C1 2034   3.705   2.451  10.010 -0.4566 -0.1057  0.3162
  131TMC2    C2 2035   3.749   2.437   9.888  0.2633  0.2959  0.0513
  131TMC2    C3 2036   3.817   2.531   9.821 -0.6439  0.4294 -0.4460
  131TMC2    C4 2037   3.712   2.575  10.080  0.0100  0.6641  0.3259
  131TMC2    C5 2038   3.773   2.675  10.011  0.0699 -0.3304  0.7244
  131TMC2    C6 2039   3.830   2.650   9.889 -0.1691 -1.0093  0.4495
  131TMC2     C 2040   3.642   2.349  10.090  0.1923 -0.0375  0.3011
  131TMC2     O 2041   3.634   2.381  10.206  0.2843  0.2671 -0.3452
  131TMC2     H 2042   3.740   2.339   9.844 -2.5401 -0.6444  2.7808
  131TMC2    H1 2043   3.679   2.606  10.178 -0.9520  2.5137 -0.5739
  131TMC2    H2 2044   3.883   2.732   9.841  0.2735 -0.0606  2.5555
  131TMC2    C7 2045   3.790   2.799  10.080 -0.3995  0.3211 -0.3721
  131TMC2    C8 2046   3.865   2.505   9.689 -1.0593 -0.6966  0.1624
  131TMC2    O1 2047   3.711   2.816  10.172  0.5425 -0.0788 -0.1103
  131TMC2    O2 2048   3.854   2.396   9.636  0.3626 -0.1785 -0.4234
  131TMC2    O5 2049   3.849   2.617   9.615 -0.3115  0.2708  0.2812
  131TMC2    H5 2050   3.830   2.699   9.666  0.6813 -0.7434  2.2608
  132MPD2     C 2051   3.482   2.025   9.995  0.0611 -0.2120  0.0979
  132MPD2    C1 2052   3.517   2.127  10.081 -0.6558  0.1413 -0.1262
  132MPD2    C2 2053   3.500   2.105  10.220 -0.4804  0.0635  0.5061
  132MPD2    C3 2054   3.454   1.985  10.272 -0.1738 -0.3452 -0.3033
  132MPD2    C4 2055   3.411   1.886  10.193  0.4733  0.0435  0.0560
  132MPD2    C5 2056   3.433   1.908  10.054  0.0332 -0.1871  0.2219
  132MPD2     H 2057   3.535   2.176  10.294 -2.2472  1.0050  0.4267
  132MPD2    H1 2058   3.386   1.788  10.230 -0.7911 -0.1320 -1.2673
  132MPD2    H2 2059   3.522   2.024   9.894 -1.3520 -1.1363 -0.4467
  132MPD2    H3 2060   3.413   1.824   9.989 -2.3176  0.6008 -0.0513
  132MPD2     N 2061   3.459   1.974  10.414 -0.3036  0.4630  0.2231
  132MPD2    H5 2062   3.510   2.048  10.461  2.0846  0.5734 -2.5321
  132MPD2    N1 2063   3.592   2.236  10.025 -0.2775 -0.3975 -0.3548
  132MPD2    H7 2064   3.606   2.224   9.925 -1.4996 -0.1978 -0.5477
  133TMC2    C1 2065   3.775   4.115   9.641 -0.2855  0.0846  0.9202
  133TMC2    C2 2066   3.761   4.214   9.732  0.8271 -0.5432  0.0626
  133TMC2    C3 2067   3.874   4.280   9.764 -0.1477  0.7477  0.3158
  133TMC2    C4 2068   3.897   4.064   9.602 -0.1130  0.2334  0.5101
  133TMC2    C5 2069   4.009   4.135   9.633  0.0825  0.0637 -0.4690
  133TMC2    C6 2070   4.000   4.240   9.717 -0.3125  0.0414  0.5261
  133TMC2     C 2071   3.662   4.039   9.593 -0.2697 -0.0745  0.1232
  133TMC2     O 2072   3.679   3.921   9.561  0.2309  0.2018  0.5001
  133TMC2     H 2073   3.674   4.227   9.796  1.6869 -0.2322  1.1627
  133TMC2    H1 2074   3.909   3.989   9.524 -2.0584 -1.3934  1.7882
  133TMC2    H2 2075   4.080   4.306   9.748  0.4125 -0.8118  0.4803
  133TMC2    C7 2076   4.137   4.100   9.565 -0.0129  0.2257 -0.2255
  133TMC2    C8 2077   3.877   4.409   9.837  0.4295 -0.5355 -0.9309
  133TMC2    O1 2078   4.129   3.999   9.496 -0.4297  0.0128  0.2640
  133TMC2    O2 2079   3.975   4.459   9.899  0.4432  0.5644  0.4613
  133TMC2    O5 2080   3.754   4.466   9.843 -0.5425 -0.2096  0.2347
  133TMC2    H5 2081   3.702   4.414   9.778  0.0192 -0.2200 -0.2104
  134MPD2     C 2082   3.321   4.163   9.620  0.4019 -0.0749 -0.2699
  134MPD2    C1 2083   3.412   4.063   9.604  0.4772 -0.5519  0.1390
  134MPD2    C2 2084   3.374   3.931   9.576 -0.3755 -0.4131 -0.8225
  134MPD2    C3 2085   3.242   3.918   9.549 -0.3710  0.7106  0.1479
  134MPD2    C4 2086   3.152   4.016   9.566 -0.3398  0.2482 -0.3537
  134MPD2    C5 2087   3.190   4.140   9.602  0.6361  0.2337  0.4427
  134MPD2     H 2088   3.449   3.854   9.558  0.7125  0.5127 -0.1855
  134MPD2    H1 2089   3.051   3.996   9.532  0.6904 -2.0828 -2.0465
  134MPD2    H2 2090   3.358   4.260   9.654 -0.7080  0.8539 -1.6859
  134MPD2    H3 2091   3.117   4.219   9.616  0.6733  0.1034  1.4048
  134MPD2     N 2092   3.191   3.788   9.513 -0.2295 -0.5647  0.4240
  134MPD2    H5 2093   3.090   3.777   9.514 -0.0101 -2.4332  1.7811
  134MPD2    N1 2094   3.548   4.108   9.604  0.0199  0.4638 -0.4377
  134MPD2    H7 2095   3.565   4.204   9.634  3.8656 -0.5267  0.5357
  135TMC2    C1 2096   0.881   0.216  10.020 -0.6086 -0.4900  0.1399
  135TMC2    C2 2097   0.916   0.088   9.997  0.0896 -0.0621  0.1776
  135TMC2    C3 2098   0.866   4.721  10.076 -0.6192 -0.1937 -0.3849
  135TMC2    C4 2099   0.778   0.238  10.102 -0.4641 -0.6224  0.1247
  135TMC2    C5 2100   0.718   0.131  10.176  0.5556 -0.0044 -0.4150
  135TMC2    C6 2101   0.762   4.738  10.165  0.0515 -0.5160  0.1629
  135TMC2     C 2102   0.938   0.325   9.946 -0.0812 -0.9965  0.1454
  135TMC2     O 2103   0.877   0.431   9.951  1.0317 -0.2056  0.0531
  135TMC2     H 2104   0.981   0.058   9.916  0.3897 -0.8651  0.7209
  135TMC2    H1 2105   0.726   0.332  10.097  0.5574  0.0495  2.1707
  135TMC2    H2 2106   0.711   4.653  10.208 -2.8471  1.6697  0.9967
  135TMC2    C7 2107   0.580   0.164  10.220  0.3823 -0.5181 -0.3641
  135TMC2    C8 2108   0.879   4.590  10.010 -0.3326  0.3131  0.2125
  135TMC2    O1 2109   0.546   0.282  10.243  0.3062  0.3630 -0.1425
  135TMC2    O2 2110   0.923   4.571   9.896 -0.7623  0.2409 -0.1532
  135TMC2    O5 2111   0.862   4.491  10.107 -0.4090  0.0181 -0.2378
  135TMC2    H5 2112   0.838   4.523  10.197 -0.6679 -0.4102 -0.1557
  136MPD2     C 2113   1.077   0.500   9.755 -0.6619  0.1170 -0.4966
  136MPD2    C1 2114   1.108   0.364   9.765 -0.6103 -0.1587  0.0002
  136MPD2    C2 2115   1.196   0.311   9.673  0.2607  0.6218  0.5004
  136MPD2    C3 2116   1.253   0.380   9.570  0.2705 -0.4219 -0.8982
  136MPD2    C4 2117   1.227   0.517   9.567 -0.6665  0.4748 -0.0767
  136MPD2    C5 2118   1.136   0.573   9.658 -0.0575  0.2100 -0.0173
  136MPD2     H 2119   1.217   0.205   9.673  2.1360  1.0076 -0.4998
  136MPD2    H1 2120   1.274   0.581   9.493 -0.1499  1.8733  1.4532
  136MPD2    H2 2121   1.008   0.550   9.823 -1.8167  0.9608 -2.2784
  136MPD2    H3 2122   1.118   0.680   9.653  1.9497  0.4528 -2.3782
  136MPD2     N 2123   1.343   0.331   9.477  0.2861  0.8613 -0.2327
  136MPD2    H5 2124   1.377   0.393   9.404  0.0489 -0.3209 -1.3362
  136MPD2    N1 2125   1.045   0.284   9.864  0.1886 -0.5028  0.5286
  136MPD2    H7 2126   1.075   0.188   9.870  0.1505 -0.4278  1.7630
  137TMC2    C1 2127   0.731   3.163   9.348 -0.7423 -0.1681 -0.0762
  137TMC2    C2 2128   0.861   3.116   9.357 -0.2366  0.7193 -0.5013
  137TMC2    C3 2129   0.869   2.999   9.424  0.6898  0.0220  0.0954
  137TMC2    C4 2130   0.622   3.101   9.395  0.7008  0.2928  0.7641
  137TMC2    C5 2131   0.639   2.979   9.446  0.0937  0.7155  0.5161
  137TMC2    C6 2132   0.761   2.921   9.465 -0.1881 -0.4804  0.5067
  137TMC2     C 2133   0.716   3.292   9.291  0.1684 -0.3621 -0.0548
  137TMC2     O 2134   0.821   3.349   9.270  0.4219 -0.4321  0.3688
  137TMC2     H 2135   0.946   3.173   9.322  0.1511  1.0877  1.0330
  137TMC2    H1 2136   0.530   3.155   9.412 -0.2452 -2.2340  3.8446
  137TMC2    H2 2137   0.767   2.823   9.509  3.2106 -0.7391 -0.6010
  137TMC2    C7 2138   0.531   2.901   9.501  0.5202 -0.4541  0.1740
  137TMC2    C8 2139   0.999   2.959   9.460  0.1406 -0.0947 -0.6908
  137TMC2    O1 2140   0.551   2.776   9.502 -0.3626  0.0528 -0.2904
  137TMC2    O2 2141   1.094   2.988   9.386 -0.6964  0.1327  0.2580
  137TMC2    O5 2142   0.998   2.982   9.592  0.1675  0.0332  0.3307
  137TMC2    H5 2143   0.912   2.961   9.635  0.2800 -1.4607 -0.1572
  138MPD2     C 2144   0.437   3.480   9.147  0.4824  0.0258  0.3099
  138MPD2    C1 2145   0.556   3.460   9.219  0.3207 -0.1370  0.0431
  138MPD2    C2 2146   0.631   3.572   9.259  0.0383 -1.2325 -0.0572
  138MPD2    C3 2147   0.598   3.697   9.212 -0.1933 -0.6618  0.2442
  138MPD2    C4 2148   0.487   3.705   9.137 -0.4426  0.3970 -0.3639
  138MPD2    C5 2149   0.405   3.602   9.105  0.6225  0.1399  0.2731
  138MPD2     H 2150   0.716   3.559   9.324 -0.3722  0.8925  0.9001
  138MPD2    H1 2151   0.447   3.804   9.115 -1.1494  0.4865  1.3905
  138MPD2    H2 2152   0.369   3.400   9.124  1.0871 -1.5553  3.9727
  138MPD2    H3 2153   0.312   3.624   9.053 -0.2481 -3.2610  0.3352
  138MPD2     N 2154   0.668   3.810   9.267  0.2906  0.0577 -0.4240
  138MPD2    H5 2155   0.739   3.792   9.337  0.1563 -0.0122 -0.3040
  138MPD2    N1 2156   0.593   3.330   9.248  0.6034 -0.2303  0.4302
  138MPD2    H7 2157   0.518   3.263   9.234  1.0554 -0.9337  1.3364
  139TMC2    C1 2158   1.676   1.650  13.718 -0.9418  0.0375  0.4298
  139TMC2    C2 2159   1.769   1.702  13.626 -0.0421  1.3030  0.1037
  139TMC2    C3 2160   1.747   1.827  13.577 -0.2702 -0.0052 -0.1431
  139TMC2    C4 2161   1.558   1.717  13.742  0.2745  0.2148 -0.4935
  139TMC2    C5 2162   1.536   1.847  13.682  0.1571  0.6817 -0.6997
  139TMC2    C6 2163   1.631   1.899  13.599  0.5495 -0.3264  0.0586
  139TMC2     C 2164   1.688   1.508  13.755 -0.5788  0.0532  0.2671
  139TMC2     O 2165   1.800   1.462  13.734 -0.2393  0.4550 -0.1319
  139TMC2     H 2166   1.857   1.645  13.597  0.6368  1.1521  2.4454
  139TMC2    H1 2167   1.490   1.675  13.816 -0.9455  1.2222 -1.0357
  139TMC2    H2 2168   1.624   1.997  13.553 -1.3425  0.9290  3.0055
  139TMC2    C7 2169   1.443   1.939  13.740 -0.8136  0.7299 -0.1277
  139TMC2    C8 2170   1.847   1.879  13.490 -0.5008  0.1457 -0.5851
  139TMC2    O1 2171   1.482   2.055  13.731  0.3001 -0.1975  0.2890
  139TMC2    O2 2172   1.847   1.998  13.456 -0.3258 -0.2802 -0.5934
  139TMC2    O5 2173   1.892   1.775  13.420 -0.3818 -0.0483  0.5029
  139TMC2    H5 2174   1.950   1.797  13.345 -0.1174  2.3171  1.4054
  140MPD2     C 2175   1.436   1.241  13.736 -0.2258  0.3821 -0.6264
  140MPD2    C1 2176   1.549   1.303  13.782  0.3327  0.1465 -0.1128
  140MPD2    C2 2177   1.648   1.229  13.845 -0.1746 -0.2434  1.2056
  140MPD2    C3 2178   1.644   1.092  13.847 -0.6221  0.4875  0.1868
  140MPD2    C4 2179   1.525   1.035  13.815 -0.3169 -0.7149  0.2791
  140MPD2    C5 2180   1.422   1.103  13.755  0.4373 -0.0132 -0.0970
  140MPD2     H 2181   1.738   1.283  13.872  0.2569 -0.3460 -0.0338
  140MPD2    H1 2182   1.502   0.930  13.824 -0.9056 -0.5891  0.1881
  140MPD2    H2 2183   1.356   1.297  13.690  0.1361  1.9037  0.6059
  140MPD2    H3 2184   1.333   1.047  13.727  1.4816 -1.4874 -0.4509
  140MPD2     N 2185   1.760   1.025  13.908 -0.1890 -0.5464  0.1956
  140MPD2    H5 2186   1.831   1.089  13.941  0.6995 -0.9796 -0.8770
  140MPD2    N1 2187   1.566   1.444  13.755 -0.4094 -0.9284  0.0538
  140MPD2    H7 2188   1.487   1.494  13.716  0.4407 -1.6228 -2.5319
  141TMC2    C1 2189   1.803   3.159  13.992 -0.3353 -1.1866 -0.9050
  141TMC2    C2 2190   1.684   3.123  13.938 -1.1220  0.2116 -0.2157
  141TMC2    C3 2191   1.566   3.190  13.974  0.3636 -1.0958  0.2793
  141TMC2    C4 2192   1.813   3.267  14.085  0.3550  0.7377  0.5871
  141TMC2    C5 2193   1.695   3.328  14.116  0.1762 -0.0330  0.6450
  141TMC2    C6 2194   1.576   3.302  14.049 -0.2084  0.1274  0.0435
  141TMC2     C 2195   1.919   3.120  13.918  0.3897  0.3529  0.5055
  141TMC2     O 2196   1.897   3.045  13.820  0.2512  0.4720 -0.4448
  141TMC2     H 2197   1.672   3.034  13.878 -3.2803 -0.8518  1.7902
  141TMC2    H1 2198   1.907   3.304  14.124  0.9997  1.4663 -1.7121
  141TMC2    H2 2199   1.482   3.347  14.078 -1.2887 -0.8775 -1.9104
  141TMC2    C7 2200   1.702   3.462  14.162 -0.2984 -0.2127  0.1001
  141TMC2    C8 2201   1.438   3.132  13.964  0.1136  0.6541 -1.4034
  141TMC2    O1 2202   1.627   3.549  14.121  0.4713  0.6623 -0.4877
  141TMC2    O2 2203   1.347   3.152  14.045 -0.0757  0.3936  0.3485
  141TMC2    O5 2204   1.422   3.105  13.830  0.1800  0.3144 -0.7220
  141TMC2    H5 2205   1.506   3.114  13.781 -0.3742  0.7812 -1.5928
  142TMC2    C1 2206   3.765   1.872  10.297 -0.2731 -0.6025 -0.9231
  142TMC2    C2 2207   3.766   1.834  10.168  0.3298  0.1897 -0.3115
  142TMC2    C3 2208   3.840   1.904  10.073 -0.3647 -0.2200 -0.2081
  142TMC2    C4 2209   3.833   1.981  10.335  0.5611  0.3212 -0.7556
  142TMC2    C5 2210   3.885   2.059  10.235 -0.1317  0.6850  0.6117
  142TMC2    C6 2211   3.889   2.026  10.109  0.6373  0.1282  0.5162
  142TMC2     C 2212   3.721   1.779  10.394  0.4691 -0.0982 -0.0501
  142TMC2     O 2213   3.659   1.683  10.354 -0.2904  0.8235  0.3430
  142TMC2     H 2214   3.721   1.741  10.133 -0.9285  0.2212  1.2198
  142TMC2    H1 2215   3.835   2.006  10.440 -2.1786  1.3316 -0.9395
  142TMC2    H2 2216   3.948   2.084  10.039  1.5502 -2.1662 -0.6108
  142TMC2    C7 2217   3.932   2.187  10.284 -0.5061 -0.3486 -0.0911
  142TMC2    C8 2218   3.834   1.869   9.930 -0.3686 -0.6678  0.3420
  142TMC2    O1 2219   3.909   2.213  10.401  0.3941 -0.3072 -1.0826
  142TMC2    O2 2220   3.744   1.823   9.865 -0.4846  0.5654  0.1140
  142TMC2    O5 2221   3.955   1.895   9.880 -0.0388  0.3367  0.0558
  142TMC2    H5 2222   4.029   1.904   9.944 -0.4916 -2.5737  1.0030
  143MPD2     C 2223   3.789   1.545  10.841 -0.1980 -0.4947  1.0121
  143MPD2    C1 2224   3.669   1.568  10.775 -0.0081 -0.0236  0.1114
  143MPD2    C2 2225   3.667   1.645  10.658 -0.2332 -0.0978  0.0055
  143MPD2    C3 2226   3.778   1.718  10.624 -0.3881 -0.6304 -0.1856
  143MPD2    C4 2227   3.889   1.714  10.710 -0.5335 -0.0617  0.8013
  143MPD2    C5 2228   3.897   1.631  10.814  0.5702 -0.1614  0.0609
  143MPD2     H 2229   3.580   1.668  10.598 -0.1696  0.3409  0.0839
  143MPD2    H1 2230   3.977   1.768  10.678 -2.0317  1.4534 -0.7510
  143MPD2    H2 2231   3.799   1.487  10.932  0.6609 -2.4179 -0.3180
  143MPD2    H3 2232   3.994   1.620  10.862 -0.5504  0.8524  2.5708
  143MPD2     N 2233   3.788   1.794  10.509  0.2478  0.1207  0.2307
  143MPD2    H5 2234   3.869   1.853  10.492 -0.9852  2.2258  1.7216
  143MPD2    N1 2235   3.563   1.488  10.817 -0.3048  0.0406  0.1978
  143MPD2    H7 2236   3.576   1.416  10.888  1.9368 -0.9519 -1.2035
  144TMC2    C1 2237   2.852   0.393   0.441  0.2128 -0.6068 -0.8131
  144TMC2    C2 2238   2.915   0.378   0.321 -0.1906 -0.6739 -0.1270
  144TMC2    C3 2239   3.041   0.433   0.311  0.4225  0.3864 -0.2790
  144TMC2    C4 2240   2.891   0.489   0.530 -0.1398 -0.0962 -0.3862
  144TMC2    C5 2241   3.014   0.546   0.519  0.1259  1.0620  0.4414
  144TMC2    C6 2242   3.093   0.515   0.408 -0.5979  1.1495  0.2371
  144TMC2     C 2243   2.707   0.360   0.430  0.4636  0.7347 -0.0316
  144TMC2     O 2244   2.662   0.287   0.342 -0.3033  0.0168  0.3373
  144TMC2     H 2245   2.892   0.301   0.248  0.9309 -0.1498 -1.0224
  144TMC2    H1 2246   2.834   0.505   0.620 -0.1752 -1.7197 -0.1176
  144TMC2    H2 2247   3.194   0.555   0.405 -0.1119 -0.2256 -1.7590
  144TMC2    C7 2248   3.081   0.625   0.620 -0.4118  0.2622 -0.4589
  144TMC2    C8 2249   3.104   0.423   0.181 -0.4102  0.4759 -0.1473
  144TMC2    O1 2250   3.191   0.667   0.591  0.1322 -0.1489 -0.1273
  144TMC2    O2 2251   3.059   0.345   0.097 -0.4560  0.5196  0.7439
  144TMC2    O5 2252   3.189   0.530   0.158 -0.4320  0.5742 -0.0439
  144TMC2    H5 2253   3.222   0.547   0.067 -0.7256  2.3244  0.1909
  145MPD2     C 2254   2.219   0.421   0.598 -0.0945  0.5683  0.0999
  145MPD2    C1 2255   2.277   0.407   0.467 -0.2360  0.0461 -0.3889
  145MPD2    C2 2256   2.418   0.391   0.446  0.2565 -0.2529  0.2332
  145MPD2    C3 2257   2.505   0.405   0.556  0.3141  0.2796 -0.1374
  145MPD2    C4 2258   2.449   0.433   0.676  0.0835 -0.4040  0.4279
  145MPD2    C5 2259   2.315   0.441   0.696 -0.3183  0.1636 -0.1072
  145MPD2     H 2260   2.463   0.385   0.347 -1.6257  1.0557 -0.6779
  145MPD2    H1 2261   2.510   0.454   0.762  0.4802  0.8431 -0.1573
  145MPD2    H2 2262   2.117   0.423   0.635 -0.7104 -2.4140 -1.4463
  145MPD2    H3 2263   2.285   0.465   0.797 -0.2814 -1.2588  0.2418
  145MPD2     N 2264   2.642   0.400   0.546 -0.4810 -0.2790  0.1299
  145MPD2    H5 2265   2.694   0.446   0.620 -0.7757 -1.0885  0.8413
  145MPD2    N1 2266   2.199   0.410   0.348  0.6949 -0.2154 -0.1258
  145MPD2    H7 2267   2.252   0.391   0.264  2.7654 -0.2343  1.1562
  146TMC2    C1 2268   3.282   0.079  13.024  0.7166  0.0645 -0.4200
  146TMC2    C2 2269   3.209   0.180  13.081  0.6729  0.6177 -0.7766
  146TMC2    C3 2270   3.081   0.176  13.050  0.4271  0.6653  0.8467
  146TMC2    C4 2271   3.230   4.715  12.950 -0.1276  0.0203  0.5176
  146TMC2    C5 2272   3.098   4.724  12.928  0.3002 -0.3591 -0.1783
  146TMC2    C6 2273   3.021   0.080  12.978  0.5265 -0.1609  0.2430
  146TMC2     C 2274   3.425   0.072  13.077  0.7152  0.3535 -0.0096
  146TMC2     O 2275   3.475   0.180  13.115  0.1483  0.0838 -0.5320
  146TMC2     H 2276   3.254   0.264  13.132  1.4939  1.5861 -3.1047
  146TMC2    H1 2277   3.282   4.642  12.890  0.7386  1.0152  0.0588
  146TMC2    H2 2278   2.916   0.078  12.952  0.4910  1.7156  0.2422
  146TMC2    C7 2279   3.027   4.611  12.864  0.2287  0.2176 -0.2997
  146TMC2    C8 2280   2.996   0.282  13.082 -0.7607  0.3434  0.4521
  146TMC2    O1 2281   2.920   4.636  12.809 -0.6682 -0.2385 -0.1434
  146TMC2    O2 2282   2.874   0.270  13.065  0.3263  0.3805 -0.1749
  146TMC2    O5 2283   3.060   0.402  13.098  0.0392  0.0004  0.1068
  146TMC2    H5 2284   3.156   0.392  13.078  0.6018  1.9865  1.8070
  147MPD2     C 2285   3.012   4.113  12.711 -0.7932 -0.5509  0.5662
  147MPD2    C1 2286   3.100   4.131  12.812  0.3551  0.6214  0.1398
  147MPD2    C2 2287   3.130   4.257  12.865  0.6060  0.6771  0.2541
  147MPD2    C3 2288   3.049   4.364  12.835 -0.2282 -0.3305  0.0857
  147MPD2    C4 2289   2.941   4.345  12.752 -0.4083  0.1989  0.4782
  147MPD2    C5 2290   2.926   4.217  12.688  0.0975 -0.3033  0.4340
  147MPD2     H 2291   3.213   4.285  12.928  0.2991 -1.1562  1.4822
  147MPD2    H1 2292   2.877   4.426  12.719  0.1908  0.2881 -0.4801
  147MPD2    H2 2293   2.987   4.017  12.667  0.6009 -1.1238  1.0182
  147MPD2    H3 2294   2.836   4.209  12.628  0.8647  0.1413 -0.7791
  147MPD2     N 2295   3.085   4.490  12.889 -0.0168  0.2809 -0.1442
  147MPD2    H5 2296   3.159   4.486  12.958 -1.9306  1.6201  1.9677
  147MPD2    N1 2297   3.185   4.022  12.843  0.1562 -0.5685 -0.2804
  147MPD2    H7 2298   3.171   3.941  12.784  0.0530 -1.0900  0.4579
  148TMC2    C1 2299   3.356   2.662  11.441 -0.5538  0.2404  0.1408
  148TMC2    C2 2300   3.435   2.599  11.529 -0.1170  0.1653 -0.4423
  148TMC2    C3 2301   3.564   2.643  11.530 -0.7378 -0.3983  0.2706
  148TMC2    C4 2302   3.402   2.747  11.337  0.1005 -0.4987  0.3748
  148TMC2    C5 2303   3.536   2.764  11.330 -0.1940  0.4897 -0.1749
  148TMC2    C6 2304   3.617   2.726  11.434 -0.3763  1.4632  0.2142
  148TMC2     C 2305   3.228   2.597  11.420 -0.2409 -0.4541 -0.3370
  148TMC2     O 2306   3.193   2.508  11.500 -0.2380 -0.5436  0.1535
  148TMC2     H 2307   3.399   2.540  11.613  0.5172  0.5952  0.1369
  148TMC2    H1 2308   3.336   2.811  11.280 -0.3835 -1.0830  0.2725
  148TMC2    H2 2309   3.721   2.750  11.449  0.3389 -0.7543 -1.1697
  148TMC2    C7 2310   3.589   2.851  11.232 -0.8858  0.6958 -0.3054
  148TMC2    C8 2311   3.658   2.573  11.617 -0.2509  0.4334 -0.9475
  148TMC2    O1 2312   3.646   2.953  11.263  0.3856 -0.5566 -0.3522
  148TMC2    O2 2313   3.770   2.539  11.580 -0.3010  0.0349 -0.1338
  148TMC2    O5 2314   3.612   2.578  11.740 -0.5328 -0.2739  0.2033
  148TMC2    H5 2315   3.542   2.645  11.755 -0.6603 -0.3748  0.0485
  149MPD2     C 2316   2.973   2.478  11.311  0.4506 -0.5399 -0.7677
  149MPD2    C1 2317   3.057   2.558  11.243  0.1144 -0.1136  0.2153
  149MPD2    C2 2318   3.047   2.576  11.103  0.4304  1.0487 -0.3275
  149MPD2    C3 2319   2.968   2.502  11.028 -0.0785 -0.1046 -0.0304
  149MPD2    C4 2320   2.884   2.416  11.092 -0.1304  0.2968  0.3909
  149MPD2    C5 2321   2.884   2.407  11.234 -0.4002  0.1465  0.1951
  149MPD2     H 2322   3.112   2.647  11.053  0.4148  1.1716 -0.1709
  149MPD2    H1 2323   2.818   2.352  11.035 -0.7798  0.4587  0.9618
  149MPD2    H2 2324   2.965   2.468  11.419  0.4519 -1.1146 -0.8258
  149MPD2    H3 2325   2.809   2.341  11.278 -3.1730  2.2346 -1.4362
  149MPD2     N 2326   2.960   2.512  10.888 -0.1576  0.2565  0.5136
  149MPD2    H5 2327   2.886   2.455  10.848  0.2601 -1.5367  2.2987
  149MPD2    N1 2328   3.167   2.628  11.303  0.1628  0.5018  0.0956
  149MPD2    H7 2329   3.203   2.708  11.252 -0.2520 -0.8286 -2.2547
  150TMC2    C1 2330   0.505   2.458  12.602 -0.6330  0.0373 -0.0034
  150TMC2    C2 2331   0.570   2.553  12.676 -0.0292 -0.3665  0.0176
  150TMC2    C3 2332   0.680   2.511  12.748  0.2387  0.6655 -0.2420
  150TMC2    C4 2333   0.542   2.327  12.596  0.4047 -0.4945 -0.1078
  150TMC2    C5 2334   0.660   2.295  12.664  0.5922 -0.0266 -0.7326
  150TMC2    C6 2335   0.730   2.381  12.737  0.7480  1.3629  0.8084
  150TMC2     C 2336   0.447   2.508  12.484  0.2889 -0.0243  0.4095
  150TMC2     O 2337   0.398   2.617  12.488  0.2002 -0.4689  0.0181
  150TMC2     H 2338   0.541   2.656  12.692  2.1974  0.0098  1.7267
  150TMC2    H1 2339   0.485   2.245  12.553 -1.1508  1.1383 -1.1479
  150TMC2    H2 2340   0.827   2.350  12.774  1.9455  1.8879 -1.8873
  150TMC2    C7 2341   0.718   2.171  12.615  0.4189  0.1092 -0.7043
  150TMC2    C8 2342   0.769   2.623  12.783 -0.3389 -0.4182  0.5861
  150TMC2    O1 2343   0.678   2.134  12.503  0.0303 -0.8500 -0.3156
  150TMC2    O2 2344   0.754   2.733  12.729 -0.4276  0.7214  0.3578
  150TMC2    O5 2345   0.872   2.580  12.863 -0.2640  0.0323 -0.1922
  150TMC2    H5 2346   0.854   2.487  12.890  3.8743 -1.1174 -1.3162
  151MPD2     C 2347   0.274   2.451  12.009 -0.7501 -0.0907  0.3476
  151MPD2    C1 2348   0.278   2.330  12.074  0.1617  0.3612 -1.0760
  151MPD2    C2 2349   0.339   2.321  12.199 -0.4052  0.9954  0.4121
  151MPD2    C3 2350   0.396   2.433  12.258  0.3588  0.2514  0.0217
  151MPD2    C4 2351   0.388   2.554  12.195  0.2230 -0.1097  0.0106
  151MPD2    C5 2352   0.327   2.564  12.066  0.2394  0.4392 -0.1193
  151MPD2     H 2353   0.352   2.226  12.250 -0.7990  1.7943  1.9829
  151MPD2    H1 2354   0.416   2.647  12.244 -1.1792  0.0537  0.4875
  151MPD2    H2 2355   0.226   2.467  11.913  1.7167 -1.4320 -1.1245
  151MPD2    H3 2356   0.323   2.658  12.013  0.0401 -0.0132 -0.9020
  151MPD2     N 2357   0.456   2.421  12.382 -0.2868  0.0503  0.0729
  151MPD2    H5 2358   0.494   2.329  12.400 -1.1122 -0.3974 -0.4704
  151MPD2    N1 2359   0.232   2.210  12.004 -0.1975  0.0350  0.2790
  151MPD2    H7 2360   0.210   2.213  11.905 -0.4002  0.4821  0.3398
  152TMC2    C1 2361   0.650   2.034  13.032  0.3355  0.2201  1.2123
  152TMC2    C2 2362   0.680   1.901  13.049  0.2940  0.1746 -0.2520
  152TMC2    C3 2363   0.815   1.873  13.066  0.2522 -0.5097 -0.6095
  152TMC2    C4 2364   0.743   2.130  13.053  0.1171  0.0977 -1.0934
  152TMC2    C5 2365   0.877   2.104  13.078 -0.0664  0.4943 -0.2522
  152TMC2    C6 2366   0.909   1.969  13.083 -0.3368  0.5312  0.1621
  152TMC2     C 2367   0.530   2.063  12.950  0.6834 -0.1334 -0.3764
  152TMC2     O 2368   0.522   2.179  12.902 -0.0247  0.1934  0.0134
  152TMC2     H 2369   0.624   1.812  13.026 -0.2815 -0.1437  2.3810
  152TMC2    H1 2370   0.706   2.232  13.051 -1.4229 -0.4257  0.7390
  152TMC2    H2 2371   1.013   1.941  13.099 -0.2827  0.2667 -0.6436
  152TMC2    C7 2372   0.968   2.215  13.052 -0.2303 -0.3305  0.1199
  152TMC2    C8 2373   0.863   1.741  13.092  0.0420 -0.6582 -0.1961
  152TMC2    O1 2374   0.921   2.307  12.992 -0.1909 -0.4718 -0.8551
  152TMC2    O2 2375   0.975   1.716  13.133  0.4400  0.1511 -0.1950
  152TMC2    O5 2376   0.759   1.656  13.095  0.2061  0.2822  0.4408
  152TMC2    H5 2377   0.784   1.564  13.118 -1.3166 -0.1024  0.5099
  153MPD2     C 2378   0.251   1.837  12.863 -0.1304  0.2191 -0.4522
  153MPD2    C1 2379   0.328   1.954  12.862 -0.9262  0.2874  0.6565
  153MPD2    C2 2380   0.282   2.066  12.786 -0.3207 -0.2342  0.1332
  153MPD2    C3 2381   0.167   2.050  12.713 -0.6607 -1.1856 -0.1320
  153MPD2    C4 2382   0.085   1.942  12.722  0.6823  0.6381  0.4165
  153MPD2    C5 2383   0.132   1.834  12.791  0.1403  0.0701  0.6428
  153MPD2     H 2384   0.336   2.160  12.787  3.8878 -2.5891 -1.3391
  153MPD2    H1 2385   4.733   1.935  12.663  0.1829  1.3312  1.1162
  153MPD2    H2 2386   0.275   1.755  12.930 -0.8683  1.0806  0.8727
  153MPD2    H3 2387   0.064   1.751  12.790 -0.6940  0.7584 -0.3658
  153MPD2     N 2388   0.127   2.157  12.637  0.3271 -0.8094  0.1583
  153MPD2    H5 2389   0.171   2.244  12.665 -1.4069 -0.3864  1.5034
  153MPD2    N1 2390   0.454   1.953  12.930  0.0140 -0.0001 -0.5525
  153MPD2    H7 2391   0.475   1.865  12.977 -0.0682  0.9201  1.2020
  154TMC2    C1 2392   3.014   1.689   1.004 -0.2167  0.7315  0.3879
  154TMC2    C2 2393   3.009   1.727   1.130  0.3731  0.3650 -0.0786
  154TMC2    C3 2394   3.118   1.685   1.206  0.4160 -0.1096 -0.0553
  154TMC2    C4 2395   3.126   1.624   0.954 -0.9004  0.0157 -0.4350
  154TMC2    C5 2396   3.228   1.584   1.028  0.0485  0.4398 -0.4992
  154TMC2    C6 2397   3.226   1.609   1.161 -0.5470  0.0275  0.0065
  154TMC2     C 2398   2.908   1.740   0.917  0.2166 -0.3161  0.0148
  154TMC2     O 2399   2.841   1.831   0.965 -0.1917 -0.2413 -0.0205
  154TMC2     H 2400   2.932   1.789   1.175 -0.8764  0.5862 -2.5061
  154TMC2    H1 2401   3.132   1.601   0.848  0.3615  0.0599 -0.3766
  154TMC2    H2 2402   3.301   1.570   1.229  1.2475  2.2126 -0.7115
  154TMC2    C7 2403   3.346   1.522   0.972  1.0483  0.4319 -1.2415
  154TMC2    C8 2404   3.117   1.744   1.337  0.1368  0.0559 -0.1296
  154TMC2    O1 2405   3.421   1.467   1.055  0.5000 -0.0033  0.5892
  154TMC2    O2 2406   3.017   1.801   1.380  0.4898 -0.3455 -0.2740
  154TMC2    O5 2407   3.233   1.731   1.407  0.0919 -0.0754  0.0662
  154TMC2    H5 2408   3.310   1.688   1.363 -0.1951  1.0125 -1.4981
  155MPD2     C 2409   2.827   1.631   0.569  0.7268  0.0341  0.2928
  155MPD2    C1 2410   2.816   1.709   0.680  0.2675 -0.0399  0.3768
  155MPD2    C2 2411   2.725   1.810   0.679 -0.2936 -0.2605  0.3093
  155MPD2    C3 2412   2.654   1.852   0.568  0.6038  0.0332 -0.6784
  155MPD2    C4 2413   2.663   1.769   0.455 -0.0016 -0.5365  0.5432
  155MPD2    C5 2414   2.747   1.659   0.459  0.4349 -0.1191  0.5805
  155MPD2     H 2415   2.714   1.866   0.771 -0.8232 -1.3446  0.9053
  155MPD2    H1 2416   2.597   1.785   0.370 -0.9094 -0.4708  1.2599
  155MPD2    H2 2417   2.883   1.538   0.566 -0.9161 -0.9017 -1.6067
  155MPD2    H3 2418   2.741   1.597   0.371  0.9451  0.8904 -0.1728
  155MPD2     N 2419   2.571   1.966   0.583  0.2679 -0.0555 -0.4521
  155MPD2    H5 2420   2.584   2.003   0.676  1.7839 -1.1810 -0.2108
  155MPD2    N1 2421   2.907   1.680   0.789  0.4025  0.3827 -0.1078
  155MPD2    H7 2422   2.963   1.597   0.773  0.3887  0.2854  0.3532
  156TMC2    C1 2423   0.210   4.433  12.258  0.0015 -0.5364 -0.8760
  156TMC2    C2 2424   0.081   4.447  12.292 -0.3649 -0.1041 -0.5560
  156TMC2    C3 2425   4.724   4.462  12.195  0.4648 -0.3566 -0.5215
  156TMC2    C4 2426   0.250   4.445  12.125  0.2462 -0.5259  0.1872
  156TMC2    C5 2427   0.149   4.444  12.031 -0.5681 -0.2801 -0.8743
  156TMC2    C6 2428   0.014   4.449  12.063  0.0972  0.2773 -0.7673
  156TMC2     C 2429   0.309   4.404  12.355  0.2262 -0.3693 -0.7190
  156TMC2     O 2430   0.423   4.416  12.317  0.4843 -0.5882  0.4725
  156TMC2     H 2431   0.054   4.459  12.396  2.8831 -2.7243  0.5537
  156TMC2    H1 2432   0.353   4.444  12.091 -0.2038  0.2264 -1.1840
  156TMC2    H2 2433   4.672   4.452  11.991 -1.3633 -0.6289  0.7984
  156TMC2    C7 2434   0.191   4.482  11.897  0.4491 -0.3467 -0.3083
  156TMC2    C8 2435   4.641   4.572  12.226 -0.8110 -0.1293  0.0086
  156TMC2    O1 2436   0.311   4.500  11.876 -0.6632 -0.0001 -0.1834
  156TMC2    O2 2437   4.612   4.658  12.149  0.2620  0.2507 -0.0787
  156TMC2    O5 2438   4.563   4.528  12.325 -0.7639  0.0545 -0.3655
  156TMC2    H5 2439   4.598   4.447  12.366  1.8070  1.0749 -0.5493
  157MPD2     C 2440   0.242   4.202  12.656  0.1509  0.0360  0.6561
  157MPD2    C1 2441   0.322   4.270  12.568 -0.8083 -0.1229  0.0240
  157MPD2    C2 2442   0.458   4.265  12.576  0.4304 -0.1954  0.2006
  157MPD2    C3 2443   0.522   4.202  12.680 -0.2474 -0.0599  0.6698
  157MPD2    C4 2444   0.443   4.130  12.772  0.4989  0.3068  0.3143
  157MPD2    C5 2445   0.304   4.139  12.764  0.2931  0.3174 -0.3713
  157MPD2     H 2446   0.523   4.313  12.504 -2.3393  2.2149 -0.6884
  157MPD2    H1 2447   0.493   4.073  12.849  2.0749  1.4176  0.1354
  157MPD2    H2 2448   0.134   4.210  12.666 -0.2004 -0.4752 -2.7027
  157MPD2    H3 2449   0.248   4.099  12.848 -0.0183 -2.0636 -1.7126
  157MPD2     N 2450   0.658   4.223  12.690  0.3389  0.4183  0.4054
  157MPD2    H5 2451   0.691   4.263  12.603  0.8390  0.1543  0.4759
  157MPD2    N1 2452   0.253   4.335  12.460  0.2655  0.4396  0.1987
  157MPD2    H7 2453   0.154   4.314  12.456  0.0815  1.3516  0.0027
  158TMC2    C1 2454   2.200   2.742  13.854  0.2319 -0.8078 -0.3033
  158TMC2    C2 2455   2.312   2.676  13.807 -0.0083 -0.5546 -0.1811
  158TMC2    C3 2456   2.317   2.664  13.669  0.7865 -1.0237 -0.6679
  158TMC2    C4 2457   2.101   2.789  13.776 -0.2680 -0.3925 -0.3772
  158TMC2    C5 2458   2.118   2.769  13.641  0.7602  0.3276  0.0332
  158TMC2    C6 2459   2.224   2.702  13.584  0.1201 -0.5581  0.0972
  158TMC2     C 2460   2.192   2.768  13.996 -0.3583  0.0006  0.5011
  158TMC2     O 2461   2.292   2.751  14.060 -0.3895  0.4059 -0.1573
  158TMC2     H 2462   2.394   2.636  13.866  2.0552  1.9461 -1.3482
  158TMC2    H1 2463   2.030   2.863  13.811 -0.0598  0.8414 -2.5796
  158TMC2    H2 2464   2.238   2.677  13.480 -0.3814  1.2655 -0.4236
  158TMC2    C7 2465   2.017   2.813  13.552 -0.8396 -0.5471  0.2352
  158TMC2    C8 2466   2.410   2.571  13.621 -1.1173  0.1307  0.1991
  158TMC2    O1 2467   2.046   2.844  13.439 -0.1530 -0.0236 -0.2305
  158TMC2    O2 2468   2.433   2.463  13.678  0.1208  0.3563 -0.4887
  158TMC2    O5 2469   2.497   2.651  13.552  0.2720 -0.0490  0.3149
  158TMC2    H5 2470   2.473   2.746  13.557 -0.8194 -0.2152 -1.7876
  159MPD2     C 2471   1.969   2.961  14.427  0.4045  0.5228 -0.2566
  159MPD2    C1 2472   1.870   2.936  14.336 -0.2885  0.4834 -0.0027
  159MPD2    C2 2473   1.906   2.885  14.211  0.0540 -0.5650  0.9163
  159MPD2    C3 2474   2.038   2.852  14.173  0.3181  0.0110 -0.5626
  159MPD2    C4 2475   2.132   2.887  14.265 -0.2889  1.0503  0.2510
  159MPD2    C5 2476   2.095   2.939  14.388 -0.0212 -0.2730 -0.3277
  159MPD2     H 2477   1.836   2.853  14.135  1.8375  2.0415 -1.8351
  159MPD2    H1 2478   2.239   2.869  14.253 -0.6128  0.5491 -1.9878
  159MPD2    H2 2479   1.946   3.007  14.523 -0.2591 -1.4426  0.5232
  159MPD2    H3 2480   2.174   2.975  14.453 -0.3342 -1.2983  0.6368
  159MPD2     N 2481   2.065   2.799  14.042  0.2056  0.2717 -0.4412
  159MPD2    H5 2482   1.985   2.789  13.981 -0.4302 -0.1485  0.4548
  159MPD2    N1 2483   1.737   2.962  14.372 -0.2445  0.2466 -0.5403
  159MPD2    H7 2484   1.718   2.993  14.467 -0.9515 -1.4285 -0.1332
  160TMC2    C1 2485   1.615   1.058   1.479  0.4192 -0.0831 -0.1377
  160TMC2    C2 2486   1.739   1.071   1.524 -0.2697 -0.0876 -0.4998
  160TMC2    C3 2487   1.841   1.063   1.437  0.2181  0.0957 -0.3513
  160TMC2    C4 2488   1.591   1.053   1.346  0.3766  0.5336  0.4191
  160TMC2    C5 2489   1.696   1.068   1.260 -0.8810 -0.7150  0.1294
  160TMC2    C6 2490   1.825   1.071   1.304 -0.6723 -0.4350  0.2695
  160TMC2     C 2491   1.507   1.091   1.570  0.1083  0.2166 -0.1403
  160TMC2     O 2492   1.546   1.105   1.686  0.1747 -0.2579  0.3191
  160TMC2     H 2493   1.762   1.074   1.630  0.2426  2.2506 -0.6852
  160TMC2    H1 2494   1.489   1.041   1.310  0.9867 -1.9475 -0.4782
  160TMC2    H2 2495   1.913   1.071   1.240  0.1365  1.3746  1.4021
  160TMC2    C7 2496   1.666   1.090   1.121  0.2868  0.3549 -0.4084
  160TMC2    C8 2497   1.977   1.071   1.486  0.4387 -0.7088 -0.1796
  160TMC2    O1 2498   1.559   1.055   1.076 -0.0868 -0.3486  0.0858
  160TMC2    O2 2499   2.071   1.033   1.412  0.3428  0.1799  0.5147
  160TMC2    O5 2500   1.978   1.204   1.516 -0.4223  0.7446 -0.1108
  160TMC2    H5 2501   1.908   1.238   1.576 -1.2085  0.1609 -0.6944
  161MPD2     C 2502   1.264   1.143   1.731 -0.3681 -0.2827 -0.1080
  161MPD2    C1 2503   1.263   1.129   1.589  0.8085 -0.7582  1.1095
  161MPD2    C2 2504   1.141   1.139   1.521  0.5346  0.0813  0.4601
  161MPD2    C3 2505   1.022   1.164   1.591  0.2637 -0.3712 -0.0272
  161MPD2    C4 2506   1.028   1.184   1.727 -0.0742  0.1337 -0.0050
  161MPD2    C5 2507   1.148   1.184   1.791 -0.0038  0.0792  0.3149
  161MPD2     H 2508   1.128   1.122   1.415 -0.0984 -0.4636  0.6238
  161MPD2    H1 2509   0.945   1.218   1.787 -0.4794 -0.6474 -0.1238
  161MPD2    H2 2510   1.347   1.133   1.800 -1.6748 -0.1167  1.4794
  161MPD2    H3 2511   1.159   1.219   1.893  0.6432 -0.4337  0.4194
  161MPD2     N 2512   0.904   1.173   1.526  0.1363 -0.0190 -0.5741
  161MPD2    H5 2513   0.821   1.203   1.576  0.9222 -0.8407  1.2324
  161MPD2    N1 2514   1.380   1.096   1.517 -0.7639 -0.5124 -0.2262
  161MPD2    H7 2515   1.370   1.071   1.419  1.3750 -0.7181 -0.3855
  162TMC2    C1 2516   3.666   2.769   1.330  0.4992  0.0300 -0.5533
  162TMC2    C2 2517   3.531   2.811   1.324  0.5640  0.0751 -0.2147
  162TMC2    C3 2518   3.464   2.787   1.442 -0.0218 -0.5810  0.1342
  162TMC2    C4 2519   3.723   2.700   1.430 -0.1651  0.3997 -0.8359
  162TMC2    C5 2520   3.644   2.679   1.540  0.8906 -0.1913  0.1864
  162TMC2    C6 2521   3.506   2.722   1.548 -0.1599  0.4398  0.2578
  162TMC2     C 2522   3.734   2.764   1.199 -0.8519  0.2228  1.0257
  162TMC2     O 2523   3.838   2.703   1.177  0.3799  0.0661 -0.7712
  162TMC2     H 2524   3.478   2.845   1.236 -0.0757 -0.6068 -0.0829
  162TMC2    H1 2525   3.829   2.678   1.427 -0.1906  0.4214 -1.9670
  162TMC2    H2 2526   3.443   2.706   1.635 -0.8852 -0.8240 -0.4912
  162TMC2    C7 2527   3.703   2.612   1.655  0.3490  0.2108 -0.1858
  162TMC2    C8 2528   3.332   2.830   1.439  1.2461  0.1700 -0.3647
  162TMC2    O1 2529   3.647   2.520   1.711  0.2964  0.1636  0.5914
  162TMC2    O2 2530   3.243   2.761   1.483 -0.1618  0.3288 -0.1820
  162TMC2    O5 2531   3.319   2.955   1.375  0.4943 -0.2802  0.2015
  162TMC2    H5 2532   3.406   2.995   1.353 -0.1019  0.9100  0.0244
  163MPD2     C 2533   3.722   2.945   0.710 -0.3347  0.0423  0.4164
  163MPD2    C1 2534   3.792   2.844   0.767  0.3203  0.4410  0.4803
  163MPD2    C2 2535   3.777   2.814   0.902 -0.4337  0.4185  0.1500
  163MPD2    C3 2536   3.692   2.882   0.977 -0.1594  0.1555 -0.4744
  163MPD2    C4 2537   3.609   2.971   0.914  0.2594 -0.4047  0.2031
  163MPD2    C5 2538   3.631   3.007   0.782  0.1849  0.2225  0.7778
  163MPD2     H 2539   3.841   2.742   0.952 -0.7042  0.5189  0.6481
  163MPD2    H1 2540   3.528   3.021   0.967  1.2248  0.5598  0.7802
  163MPD2    H2 2541   3.739   2.976   0.608 -1.8360  0.4234  0.2839
  163MPD2    H3 2542   3.564   3.080   0.738  1.3221  1.5875  1.2991
  163MPD2     N 2543   3.669   2.854   1.117 -0.7154  0.3911 -0.0899
  163MPD2    H5 2544   3.610   2.920   1.165  0.8613  2.0553 -0.4274
  163MPD2    N1 2545   3.885   2.779   0.674  0.2201  0.1754  0.0707
  163MPD2    H7 2546   3.908   2.835   0.592 -0.1097  1.8792  1.1322
  164TMC2    C1 2547   3.982   2.405  11.937 -0.3476 -1.0491  0.4384
  164TMC2    C2 2548   4.000   2.388  12.070 -0.6478 -0.2449 -0.9061
  164TMC2    C3 2549   3.963   2.492  12.155 -0.6864 -0.2796 -0.3162
  164TMC2    C4 2550   3.931   2.520  11.881 -0.4948  1.3594  0.2016
  164TMC2    C5 2551   3.918   2.625  11.963 -0.5768 -0.2531  0.3470
  164TMC2    C6 2552   3.922   2.612  12.098 -0.3855 -1.1995 -0.3482
  164TMC2     C 2553   3.976   2.283  11.866  0.4888  0.1161  0.2434
  164TMC2     O 2554   3.938   2.183  11.931  0.0991 -0.2663 -0.6136
  164TMC2     H 2555   4.045   2.294  12.102  1.1802  0.3309 -1.7842
  164TMC2    H1 2556   3.900   2.533  11.778  0.1570  1.3323 -0.0043
  164TMC2    H2 2557   3.921   2.692  12.171 -0.0610 -1.2332 -0.3051
  164TMC2    C7 2558   3.863   2.740  11.905 -0.1594  0.5636 -0.1025
  164TMC2    C8 2559   3.983   2.471  12.294  0.0100  0.6201  0.3649
  164TMC2    O1 2560   3.787   2.805  11.974 -0.1699 -0.0462 -0.1080
  164TMC2    O2 2561   3.899   2.485  12.377 -0.0775  0.2214  0.1791
  164TMC2    O5 2562   4.096   2.399  12.306  0.4853  0.2554 -0.1315
  164TMC2    H5 2563   4.154   2.426  12.232  0.4710 -0.6915 -0.4930
  165TMC2    C1 2564   0.764   0.612   1.403  0.1207  0.0909  0.3453
  165TMC2    C2 2565   0.701   0.709   1.474  0.5531 -0.4550  0.5155
  165TMC2    C3 2566   0.780   0.793   1.550  0.2710  0.0161  0.2589
  165TMC2    C4 2567   0.906   0.585   1.420 -0.1894 -0.6068  0.0810
  165TMC2    C5 2568   0.974   0.674   1.494 -0.2003  0.5481 -0.2809
  165TMC2    C6 2569   0.919   0.779   1.559  0.1543  0.3019  0.4732
  165TMC2     C 2570   0.681   0.502   1.363  0.2741 -0.3847 -0.4871
  165TMC2     O 2571   0.557   0.508   1.385  0.4018  0.0815 -0.7504
  165TMC2     H 2572   0.593   0.715   1.485  0.5496 -0.6388  0.5857
  165TMC2    H1 2573   0.955   0.494   1.386  0.8068  0.3363 -0.9955
  165TMC2    H2 2574   0.982   0.859   1.597 -1.3926  1.1451  1.2695
  165TMC2    C7 2575   1.123   0.661   1.494  0.2836  0.6040  0.0552
  165TMC2    C8 2576   0.714   0.886   1.643  0.9718  0.9733 -0.1214
  165TMC2    O1 2577   1.176   0.602   1.399  0.5182  0.2283 -0.0095
  165TMC2    O2 2578   0.621   0.955   1.612 -0.0568 -0.5496 -0.1102
  165TMC2    O5 2579   0.786   0.887   1.756 -0.1378  0.0408  0.1884
  165TMC2    H5 2580   0.851   0.814   1.744  0.4845  0.4123  1.2499
  166MPD2     C 2581   0.634   0.058   1.122  0.2718  0.1867  0.0199
  166MPD2    C1 2582   0.556   0.119   1.213 -0.4166  0.0544  0.3703
  166MPD2    C2 2583   0.594   0.245   1.259  0.0925 -0.7520  0.2593
  166MPD2    C3 2584   0.696   0.311   1.207  0.4850 -0.7731  0.6031
  166MPD2    C4 2585   0.767   0.252   1.103 -0.5785 -0.4782 -0.1418
  166MPD2    C5 2586   0.734   0.128   1.061 -0.5631 -0.2176  0.7796
  166MPD2     H 2587   0.540   0.294   1.339  0.8509  0.4915 -0.0021
  166MPD2    H1 2588   0.857   0.293   1.059 -1.1562  3.1261  1.9979
  166MPD2    H2 2589   0.605   4.702   1.080 -1.4219 -0.1264  1.8657
  166MPD2    H3 2590   0.796   0.085   0.982  0.4201 -0.3308  1.6183
  166MPD2     N 2591   0.744   0.433   1.257 -1.0469  0.2028 -0.2528
  166MPD2    H5 2592   0.838   0.458   1.226 -0.5159 -1.2212  0.1859
  166MPD2    N1 2593   0.448   0.044   1.263 -0.3951 -0.2888  0.1212
  166MPD2    H7 2594   0.453   4.685   1.238 -0.3827  0.0615 -1.2600
  167TMC2    C1 2595   3.235   2.808  13.050  0.3972  0.0854 -0.0584
  167TMC2    C2 2596   3.207   2.853  13.176 -0.5560 -0.1654  0.2115
  167TMC2    C3 2597   3.241   2.769  13.272 -0.6777  0.6049 -0.0757
  167TMC2    C4 2598   3.293   2.684  13.019 -0.6084 -0.3249  0.4127
  167TMC2    C5 2599   3.320   2.606  13.128 -0.1445  0.3267  0.3570
  167TMC2    C6 2600   3.310   2.653  13.258 -0.6955  0.0004 -0.3688
  167TMC2     C 2601   3.240   2.899  12.938 -0.2951 -0.3374 -0.0418
  167TMC2     O 2602   3.167   2.993  12.947 -0.9912 -0.4074 -0.5051
  167TMC2     H 2603   3.153   2.946  13.192  0.5191  0.9057 -2.4891
  167TMC2    H1 2604   3.307   2.642  12.920  2.8234  1.9215 -0.0516
  167TMC2    H2 2605   3.334   2.581  13.336 -1.3032 -2.0005 -2.0404
  167TMC2    C7 2606   3.376   2.478  13.111  0.7428 -0.5048 -0.5071
  167TMC2    C8 2607   3.161   2.759  13.398 -0.0895  0.2016  0.2105
  167TMC2    O1 2608   3.356   2.403  13.207  0.6952 -0.4486 -0.1623
  167TMC2    O2 2609   3.146   2.654  13.459  0.1146  0.1176  0.3396
  167TMC2    O5 2610   3.132   2.884  13.442  0.1125  0.0402 -0.3384
  167TMC2    H5 2611   3.169   2.958  13.389  1.5943 -0.0509  0.5745
  168MPD2     C 2612   3.278   3.050  12.694  0.6192 -0.2999  0.5167
  168MPD2    C1 2613   3.355   2.947  12.731  0.2264 -0.6093 -0.7456
  168MPD2    C2 2614   3.465   2.919  12.652 -0.1117 -0.1116  0.5182
  168MPD2    C3 2615   3.489   2.987  12.531 -0.2130 -0.1801 -0.4758
  168MPD2    C4 2616   3.406   3.093  12.499  0.0096 -0.3956  0.3339
  168MPD2    C5 2617   3.305   3.124  12.584  0.5743 -0.2123 -0.2001
  168MPD2     H 2618   3.530   2.849  12.703 -0.8228  0.5527  2.3069
  168MPD2    H1 2619   3.423   3.160  12.415  1.4265 -0.5598  0.4880
  168MPD2    H2 2620   3.188   3.082  12.747  0.6873 -1.0123  1.0538
  168MPD2    H3 2621   3.253   3.216  12.562 -0.4532  0.3038  4.4667
  168MPD2     N 2622   3.587   2.949  12.445 -0.2721 -1.3372 -0.0105
  168MPD2    H5 2623   3.580   2.996  12.355  2.2704 -1.3628 -0.2014
  168MPD2    N1 2624   3.336   2.870  12.845  0.4057 -0.1588 -0.6302
  168MPD2    H7 2625   3.404   2.799  12.869  1.8641  1.2855 -0.4398
  169MPD1     C 2626   0.070   3.462  10.108 -0.0020  0.4438  0.3883
  169MPD1    C1 2627   0.025   3.342  10.151 -0.3790 -0.4637 -0.5538
  169MPD1    C2 2628   0.101   3.229  10.125 -0.5759  0.0570 -0.1967
  169MPD1    C3 2629   0.211   3.239  10.046 -0.3846  0.4478  0.1297
  169MPD1    C4 2630   0.246   3.358   9.985  0.2845 -0.8167 -0.4193
  169MPD1    C5 2631   0.174   3.471  10.023  0.1847  0.0307 -0.0722
  169MPD1     H 2632   0.071   3.136  10.172 -2.4210 -0.5762 -2.6082
  169MPD1    H1 2633   0.322   3.374   9.909  1.3359 -2.0226  0.3930
  169MPD1    H2 2634   0.006   3.548  10.126 -1.9928 -0.7879 -0.7505
  169MPD1    H3 2635   0.202   3.563   9.975 -1.1370  0.8926  0.8072
  169MPD1     N 2636   0.275   3.122  10.005 -0.1320  0.6722 -0.1567
  169MPD1    H5 2637   0.241   3.036  10.046  0.6760 -0.6320 -2.2862
  169MPD1    N1 2638   4.651   3.337  10.231 -0.2249  0.5866  0.0962
  169MPD1    H6 2639   4.658   3.390  10.318  2.3298  3.9336 -2.1460
  169MPD1    H7 2640   4.629   3.244  10.267 -0.4914  0.4985 -0.2944
  170MPD1     C 2641   4.134   4.660  13.222  0.1466 -0.1978  0.9920
  170MPD1    C1 2642   4.187   0.042  13.207 -0.7574 -0.2191 -0.0157
  170MPD1    C2 2643   4.275   0.086  13.303  0.3378  0.1792 -0.4762
  170MPD1    C3 2644   4.303   0.011  13.418  0.0869 -0.4525  0.1952
  170MPD1    C4 2645   4.241   4.628  13.436  0.1019  0.6658  0.4372
  170MPD1    C5 2646   4.159   4.585  13.333 -0.7062  0.3325  0.5951
  170MPD1     H 2647   4.323   0.183  13.296 -3.6062  2.1141 -0.7971
  170MPD1    H1 2648   4.251   4.560  13.520 -0.0890 -1.1006 -0.9679
  170MPD1    H2 2649   4.059   4.631  13.149  0.8387 -1.4296  0.7722
  170MPD1    H3 2650   4.098   4.497  13.348  0.8796 -0.3739  2.8447
  170MPD1     N 2651   4.398   0.062  13.504  0.1065  0.0600 -0.0234
  170MPD1    H5 2652   4.436   0.153  13.482 -0.0994 -0.1816 -1.4161
  170MPD1    N1 2653   4.158   0.126  13.099  0.0131  0.2840  0.0945
  170MPD1    H6 2654   4.170   0.227  13.112 -0.5583  0.0869  2.1157
  170MPD1    H7 2655   4.060   0.113  13.076  0.2202  1.1794 -1.3224
  171MPD1     C 2656   3.723   1.344  15.190 -0.1794  0.0736 -0.5538
  171MPD1    C1 2657   3.714   1.213  15.150  0.9468 -0.8237 -0.4468
  171MPD1    C2 2658   3.683   1.125  15.243  0.1653  0.3479 -0.6014
  171MPD1    C3 2659   3.649   1.152  15.376 -0.0550  0.6110 -0.1487
  171MPD1    C4 2660   3.672   1.279  15.414 -0.4283  0.0729 -0.2100
  171MPD1    C5 2661   3.715   1.370  15.323  0.3963 -0.0049 -0.7413
  171MPD1     H 2662   3.660   1.024  15.211  1.8174 -1.0020  2.5115
  171MPD1    H1 2663   3.667   1.296  15.521 -1.1719 -1.7152  0.0393
  171MPD1    H2 2664   3.742   1.421  15.115 -0.9084 -0.8556 -1.6950
  171MPD1    H3 2665   3.740   1.467  15.364  1.1347 -1.5393  2.4544
  171MPD1     N 2666   3.600   1.066  15.475  0.0300 -0.9066  0.4786
  171MPD1    H5 2667   3.580   1.108  15.565 -1.7017 -0.3980 -0.1407
  171MPD1    N1 2668   3.705   1.167  15.017 -0.2777 -0.0654  0.1048
  171MPD1    H6 2669   3.747   1.074  15.013 -0.9317 -0.3522 -0.0542
  171MPD1    H7 2670   3.754   1.225  14.948  0.2206 -3.8734 -2.8005
  172MPD1     C 2671   2.550   0.488  17.665  0.4718  1.1515 -0.2102
  172MPD1    C1 2672   2.420   0.532  17.692 -0.5603 -0.3107 -0.2126
  172MPD1    C2 2673   2.395   0.599   0.056 -0.2575  0.2043  0.7975
  172MPD1    C3 2674   2.494   0.629   0.148 -0.4784 -0.3971 -0.0042
  172MPD1    C4 2675   2.623   0.594   0.121 -0.3925 -0.6871 -0.6736
  172MPD1    C5 2676   2.648   0.528   0.002  0.0674  0.6082  0.4995
  172MPD1     H 2677   2.291   0.624   0.075 -0.4703 -1.3145  1.6580
  172MPD1    H1 2678   2.706   0.623   0.184  0.6881 -0.4839 -2.1866
  172MPD1    H2 2679   2.574   0.442  17.569  0.3594  1.4244 -0.3695
  172MPD1    H3 2680   2.752   0.500   0.000 -0.2179 -0.3329 -1.5010
  172MPD1     N 2681   2.473   0.698   0.266 -0.0849  0.2425 -0.3079
  172MPD1    H5 2682   2.559   0.709   0.319 -0.3311  0.2089  0.0955
  172MPD1    N1 2683   2.320   0.484  17.604 -0.0560  0.4708  0.3812
  172MPD1    H6 2684   2.347   0.482  17.506  0.3710 -2.4112  0.5364
  172MPD1    H7 2685   2.229   0.530  17.609  0.8293  2.1473  0.9731
  173MPD1     C 2686   3.458   0.498  14.141 -0.4291  0.1757  0.4449
  173MPD1    C1 2687   3.443   0.365  14.154  0.3778  0.2441 -0.2949
  173MPD1    C2 2688   3.544   0.293  14.213  0.2912 -0.6967 -0.0518
  173MPD1    C3 2689   3.663   0.349  14.255 -0.9482 -0.0097 -0.4370
  173MPD1    C4 2690   3.676   0.482  14.233  0.5047 -0.1005 -0.0203
  173MPD1    C5 2691   3.575   0.555  14.183 -0.0516 -0.7790  0.9118
  173MPD1     H 2692   3.524   0.188  14.234  1.1114 -0.4634  1.9088
  173MPD1    H1 2693   3.759   0.539  14.273  0.6598 -0.2032 -0.1956
  173MPD1    H2 2694   3.386   0.565  14.095 -1.1214  0.5643  2.0604
  173MPD1    H3 2695   3.581   0.663  14.177  0.3121 -0.9979 -2.5628
  173MPD1     N 2696   3.758   0.269  14.316 -0.2301  0.4882 -0.2831
  173MPD1    H5 2697   3.733   0.171  14.315 -1.0422  0.7097 -1.6846
  173MPD1    N1 2698   3.325   0.306  14.103 -0.0703  0.4617 -0.3736
  173MPD1    H6 2699   3.349   0.216  14.063 -0.3402 -0.6362  1.9314
  173MPD1    H7 2700   3.285   0.372  14.037 -1.3029 -1.6045 -1.6783
  174MPD1     C 2701   0.039   0.177  14.318 -0.1740  0.4071 -0.0342
  174MPD1    C1 2702   4.725   0.088  14.404  0.2603  0.3300  0.7457
  174MPD1    C2 2703   4.592   0.092  14.447  0.2225 -0.4691 -0.5567
  174MPD1    C3 2704   4.506   0.189  14.397  0.5160  0.7031 -0.1239
  174MPD1    C4 2705   4.559   0.284  14.310  0.2351  0.2329  0.0793
  174MPD1    C5 2706   4.692   0.268  14.266 -0.3017 -0.1620  0.6261
  174MPD1     H 2707   4.570   0.020  14.524 -1.7438  1.7579  0.9427
  174MPD1    H1 2708   4.498   0.352  14.252 -1.1893 -1.7247 -0.7215
  174MPD1    H2 2709   0.135   0.157  14.272 -0.4806 -0.5028 -0.2841
  174MPD1    H3 2710   4.728   0.342  14.196  0.1649 -0.0712  0.9560
  174MPD1     N 2711   4.378   0.212  14.443 -0.7015  0.0824  0.7200
  174MPD1    H5 2712   4.339   0.299  14.410  1.3444  0.6111 -0.2715
  174MPD1    N1 2713   0.078   4.736  14.459  0.0614 -0.1404 -0.3035
  174MPD1    H6 2714   0.157   4.703  14.404  0.1085 -2.2135  0.9996
  174MPD1    H7 2715   0.027   4.651  14.483 -0.3478 -0.0686 -0.9022
  175MPD1     C 2716   2.473   1.871  15.274 -0.0279  0.0373  0.1062
  175MPD1    C1 2717   2.516   1.843  15.400  0.8872 -0.3852  0.1198
  175MPD1    C2 2718   2.511   1.711  15.450 -0.6231 -0.9061  0.9214
  175MPD1    C3 2719   2.489   1.607  15.358 -0.5116  1.0846  0.5698
  175MPD1    C4 2720   2.434   1.637  15.233  0.1131 -0.1599  0.2137
  175MPD1    C5 2721   2.431   1.766  15.187 -0.2192  0.1828  0.4447
  175MPD1     H 2722   2.532   1.695  15.555  0.1744 -1.1940  0.7185
  175MPD1    H1 2723   2.384   1.558  15.177 -1.8535  1.3276 -0.1203
  175MPD1    H2 2724   2.466   1.976  15.247  0.3125  0.1300  0.3946
  175MPD1    H3 2725   2.384   1.789  15.093 -0.6002 -3.7317 -0.3112
  175MPD1     N 2726   2.487   1.470  15.387 -0.0980 -0.7797 -0.4540
  175MPD1    H5 2727   2.449   1.403  15.321 -1.6412 -3.4533  3.1723
  175MPD1    N1 2728   2.542   1.949  15.488 -0.0587 -0.6684  0.6534
  175MPD1    H6 2729   2.564   2.035  15.438  0.6724 -0.7101  0.9067
  175MPD1    H7 2730   2.610   1.924  15.559 -0.7766 -0.0270  1.5840
  176MPD1     C 2731   4.170   3.766   0.450  1.0509  0.6210 -0.1663
  176MPD1    C1 2732   4.240   3.883   0.487 -0.4499  0.6469  0.2225
  176MPD1    C2 2733   4.296   3.959   0.385  0.5825 -0.8167  0.8824
  176MPD1    C3 2734   4.272   3.935   0.251 -0.3631 -0.1725  0.2498
  176MPD1    C4 2735   4.190   3.833   0.220  0.1428  0.3563 -0.5373
  176MPD1    C5 2736   4.151   3.749   0.320  0.2874 -0.6124 -0.1646
  176MPD1     H 2737   4.359   4.041   0.419  0.1173  0.2276 -0.7780
  176MPD1    H1 2738   4.165   3.799   0.120  0.1254  0.1338 -0.4571
  176MPD1    H2 2739   4.142   3.688   0.520  0.8180  2.0713  1.3618
  176MPD1    H3 2740   4.096   3.660   0.292  0.7224  0.0029 -2.9648
  176MPD1     N 2741   4.335   4.027   0.159 -0.0412  0.0370  0.2310
  176MPD1    H5 2742   4.397   4.097   0.199  1.0761 -1.5712  1.3233
  176MPD1    N1 2743   4.287   3.893   0.617 -0.3938  0.4157 -0.1513
  176MPD1    H6 2744   4.292   3.991   0.643 -0.7249  0.5683 -0.6611
  176MPD1    H7 2745   4.242   3.838   0.689  0.8883 -1.0573 -0.4675
  177MPD1     C 2746   1.757   3.645   9.790  0.3742 -0.1198 -0.0919
  177MPD1    C1 2747   1.654   3.550   9.801 -0.8104 -0.4027 -0.4592
  177MPD1    C2 2748   1.542   3.576   9.725 -0.0324 -0.4711 -0.4741
  177MPD1    C3 2749   1.536   3.671   9.626  0.7518  0.4009  0.1817
  177MPD1    C4 2750   1.637   3.763   9.615  0.0399 -0.5557  0.0294
  177MPD1    C5 2751   1.741   3.746   9.700  0.1494 -0.0214  0.0876
  177MPD1     H 2752   1.464   3.501   9.730 -0.2654 -0.1507  0.7333
  177MPD1    H1 2753   1.637   3.844   9.544 -0.1345 -0.1125  0.5327
  177MPD1    H2 2754   1.844   3.646   9.854 -0.6847 -1.3563  1.3814
  177MPD1    H3 2755   1.815   3.823   9.682 -1.9407  1.3999 -2.4176
  177MPD1     N 2756   1.428   3.663   9.543  0.0184  0.4220  0.1852
  177MPD1    H5 2757   1.365   3.584   9.550  1.6846 -1.0387 -1.1089
  177MPD1    N1 2758   1.643   3.460   9.911 -0.6181  0.0359 -0.3783
  177MPD1    H6 2759   1.729   3.427   9.954  0.1506 -0.1496 -2.0747
  177MPD1    H7 2760   1.590   3.377   9.884  0.1466 -0.6934  0.3737
  178MPD1     C 2761   4.584   3.471   0.494  0.1801 -0.5031  0.6802
  178MPD1    C1 2762   4.515   3.594   0.499 -0.9699  0.6779  0.5473
  178MPD1    C2 2763   4.547   3.677   0.393 -1.1282 -0.5875  0.1905
  178MPD1    C3 2764   4.634   3.653   0.285 -0.0009 -0.2143  0.4550
  178MPD1    C4 2765   4.686   3.520   0.275 -0.9374  0.0597  0.0736
  178MPD1    C5 2766   4.664   3.443   0.384  0.7912  0.1157  0.3447
  178MPD1     H 2767   4.503   3.776   0.392  2.7523  1.1149 -1.4936
  178MPD1    H1 2768   0.006   3.486   0.190  1.9447  0.3051  1.9819
  178MPD1    H2 2769   4.589   3.408   0.582 -1.6001 -3.1108 -1.1091
  178MPD1    H3 2770   4.711   3.345   0.393 -0.2814 -0.3119  1.3011
  178MPD1     N 2771   4.673   3.743   0.182 -0.3365  0.2037 -0.6317
  178MPD1    H5 2772   4.730   3.714   0.104  1.7503 -0.8194  1.2709
  178MPD1    N1 2773   4.446   3.646   0.605 -0.2300 -0.7801 -0.1350
  178MPD1    H6 2774   4.392   3.577   0.657 -3.1622  0.7238 -1.2125
  178MPD1    H7 2775   4.388   3.726   0.581  0.2287 -0.0839  1.1189
  179MPD1     C 2776   4.074   2.667  15.921  0.2341  0.2107 -0.4514
  179MPD1    C1 2777   4.152   2.663  16.029 -0.1959  0.5675  0.2210
  179MPD1    C2 2778   4.208   2.544  16.069 -0.1447 -0.1371 -0.0467
  179MPD1    C3 2779   4.188   2.436  15.985  0.5224 -0.2563 -1.0091
  179MPD1    C4 2780   4.094   2.438  15.885 -0.3502  0.4181 -0.2406
  179MPD1    C5 2781   4.053   2.555  15.840 -0.2005 -0.2596 -0.3544
  179MPD1     H 2782   4.269   2.546  16.159  0.2156  0.8585 -0.3166
  179MPD1    H1 2783   4.096   2.354  15.816 -0.9321  0.7567 -0.6745
  179MPD1    H2 2784   4.040   2.763  15.885  0.8490  0.8763  0.7141
  179MPD1    H3 2785   3.994   2.557  15.750  0.8665  0.9044 -1.0216
  179MPD1     N 2786   4.248   2.314  16.007  0.6459 -0.4307  0.1427
  179MPD1    H5 2787   4.216   2.234  15.954 -0.4303 -1.0459  1.6880
  179MPD1    N1 2788   4.178   2.787  16.091 -0.0266  0.4530  0.1901
  179MPD1    H6 2789   4.099   2.851  16.087 -0.4600 -0.3067 -3.5125
  179MPD1    H7 2790   4.208   2.772  16.187 -0.6601 -1.0279  0.1471
  180MPD1     C 2791   4.483   4.007  15.409 -0.0411 -0.6417  0.1501
  180MPD1    C1 2792   4.571   3.999  15.304  0.1245 -0.8395 -0.1910
  180MPD1    C2 2793   4.548   3.908  15.202 -0.0389  0.1589  0.2669
  180MPD1    C3 2794   4.447   3.818  15.202  0.7246  0.3636 -0.1842
  180MPD1    C4 2795   4.351   3.828  15.309 -0.0640  0.4313 -1.1667
  180MPD1    C5 2796   4.369   3.924  15.411 -0.3873 -0.4108  0.1858
  180MPD1     H 2797   4.623   3.908  15.123  2.4983  1.5712  2.6850
  180MPD1    H1 2798   4.255   3.779  15.317  0.0393  0.2017 -1.3210
  180MPD1    H2 2799   4.480   4.088  15.480  1.5055 -1.9912  1.7532
  180MPD1    H3 2800   4.297   3.939  15.490 -1.1591  0.7691 -0.7470
  180MPD1     N 2801   4.433   3.742  15.084  0.7645 -0.3867  0.1617
  180MPD1    H5 2802   4.513   3.742  15.022 -0.7411  0.2057 -1.7822
  180MPD1    N1 2803   4.677   4.094  15.284  0.3665  0.2801 -0.0109
  180MPD1    H6 2804   4.682   4.151  15.368 -1.5586  0.9179 -0.3246
  180MPD1    H7 2805   4.670   4.145  15.196  1.4860 -1.0381 -0.8690
  181MPD1     C 2806   0.749   0.920   9.540  0.0522 -0.6627  0.2765
  181MPD1    C1 2807   0.760   1.057   9.562  0.2611 -0.1362  0.1321
  181MPD1    C2 2808   0.836   1.108   9.660  0.4771 -0.3589 -0.1430
  181MPD1    C3 2809   0.897   1.023   9.751 -0.5584  0.4841  0.4782
  181MPD1    C4 2810   0.884   0.885   9.734 -0.3590 -0.2909 -0.5673
  181MPD1    C5 2811   0.813   0.838   9.627 -0.2437 -0.1631  0.3138
  181MPD1     H 2812   0.855   1.213   9.678  2.8373 -0.9554  0.7839
  181MPD1    H1 2813   0.932   0.812   9.799  1.6224  2.0974  0.6506
  181MPD1    H2 2814   0.686   0.882   9.460  1.0467  0.9935 -1.2934
  181MPD1    H3 2815   0.802   0.730   9.621 -1.2549 -0.0907  0.7402
  181MPD1     N 2816   0.977   1.059   9.861  0.5189  0.3795 -0.1822
  181MPD1    H5 2817   0.998   0.979   9.919  2.6537  1.5806  0.6927
  181MPD1    N1 2818   0.705   1.140   9.466  0.2056  0.0734 -0.2693
  181MPD1    H6 2819   0.695   1.238   9.491  0.3744  0.5255 -1.9645
  181MPD1    H7 2820   0.620   1.104   9.421  0.8361 -1.1252 -0.5118
  182MPD1     C 2821   2.942   4.580   1.461 -0.1127 -0.3530  0.0533
  182MPD1    C1 2822   2.839   4.649   1.518 -0.1038  0.4062 -0.6816
  182MPD1    C2 2823   2.711   4.653   1.462  0.5750  0.5435 -0.6006
  182MPD1    C3 2824   2.690   4.568   1.350  0.4834  0.1019  0.4610
  182MPD1    C4 2825   2.796   4.500   1.298  0.1361 -0.0501 -0.2639
  182MPD1    C5 2826   2.924   4.507   1.342  0.2496 -0.9046  0.5567
  182MPD1     H 2827   2.636   4.707   1.520  0.8272 -2.3573  2.4395
  182MPD1    H1 2828   2.779   4.442   1.208  2.7482 -0.5570 -0.4327
  182MPD1    H2 2829   3.042   4.593   1.501 -1.5666 -0.1102  3.5348
  182MPD1    H3 2830   3.006   4.450   1.300  0.2459  0.5524 -1.4083
  182MPD1     N 2831   2.570   4.565   1.274  0.8216 -0.7012  0.1012
  182MPD1    H5 2832   2.579   4.537   1.177 -0.9347  1.5178 -0.7136
  182MPD1    N1 2833   2.860   0.009   1.620 -0.0631 -0.1076  0.5946
  182MPD1    H6 2834   2.778   0.042   1.671 -0.1536 -0.4568  0.6775
  182MPD1    H7 2835   2.935   4.725   1.685  0.2124  1.4043  0.7856
  183MPD1     C 2836   2.551   0.367   9.195  0.4467  0.2061 -0.1237
  183MPD1    C1 2837   2.663   0.361   9.275  0.2924  0.2538  0.4098
  183MPD1    C2 2838   2.667   0.435   9.394 -0.2410  0.6062 -0.1362
  183MPD1    C3 2839   2.561   0.529   9.414 -0.6834 -0.3257  0.3503
  183MPD1    C4 2840   2.452   0.536   9.325 -0.2948 -0.0852  0.4290
  183MPD1    C5 2841   2.447   0.449   9.217 -0.2132  0.5134  0.5906
  183MPD1     H 2842   2.750   0.424   9.462  1.2527  0.1997 -2.0536
  183MPD1    H1 2843   2.364   0.593   9.351 -0.0419 -0.0261  1.1821
  183MPD1    H2 2844   2.547   0.312   9.102 -1.3706 -0.4172  0.3353
  183MPD1    H3 2845   2.362   0.457   9.150 -0.0362  0.5621  0.3727
  183MPD1     N 2846   2.565   0.609   9.534  0.9101  0.0423  0.1424
  183MPD1    H5 2847   2.627   0.575   9.606  0.5459  0.4486  0.6503
  183MPD1    N1 2848   2.757   0.262   9.241  0.1316 -0.6067  0.0091
  183MPD1    H6 2849   2.846   0.282   9.286  0.2517 -1.2743  0.0763
  183MPD1    H7 2850   2.774   0.260   9.141 -0.1184 -0.0037 -0.0442
  184MPD1     C 2851   0.556   3.213  10.328 -0.6241  0.0432 -0.4557
  184MPD1    C1 2852   0.690   3.210  10.358 -0.3127 -0.2371  0.3661
  184MPD1    C2 2853   0.774   3.303  10.298  0.6871 -0.7718  0.4769
  184MPD1    C3 2854   0.723   3.408  10.225  0.5866 -0.6384 -0.4993
  184MPD1    C4 2855   0.587   3.417  10.200  0.7736  0.6616 -1.0064
  184MPD1    C5 2856   0.505   3.315  10.251  0.1634  0.2895  0.5930
  184MPD1     H 2857   0.878   3.287  10.325  0.4973  1.0496  2.3030
  184MPD1    H1 2858   0.544   3.506  10.155  1.7542  2.3658  1.4487
  184MPD1    H2 2859   0.486   3.143  10.373  1.5596 -0.9824  1.3704
  184MPD1    H3 2860   0.397   3.314  10.238 -0.0412 -0.8762  2.4240
  184MPD1     N 2861   0.805   3.498  10.158 -0.0753 -0.3810  0.7185
  184MPD1    H5 2862   0.757   3.578  10.119 -0.6051  0.9160  4.0585
  184MPD1    N1 2863   0.746   3.102  10.429 -0.3647  0.2723 -0.1841
  184MPD1    H6 2864   0.837   3.130  10.464 -0.0184 -0.4586 -0.4803
  184MPD1    H7 2865   0.690   3.068  10.507  0.3431 -2.1054 -0.7188
  185MPD1     C 2866   0.493   4.075   9.613  0.4794  0.5722 -0.4111
  185MPD1    C1 2867   0.601   4.134   9.674 -0.2641  0.6615  0.0817
  185MPD1    C2 2868   0.696   4.055   9.732 -0.2466  0.8568 -0.5817
  185MPD1    C3 2869   0.686   3.914   9.729 -0.0441  0.0060  0.1606
  185MPD1    C4 2870   0.585   3.859   9.653 -1.1029  0.1021  0.0618
  185MPD1    C5 2871   0.492   3.939   9.592  0.0997 -0.0967 -0.1652
  185MPD1     H 2872   0.765   4.106   9.798 -0.0279 -0.5414  0.2766
  185MPD1    H1 2873   0.590   3.752   9.640 -1.7361  0.0044  0.6176
  185MPD1    H2 2874   0.408   4.128   9.573 -1.0516 -3.6816 -2.8181
  185MPD1    H3 2875   0.410   3.895   9.536 -1.3501  0.2982  1.6537
  185MPD1     N 2876   0.786   3.829   9.779 -0.3868 -0.1864 -0.1877
  185MPD1    H5 2877   0.789   3.731   9.755 -0.9293 -0.5132  1.1169
  185MPD1    N1 2878   0.595   4.277   9.695 -0.2700 -0.4413 -0.0626
  185MPD1    H6 2879   0.541   4.325   9.623  0.6040  0.9465  0.2100
  185MPD1    H7 2880   0.688   4.318   9.696 -1.0897  1.3270  3.0608
  186MPD1     C 2881   4.035   3.371  16.233 -0.1925  0.2644 -0.1810
  186MPD1    C1 2882   4.080   3.302  16.127 -0.9271  0.1712  0.1125
  186MPD1    C2 2883   4.196   3.226  16.145  0.0399  0.1460  0.6348
  186MPD1    C3 2884   4.262   3.224  16.263 -0.6342  0.4764 -1.0391
  186MPD1    C4 2885   4.224   3.305  16.362 -0.1416 -0.4008  0.2174
  186MPD1    C5 2886   4.111   3.383  16.345 -0.3052 -0.7119 -0.2994
  186MPD1     H 2887   4.229   3.166  16.061  0.6555  0.0905  0.9141
  186MPD1    H1 2888   4.277   3.319  16.456  0.4703 -4.0486  0.4465
  186MPD1    H2 2889   3.936   3.415  16.222 -1.1512 -1.2957  2.2321
  186MPD1    H3 2890   4.068   3.445  16.423 -1.4535 -2.9605  0.8738
  186MPD1     N 2891   4.371   3.147  16.290  0.8225  0.1357 -0.1230
  186MPD1    H5 2892   4.409   3.140  16.384  0.7479 -0.3338 -0.1298
  186MPD1    N1 2893   4.000   3.277  16.018 -0.4623  0.1711  0.3536
  186MPD1    H6 2894   4.055   3.234  15.944 -0.3832  0.2515  0.3648
  186MPD1    H7 2895   3.951   3.356  15.979  0.5818 -0.1970 -1.6942
  187MPD1     C 2896   0.282   0.388  17.640 -0.2578 -1.0078  0.8658
  187MPD1    C1 2897   0.181   0.302  17.672  0.0272  0.9000 -0.1262
  187MPD1    C2 2898   0.097   0.255  17.574 -0.2658  0.1444 -0.2694
  187MPD1    C3 2899   0.135   0.282  17.442  0.3012 -0.2120 -0.2272
  187MPD1    C4 2900   0.245   0.360  17.406 -0.3603  0.2955 -0.3786
  187MPD1    C5 2901   0.316   0.412  17.509 -0.2026  0.3143  0.4249
  187MPD1     H 2902   0.006   0.204  17.607  0.4228 -0.5725  0.5314
  187MPD1    H1 2903   0.265   0.396  17.306 -0.6252  2.4600  0.3532
  187MPD1    H2 2904   0.339   0.438  17.718  1.1773 -2.6862  0.8800
  187MPD1    H3 2905   0.394   0.483  17.483  0.5075 -0.8265 -0.5551
  187MPD1     N 2906   0.057   0.230  17.333 -0.3991 -0.3383  0.0080
  187MPD1    H5 2907   0.101   0.237  17.242  1.5105  2.2863  1.1111
  187MPD1    N1 2908   0.140   0.299   0.056  0.1778 -0.2616  0.0013
  187MPD1    H6 2909   0.226   0.303   0.109  0.8603  2.1440 -1.2905
  187MPD1    H7 2910   0.095   0.209   0.071  1.4278 -0.8434  0.2628
  188MPD1     C 2911   3.596   4.619  10.857 -0.1799  0.5537  0.6133
  188MPD1    C1 2912   3.651   4.501  10.897 -0.9156 -0.4184  0.0336
  188MPD1    C2 2913   3.661   4.388  10.818 -0.2327 -0.5862 -0.2148
  188MPD1    C3 2914   3.615   4.396  10.689  0.4930  0.0408 -0.5647
  188MPD1    C4 2915   3.545   4.513  10.655 -0.3744  0.0177 -0.5663
  188MPD1    C5 2916   3.531   4.621  10.738 -0.3700  0.2253  0.5779
  188MPD1     H 2917   3.698   4.293  10.856 -0.6232 -2.0392 -3.4357
  188MPD1    H1 2918   3.492   4.525  10.561 -0.3563 -0.6781 -0.6629
  188MPD1    H2 2919   3.576   4.696  10.930 -2.0319  0.7975 -0.1456
  188MPD1    H3 2920   3.468   4.709  10.727 -1.2104 -0.3175  1.0346
  188MPD1     N 2921   3.614   4.291  10.594  0.3589  0.5335 -0.2572
  188MPD1    H5 2922   3.595   4.317  10.498 -0.3005 -0.8213 -0.5025
  188MPD1    N1 2923   3.707   4.509  11.021  0.2791 -0.3667  0.8081
  188MPD1    H6 2924   3.633   4.548  11.079 -0.5163 -1.3516  0.4594
  188MPD1    H7 2925   3.737   4.420  11.062  1.0984 -0.5743 -0.2455
  189MPD1     C 2926   1.283   1.104   0.730 -0.0502  0.0394 -0.1748
  189MPD1    C1 2927   1.209   1.133   0.621 -0.1655  0.0433 -0.3459
  189MPD1    C2 2928   1.130   1.020   0.581 -0.9887 -0.1478 -0.4216
  189MPD1    C3 2929   1.113   0.906   0.653 -0.0888  0.2171  0.4109
  189MPD1    C4 2930   1.181   0.892   0.772 -0.3386  0.1638 -0.8609
  189MPD1    C5 2931   1.263   0.992   0.814  0.5281 -0.1385 -0.4713
  189MPD1     H 2932   1.066   1.039   0.496 -0.9281  1.2837 -0.1522
  189MPD1    H1 2933   1.175   0.801   0.831  1.8131 -1.2329 -2.8019
  189MPD1    H2 2934   1.340   1.183   0.779 -0.7441 -1.4748  3.0878
  189MPD1    H3 2935   1.312   0.985   0.910 -1.1329 -1.8067  0.2649
  189MPD1     N 2936   1.020   0.820   0.608 -0.4272  0.2162 -0.2537
  189MPD1    H5 2937   0.989   0.829   0.512 -0.7195  3.6772  0.1510
  189MPD1    N1 2938   1.240   1.241   0.541  0.1538 -0.5375  0.8227
  189MPD1    H6 2939   1.250   1.331   0.589 -2.3446 -0.0475  0.4441
  189MPD1    H7 2940   1.329   1.228   0.494  0.1582  0.1902  0.6259
  190MPD1     C 2941   4.373   3.277  14.790 -1.0304 -0.0708  0.4201
  190MPD1    C1 2942   4.500   3.320  14.750 -0.1401  0.7723 -0.1747
  190MPD1    C2 2943   4.586   3.374  14.843 -0.3656  0.1179  0.1017
  190MPD1    C3 2944   4.544   3.385  14.981  0.2369  0.2151 -0.3878
  190MPD1    C4 2945   4.416   3.345  15.016  0.4389 -0.0057  0.4442
  190MPD1    C5 2946   4.343   3.289  14.921  0.1629  0.7204  0.2824
  190MPD1     H 2947   4.682   3.400  14.799 -1.1581  1.0482 -1.0834
  190MPD1    H1 2948   4.380   3.348  15.118  1.7611  0.6312  0.8896
  190MPD1    H2 2949   4.289   3.251  14.726 -1.0996 -1.0227  0.9081
  190MPD1    H3 2950   4.251   3.238  14.950  1.5607 -2.6543 -1.1992
  190MPD1     N 2951   4.634   3.451  15.077  0.0089  0.0094 -1.0571
  190MPD1    H5 2952   4.722   3.492  15.048 -0.2642 -0.1984 -2.2105
  190MPD1    N1 2953   4.532   3.324  14.610 -0.3402  0.5479  0.4043
  190MPD1    H6 2954   4.510   3.235  14.566 -0.2563  0.3812  0.6992
  190MPD1    H7 2955   4.630   3.337  14.588 -0.0705 -0.0223  1.2939
  191MPD1     C 2956   3.691   0.204  13.489 -0.5007 -0.2005  0.0109
  191MPD1    C1 2957   3.754   0.320  13.453  0.3246  0.0324 -0.2104
  191MPD1    C2 2958   3.683   0.415  13.382  0.5088  0.5589 -0.3086
  191MPD1    C3 2959   3.547   0.409  13.372 -0.2901 -0.2856 -0.2221
  191MPD1    C4 2960   3.482   0.294  13.413 -0.8832  0.6414 -0.5401
  191MPD1    C5 2961   3.550   0.194  13.468  0.1052 -0.8702 -0.9334
  191MPD1     H 2962   3.740   0.499  13.343  0.0166  0.0603 -2.1318
  191MPD1    H1 2963   3.377   0.284  13.387 -1.1386  0.4679  0.5414
  191MPD1    H2 2964   3.744   0.116  13.527 -1.1002  0.6566  2.8712
  191MPD1    H3 2965   3.498   0.102  13.489 -0.0516 -0.2738  1.3259
  191MPD1     N 2966   3.492   0.537  13.331 -0.0766 -0.8609 -0.5754
  191MPD1    H5 2967   3.554   0.604  13.286 -3.1277 -0.2290 -3.9218
  191MPD1    N1 2968   3.892   0.323  13.455 -1.2171 -0.0623  0.1350
  191MPD1    H6 2969   3.931   0.263  13.527  0.2043  0.2949 -0.3463
  191MPD1    H7 2970   3.912   0.422  13.468 -4.5583  0.3923  1.7465
  192MPD1     C 2971   2.493   0.684  13.107 -0.0161  0.8443  0.0429
  192MPD1    C1 2972   2.560   0.805  13.082 -0.0447  0.5319  0.3617
  192MPD1    C2 2973   2.698   0.804  13.080 -0.3328 -0.2411 -0.2442
  192MPD1    C3 2974   2.772   0.689  13.116 -0.1667 -1.3559 -0.3608
  192MPD1    C4 2975   2.703   0.568  13.135  0.3116 -0.2616 -0.0558
  192MPD1    C5 2976   2.569   0.571  13.131  0.1296 -0.5513 -0.4192
  192MPD1     H 2977   2.755   0.890  13.048 -0.1641 -1.0712 -2.1800
  192MPD1    H1 2978   2.757   0.475  13.145 -0.8029 -1.1186 -2.2122
  192MPD1    H2 2979   2.391   0.658  13.082  0.5036 -0.7991 -0.3332
  192MPD1    H3 2980   2.518   0.476  13.142 -0.0352 -0.3081  0.8691
  192MPD1     N 2981   2.917   0.691  13.142  0.0294  0.1182 -0.0694
  192MPD1    H5 2982   2.964   0.602  13.126 -0.2754 -0.1978  0.8161
  192MPD1    N1 2983   2.493   0.915  13.029 -1.1267  1.0199 -0.7561
  192MPD1    H6 2984   2.546   0.995  13.062  1.0334 -0.8637  0.3303
  192MPD1    H7 2985   2.396   0.920  13.059 -1.3612 -0.9508 -1.1993
  193MPD1     C 2986   2.988   0.839  16.507 -0.0156 -0.3783  0.1557
  193MPD1    C1 2987   3.100   0.770  16.545  0.2493 -0.8870  1.0473
  193MPD1    C2 2988   3.222   0.834  16.545  0.1627  0.1804  0.0414
  193MPD1    C3 2989   3.222   0.972  16.555 -0.5323  0.4105 -0.2519
  193MPD1    C4 2990   3.110   1.044  16.525  0.2777 -0.3698 -0.2427
  193MPD1    C5 2991   2.993   0.975  16.490  0.0945  0.0397 -0.1829
  193MPD1     H 2992   3.314   0.778  16.558 -0.0206  0.1483  1.2509
  193MPD1    H1 2993   3.112   1.151  16.504  0.1482 -0.3414 -0.1122
  193MPD1    H2 2994   2.896   0.787  16.482 -1.8193  3.1750 -0.6052
  193MPD1    H3 2995   2.903   1.024  16.457 -0.3851 -0.1872  0.8010
  193MPD1     N 2996   3.339   1.055  16.557 -0.4401  0.1829  0.4495
  193MPD1    H5 2997   3.319   1.154  16.549 -2.2006 -0.2103 -0.1041
  193MPD1    N1 2998   3.093   0.632  16.534 -0.2781  0.3085 -0.2244
  193MPD1    H6 2999   3.003   0.609  16.574 -1.5252  0.3444 -3.0201
  193MPD1    H7 3000   3.164   0.586  16.592 -2.3553  0.2008  2.2108
  194MPD1     C 3001   0.348   2.091  16.931  0.6527  0.7389  0.5577
  194MPD1    C1 3002   0.400   2.186  16.852 -0.3339  0.1813  0.0010
  194MPD1    C2 3003   0.523   2.156  16.796 -0.6296 -0.1985 -0.3480
  194MPD1    C3 3004   0.597   2.036  16.827 -0.5479  0.0016  0.2922
  194MPD1    C4 3005   0.540   1.945  16.913  0.2152 -0.3167  0.4702
  194MPD1    C5 3006   0.417   1.975  16.965 -0.1560 -0.7313 -0.5907
  194MPD1     H 3007   0.557   2.222  16.717 -2.2567  0.3736 -0.5842
  194MPD1    H1 3008   0.596   1.856  16.940 -0.0598 -0.7822 -0.5271
  194MPD1    H2 3009   0.244   2.099  16.960  0.7692  1.7021  0.6903
  194MPD1    H3 3010   0.369   1.915  17.041  0.1473 -0.2114  0.0088
  194MPD1     N 3011   0.718   1.997  16.766  0.0994 -0.3410  0.4054
  194MPD1    H5 3012   0.768   1.918  16.806  0.5107  0.7261  1.9904
  194MPD1    N1 3013   0.314   2.283  16.802  0.0407 -0.2335  0.4458
  194MPD1    H6 3014   0.241   2.301  16.871 -2.6754 -2.1082 -1.9422
  194MPD1    H7 3015   0.365   2.369  16.786 -0.5821  0.1642  0.6028
  195MPD1     C 3016   3.351   4.529   1.317 -0.1984 -0.0546 -0.6394
  195MPD1    C1 3017   3.483   4.571   1.324 -0.2762 -0.6296 -0.0411
  195MPD1    C2 3018   3.558   4.558   1.208  1.0529  0.4706 -0.1889
  195MPD1    C3 3019   3.505   4.518   1.089  0.0937 -0.0468 -0.3598
  195MPD1    C4 3020   3.365   4.489   1.081 -0.1685  0.3633 -0.9959
  195MPD1    C5 3021   3.292   4.493   1.196  0.4950  0.1511  0.1358
  195MPD1     H 3022   3.665   4.565   1.223  0.8977  1.3867  0.4831
  195MPD1    H1 3023   3.318   4.456   0.989  0.2300 -1.1635 -0.6536
  195MPD1    H2 3024   3.291   4.518   1.407  0.5325 -0.7376 -0.2390
  195MPD1    H3 3025   3.192   4.451   1.198  0.9008 -0.7757  0.5489
  195MPD1     N 3026   3.580   4.517   0.969  0.3567  0.3757  0.3932
  195MPD1    H5 3027   3.536   4.467   0.893 -0.0418  0.9196  0.2701
  195MPD1    N1 3028   3.536   4.579   1.454 -0.3564 -0.2266  0.3641
  195MPD1    H6 3029   3.610   4.649   1.459  0.9504 -1.6015  0.3923
  195MPD1    H7 3030   3.465   4.609   1.520  1.5744  1.7987  1.5196
  196MPD1     C 3031   3.034   4.004  17.614 -0.3988  0.6455  0.0891
  196MPD1    C1 3032   3.139   4.084  17.622  0.2235 -0.4658  0.3920
  196MPD1    C2 3033   3.156   4.143  17.743 -1.1584 -0.1498 -0.6717
  196MPD1    C3 3034   3.081   4.107   0.107 -0.0924  0.6390  0.0088
  196MPD1    C4 3035   2.974   4.023   0.090 -1.0557 -0.5973 -0.0130
  196MPD1    C5 3036   2.952   3.981  17.714  0.0228 -1.1135  0.2473
  196MPD1     H 3037   3.239   4.210   0.011  0.1560 -1.9090 -0.2836
  196MPD1    H1 3038   2.904   3.988   0.165 -1.4236 -1.9373 -0.9770
  196MPD1    H2 3039   3.013   3.959  17.518 -0.3138  1.0691 -0.1267
  196MPD1    H3 3040   2.863   3.924  17.688  0.0644 -0.6420 -0.9392
  196MPD1     N 3041   3.100   4.168   0.230 -0.2415 -0.5744  0.4725
  196MPD1    H5 3042   3.037   4.151   0.308 -1.2310  2.5285  0.3650
  196MPD1    N1 3043   3.209   4.120  17.504 -0.0891  0.4666  0.0874
  196MPD1    H6 3044   3.298   4.165  17.523 -0.1756  0.4158  0.6249
  196MPD1    H7 3045   3.233   4.031  17.461  1.4297 -0.6591  3.2154
  197MPD1     C 3046   2.075   1.016  17.166 -0.7701 -0.0530 -0.5854
  197MPD1    C1 3047   2.183   1.001  17.244 -0.1511 -0.8963 -0.5597
  197MPD1    C2 3048   2.305   1.061  17.206 -0.2408 -0.3176  0.5461
  197MPD1    C3 3049   2.315   1.121  17.080  1.1086 -0.1065 -0.2680
  197MPD1    C4 3050   2.205   1.129  17.005 -0.2854  0.3380 -0.3937
  197MPD1    C5 3051   2.087   1.074  17.051 -0.3693 -0.0139 -0.9337
  197MPD1     H 3052   2.389   1.058  17.275 -0.3675 -3.1670  0.6077
  197MPD1    H1 3053   2.210   1.165  16.903  0.4625  1.6045  0.0853
  197MPD1    H2 3054   1.975   0.995  17.202 -0.1633  0.1226  1.2169
  197MPD1    H3 3055   1.999   1.087  16.989 -0.2290  1.7642 -0.7626
  197MPD1     N 3056   2.429   1.178  17.024 -0.9517  0.1009 -0.0019
  197MPD1    H5 3057   2.430   1.219  16.931 -0.6597 -0.9406 -0.4628
  197MPD1    N1 3058   2.167   0.951  17.371 -0.2652  0.0356  0.3553
  197MPD1    H6 3059   2.086   0.890  17.373  0.1382 -0.5870 -1.6984
  197MPD1    H7 3060   2.252   0.900  17.394  0.7564  1.5540 -0.0538
  198MPD1     C 3061   4.454   4.693  15.201  0.3433  0.0802 -0.0271
  198MPD1    C1 3062   4.471   0.069  15.275 -0.1166 -0.5630  0.2715
  198MPD1    C2 3063   4.384   0.087  15.379  0.6542  0.4706 -0.5257
  198MPD1    C3 3064   4.273   0.004  15.395  0.3579 -0.6408  0.0335
  198MPD1    C4 3065   4.254   4.631  15.319 -0.3220  0.0012  0.4949
  198MPD1    C5 3066   4.343   4.608  15.222 -0.6267  0.4537  0.0520
  198MPD1     H 3067   4.401   0.169  15.448 -0.8908 -0.0625  0.5002
  198MPD1    H1 3068   4.179   4.555  15.335  2.5155 -2.6129  1.3188
  198MPD1    H2 3069   4.509   4.668  15.111  1.1395 -3.5171  1.4568
  198MPD1    H3 3070   4.327   4.516  15.166 -1.6607 -0.4449  1.8023
  198MPD1     N 3071   4.189   0.038  15.501  0.5834 -0.5216 -0.1750
  198MPD1    H5 3072   4.210   0.126  15.548 -3.2336  0.3581 -0.1328
  198MPD1    N1 3073   4.586   0.148  15.260 -0.3440 -0.0384  0.3643
  198MPD1    H6 3074   4.579   0.243  15.297 -2.1499 -0.3930  0.9194
  198MPD1    H7 3075   4.616   0.146  15.163 -2.3313  0.2681 -0.2562
  199MPD1     C 3076   1.461   1.624   9.947  0.3193  0.4679 -0.6646
  199MPD1    C1 3077   1.445   1.734   9.861 -0.5742  0.6908  0.1130
  199MPD1    C2 3078   1.312   1.769   9.835  0.2144 -0.2520 -0.1646
  199MPD1    C3 3079   1.203   1.693   9.873 -0.1974  0.0990  0.4485
  199MPD1    C4 3080   1.223   1.574   9.937  0.2318  0.2934 -0.0092
  199MPD1    C5 3081   1.353   1.542   9.977  0.4913 -0.5766  0.5533
  199MPD1     H 3082   1.308   1.859   9.774  0.2798 -0.1157  0.0322
  199MPD1    H1 3083   1.136   1.515   9.963  0.7464 -0.4988 -0.0900
  199MPD1    H2 3084   1.561   1.597   9.979  0.9945  1.7904 -1.6773
  199MPD1    H3 3085   1.367   1.454  10.038  1.9804 -1.0655 -0.5012
  199MPD1     N 3086   1.070   1.725   9.848 -0.1850 -0.1410 -0.2438
  199MPD1    H5 3087   1.005   1.650   9.867 -2.9414  2.0603 -0.9550
  199MPD1    N1 3088   1.543   1.824   9.833 -0.3354  0.2253  0.6052
  199MPD1    H6 3089   1.637   1.791   9.810  0.3152  1.5699  1.3050
  199MPD1    H7 3090   1.525   1.891   9.759 -0.5988 -1.9614 -1.3072
  200MPD1     C 3091   0.266   1.672  15.602  0.3273  0.0333  0.5545
  200MPD1    C1 3092   0.349   1.723  15.508  0.4305  0.5830 -0.7981
  200MPD1    C2 3093   0.416   1.637  15.425 -0.3785 -0.5611 -0.1646
  200MPD1    C3 3094   0.371   1.499  15.425 -0.9776  0.6662 -0.3258
  200MPD1    C4 3095   0.287   1.454  15.518 -0.3452  0.1499  0.2146
  200MPD1    C5 3096   0.232   1.540  15.609 -0.6368  0.2304 -0.9436
  200MPD1     H 3097   0.495   1.664  15.356 -1.4697 -0.1748 -1.2676
  200MPD1    H1 3098   0.256   1.350  15.512  0.3762 -0.0277 -0.3516
  200MPD1    H2 3099   0.229   1.729  15.686 -1.2288 -1.3852  0.8306
  200MPD1    H3 3100   0.160   1.501  15.680  1.1184  0.2519  0.8380
  200MPD1     N 3101   0.437   1.412  15.337  0.0889  0.2055 -0.1018
  200MPD1    H5 3102   0.520   1.446  15.290  1.1686 -2.4567 -0.0879
  200MPD1    N1 3103   0.408   1.850  15.536 -0.3338 -0.0381 -0.0189
  200MPD1    H6 3104   0.446   1.900  15.456 -0.3478 -3.5277 -2.1980
  200MPD1    H7 3105   0.351   1.915  15.591 -0.1317 -1.0952  1.4522
  201MPD1     C 3106   2.158   4.511  14.402  0.2319  0.2217 -0.2575
  201MPD1    C1 3107   2.127   4.564  14.281 -0.1701 -0.3446 -0.5290
  201MPD1    C2 3108   2.225   4.582  14.185  0.3731  0.9199 -0.1381
  201MPD1    C3 3109   2.353   4.542  14.207 -0.2651  1.1650 -0.3182
  201MPD1    C4 3110   2.380   4.474  14.324  0.5708  0.3963 -0.2424
  201MPD1    C5 3111   2.289   4.463  14.423 -0.8613  0.3620 -0.1049
  201MPD1     H 3112   2.202   4.623  14.087  0.6870  1.3385 -0.0351
  201MPD1    H1 3113   2.481   4.437  14.336  0.2561 -0.1452  0.6897
  201MPD1    H2 3114   2.090   4.502  14.486  0.3808  0.6132 -0.0944
  201MPD1    H3 3115   2.328   4.410  14.509  0.4186  0.2868 -0.7419
  201MPD1     N 3116   2.440   4.560  14.100  0.1347 -0.1828 -0.0615
  201MPD1    H5 3117   2.400   4.597  14.014  1.1700 -0.1597 -0.5334
  201MPD1    N1 3118   1.993   4.596  14.242  0.3953  0.4374 -0.3298
  201MPD1    H6 3119   1.916   4.569  14.303 -1.0094  0.4471 -2.1240
  201MPD1    H7 3120   1.970   4.576  14.146  0.9080 -0.4006 -0.2780
  202MPD1     C 3121   2.371   4.665   9.618  0.3264  0.3712 -0.9636
  202MPD1    C1 3122   2.480   4.582   9.615 -1.1646 -0.5354  0.6825
  202MPD1    C2 3123   2.554   4.577   9.733  0.0270  0.1180  0.7535
  202MPD1    C3 3124   2.542   4.684   9.821 -1.0176  0.3386  0.0335
  202MPD1    C4 3125   2.461   0.051   9.796  0.1383  0.0751 -0.4277
  202MPD1    C5 3126   2.367   0.033   9.701 -0.3569 -0.1573  0.2479
  202MPD1     H 3127   2.630   4.504   9.758 -0.9701 -0.6850  1.4097
  202MPD1    H1 3128   2.443   0.135   9.863  3.0361 -0.3409  0.8633
  202MPD1    H2 3129   2.292   4.646   9.547  0.3458  0.5259 -1.0252
  202MPD1    H3 3130   2.284   0.102   9.703  0.6913  1.1261 -0.5423
  202MPD1     N 3131   2.601   4.683   9.947 -0.0669  0.4536  0.1025
  202MPD1    H5 3132   2.605   0.037   9.990 -2.9690  0.4387  0.4321
  202MPD1    N1 3133   2.487   4.461   9.539 -0.2349 -0.8629 -0.0102
  202MPD1    H6 3134   2.459   4.486   9.444  1.4242  1.2711  0.0718
  202MPD1    H7 3135   2.587   4.442   9.536 -0.5195 -1.6084 -4.5374
  203MPD1     C 3136   0.971   0.575  12.740  1.0012 -0.0137 -0.0880
  203MPD1    C1 3137   0.953   0.451  12.682  0.3911  0.0411 -0.6854
  203MPD1    C2 3138   1.028   0.349  12.731  0.0812 -0.4656  0.0442
  203MPD1    C3 3139   1.110   0.356  12.844  0.1641 -0.2105  0.6412
  203MPD1    C4 3140   1.111   0.478  12.912  0.2506  0.6472  0.4805
  203MPD1    C5 3141   1.045   0.583  12.855 -0.7769  0.5071  0.3560
  203MPD1     H 3142   1.039   0.262  12.667 -1.3614 -0.8723  0.3305
  203MPD1    H1 3143   1.179   0.507  12.991  1.6210  1.8292 -1.1200
  203MPD1    H2 3144   0.927   0.665  12.698 -0.3713 -0.9834 -0.7460
  203MPD1    H3 3145   1.054   0.682  12.899 -1.3481  0.8333 -0.2572
  203MPD1     N 3146   1.199   0.249  12.869 -0.7563 -0.2168 -0.5167
  203MPD1    H5 3147   1.191   0.167  12.809 -2.3496  0.0056 -0.6036
  203MPD1    N1 3148   0.886   0.436  12.561  0.1431 -0.2962  0.0189
  203MPD1    H6 3149   0.856   0.339  12.552  0.7894 -0.5216  0.3114
  203MPD1    H7 3150   0.801   0.493  12.568  0.4228  0.2499 -1.0182
  204MPD1     C 3151   0.724   1.788  17.589  0.4159  0.6046 -1.1637
  204MPD1    C1 3152   0.742   1.726  17.708  0.2178  0.4837  0.2400
  204MPD1    C2 3153   0.861   1.663  17.723 -0.1217 -0.2028 -0.4414
  204MPD1    C3 3154   0.956   1.653  17.623  0.7842  0.3695 -1.1199
  204MPD1    C4 3155   0.934   1.714  17.506 -0.4232  0.3224 -0.5147
  204MPD1    C5 3156   0.822   1.787  17.490 -0.2422 -0.0090  0.1625
  204MPD1     H 3157   0.868   1.614   0.067 -1.3408  0.2656 -0.1229
  204MPD1    H1 3158   1.001   1.706  17.421 -1.8016  0.3210 -1.5998
  204MPD1    H2 3159   0.647   1.865  17.587 -1.1798 -0.9717  0.2149
  204MPD1    H3 3160   0.817   1.842  17.397 -2.5657 -0.0878  0.2422
  204MPD1     N 3161   1.074   1.577  17.652  0.4764 -0.3375  0.0713
  204MPD1    H5 3162   1.085   1.550  17.749 -1.6160 -0.7739  0.1790
  204MPD1    N1 3163   0.652   1.750   0.060  0.1417  0.1770  0.6224
  204MPD1    H6 3164   0.553   1.754   0.036  0.0876  1.2333  1.0156
  204MPD1    H7 3165   0.671   1.680   0.132 -1.1632 -1.0774 -0.2473
  205MPD1     C 3166   1.692   4.671  17.170  0.1160  0.2922 -0.1353
  205MPD1    C1 3167   1.756   4.625  17.279  0.8497 -0.0613  0.2865
  205MPD1    C2 3168   1.731   4.692  17.401 -0.0138  0.4969 -0.3344
  205MPD1    C3 3169   1.650   0.063  17.411 -0.5062 -0.2649 -0.4358
  205MPD1    C4 3170   1.592   0.113  17.297 -0.5018  0.1262 -0.9896
  205MPD1    C5 3171   1.611   0.043  17.173  0.5847  0.0362 -0.0586
  205MPD1     H 3172   1.772   4.638  17.486 -0.9454  4.2512  2.4962
  205MPD1    H1 3173   1.525   0.197  17.302 -1.5316 -0.6470 -1.6996
  205MPD1    H2 3174   1.713   4.624  17.074 -0.3130  0.7678 -0.4659
  205MPD1    H3 3175   1.556   0.063  17.082  2.9952  2.6658 -0.9291
  205MPD1     N 3176   1.633   0.132  17.533  0.1751 -0.3933  0.1449
  205MPD1    H5 3177   1.571   0.212  17.530 -0.9406 -1.3041 -0.8526
  205MPD1    N1 3178   1.843   4.510  17.266 -0.1702 -0.3878  0.5101
  205MPD1    H6 3179   1.869   4.512  17.168  1.3888  1.5416  0.9498
  205MPD1    H7 3180   1.916   4.522  17.336 -0.6778 -0.0007  0.9776
  206MPD1     C 3181   1.579   3.233  16.703 -0.5985 -0.6116 -0.2340
  206MPD1    C1 3182   1.454   3.180  16.666  0.2112  0.2781 -0.8648
  206MPD1    C2 3183   1.398   3.234  16.558  0.2937 -0.2729  0.1539
  206MPD1    C3 3184   1.452   3.330  16.477  0.7498 -0.0473  0.0435
  206MPD1    C4 3185   1.571   3.382  16.506 -0.0169 -0.4340  0.0382
  206MPD1    C5 3186   1.627   3.333  16.619 -0.3677 -0.6843 -0.7001
  206MPD1     H 3187   1.299   3.196  16.533  0.1568 -0.0674  0.3884
  206MPD1    H1 3188   1.623   3.457  16.448 -0.2063  1.1018  1.8114
  206MPD1    H2 3189   1.628   3.201  16.794 -2.1081 -3.3572 -0.3857
  206MPD1    H3 3190   1.722   3.372  16.655 -1.2310  1.0645 -0.2960
  206MPD1     N 3191   1.394   3.367  16.359 -0.7076  0.2420  0.3301
  206MPD1    H5 3192   1.452   3.418  16.293 -0.6616  0.7053  0.7330
  206MPD1    N1 3193   1.381   3.104  16.756 -0.3652  0.3134 -0.3028
  206MPD1    H6 3194   1.314   3.045  16.707 -1.1821  0.4528  0.6602
  206MPD1    H7 3195   1.442   3.049  16.817 -0.4298  1.7020  0.9941
  207MPD1     C 3196   2.710   1.270  10.351 -0.6275  0.3783 -0.3682
  207MPD1    C1 3197   2.716   1.165  10.448  0.3866 -0.9081  0.2576
  207MPD1    C2 3198   2.828   1.169  10.531  0.1740 -0.5081  0.3678
  207MPD1    C3 3199   2.911   1.283  10.538 -0.9327 -0.4385 -0.2552
  207MPD1    C4 3200   2.893   1.389  10.455 -0.2432  0.4400  0.5945
  207MPD1    C5 3201   2.803   1.371  10.350  0.4292 -0.3371 -0.4887
  207MPD1     H 3202   2.841   1.089  10.603  0.2627 -0.6597  0.1849
  207MPD1    H1 3203   2.958   1.475  10.447 -0.5397  0.7804  1.9012
  207MPD1    H2 3204   2.638   1.258  10.271 -0.5730  0.3434 -0.4112
  207MPD1    H3 3205   2.790   1.448  10.275 -1.3624  0.0615  0.2315
  207MPD1     N 3206   3.007   1.301  10.639 -0.5900  0.1793 -0.5480
  207MPD1    H5 3207   3.067   1.383  10.638 -1.1558  0.6281  1.5204
  207MPD1    N1 3208   2.639   1.049  10.444 -0.2202 -0.0779  0.0974
  207MPD1    H6 3209   2.639   0.995  10.530  0.3603  1.0501  0.7954
  207MPD1    H7 3210   2.538   1.066  10.436 -0.3476 -1.2498 -0.8526
  208MPD1     C 3211   3.250   0.144   0.449 -0.5662  0.3854  0.3816
  208MPD1    C1 3212   3.188   0.059   0.364  0.3194 -0.6422 -0.0066
  208MPD1    C2 3213   3.057   0.034   0.394  0.1687 -0.3500 -0.5938
  208MPD1    C3 3214   2.992   0.075   0.509 -0.1100 -0.3995 -0.2703
  208MPD1    C4 3215   3.064   0.145   0.604 -0.2293  0.2666  0.2571
  208MPD1    C5 3216   3.188   0.190   0.561 -1.0219  0.0735  0.0340
  208MPD1     H 3217   2.993   4.721   0.323 -1.6126  2.2262 -0.8818
  208MPD1    H1 3218   3.020   0.210   0.679 -1.5666 -1.2463  0.7713
  208MPD1    H2 3219   3.342   0.191   0.419  0.3833 -1.6413  0.1338
  208MPD1    H3 3220   3.236   0.265   0.623  0.9992  0.1954 -1.6822
  208MPD1     N 3221   2.854   0.045   0.517 -0.0788  0.2673 -0.1672
  208MPD1    H5 3222   2.821   4.730   0.437  0.7721  1.2195 -1.1634
  208MPD1    N1 3223   3.241   0.032   0.235 -0.3020 -0.4113 -0.0321
  208MPD1    H6 3224   3.342   0.035   0.235 -0.3153 -0.0470  1.2696
  208MPD1    H7 3225   3.199   4.693   0.183 -0.7255 -1.7419  2.2875
  209MPD1     C 3226   4.295   1.247  11.794 -0.1172 -0.2447 -0.4480
  209MPD1    C1 3227   4.211   1.330  11.718 -0.0281  0.2157  0.0520
  209MPD1    C2 3228   4.081   1.344  11.749 -0.3217  0.2311 -0.3827
  209MPD1    C3 3229   4.022   1.265  11.847  0.1006 -0.1261 -0.2835
  209MPD1    C4 3230   4.107   1.185  11.922 -0.0905 -0.7635 -0.0886
  209MPD1    C5 3231   4.242   1.175  11.901  0.8273 -0.7483 -0.5639
  209MPD1     H 3232   4.017   1.412  11.694  0.3716 -0.6398 -2.2847
  209MPD1    H1 3233   4.071   1.113  11.995 -1.8751 -1.6254 -1.8249
  209MPD1    H2 3234   4.400   1.229  11.771 -0.5380  0.2267 -2.6652
  209MPD1    H3 3235   4.300   1.101  11.956  0.0975 -0.7538  0.2043
  209MPD1     N 3236   3.880   1.270  11.858 -0.3604  0.3086 -0.0345
  209MPD1    H5 3237   3.828   1.330  11.795 -1.5244 -1.7512 -1.0222
  209MPD1    N1 3238   4.261   1.394  11.607 -0.1864  0.5490  0.4621
  209MPD1    H6 3239   4.218   1.485  11.591 -1.0054 -0.1678 -1.3603
  209MPD1    H7 3240   4.363   1.399  11.601  0.0627 -4.2420  0.7439
  210MPD1     C 3241   3.368   1.306  12.696 -0.3634  0.0514  0.0928
  210MPD1    C1 3242   3.275   1.273  12.597  0.3773 -0.2766 -0.4312
  210MPD1    C2 3243   3.316   1.273  12.475  0.1934 -0.7927 -0.2632
  210MPD1    C3 3244   3.435   1.313  12.426  0.1403  0.0173 -0.0010
  210MPD1    C4 3245   3.525   1.353  12.523 -0.1536  0.2969 -0.0988
  210MPD1    C5 3246   3.492   1.343  12.655 -0.4581  0.1051  0.4445
  210MPD1     H 3247   3.242   1.231  12.408  0.7147 -0.6079 -0.9546
  210MPD1    H1 3248   3.625   1.387  12.498 -0.4497  2.0969  1.1340
  210MPD1    H2 3249   3.343   1.324  12.800  0.6326  1.1376  0.1460
  210MPD1    H3 3250   3.568   1.356  12.730 -1.2337 -0.7488  1.3803
  210MPD1     N 3251   3.474   1.323  12.294 -0.8285 -0.2878  0.3035
  210MPD1    H5 3252   3.570   1.356  12.286 -1.0992  0.7681  1.3344
  210MPD1    N1 3253   3.147   1.219  12.625 -0.4549 -0.5798  0.3874
  210MPD1    H6 3254   3.123   1.230  12.724  0.5452  0.2929  0.5375
  210MPD1    H7 3255   3.082   1.278  12.573 -2.0168 -1.9518  0.7913
  211MPD1     C 3256   1.476   4.157  16.419 -0.4592  0.3204 -1.0230
  211MPD1    C1 3257   1.351   4.209  16.425  0.4090 -0.1950 -0.0657
  211MPD1    C2 3258   1.338   4.341  16.410 -0.0934 -0.8044  0.3744
  211MPD1    C3 3259   1.445   4.423  16.381 -0.4429 -0.1592  0.4578
  211MPD1    C4 3260   1.573   4.361  16.370  0.3692 -0.4178 -0.4434
  211MPD1    C5 3261   1.588   4.233  16.398  0.0282  0.1945  0.0907
  211MPD1     H 3262   1.239   4.383  16.415 -1.0225 -3.0055  0.3582
  211MPD1    H1 3263   1.662   4.419  16.350 -0.9118  1.4148 -0.9009
  211MPD1    H2 3264   1.488   4.052  16.440 -0.3848  0.7852  1.2663
  211MPD1    H3 3265   1.689   4.195  16.409  0.5918  1.0423 -2.1107
  211MPD1     N 3266   1.420   4.561  16.364 -0.2671  0.1538  0.1735
  211MPD1    H5 3267   1.323   4.592  16.373 -1.1200 -2.7507  1.0707
  211MPD1    N1 3268   1.240   4.127  16.447 -0.6680 -0.0023 -0.0836
  211MPD1    H6 3269   1.262   4.047  16.505 -0.9766 -0.1378 -0.1541
  211MPD1    H7 3270   1.149   4.166  16.470 -0.3207  1.3391 -0.9614
  212MPD1     C 3271   0.130   3.789  16.718 -0.5427 -0.4486 -0.0791
  212MPD1    C1 3272   0.173   3.688  16.637  0.5240 -0.5884 -0.2595
  212MPD1    C2 3273   0.218   3.574  16.702 -0.5066 -0.0776  0.0245
  212MPD1    C3 3274   0.225   3.564  16.841 -0.2475  0.2377  0.0414
  212MPD1    C4 3275   0.161   3.658  16.915 -1.0019 -0.8056  0.2504
  212MPD1    C5 3276   0.121   3.771  16.853 -0.7766 -0.1474 -0.4462
  212MPD1     H 3277   0.254   3.487  16.648  0.4686  0.1776  0.2499
  212MPD1    H1 3278   0.166   3.656  17.023 -0.3187  0.6014  0.2385
  212MPD1    H2 3279   0.116   3.890  16.680  0.3962  0.0611  0.9202
  212MPD1    H3 3280   0.084   3.856  16.909 -0.5758 -0.5878  0.3540
  212MPD1     N 3281   0.279   3.448  16.909  0.6858  0.0163  0.1649
  212MPD1    H5 3282   0.265   3.445  17.009  2.1154  0.8860  0.3833
  212MPD1    N1 3283   0.215   3.697  16.499 -0.3083  0.7086 -0.5704
  212MPD1    H6 3284   0.215   3.609  16.449  1.0294 -0.4696  1.4806
  212MPD1    H7 3285   0.167   3.769  16.446 -4.1934 -0.1691  1.8170
  213MPD1     C 3286   3.489   4.085  15.992  0.7646 -0.1032 -0.2227
  213MPD1    C1 3287   3.594   4.058  15.914  0.0066  0.8844 -0.1745
  213MPD1    C2 3288   3.559   4.040  15.780 -0.5899 -0.1411 -0.1631
  213MPD1    C3 3289   3.437   4.074  15.725 -0.4208  0.2026 -0.4584
  213MPD1    C4 3290   3.335   4.111  15.809  0.4868  0.0706  0.6024
  213MPD1    C5 3291   3.363   4.104  15.943  0.8308  0.0052 -0.1261
  213MPD1     H 3292   3.634   4.001  15.712  0.1815 -0.3543  0.8219
  213MPD1    H1 3293   3.239   4.150  15.779  1.0522  0.8612 -0.1673
  213MPD1    H2 3294   3.506   4.108  16.096 -1.9958  3.1408 -0.4890
  213MPD1    H3 3295   3.283   4.130  16.011  0.1250  0.7374 -1.2289
  213MPD1     N 3296   3.425   4.046  15.591 -0.6864  0.7620 -0.4310
  213MPD1    H5 3297   3.515   4.033  15.545 -1.1936 -3.4978 -0.2250
  213MPD1    N1 3298   3.718   3.999  15.957  0.1753  0.6770  0.4907
  213MPD1    H6 3299   3.738   4.033  16.051  0.6026  1.6965  0.0307
  213MPD1    H7 3300   3.711   3.900  15.975 -0.5403  0.6998  0.3140
  214MPD1     C 3301   2.860   3.421  14.945  1.0698 -0.3556  0.0349
  214MPD1    C1 3302   2.798   3.537  15.001  0.3375 -0.3331  0.4770
  214MPD1    C2 3303   2.883   3.643  15.038  0.1623  0.1417 -0.3121
  214MPD1    C3 3304   3.024   3.626  15.029  0.1876 -0.1030 -0.7668
  214MPD1    C4 3305   3.078   3.510  14.986 -0.1046  0.0763 -0.9662
  214MPD1    C5 3306   3.000   3.417  14.933 -1.1891  0.0916 -0.7084
  214MPD1     H 3307   2.844   3.742  15.055 -0.9151 -0.3476  0.1205
  214MPD1    H1 3308   3.184   3.492  14.993  0.1408  1.8403 -0.1538
  214MPD1    H2 3309   2.803   3.340  14.901 -0.6611  0.7064  0.3122
  214MPD1    H3 3310   3.047   3.335  14.881 -0.5020  0.3293 -0.4633
  214MPD1     N 3311   3.118   3.716  15.076 -0.1864 -0.8512  0.6212
  214MPD1    H5 3312   3.215   3.690  15.059  0.4440  0.8785  1.5023
  214MPD1    N1 3313   2.657   3.549  15.005  0.4815  0.0019 -0.0228
  214MPD1    H6 3314   2.621   3.614  15.074  3.6302  2.3262 -0.5925
  214MPD1    H7 3315   2.603   3.464  15.024 -0.7368  0.4177 -1.6220
  215MPD1     C 3316   3.553   1.144  10.883  0.0239 -0.2143 -0.1906
  215MPD1    C1 3317   3.622   1.128  10.999 -0.1332  0.0657  0.3325
  215MPD1    C2 3318   3.544   1.077  11.106 -0.0381  0.3133 -0.2469
  215MPD1    C3 3319   3.417   1.036  11.090 -0.2425 -0.4773  0.0024
  215MPD1    C4 3320   3.360   1.036  10.962  0.6590  0.0288  1.1137
  215MPD1    C5 3321   3.429   1.091  10.860  0.0664 -0.4399 -0.4116
  215MPD1     H 3322   3.592   1.072  11.203  0.7914  0.0825 -0.6614
  215MPD1    H1 3323   3.261   0.995  10.942  1.1478 -0.4053 -0.3877
  215MPD1    H2 3324   3.603   1.180  10.794 -2.1952  0.7467 -1.0594
  215MPD1    H3 3325   3.394   1.088  10.757  1.0365  2.1001 -0.8143
  215MPD1     N 3326   3.340   0.997  11.205  0.4371 -0.0376  0.1841
  215MPD1    H5 3327   3.389   0.984  11.292 -0.3868  1.0611  0.8197
  215MPD1    N1 3328   3.734   1.205  11.037  0.0098 -0.2831 -0.2311
  215MPD1    H6 3329   3.799   1.232  10.963 -1.8218 -0.3733 -1.8733
  215MPD1    H7 3330   3.774   1.148  11.111 -3.2881 -1.2351  0.8201
  216MPD1     C 3331   1.097   2.910  16.373 -0.7458 -0.3706 -1.1913
  216MPD1    C1 3332   1.056   2.781  16.391 -0.3623  0.2379 -0.0522
  216MPD1    C2 3333   1.017   2.743  16.518  0.0876  0.2857 -0.8099
  216MPD1    C3 3334   1.008   2.828  16.626 -0.4931 -0.1840 -0.5918
  216MPD1    C4 3335   1.045   2.957  16.604  1.0218  0.1613 -0.4662
  216MPD1    C5 3336   1.086   2.999  16.482 -0.0199 -0.0218  0.1095
  216MPD1     H 3337   0.985   2.642  16.540  1.7380 -0.1276 -0.2498
  216MPD1    H1 3338   1.049   3.033  16.681 -1.0748 -1.2021  1.0023
  216MPD1    H2 3339   1.136   2.943  16.277  0.6674 -0.7479 -0.7489
  216MPD1    H3 3340   1.110   3.103  16.465  1.3806 -0.5409 -1.0888
  216MPD1     N 3341   0.977   2.777  16.747  0.2402 -0.8055 -0.0561
  216MPD1    H5 3342   0.959   2.678  16.740  2.1321 -1.1400 -0.2648
  216MPD1    N1 3343   1.090   2.686  16.290  0.0059  0.3532 -0.6535
  216MPD1    H6 3344   1.085   2.728  16.198 -0.6904  1.1971 -0.2356
  216MPD1    H7 3345   1.023   2.609  16.283  1.1058 -0.8902  2.3946
  217MPD1     C 3346   1.566   0.710   8.768  0.1792  0.6000 -0.8500
  217MPD1    C1 3347   1.644   0.597   8.749 -0.8046 -0.4434  0.2521
  217MPD1    C2 3348   1.651   0.501   8.847 -0.1421 -0.3053 -0.2436
  217MPD1    C3 3349   1.571   0.506   8.956  0.3196  1.1982  0.4848
  217MPD1    C4 3350   1.487   0.614   8.978  0.0791  0.6425  0.2296
  217MPD1    C5 3351   1.490   0.710   8.884  0.4487 -0.7982  0.0573
  217MPD1     H 3352   1.721   0.419   8.836  2.5286  1.9314  0.3984
  217MPD1    H1 3353   1.425   0.623   9.066 -1.3747  1.4660 -0.8869
  217MPD1    H2 3354   1.571   0.794   8.699  0.2738  2.7151  1.7210
  217MPD1    H3 3355   1.433   0.802   8.900  0.7542 -0.4684 -0.7499
  217MPD1     N 3356   1.567   0.411   9.061  0.4023  0.8456  0.0410
  217MPD1    H5 3357   1.511   0.434   9.142 -2.1995 -0.9203 -1.2664
  217MPD1    N1 3358   1.731   0.601   8.634 -0.3704 -0.6458  0.0926
  217MPD1    H6 3359   1.680   0.648   8.560  0.7994  0.8921  0.2383
  217MPD1    H7 3360   1.777   0.515   8.608  0.2449  0.0317 -1.0573
  218MPD1     C 3361   2.246   4.712  12.388 -0.6701  0.0108  0.4065
  218MPD1    C1 3362   2.288   0.070  12.484 -0.8609 -0.9463 -0.1879
  218MPD1    C2 3363   2.421   0.073  12.519  0.2230  0.0050 -0.0191
  218MPD1    C3 3364   2.517   4.729  12.447 -0.1568 -0.3469  0.0373
  218MPD1    C4 3365   2.474   4.668  12.334  0.2085  0.5500 -0.1057
  218MPD1    C5 3366   2.340   4.650  12.312  0.0728 -0.1755  0.3138
  218MPD1     H 3367   2.452   0.126  12.608 -2.4095 -0.4453  1.1629
  218MPD1    H1 3368   2.537   4.616  12.263  0.5381  0.6891  0.0880
  218MPD1    H2 3369   2.142   4.694  12.364 -0.0093 -1.4618 -1.3028
  218MPD1    H3 3370   2.307   4.609  12.217  1.5012  0.8599 -0.6336
  218MPD1     N 3371   2.655   4.733  12.488  0.1712 -0.9695 -0.5032
  218MPD1    H5 3372   2.684   0.071  12.548 -0.5625 -0.4594 -0.8003
  218MPD1    N1 3373   2.192   0.123  12.574 -0.4920 -0.2682  0.6985
  218MPD1    H6 3374   2.228   0.210  12.614  0.5455 -1.0959  1.5681
  218MPD1    H7 3375   2.104   0.155  12.536 -0.1008  0.6602  0.5678
  219MPD1     C 3376   3.004   0.691  12.747  0.5857  0.9975  0.1867
  219MPD1    C1 3377   3.120   0.618  12.743  0.1647  0.6751  0.2564
  219MPD1    C2 3378   3.115   0.486  12.713  0.0117  0.2343  0.7487
  219MPD1    C3 3379   3.000   0.424  12.672  0.4454  0.1179 -0.7204
  219MPD1    C4 3380   2.884   0.499  12.685  0.1706 -0.3748  0.0967
  219MPD1    C5 3381   2.886   0.635  12.719  0.5820  0.0230 -0.0849
  219MPD1     H 3382   3.203   0.425  12.730 -0.4743 -0.1212  1.9729
  219MPD1    H1 3383   2.791   0.443  12.687 -0.2147  0.2384 -0.7362
  219MPD1    H2 3384   3.016   0.794  12.779  0.3526  0.7450  1.1076
  219MPD1    H3 3385   2.792   0.682  12.749  0.4431 -0.1700 -0.2212
  219MPD1     N 3386   2.993   0.289  12.635  0.0284  0.3597  0.3068
  219MPD1    H5 3387   2.898   0.255  12.623 -0.2558  1.1398  0.3581
  219MPD1    N1 3388   3.241   0.685  12.771  0.0908  0.0703 -0.0605
  219MPD1    H6 3389   3.230   0.784  12.789  0.4083  0.1722 -0.4347
  219MPD1    H7 3390   3.317   0.661  12.707 -0.0533 -0.0177 -0.1974
  220MPD1     C 3391   2.752   1.775  10.407  0.6565 -0.3239 -0.3236
  220MPD1    C1 3392   2.780   1.747  10.539  0.3732  0.0857  0.6449
  220MPD1    C2 3393   2.713   1.649  10.610 -0.6267 -0.0877  0.0772
  220MPD1    C3 3394   2.615   1.576  10.543  0.1938 -0.4408  0.5466
  220MPD1    C4 3395   2.584   1.601  10.412  0.1291  0.2697 -0.3250
  220MPD1    C5 3396   2.657   1.696  10.342  0.0983  0.2315 -0.2312
  220MPD1     H 3397   2.729   1.630  10.715 -2.1251 -0.0398  0.3134
  220MPD1    H1 3398   2.517   1.540  10.352  0.6959 -3.2679  2.6662
  220MPD1    H2 3399   2.816   1.848  10.359  0.7882 -0.6729 -0.6818
  220MPD1    H3 3400   2.621   1.725  10.244 -0.4655  0.1600 -0.0493
  220MPD1     N 3401   2.551   1.475  10.614 -0.3735 -0.3382 -0.1847
  220MPD1    H5 3402   2.576   1.469  10.712  1.6254 -0.4829 -0.7050
  220MPD1    N1 3403   2.867   1.830  10.615  0.4581  0.5329 -0.5478
  220MPD1    H6 3404   2.937   1.878  10.559  1.9606 -0.2728  0.6265
  220MPD1    H7 3405   2.909   1.778  10.692  0.2890  3.0118  1.2428
  221MPD1     C 3406   1.054   0.277  15.701 -0.2012 -0.6265 -1.1706
  221MPD1    C1 3407   1.153   0.350  15.754  0.0136  0.3636  0.4858
  221MPD1    C2 3408   1.282   0.296  15.754  0.0656 -0.0381  0.2202
  221MPD1    C3 3409   1.307   0.179  15.678 -0.0887 -0.5453  0.2836
  221MPD1    C4 3410   1.205   0.113  15.615 -0.8505  0.6375 -0.3196
  221MPD1    C5 3411   1.080   0.172  15.624  0.4164 -0.3254  0.4212
  221MPD1     H 3412   1.360   0.359  15.795  0.8560 -1.7344  1.3297
  221MPD1    H1 3413   1.222   0.019  15.565  1.1977  0.1238  1.3499
  221MPD1    H2 3414   0.951   0.308  15.707  0.7565  1.7497  2.7928
  221MPD1    H3 3415   0.998   0.118  15.578 -1.2368  1.5982  1.1302
  221MPD1     N 3416   1.437   0.118  15.682 -0.0085 -0.2125  0.2785
  221MPD1    H5 3417   1.452   0.037  15.624  0.5465 -0.8910  1.3748
  221MPD1    N1 3418   1.127   0.468  15.818  0.4378  0.2147 -0.0093
  221MPD1    H6 3419   1.061   0.520  15.762  2.8053  1.2728 -1.7982
  221MPD1    H7 3420   1.215   0.517  15.832 -0.0328  1.3331 -1.0628
  222MPD1     C 3421   1.190   3.565  16.667 -0.9051 -0.7487 -0.2602
  222MPD1    C1 3422   1.285   3.579  16.760  0.0907  0.3732  0.0205
  222MPD1    C2 3423   1.250   3.658  16.872  0.2808 -0.0302 -0.3432
  222MPD1    C3 3424   1.123   3.717  16.884  1.1283  0.7399 -0.6477
  222MPD1    C4 3425   1.038   3.703  16.778 -0.1281  0.5755  0.5626
  222MPD1    C5 3426   1.066   3.623  16.669  0.1007 -0.1642 -0.4682
  222MPD1     H 3427   1.314   3.666  16.960 -0.2138 -0.2168  0.0350
  222MPD1    H1 3428   0.939   3.746  16.787 -0.5285 -0.1008 -0.6011
  222MPD1    H2 3429   1.209   3.486  16.595  2.9331 -0.3042  0.2778
  222MPD1    H3 3430   0.993   3.598  16.594 -0.7119  1.3279 -0.1724
  222MPD1     N 3431   1.073   3.788  16.994 -0.1137 -0.1308  0.4995
  222MPD1    H5 3432   0.986   3.836  16.975 -0.2601 -0.1878  1.0227
  222MPD1    N1 3433   1.398   3.497  16.776 -0.4841  0.4920 -0.7713
  222MPD1    H6 3434   1.471   3.545  16.828 -1.3018  0.8298  0.0598
  222MPD1    H7 3435   1.437   3.451  16.693 -0.5602 -2.4763  0.8496
  223MPD1     C 3436   0.480   4.370  16.854  0.3325 -0.3177 -0.0015
  223MPD1    C1 3437   0.582   4.308  16.789 -0.2853 -0.0749  0.4672
  223MPD1    C2 3438   0.675   4.235  16.863  0.8776 -0.2015 -0.5264
  223MPD1    C3 3439   0.666   4.220  16.997  0.2785  0.6514  0.3867
  223MPD1    C4 3440   0.558   4.272  17.065  0.2638 -0.1402 -0.4791
  223MPD1    C5 3441   0.464   4.350  16.993  0.3601  0.9497 -0.5011
  223MPD1     H 3442   0.760   4.191  16.812  0.1582 -0.6028 -1.3861
  223MPD1    H1 3443   0.553   4.272  17.174  2.7478  1.3082 -0.3406
  223MPD1    H2 3444   0.409   4.437  16.806 -2.3044 -1.5848  2.1674
  223MPD1    H3 3445   0.384   4.402  17.044  2.3455  2.4092  1.1268
  223MPD1     N 3446   0.762   4.138  17.065  0.4367 -0.1279 -0.3603
  223MPD1    H5 3447   0.826   4.080  17.010 -0.3102  0.0603 -1.4254
  223MPD1    N1 3448   0.568   4.311  16.651  0.7163 -0.0755  0.2363
  223MPD1    H6 3449   0.503   4.383  16.622 -2.5533 -2.2195  2.2311
  223MPD1    H7 3450   0.656   4.293  16.602  0.5300 -1.4828  0.4186
  224MPD1     C 3451   2.043   0.510   9.039  0.2757  0.3150  0.1892
  224MPD1    C1 3452   2.066   0.639   9.087 -0.2894 -0.2333 -0.4961
  224MPD1    C2 3453   2.082   0.660   9.228  0.4021 -0.0552 -0.5291
  224MPD1    C3 3454   2.062   0.553   9.314 -0.6011  0.3025 -0.1333
  224MPD1    C4 3455   2.032   0.430   9.262  0.7369 -0.6093 -0.0458
  224MPD1    C5 3456   2.030   0.407   9.128 -0.3978 -1.0637 -0.4281
  224MPD1     H 3457   2.104   0.760   9.262  1.9579  0.4254 -2.9653
  224MPD1    H1 3458   2.015   0.344   9.327  3.0698 -0.0610  1.2873
  224MPD1    H2 3459   2.049   0.492   8.932 -2.7276  0.0816  0.0583
  224MPD1    H3 3460   2.024   0.305   9.091 -0.8797 -1.6667  1.3092
  224MPD1     N 3461   2.065   0.569   9.455 -0.2885  0.5306 -0.4338
  224MPD1    H5 3462   2.059   0.484   9.510  0.7943  0.2084 -0.8188
  224MPD1    N1 3463   2.090   0.743   8.993 -0.1762 -0.7429 -0.2421
  224MPD1    H6 3464   2.034   0.738   8.908 -0.1037 -2.8573 -0.1505
  224MPD1    H7 3465   2.078   0.838   9.029 -2.6277 -0.3732 -2.0169
  225MPD1     C 3466   3.042   1.448  13.216 -0.4948 -0.2034 -0.0129
  225MPD1    C1 3467   2.996   1.317  13.191  0.4953 -0.0586 -0.0962
  225MPD1    C2 3468   2.880   1.309  13.123  0.3048 -0.7232 -0.9027
  225MPD1    C3 3469   2.804   1.417  13.086 -1.0470 -0.0131 -0.1386
  225MPD1    C4 3470   2.854   1.546  13.106  0.0638  0.5241  0.4550
  225MPD1    C5 3471   2.970   1.557  13.176 -0.3025 -0.7667  0.1150
  225MPD1     H 3472   2.851   1.210  13.090  0.7906 -1.2502  0.2475
  225MPD1    H1 3473   2.798   1.630  13.067 -0.7026 -0.8290 -1.3534
  225MPD1    H2 3474   3.140   1.472  13.255 -0.0648 -0.6104 -0.8378
  225MPD1    H3 3475   3.006   1.659  13.186 -1.2385 -0.6438  2.1113
  225MPD1     N 3476   2.690   1.412  13.017 -0.0517 -0.6148 -0.3302
  225MPD1    H5 3477   2.651   1.504  13.001 -1.4746 -1.4362 -1.5667
  225MPD1    N1 3478   3.072   1.206  13.205 -0.2992 -0.1152  0.5595
  225MPD1    H6 3479   3.114   1.212  13.297  0.4983  0.5484  0.1522
  225MPD1    H7 3480   3.020   1.120  13.189 -1.4204  0.8181 -0.6959
  226MPD1     C 3481   1.772   0.449   9.483  0.5716  0.1467  0.2365
  226MPD1    C1 3482   1.777   0.470   9.614 -0.8217  0.7902  0.5502
  226MPD1    C2 3483   1.712   0.579   9.664 -0.1851  0.3555  0.3973
  226MPD1    C3 3484   1.661   0.670   9.570  0.1532  0.2405 -0.3006
  226MPD1    C4 3485   1.660   0.649   9.433 -0.6873  0.4998 -0.0797
  226MPD1    C5 3486   1.720   0.536   9.394 -0.5487  0.1308  0.3527
  226MPD1     H 3487   1.701   0.592   9.771  0.8233  3.0555  0.1678
  226MPD1    H1 3488   1.627   0.716   9.355 -0.1170  1.5652  0.6020
  226MPD1    H2 3489   1.804   0.354   9.444 -3.2343 -1.4965  1.1379
  226MPD1    H3 3490   1.713   0.512   9.289 -0.9810 -0.9513  0.6237
  226MPD1     N 3491   1.614   0.794   9.631 -0.9123 -0.2412  0.7101
  226MPD1    H5 3492   1.608   0.791   9.732 -2.9322  1.0383  0.6226
  226MPD1    N1 3493   1.829   0.372   9.700  0.0674 -0.2437 -0.5164
  226MPD1    H6 3494   1.852   0.408   9.793  0.2000 -2.5870  0.3691
  226MPD1    H7 3495   1.907   0.321   9.660  0.0195 -1.6521  1.1549
  227MPD1     C 3496   1.084   1.708   9.460  0.5515 -0.5810  1.1390
  227MPD1    C1 3497   1.217   1.733   9.489 -0.8912  0.6508 -0.3301
  227MPD1    C2 3498   1.291   1.630   9.537  0.6328  0.5754 -0.2921
  227MPD1    C3 3499   1.242   1.504   9.555  0.8956  0.5837  0.8590
  227MPD1    C4 3500   1.107   1.484   9.534  0.0267 -0.0541  1.1133
  227MPD1    C5 3501   1.038   1.579   9.465 -0.1978 -0.5308 -0.2176
  227MPD1     H 3502   1.393   1.645   9.570  1.1910 -0.6676 -1.4365
  227MPD1    H1 3503   1.047   1.394   9.543 -2.3303  1.4772  0.7695
  227MPD1    H2 3504   1.008   1.780   9.434  1.4913  0.6058  1.6651
  227MPD1    H3 3505   0.933   1.561   9.445 -0.0630 -1.5193 -0.0054
  227MPD1     N 3506   1.320   1.403   9.609  0.3070 -0.1116 -0.6711
  227MPD1    H5 3507   1.408   1.436   9.646 -0.9351  1.5244  0.8081
  227MPD1    N1 3508   1.257   1.871   9.498  0.4732 -0.0866  0.0110
  227MPD1    H6 3509   1.356   1.865   9.518  0.2534 -1.3285  0.7180
  227MPD1    H7 3510   1.212   1.917   9.577  0.9243 -1.4258  1.0420
  228MPD1     C 3511   4.020   3.677  12.434  0.4129  0.4355  0.0773
  228MPD1    C1 3512   4.032   3.620  12.562  0.2490 -0.0904  0.4631
  228MPD1    C2 3513   3.925   3.612  12.645  0.3042  0.2112  0.0801
  228MPD1    C3 3514   3.798   3.661  12.619  0.4716  0.3970  0.8757
  228MPD1    C4 3515   3.788   3.704  12.487  0.3853  0.1428  0.9951
  228MPD1    C5 3516   3.894   3.708  12.388 -0.2406  0.2765  0.0004
  228MPD1     H 3517   3.939   3.550  12.733 -1.7588  0.2022  0.4073
  228MPD1    H1 3518   3.686   3.728  12.458  0.2254 -1.6133  0.0625
  228MPD1    H2 3519   4.103   3.690  12.366  0.3957  1.7720  0.3085
  228MPD1    H3 3520   3.868   3.744  12.289  0.5191  1.9737  0.4106
  228MPD1     N 3521   3.691   3.653  12.711 -0.4325 -0.6647  0.2518
  228MPD1    H5 3522   3.714   3.625  12.805 -1.4054 -2.7359 -0.1312
  228MPD1    N1 3523   4.158   3.591  12.613 -0.1604 -0.3226  0.2672
  228MPD1    H6 3524   4.227   3.569  12.541 -0.4942 -0.9208  0.1243
  228MPD1    H7 3525   4.155   3.516  12.681 -0.9747 -0.9655 -0.4713
  229MPD1     C 3526   4.046   2.762  15.490  0.3297  0.6094 -0.4004
  229MPD1    C1 3527   4.013   2.633  15.441  0.1723 -0.7630  0.4328
  229MPD1    C2 3528   4.100   2.527  15.458 -0.6611  0.2303 -0.3657
  229MPD1    C3 3529   4.224   2.544  15.514  0.7484  0.7711 -1.0946
  229MPD1    C4 3530   4.254   2.675  15.559 -0.3410 -0.5058 -0.3983
  229MPD1    C5 3531   4.171   2.778  15.542 -0.3609  0.7327 -0.1614
  229MPD1     H 3532   4.076   2.428  15.419 -2.7355  2.1088 -3.8498
  229MPD1    H1 3533   4.340   2.693  15.623 -1.2072 -0.0742  0.6593
  229MPD1    H2 3534   3.981   2.847  15.481 -0.0145  0.1873 -1.7684
  229MPD1    H3 3535   4.209   2.875  15.574 -0.8624  0.3674  1.5730
  229MPD1     N 3536   4.323   2.438  15.523  0.2851 -0.5278 -0.5348
  229MPD1    H5 3537   4.411   2.459  15.569 -0.9651 -1.3420  2.2389
  229MPD1    N1 3538   3.880   2.610  15.404 -0.0563 -0.4571 -0.6859
  229MPD1    H6 3539   3.877   2.536  15.333 -0.4607 -1.5255  0.4475
  229MPD1    H7 3540   3.843   2.692  15.358  0.2899  0.2917  0.3807
  230MPD1     C 3541   0.125   1.941  16.183  0.0292 -0.4800 -0.2180
  230MPD1    C1 3542   0.186   1.882  16.071 -0.5199  0.2951  0.2275
  230MPD1    C2 3543   0.143   1.920  15.947 -0.7686  0.0985 -0.7006
  230MPD1    C3 3544   0.048   2.022  15.927  0.2625 -0.1408  0.5059
  230MPD1    C4 3545   0.003   2.082  16.040  0.0419  0.4692  0.0542
  230MPD1    C5 3546   0.041   2.039  16.162  0.6256 -0.0226 -0.5260
  230MPD1     H 3547   0.180   1.862  15.863 -2.2308  0.4627 -1.6102
  230MPD1    H1 3548   4.674   2.166  16.054 -0.4274 -0.0955  1.0898
  230MPD1    H2 3549   0.144   1.917  16.287 -1.2845 -0.0134  0.1223
  230MPD1    H3 3550   4.738   2.095  16.244 -1.4219  0.7481 -2.0779
  230MPD1     N 3551   0.024   2.064  15.792  0.1253 -0.1627 -0.9699
  230MPD1    H5 3552   0.086   2.029  15.720 -0.9832 -0.9259 -1.5681
  230MPD1    N1 3553   0.266   1.767  16.100  0.2937  0.3314  0.4219
  230MPD1    H6 3554   0.312   1.766  16.190 -1.1459 -0.8842  1.1601
  230MPD1    H7 3555   0.332   1.744  16.026 -0.0214  3.2084 -0.7212
  231MPD1     C 3556   2.622   4.203  15.657  0.3382 -0.3744 -0.1987
  231MPD1    C1 3557   2.588   4.234  15.521  0.6504  0.0863  0.0325
  231MPD1    C2 3558   2.689   4.248  15.430  0.1294 -0.2844 -0.5359
  231MPD1    C3 3559   2.823   4.243  15.465 -0.4660  1.0399  0.2414
  231MPD1    C4 3560   2.848   4.222  15.599 -0.1517  0.2209 -0.3372
  231MPD1    C5 3561   2.752   4.200  15.691 -0.5141  0.3148 -0.5747
  231MPD1     H 3562   2.660   4.260  15.326  1.1311  0.1892 -0.7624
  231MPD1    H1 3563   2.949   4.205  15.635  0.1188  0.9139 -0.7659
  231MPD1    H2 3564   2.540   4.172  15.721 -0.2845  0.8977 -0.3801
  231MPD1    H3 3565   2.784   4.175  15.792 -3.1951 -2.0341 -0.2983
  231MPD1     N 3566   2.912   4.255  15.361  0.0836 -0.2013  0.2910
  231MPD1    H5 3567   2.876   4.245  15.266 -1.4470  2.7081  0.5837
  231MPD1    N1 3568   2.458   4.208  15.481  0.4457  0.1265 -0.6352
  231MPD1    H6 3569   2.439   4.261  15.396 -1.9473  0.6173  0.2197
  231MPD1    H7 3570   2.396   4.239  15.555 -2.3659 -1.6730 -2.2582
  232MPD1     C 3571   0.377   1.768   0.184  0.5751 -0.2553 -0.0634
  232MPD1    C1 3572   0.285   1.664   0.184 -0.3000 -0.7233 -0.3103
  232MPD1    C2 3573   0.152   1.698   0.154  0.0407 -0.4818  0.7712
  232MPD1    C3 3574   0.114   1.824   0.115  0.2227  0.5385 -0.9560
  232MPD1    C4 3575   0.209   1.922   0.110  1.3239 -0.0486  0.5490
  232MPD1    C5 3576   0.344   1.897   0.141  0.1824 -0.2460  0.3808
  232MPD1     H 3577   0.071   1.628   0.171  0.5254 -1.3079 -0.3392
  232MPD1    H1 3578   0.183   2.026   0.094  1.3635 -0.3059 -1.1274
  232MPD1    H2 3579   0.473   1.755   0.233  0.4779 -0.8745 -0.0320
  232MPD1    H3 3580   0.414   1.978   0.158 -0.8558  0.6014  0.5680
  232MPD1     N 3581   4.710   1.840   0.091  0.0426 -0.4169 -0.1683
  232MPD1    H5 3582   4.645   1.764   0.109 -0.9473 -0.1585 -2.7556
  232MPD1    N1 3583   0.320   1.539   0.246 -0.6147 -0.4095  0.4302
  232MPD1    H6 3584   0.419   1.518   0.243 -0.4345  0.7232 -1.5791
  232MPD1    H7 3585   0.260   1.462   0.217  1.7234 -1.9698 -0.2015
  233MPD1     C 3586   0.783   0.178   1.532 -0.7298  0.1846  0.3371
  233MPD1    C1 3587   0.803   0.275   1.630  0.0248  0.3333  0.3315
  233MPD1    C2 3588   0.936   0.292   1.650  0.3815 -0.1145 -0.3294
  233MPD1    C3 3589   1.035   0.270   1.559 -0.1908  0.2616  0.7396
  233MPD1    C4 3590   1.002   0.209   1.441  0.7309  0.0148 -0.7175
  233MPD1    C5 3591   0.875   0.148   1.436 -0.0687  0.5964  0.4696
  233MPD1     H 3592   0.961   0.345   1.742  2.1716  3.6680 -3.0299
  233MPD1    H1 3593   1.079   0.193   1.366  0.5430  1.3106 -1.1919
  233MPD1    H2 3594   0.684   0.137   1.511  0.6764 -2.9343 -0.2417
  233MPD1    H3 3595   0.853   0.087   1.350  1.5421  1.6068 -0.6595
  233MPD1     N 3596   1.170   0.324   1.576  0.0627 -0.0129  0.1165
  233MPD1    H5 3597   1.218   0.328   1.487  2.6278 -0.8790  1.4706
  233MPD1    N1 3598   0.712   0.284   1.729  0.5808  0.2480  0.3550
  233MPD1    H6 3599   0.618   0.287   1.690  1.0028 -0.8518 -0.7565
  233MPD1    H7 3600   0.728   0.374   1.773 -0.0497 -0.6088  2.3052
  234MPD1     C 3601   2.853   3.918  10.063  0.1449 -0.6028  0.4778
  234MPD1    C1 3602   2.855   4.048  10.106 -0.2053 -0.3868  1.0086
  234MPD1    C2 3603   2.763   4.138  10.064 -0.4168  0.0212  0.1105
  234MPD1    C3 3604   2.659   4.089   9.992  0.0368  0.2832  0.2225
  234MPD1    C4 3605   2.647   3.954   9.958 -0.7723  0.6562  0.0228
  234MPD1    C5 3606   2.743   3.868  10.006  0.4108 -1.2422  0.2802
  234MPD1     H 3607   2.755   4.244  10.086 -0.5297 -0.2316  1.3258
  234MPD1    H1 3608   2.566   3.918   9.896  0.1469  0.1728 -0.9196
  234MPD1    H2 3609   2.930   3.847  10.090  0.6232  0.6059  2.2745
  234MPD1    H3 3610   2.739   3.766   9.972 -1.8718 -1.2798  0.6121
  234MPD1     N 3611   2.570   4.192   9.943  0.3282  0.3224 -1.0924
  234MPD1    H5 3612   2.588   4.286   9.976  0.5844 -1.3577  3.5180
  234MPD1    N1 3613   2.974   4.105  10.167 -0.2714 -0.4369  0.5569
  234MPD1    H6 3614   3.025   4.046  10.232  2.6746 -0.1219 -1.4979
  234MPD1    H7 3615   2.950   4.180  10.232 -1.3911 -1.8166  1.7412
  235MPD1     C 3616   2.849   1.511  11.090  0.7571  0.5915  0.5333
  235MPD1    C1 3617   2.872   1.488  10.958 -0.2528 -0.0022 -0.3385
  235MPD1    C2 3618   2.960   1.569  10.890  0.0266  0.5004  0.3106
  235MPD1    C3 3619   3.039   1.664  10.947 -0.4930 -0.9065 -0.4573
  235MPD1    C4 3620   3.009   1.685  11.082  0.0821  0.4138  0.0045
  235MPD1    C5 3621   2.931   1.598  11.155 -0.2176  0.0347  0.8706
  235MPD1     H 3622   2.967   1.537  10.786  0.9198  1.8617 -0.0495
  235MPD1    H1 3623   3.065   1.753  11.146  1.3655 -1.3841  0.7971
  235MPD1    H2 3624   2.768   1.464  11.144  0.5520  0.7250  0.3413
  235MPD1    H3 3625   2.911   1.605  11.261  0.4328 -0.9436  1.0637
  235MPD1     N 3626   3.126   1.751  10.870 -0.4801  0.4959 -0.3741
  235MPD1    H5 3627   3.143   1.726  10.773 -1.3061 -1.4985  0.0003
  235MPD1    N1 3628   2.776   1.408  10.890  0.1552  0.4225  0.4244
  235MPD1    H6 3629   2.823   1.375  10.806  0.8598 -1.3321  1.5126
  235MPD1    H7 3630   2.732   1.335  10.945  0.2639 -0.5765 -0.8118
  236MPD1     C 3631   3.172   3.020   9.932 -0.2301 -0.0161  0.2999
  236MPD1    C1 3632   3.159   3.070  10.057 -0.2587 -0.3810  0.2032
  236MPD1    C2 3633   3.100   2.996  10.159  0.7075 -0.1819  0.5956
  236MPD1    C3 3634   3.052   2.866  10.137 -0.0641  0.0007 -0.3670
  236MPD1    C4 3635   3.052   2.824  10.003  0.1474 -0.0264 -0.0082
  236MPD1    C5 3636   3.105   2.903   9.905  0.2079 -0.1499  0.1925
  236MPD1     H 3637   3.103   3.040  10.258 -1.1503  0.0074  0.5791
  236MPD1    H1 3638   3.017   2.724   9.979 -2.3078  0.8234  0.0726
  236MPD1    H2 3639   3.227   3.078   9.860  1.6352 -1.4577  0.5687
  236MPD1    H3 3640   3.106   2.871   9.801  0.4529  0.1225  0.1108
  236MPD1     N 3641   3.008   2.780  10.239 -0.3620 -0.3231 -0.1869
  236MPD1    H5 3642   2.959   2.700  10.200 -1.6527 -0.3590  1.5200
  236MPD1    N1 3643   3.216   3.197  10.084  0.5855 -0.1963 -0.4842
  236MPD1    H6 3644   3.196   3.241  10.173 -1.0556 -0.9354 -0.4871
  236MPD1    H7 3645   3.208   3.264  10.008  0.4786 -2.7341 -2.6901
  237MPD1     C 3646   3.449   1.062  16.167  0.2827  0.2252 -0.5852
  237MPD1    C1 3647   3.383   1.152  16.094  0.2845 -0.1576  0.0501
  237MPD1    C2 3648   3.287   1.112  16.009  0.6789 -0.4447 -0.6158
  237MPD1    C3 3649   3.264   0.976  15.989 -0.0701  0.3607  0.1555
  237MPD1    C4 3650   3.328   0.888  16.068 -0.7590 -0.1325 -0.0768
  237MPD1    C5 3651   3.419   0.931  16.158  0.3263 -0.1614 -0.4714
  237MPD1     H 3652   3.228   1.186  15.955  0.8263 -1.1472 -1.7317
  237MPD1    H1 3653   3.312   0.782  16.050  1.8484 -0.9256  2.2375
  237MPD1    H2 3654   3.522   1.095  16.239 -2.2154 -0.1933  2.1284
  237MPD1    H3 3655   3.485   0.863  16.212 -0.3312  0.8272  1.5564
  237MPD1     N 3656   3.172   0.927  15.894  0.1323  0.6216  0.5437
  237MPD1    H5 3657   3.155   0.827  15.906 -0.5024  0.8405  1.4408
  237MPD1    N1 3658   3.404   1.294  16.122 -0.7363  0.3637  0.7368
  237MPD1    H6 3659   3.498   1.320  16.151 -1.1918  1.9087  0.7999
  237MPD1    H7 3660   3.373   1.360  16.051  2.1356 -0.7366 -1.5793
  238MPD1     C 3661   0.527   4.191  14.960 -0.0927 -0.5227 -0.4076
  238MPD1    C1 3662   0.428   4.190  15.051  0.0092  0.5071  0.1268
  238MPD1    C2 3663   0.292   4.164  15.015  0.7216  0.6166  0.5903
  238MPD1    C3 3664   0.255   4.142  14.880 -0.4854  0.3058 -0.4792
  238MPD1    C4 3665   0.359   4.117  14.793 -0.5082  0.0772 -0.1530
  238MPD1    C5 3666   0.485   4.144  14.834  0.6478  0.6567 -0.2895
  238MPD1     H 3667   0.218   4.188  15.090 -0.6557  0.2177 -0.6353
  238MPD1    H1 3668   0.335   4.077  14.695 -1.2116 -0.9079  0.4339
  238MPD1    H2 3669   0.629   4.222  14.979 -0.4074 -0.0953  0.5802
  238MPD1    H3 3670   0.562   4.148  14.757 -0.4835  1.2992 -1.3793
  238MPD1     N 3671   0.121   4.142  14.833 -0.7769  0.2773 -0.0905
  238MPD1    H5 3672   0.099   4.111  14.739 -2.1097 -0.1215  0.3561
  238MPD1    N1 3673   0.465   4.214  15.187 -0.0206 -0.0614 -0.2361
  238MPD1    H6 3674   0.386   4.216  15.251 -0.0679  1.4275 -0.3349
  238MPD1    H7 3675   0.505   4.307  15.191  0.4722 -0.1196 -3.6455
  239MPD1     C 3676   0.346   4.575  15.014  0.3455 -0.1652  0.4032
  239MPD1    C1 3677   0.425   4.586  14.907 -0.1106 -0.2302  0.4020
  239MPD1    C2 3678   0.418   4.692  14.828 -0.0021  0.0837  0.1550
  239MPD1    C3 3679   0.315   0.044  14.843 -0.3655 -0.1053  0.2045
  239MPD1    C4 3680   0.222   0.025  14.945 -0.3682 -0.5042  0.3410
  239MPD1    C5 3681   0.234   4.654  15.023 -0.3505 -0.3850  0.0087
  239MPD1     H 3682   0.486   4.708  14.745  0.5230 -2.6648  0.0681
  239MPD1    H1 3683   0.139   0.093  14.962  0.9395  0.9064  1.0459
  239MPD1    H2 3684   0.352   4.493  15.085 -0.4444 -0.5354  0.0445
  239MPD1    H3 3685   0.149   4.630  15.087 -0.7243  2.7430  0.6871
  239MPD1     N 3686   0.298   0.160  14.765  0.3001 -0.2638  0.5650
  239MPD1    H5 3687   0.210   0.210  14.781  0.1159 -0.5733  0.5208
  239MPD1    N1 3688   0.534   4.502  14.896  0.1948 -0.6064 -0.5568
  239MPD1    H6 3689   0.572   4.492  14.802 -0.7908  1.9028 -1.2184
  239MPD1    H7 3690   0.507   4.414  14.940  0.9828 -0.9047 -0.6775
  240MPD1     C 3691   4.222   0.484  13.978 -0.1721  0.0785  0.6771
  240MPD1    C1 3692   4.121   0.408  14.034 -0.2627 -0.0083  0.0833
  240MPD1    C2 3693   4.136   0.275  14.044 -0.0890  0.7396  0.3382
  240MPD1    C3 3694   4.264   0.221  14.037  0.2480 -0.4825  0.5657
  240MPD1    C4 3695   4.374   0.301  14.019  0.0514  0.8269 -0.5990
  240MPD1    C5 3696   4.352   0.436  13.993 -0.3838  0.1647  0.4738
  240MPD1     H 3697   4.051   0.208  14.053 -0.6096  1.2525 -0.7461
  240MPD1    H1 3698   4.477   0.269  14.012 -0.2246 -0.3366  0.6261
  240MPD1    H2 3699   4.202   0.590  13.966  1.9242  0.4489  0.3933
  240MPD1    H3 3700   4.434   0.493  13.952 -0.7805  1.2110  1.1579
  240MPD1     N 3701   4.283   0.084  14.064 -0.3406 -0.6614 -0.0483
  240MPD1    H5 3702   4.197   0.040  14.095 -0.5934  0.7551  1.2660
  240MPD1    N1 3703   3.993   0.469  14.037 -0.1355 -0.3788 -0.1387
  240MPD1    H6 3704   3.999   0.567  14.063  0.6447 -0.4247 -0.1274
  240MPD1    H7 3705   3.936   0.431  14.112 -0.6040 -0.4877 -0.5534
  241MPD1     C 3706   0.249   4.402  14.625  0.7882 -0.0423 -0.1153
  241MPD1    C1 3707   0.264   4.391  14.489  0.2871  0.2885 -0.0384
  241MPD1    C2 3708   0.143   4.401  14.423 -0.2833  0.4259 -0.5210
  241MPD1    C3 3709   0.017   4.425  14.477  0.3160 -0.3750 -0.0177
  241MPD1    C4 3710   0.014   4.444  14.615  0.2642  0.3315  0.1201
  241MPD1    C5 3711   0.132   4.445  14.684 -0.2845 -0.7135 -0.0534
  241MPD1     H 3712   0.149   4.392  14.315 -2.4822  0.8359 -0.6779
  241MPD1    H1 3713   4.668   4.464  14.680  0.8547 -2.1341  1.6327
  241MPD1    H2 3714   0.333   4.386  14.691  0.6494  0.7414  0.2513
  241MPD1    H3 3715   0.134   4.466  14.790  1.4455 -0.2557 -0.1709
  241MPD1     N 3716   4.647   4.451  14.390  0.2194  0.4757 -0.9806
  241MPD1    H5 3717   4.655   4.433  14.290 -0.9748 -0.7349 -0.8604
  241MPD1    N1 3718   0.381   4.355  14.419  0.2865  0.3021 -0.0785
  241MPD1    H6 3719   0.391   4.432  14.353  2.0172  0.9361  0.9081
  241MPD1    H7 3720   0.461   4.360  14.482 -0.6376  1.0052  1.0279
  242MPD1     C 3721   3.989   3.811  15.716  0.5264 -0.2961  0.2533
  242MPD1    C1 3722   3.872   3.742  15.687  0.6745  0.4819 -0.5833
  242MPD1    C2 3723   3.871   3.629  15.611  0.0508  0.3557 -0.8705
  242MPD1    C3 3724   3.986   3.599  15.532 -0.2414  0.1391 -0.2259
  242MPD1    C4 3725   4.098   3.672  15.555  0.5057  0.4670  0.2429
  242MPD1    C5 3726   4.103   3.770  15.651 -0.6314  0.0122 -0.4389
  242MPD1     H 3727   3.782   3.568  15.607 -0.4465  1.0543 -0.3894
  242MPD1    H1 3728   4.184   3.642  15.497  0.0774  1.2659 -0.7880
  242MPD1    H2 3729   3.993   3.896  15.783 -2.5747 -0.9884  1.3321
  242MPD1    H3 3730   4.197   3.821  15.667 -0.1662 -1.0623  0.2062
  242MPD1     N 3731   3.983   3.495  15.437 -0.2264 -0.4468 -0.0525
  242MPD1    H5 3732   4.073   3.467  15.398 -0.3488  0.9565 -1.3154
  242MPD1    N1 3733   3.758   3.776  15.762  0.6133  0.3766  0.4223
  242MPD1    H6 3734   3.749   3.872  15.794  0.7698  0.8964 -1.1151
  242MPD1    H7 3735   3.677   3.749  15.707  0.3227  3.4099 -0.6109
  243MPD1     C 3736   4.637   1.559  17.592 -0.5983 -0.2294  0.1909
  243MPD1    C1 3737   4.681   1.625  17.481  0.0501  0.4144 -0.7123
  243MPD1    C2 3738   0.072   1.593  17.438 -0.5153 -0.2386  0.3318
  243MPD1    C3 3739   0.152   1.513  17.519 -0.1061  0.3400 -0.2292
  243MPD1    C4 3740   0.103   1.466  17.647  0.1683  0.3893 -0.3089
  243MPD1    C5 3741   4.711   1.485  17.673  0.3430  0.0670  0.7706
  243MPD1     H 3742   0.103   1.631  17.342 -0.9325 -2.1562 -0.5502
  243MPD1    H1 3743   0.158   1.407  17.719 -0.7239 -1.2883 -1.0068
  243MPD1    H2 3744   4.532   1.564  17.615  0.3146  1.0005  4.1655
  243MPD1    H3 3745   4.657   1.442   0.004 -1.9463  1.1316 -0.1482
  243MPD1     N 3746   0.285   1.486  17.486 -0.1055  0.1136  0.3625
  243MPD1    H5 3747   0.312   1.523  17.395 -0.8374  0.8431  0.4430
  243MPD1    N1 3748   4.584   1.694  17.402 -0.4706  0.0570  0.0542
  243MPD1    H6 3749   4.498   1.722  17.448  0.1777  2.4192 -0.1563
  243MPD1    H7 3750   4.622   1.765  17.339 -0.4876 -2.1717 -2.4499
  244MPD1     C 3751   1.069   0.862  17.655 -0.2562  0.0769  0.1451
  244MPD1    C1 3752   1.076   0.910  17.530 -0.0966  0.7616  0.3165
  244MPD1    C2 3753   1.020   1.032  17.497 -0.4246 -0.3152 -0.5270
  244MPD1    C3 3754   0.948   1.100  17.591  0.6101 -0.5772  1.1392
  244MPD1    C4 3755   0.935   1.042  17.714  0.6058  0.0064  0.0291
  244MPD1    C5 3756   0.997   0.930  17.745  0.1461  0.2964  0.3851
  244MPD1     H 3757   1.019   1.074  17.397  1.2606  0.4126 -0.2465
  244MPD1    H1 3758   0.876   1.095   0.035 -0.1151 -0.6219 -0.0923
  244MPD1    H2 3759   1.093   0.760  17.683 -0.9706 -0.1332 -0.0071
  244MPD1    H3 3760   0.977   0.891   0.092 -0.0863  2.3943  1.1595
  244MPD1     N 3761   0.885   1.220  17.550  0.1098  0.7427  0.1625
  244MPD1    H5 3762   0.906   1.255  17.457  1.9183  0.5903  0.5169
  244MPD1    N1 3763   1.123   0.823  17.431 -0.2483 -0.4901  0.5863
  244MPD1    H6 3764   1.175   0.863  17.353 -0.6679 -0.1401  0.4899
  244MPD1    H7 3765   1.195   0.761  17.468  0.2023  0.6486  1.6426
  245MPD1     C 3766   2.857   1.748  13.427  0.2039 -0.4677  0.8499
  245MPD1    C1 3767   2.951   1.782  13.517  0.2131  0.1754 -0.2890
  245MPD1    C2 3768   2.963   1.918  13.553 -0.3280  0.5766 -0.4602
  245MPD1    C3 3769   2.880   2.021  13.506  0.4091 -0.2683 -0.3155
  245MPD1    C4 3770   2.785   1.986  13.408 -0.1169 -0.1554  0.6113
  245MPD1    C5 3771   2.772   1.848  13.381  0.5840 -0.8335 -0.2782
  245MPD1     H 3772   3.043   1.939  13.623 -0.1178 -0.2756 -0.4444
  245MPD1    H1 3773   2.713   2.059  13.373 -1.2942 -1.1998  0.8707
  245MPD1    H2 3774   2.850   1.646  13.391 -0.4361 -0.0169 -0.2999
  245MPD1    H3 3775   2.699   1.818  13.307 -0.3581 -0.7238  0.5959
  245MPD1     N 3776   2.910   2.153  13.545  0.5685 -0.0808  0.2005
  245MPD1    H5 3777   2.976   2.169  13.620  1.4503  1.0086 -0.8070
  245MPD1    N1 3778   3.040   1.682  13.553  0.9617  0.1180 -0.7131
  245MPD1    H6 3779   3.006   1.589  13.533 -0.7368  0.8013 -0.9994
  245MPD1    H7 3780   3.081   1.692  13.646  0.3770 -0.7581 -0.3685
  246MPD1     C 3781   4.591   4.203   9.335  0.0773 -0.2974  0.0124
  246MPD1    C1 3782   4.549   4.318   9.401 -0.4746 -0.6514  0.0863
  246MPD1    C2 3783   4.427   4.317   9.462  0.3390  0.3939  0.6137
  246MPD1    C3 3784   4.362   4.194   9.492  0.3519 -0.2101  0.2393
  246MPD1    C4 3785   4.415   4.076   9.436  0.3895 -0.1438  0.1017
  246MPD1    C5 3786   4.516   4.086   9.345  0.0701  0.4261 -0.2084
  246MPD1     H 3787   4.383   4.407   9.503 -2.7967 -1.2465  0.8256
  246MPD1    H1 3788   4.363   3.982   9.451 -1.6686  0.7421 -1.3869
  246MPD1    H2 3789   4.678   4.217   9.273 -1.4179 -0.7082 -2.1703
  246MPD1    H3 3790   4.550   3.996   9.296  2.5738  1.6108 -0.6483
  246MPD1     N 3791   4.238   4.201   9.562  0.9787  0.3043 -0.2904
  246MPD1    H5 3792   4.214   4.288   9.610 -0.2523 -1.0067  1.4881
  246MPD1    N1 3793   4.605   4.438   9.351  0.2506  0.2130 -0.2241
  246MPD1    H6 3794   4.704   4.431   9.333  0.1536  1.2672 -1.1621
  246MPD1    H7 3795   4.616   4.506   9.427  1.3671 -1.4614  1.1181
  247MPD1     C 3796   2.009   3.401  15.306  0.4912  1.0226  0.7728
  247MPD1    C1 3797   1.962   3.397  15.436 -0.3805  0.5334 -0.9751
  247MPD1    C2 3798   2.033   3.328  15.531 -0.1544  0.2302  0.8920
  247MPD1    C3 3799   2.156   3.276  15.507  0.0964 -0.5394 -0.1712
  247MPD1    C4 3800   2.201   3.288  15.377  0.7772 -0.9568 -0.2832
  247MPD1    C5 3801   2.129   3.352  15.284  0.3208  0.3250  0.3302
  247MPD1     H 3802   1.971   3.318  15.619  0.7632 -2.1651  1.2681
  247MPD1    H1 3803   2.303   3.262  15.352  1.3900 -0.3100  1.5523
  247MPD1    H2 3804   1.963   3.444  15.218  2.8271  2.3877  0.2375
  247MPD1    H3 3805   2.167   3.376  15.186  1.2753 -0.3758  0.5256
  247MPD1     N 3806   2.233   3.194  15.601 -0.3084 -0.3099 -0.1801
  247MPD1    H5 3807   2.315   3.141  15.576 -0.8952 -2.5213  2.5194
  247MPD1    N1 3808   1.828   3.418  15.461 -0.4391 -0.2471  0.0668
  247MPD1    H6 3809   1.807   3.440  15.558 -2.6768 -2.0085 -0.0326
  247MPD1    H7 3810   1.791   3.485  15.393 -0.7533 -1.2422 -0.7456
  248MPD1     C 3811   3.567   1.276   0.594  0.1725  0.0159 -0.1654
  248MPD1    C1 3812   3.459   1.346   0.542 -0.0278  0.8903 -1.0674
  248MPD1    C2 3813   3.408   1.441   0.629  0.4353 -0.1897 -0.1980
  248MPD1    C3 3814   3.452   1.449   0.758 -0.4710  0.2841  0.2975
  248MPD1    C4 3815   3.537   1.358   0.818 -0.7356 -0.2366  0.9100
  248MPD1    C5 3816   3.604   1.279   0.727  0.8482 -0.1343 -0.7558
  248MPD1     H 3817   3.354   1.528   0.594 -0.9900 -0.1871  1.9501
  248MPD1    H1 3818   3.568   1.356   0.922 -0.3255  0.1604  0.7953
  248MPD1    H2 3819   3.620   1.208   0.529 -3.6523 -1.3181 -1.8481
  248MPD1    H3 3820   3.680   1.213   0.767  0.4716 -0.4072 -0.4877
  248MPD1     N 3821   3.367   1.532   0.837  0.0648  0.2768  0.0251
  248MPD1    H5 3822   3.309   1.597   0.785 -0.4229 -1.6375 -1.8335
  248MPD1    N1 3823   3.432   1.359   0.404  0.5079 -0.1456 -0.2725
  248MPD1    H6 3824   3.440   1.269   0.357  0.6012 -0.5045  0.4280
  248MPD1    H7 3825   3.336   1.392   0.404  0.1139 -1.2478 -4.0865
  249MPD1     C 3826   3.454   0.261  10.553 -0.0986 -0.3946 -0.0214
  249MPD1    C1 3827   3.359   0.230  10.466 -0.9264 -0.2311  0.1596
  249MPD1    C2 3828   3.259   0.318  10.433  0.3664 -0.3966  0.1864
  249MPD1    C3 3829   3.265   0.439  10.492 -0.3092  0.7024 -0.9271
  249MPD1    C4 3830   3.358   0.470  10.586 -0.0593  0.4018  0.2511
  249MPD1    C5 3831   3.456   0.376  10.624 -0.0749  0.5107  0.5885
  249MPD1     H 3832   3.175   0.295  10.369 -0.2596  1.5638  0.3063
  249MPD1    H1 3833   3.356   0.573  10.620  1.1309  0.4797  0.0795
  249MPD1    H2 3834   3.532   0.192  10.584  0.9235 -0.1132 -1.9294
  249MPD1    H3 3835   3.527   0.405  10.701 -0.2920 -1.6583  1.5873
  249MPD1     N 3836   3.170   0.541  10.447  0.1673  0.0279 -0.1790
  249MPD1    H5 3837   3.127   0.511  10.360 -0.4831  1.4096 -0.3225
  249MPD1    N1 3838   3.353   0.101  10.413 -0.8538 -0.2940 -0.2487
  249MPD1    H6 3839   3.296   0.092  10.329  0.0592  0.9594 -1.0002
  249MPD1    H7 3840   3.442   0.054  10.401 -2.0661 -2.4188 -0.9084
  250MPD2     C 3841   1.471   0.707  13.325  1.0318  0.4898  0.3915
  250MPD2    C1 3842   1.403   0.828  13.322 -0.3968  0.3275  0.3041
  250MPD2    C2 3843   1.270   0.821  13.284  0.0669 -0.2505  0.1593
  250MPD2    C3 3844   1.215   0.703  13.235  0.8191 -0.3465 -0.1581
  250MPD2    C4 3845   1.287   0.585  13.240  0.2524 -0.3322 -0.3333
  250MPD2    C5 3846   1.410   0.592  13.295  0.4551 -0.4043  0.4250
  250MPD2     H 3847   1.209   0.911  13.285  1.7700  0.8818  1.2897
  250MPD2    H1 3848   1.234   0.493  13.216 -0.6928  0.1544 -0.1181
  250MPD2    H2 3849   1.574   0.706  13.358  0.9106 -3.2795  0.5996
  250MPD2    H3 3850   1.468   0.501  13.301  0.3705 -0.6719 -2.6632
  250MPD2     N 3851   1.074   0.685  13.209  0.0135 -0.7948  0.1404
  250MPD2    H5 3852   1.047   0.588  13.192  0.6637 -1.2378  1.6285
  250MPD2    N1 3853   1.473   0.948  13.351  0.1098 -0.0248 -0.6833
  250MPD2    H7 3854   1.573   0.941  13.370 -0.5748  0.0332  2.8948
  251TMC3    C1 3855   1.496   1.188  13.328 -0.5075 -0.2483 -0.7902
  251TMC3    C2 3856   1.449   1.300  13.380 -0.2093  0.3583  0.4933
  251TMC3    C3 3857   1.538   1.398  13.394  0.8322  0.1489  0.1597
  251TMC3    C4 3858   1.626   1.178  13.290  0.5196  0.3279 -0.0979
  251TMC3    C5 3859   1.717   1.279  13.306  0.3068  0.5222 -0.1647
  251TMC3    C6 3860   1.667   1.399  13.356 -0.1860  0.1224 -0.8573
  251TMC3     C 3861   1.414   1.072  13.342  0.1445 -0.1984  0.0468
  251TMC3     O 3862   1.298   1.108  13.329  0.5035  0.0867 -0.0118
  251TMC3     H 3863   1.360   1.303  13.442  0.3835  0.4714  1.3311
  251TMC3    H1 3864   1.651   1.090  13.231  1.4915  0.0096  0.8005
  251TMC3    H2 3865   1.732   1.474  13.398 -1.7825  0.8126  0.3682
  251TMC3    C7 3866   1.854   1.234  13.339  0.1040  0.2552  0.2539
  251TMC3    C8 3867   1.468   1.524  13.420 -0.2859  0.2822 -0.0483
  251TMC3    O1 3868   1.878   1.114  13.337  0.3730  0.1975 -0.0232
  251TMC3    O2 3869   1.383   1.516  13.510 -0.3748  0.4379  0.2647
  252TMC3    C1 3870   0.438   2.973   9.920  0.6399 -0.3793  0.0171
  252TMC3    C2 3871   0.560   2.961   9.864  0.1143  0.0669 -0.7050
  252TMC3    C3 3872   0.599   2.833   9.843  0.0255  0.0362 -0.3889
  252TMC3    C4 3873   0.352   2.865   9.955 -0.1900  0.1074  0.1575
  252TMC3    C5 3874   0.401   2.738   9.930 -0.0031  0.1825  0.0344
  252TMC3    C6 3875   0.528   2.722   9.871  0.8210 -0.5647 -0.1248
  252TMC3     C 3876   0.391   3.114   9.929 -0.0317 -0.4193 -0.0881
  252TMC3     O 3877   0.451   3.205   9.873 -0.2515 -0.0233  0.4938
  252TMC3     H 3878   0.622   3.044   9.833  1.9312 -0.9916  0.0850
  252TMC3    H1 3879   0.247   2.883   9.972 -0.6582 -0.3561 -2.2792
  252TMC3    H2 3880   0.568   2.624   9.849  1.5809 -0.1551 -0.5358
  252TMC3    C7 3881   0.315   2.622   9.952 -1.0236  0.6034  0.5652
  252TMC3    C8 3882   0.740   2.819   9.823  0.4533 -0.2563  0.3575
  252TMC3    O1 3883   0.206   2.643  10.007 -0.4263 -0.2638 -0.2596
  252TMC3    O2 3884   0.792   2.907   9.753  0.0149  0.1575 -0.0068
  253MPD2     C 3885   2.336   0.786  15.626 -0.7508  0.1728 -0.4704
  253MPD2    C1 3886   2.217   0.756  15.563 -0.0071  0.1379  0.2889
  253MPD2    C2 3887   2.119   0.685  15.637  0.7425  0.0817  0.3407
  253MPD2    C3 3888   2.138   0.659  15.766 -0.7106 -0.2574  0.9343
  253MPD2    C4 3889   2.250   0.713  15.833 -0.2275  0.1324 -0.3539
  253MPD2    C5 3890   2.343   0.779  15.761 -0.1402 -0.5320 -0.1097
  253MPD2     H 3891   2.028   0.652  15.588  0.9566  0.2779 -0.1904
  253MPD2    H1 3892   2.264   0.704  15.941 -1.9774  2.8251  0.0904
  253MPD2    H2 3893   2.410   0.845  15.572  2.4562 -2.0671  1.5020
  253MPD2    H3 3894   2.428   0.825  15.809 -1.4400  2.5901 -0.8204
  253MPD2     N 3895   2.062   0.575  15.848  0.3002 -0.5729  0.5017
  253MPD2    H5 3896   2.089   0.585  15.945  0.2519  1.1137  0.3452
  253MPD2    N1 3897   2.194   0.797  15.433  0.0355  0.0652 -0.0471
  253MPD2    H7 3898   2.099   0.774  15.403 -0.2844  1.1957  0.0608
  254TMC3    C1 3899   1.920   0.425  15.935 -0.4864  0.2166 -1.5225
  254TMC3    C2 3900   1.791   0.393  15.963  0.0869  0.3233 -0.1412
  254TMC3    C3 3901   1.762   0.309  16.065 -0.1014  0.1077  0.5855
  254TMC3    C4 3902   2.023   0.380  16.012 -0.3770  0.1757  0.3593
  254TMC3    C5 3903   1.995   0.298  16.115 -0.2839 -0.0151 -0.0932
  254TMC3    C6 3904   1.861   0.268  16.150 -0.0615  0.2990 -0.0433
  254TMC3     C 3905   1.944   0.513  15.821  0.1020 -0.3072  0.3663
  254TMC3     O 3906   1.862   0.535  15.732  0.4293  0.9804 -0.0501
  254TMC3     H 3907   1.712   0.445  15.909 -0.3624 -1.0672 -0.8235
  254TMC3    H1 3908   2.127   0.397  15.990  0.1572 -1.6701  1.5052
  254TMC3    H2 3909   1.841   0.203  16.235 -2.2639 -1.0279 -1.5864
  254TMC3    C7 3910   2.085   0.304  16.224  0.7033 -0.3447  0.1033
  254TMC3    C8 3911   1.653   0.360  16.152  0.1093  0.7949  0.3248
  254TMC3    O1 3912   2.159   0.210  16.242  0.1942  0.4951 -0.4717
  254TMC3    O2 3913   1.685   0.370  16.269 -0.3773  0.3593  0.2934
  255MPD2     C 3914   0.281   4.662   9.531 -0.4882  0.4508  0.0917
  255MPD2    C1 3915   0.254   4.529   9.547  0.7827  0.7527  0.7402
  255MPD2    C2 3916   0.341   4.434   9.504 -0.0019  0.4183 -0.2595
  255MPD2    C3 3917   0.465   4.478   9.453  0.0373  0.3167 -0.6899
  255MPD2    C4 3918   0.495   4.613   9.448 -0.3193 -0.0357 -0.2238
  255MPD2    C5 3919   0.402   4.700   9.486 -0.2499 -0.8849 -0.8211
  255MPD2     H 3920   0.325   4.326   9.500  0.0937  0.4250 -0.9414
  255MPD2    H1 3921   0.592   4.655   9.421 -1.8205  3.1163 -0.6266
  255MPD2    H2 3922   0.209   0.003   9.542  0.3646  1.1093  1.0201
  255MPD2    H3 3923   0.417   0.068   9.470  2.2645 -1.4056 -1.8193
  255MPD2     N 3924   0.553   4.376   9.414  0.3373 -0.0660  0.3647
  255MPD2    H5 3925   0.510   4.285   9.399  1.6305 -0.3697 -1.6174
  255MPD2    N1 3926   0.129   4.501   9.589  0.1245 -0.6612  0.0315
  255MPD2    H7 3927   0.075   4.579   9.625  0.3165 -0.8233  0.6718
  256TMC3    C1 3928   0.009   4.365   9.736  0.1986 -0.7674 -0.1678
  256TMC3    C2 3929   0.012   4.465   9.833 -0.5488  0.2570  0.0719
  256TMC3    C3 3930   4.681   4.445   9.948 -0.3507  0.3024  0.7485
  256TMC3    C4 3931   4.680   4.254   9.761 -0.1345 -0.3159 -0.2867
  256TMC3    C5 3932   4.618   4.239   9.883  0.1446  0.2450  0.2766
  256TMC3    C6 3933   4.614   4.338   9.980  0.1717  0.2973  0.5627
  256TMC3     C 3934   0.080   4.378   9.616  0.1480  0.5927 -0.7575
  256TMC3     O 3935   0.099   4.271   9.556 -0.2863  0.3045 -0.1356
  256TMC3     H 3936   0.047   4.565   9.807 -0.9403  0.2413 -0.5245
  256TMC3    H1 3937   4.679   4.175   9.688 -1.3489 -0.6010  0.0337
  256TMC3    H2 3938   4.581   4.334  10.084  0.8751 -2.3665  0.6839
  256TMC3    C7 3939   4.578   4.102   9.917 -0.1950  0.0197  0.4705
  256TMC3    C8 3940   4.697   4.545  10.050 -0.1991 -0.0558 -0.2720
  256TMC3    O1 3941   4.562   4.024   9.823 -0.6694 -0.3123 -0.0048
  256TMC3    O2 3942   4.605   4.570  10.125  0.0198 -0.0553 -0.2368
  257MPD2     C 3943   4.559   0.889  13.614  0.1351 -0.5308 -0.6135
  257MPD2    C1 3944   4.515   0.803  13.514  0.2791  0.4369 -0.6300
  257MPD2    C2 3945   4.516   0.666  13.533 -0.1979 -0.6464 -0.0210
  257MPD2    C3 3946   4.554   0.618  13.662  0.0504  0.5813  0.1094
  257MPD2    C4 3947   4.578   0.707  13.763  0.3992 -0.3103 -0.6768
  257MPD2    C5 3948   4.585   0.844  13.733 -0.0028 -0.3986 -0.0517
  257MPD2     H 3949   4.516   0.598  13.448 -0.2172  0.6194 -1.0266
  257MPD2    H1 3950   4.603   0.670  13.862  0.5188  3.5874  0.7591
  257MPD2    H2 3951   4.569   0.997  13.601  1.4835 -0.5387  0.2781
  257MPD2    H3 3952   4.623   0.922  13.798 -1.8026 -0.6876  1.3830
  257MPD2     N 3953   4.576   0.475  13.675 -0.0338  0.0775  0.1894
  257MPD2    H5 3954   4.547   0.422  13.594 -0.6520  3.6299 -1.9148
  257MPD2    N1 3955   4.487   0.856  13.383 -0.3915 -0.6375  0.2533
  257MPD2    H7 3956   4.498   0.956  13.372  2.2750 -0.8918  0.4576
  258TMC3    C1 3957   4.629   0.267  13.777 -0.2549 -0.4053 -0.0352
  258TMC3    C2 3958   4.541   0.204  13.694 -0.0760 -0.3474 -0.3607
  258TMC3    C3 3959   4.546   0.065  13.688 -0.7634  0.2342 -0.7813
  258TMC3    C4 3960   4.719   0.186  13.846 -0.0166  0.2961 -0.0073
  258TMC3    C5 3961   4.715   0.045  13.840  0.3101  0.1476  0.6978
  258TMC3    C6 3962   4.627   4.725  13.755 -0.3826 -0.3023 -0.0360
  258TMC3     C 3963   4.626   0.410  13.788 -0.1628 -0.3538  0.0632
  258TMC3     O 3964   4.685   0.458  13.889 -0.0923 -0.3476  0.2476
  258TMC3     H 3965   4.460   0.268  13.662  0.4093  0.7746  0.6439
  258TMC3    H1 3966   0.040   0.239  13.920  1.0751  1.8426 -2.0012
  258TMC3    H2 3967   4.617   4.617  13.746  1.8218 -0.4756 -0.4810
  258TMC3    C7 3968   0.070   4.692  13.908  0.0982 -0.1219  0.8628
  258TMC3    C8 3969   4.448   4.723  13.607 -0.1500 -0.5283 -0.2281
  258TMC3    O1 3970   0.052   4.575  13.880  0.7083  0.5869 -0.8276
  258TMC3    O2 3971   4.417   4.613  13.646 -0.5328  0.4813  0.5916
  259MPD2     C 3972   3.285   2.608   1.187  0.0393 -0.4034  0.3995
  259MPD2    C1 3973   3.408   2.546   1.175 -0.0554 -0.5264 -0.6803
  259MPD2    C2 3974   3.480   2.552   1.058 -0.2672  0.0321 -0.3799
  259MPD2    C3 3975   3.427   2.619   0.951 -0.7713  0.4066 -0.0516
  259MPD2    C4 3976   3.299   2.663   0.952 -0.1337  0.7299 -0.1369
  259MPD2    C5 3977   3.239   2.668   1.071  0.5695  0.4902 -0.5299
  259MPD2     H 3978   3.581   2.514   1.053 -0.6835 -1.1991  0.2665
  259MPD2    H1 3979   3.251   2.700   0.863 -0.5745 -1.5206 -0.8189
  259MPD2    H2 3980   3.220   2.619   1.273 -0.1251 -1.6360  0.4391
  259MPD2    H3 3981   3.138   2.707   1.079  0.0729 -0.8876  0.1305
  259MPD2     N 3982   3.500   2.605   0.836 -0.0323  0.2083  0.1045
  259MPD2    H5 3983   3.573   2.534   0.839  2.7440  3.1876  2.0730
  259MPD2    N1 3984   3.450   2.474   1.289 -0.4332 -0.0557  0.2130
  259MPD2    H7 3985   3.380   2.471   1.363 -0.5345 -0.2729  0.1070
  260TMC3    C1 3986   3.532   2.563   0.615  0.6340 -0.0128 -0.2163
  260TMC3    C2 3987   3.617   2.608   0.518  0.2339  0.0839  0.5277
  260TMC3    C3 3988   3.666   2.521   0.428 -0.2113 -0.1232 -0.0427
  260TMC3    C4 3989   3.510   2.430   0.627 -0.1937  0.1712 -0.1404
  260TMC3    C5 3990   3.569   2.344   0.542  0.6229  0.3869  0.2438
  260TMC3    C6 3991   3.642   2.384   0.432 -0.2489 -0.4133 -0.1506
  260TMC3     C 3992   3.467   2.649   0.712  0.4743 -0.1757 -0.3314
  260TMC3     O 3993   3.381   2.733   0.680  0.1512 -0.2412  0.8240
  260TMC3     H 3994   3.630   2.715   0.510  0.4497  0.0353  0.2381
  260TMC3    H1 3995   3.462   2.391   0.716 -0.8713 -2.5647 -1.7161
  260TMC3    H2 3996   3.686   2.319   0.357 -0.0907 -0.2441 -0.2033
  260TMC3    C7 3997   3.548   2.203   0.574  0.6435  0.5633  0.0266
  260TMC3    C8 3998   3.764   2.569   0.330  0.2204 -0.1758  0.1829
  260TMC3    O1 3999   3.490   2.171   0.675  0.0603 -0.2256  0.1091
  260TMC3    O2 4000   3.755   2.686   0.296  0.7231  0.0125  0.1470
  261MPD2     C 4001   0.397   1.062  12.781 -0.6395 -0.5273 -0.4438
  261MPD2    C1 4002   0.450   0.940  12.730  0.6014 -0.0835 -0.0844
  261MPD2    C2 4003   0.409   0.897  12.604  0.2662 -0.1892  0.6610
  261MPD2    C3 4004   0.329   0.984  12.528 -0.0176 -0.8085  0.2874
  261MPD2    C4 4005   0.271   1.099  12.581  0.0507  0.5414 -0.7837
  261MPD2    C5 4006   0.312   1.141  12.704 -0.1201  0.0424 -0.1918
  261MPD2     H 4007   0.449   0.800  12.574 -2.4919 -0.9983 -0.4249
  261MPD2    H1 4008   0.219   1.172  12.520  1.9624  0.0989 -2.9378
  261MPD2    H2 4009   0.437   1.099  12.874  1.7505 -0.8638 -1.3401
  261MPD2    H3 4010   0.283   1.239  12.742 -2.6186 -1.4417  1.7599
  261MPD2     N 4011   0.293   0.941  12.398 -0.6153  0.4442  0.5431
  261MPD2    H5 4012   0.328   0.848  12.381  0.9727  1.5604 -2.2353
  261MPD2    N1 4013   0.537   0.857  12.806 -0.2887 -0.8771  0.5169
  261MPD2    H7 4014   0.575   0.776  12.758 -0.0529  0.0675 -0.8820
  262TMC3    C1 4015   0.180   0.928  12.186  0.0638  0.6006  0.1078
  262TMC3    C2 4016   0.050   0.957  12.142  0.6601 -0.4149  0.3136
  262TMC3    C3 4017   0.025   0.961  12.006  0.0312 -0.3036  0.1061
  262TMC3    C4 4018   0.282   0.891  12.103 -0.1686  0.6228  0.1013
  262TMC3    C5 4019   0.251   0.883  11.974  0.6517 -0.0649 -1.1054
  262TMC3    C6 4020   0.122   0.913  11.924  0.4500  0.9062  0.7019
  262TMC3     C 4021   0.212   1.002  12.309  0.0724  0.1875  0.3901
  262TMC3     O 4022   0.155   1.110  12.320  0.0566 -0.0409  0.0774
  262TMC3     H 4023   4.726   1.004  12.217  1.1137  1.2817 -0.3705
  262TMC3    H1 4024   0.386   0.903  12.132  0.0717  0.3451 -0.6339
  262TMC3    H2 4025   0.096   0.904  11.819  1.0531 -0.6182  0.6915
  262TMC3    C7 4026   0.353   0.934  11.891  0.3743 -0.0520 -0.3169
  262TMC3    C8 4027   4.703   1.080  11.952  0.6715  0.9608 -0.0436
  262TMC3    O1 4028   0.464   0.886  11.907 -0.0412  0.1854 -0.4710
  262TMC3    O2 4029   0.033   1.119  11.856 -0.3412  0.0418 -0.2466
  263MPD2     C 4030   1.069   0.030  11.864  0.2301 -0.2030 -0.4365
  263MPD2    C1 4031   1.156   0.119  11.805 -0.3019  0.0227 -0.5103
  263MPD2    C2 4032   1.108   0.198  11.704 -0.1788  0.0770 -0.7995
  263MPD2    C3 4033   0.980   0.180  11.661  0.2690  0.7622  0.2635
  263MPD2    C4 4034   0.894   0.091  11.717 -0.3215 -0.6027 -0.1873
  263MPD2    C5 4035   0.942   0.012  11.822 -0.1533  0.7484  1.1608
  263MPD2     H 4036   1.163   0.278  11.657  0.8997 -0.3640 -0.2948
  263MPD2    H1 4037   0.790   0.091  11.689 -0.2733 -1.1034 -0.3774
  263MPD2    H2 4038   1.114   4.707  11.941 -1.1385 -0.0897  0.4572
  263MPD2    H3 4039   0.861   4.700  11.874 -0.8471  1.4996  0.8192
  263MPD2     N 4040   0.943   0.271  11.557  0.1970  0.1851 -0.5856
  263MPD2    H5 4041   1.012   0.342  11.535  1.2639 -0.5662  0.3257
  263MPD2    N1 4042   1.289   0.120  11.851 -0.5510 -0.5500  0.2918
  263MPD2    H7 4043   1.305   0.040  11.911  0.1005  0.3744  1.3460
  264TMC3    C1 4044   0.827   0.394  11.419  0.0827  0.5908 -0.5808
  264TMC3    C2 4045   0.821   0.515  11.489 -0.1457 -0.2442  0.6877
  264TMC3    C3 4046   0.852   0.629  11.416 -0.2871  0.2811  0.2592
  264TMC3    C4 4047   0.857   0.387  11.284 -0.0978  0.0802  0.2359
  264TMC3    C5 4048   0.876   0.498  11.215 -0.8751  0.3975 -0.2135
  264TMC3    C6 4049   0.878   0.619  11.280  0.0524 -0.4173  0.2323
  264TMC3     C 4050   0.819   0.273  11.497  0.0701 -0.4350 -0.2414
  264TMC3     O 4051   0.716   0.208  11.499 -0.4378 -0.4880 -0.2671
  264TMC3     H 4052   0.820   0.524  11.597  0.9046 -2.6866  0.8967
  264TMC3    H1 4053   0.862   0.290  11.235  1.6596  0.3176 -0.0384
  264TMC3    H2 4054   0.871   0.717  11.234  0.5673  0.0330  1.1217
  264TMC3    C7 4055   0.938   0.502  11.081 -0.0065 -0.8850 -0.2605
  264TMC3    C8 4056   0.904   0.753  11.477  0.3878 -0.3017  0.1064
  264TMC3    O1 4057   0.997   0.604  11.053 -0.4118  0.1058 -0.1257
  264TMC3    O2 4058   0.928   0.844  11.401  0.6667 -0.1340 -0.3563
  265MPD2     C 4059   3.605   0.214  15.625 -0.6987  0.0512  0.3594
  265MPD2    C1 4060   3.647   0.316  15.541 -0.0211 -0.0927  0.3167
  265MPD2    C2 4061   3.727   0.289  15.437 -0.6958  0.3279  0.5706
  265MPD2    C3 4062   3.767   0.159  15.413  0.6445 -0.0380  0.3086
  265MPD2    C4 4063   3.739   0.063  15.505  0.6077 -0.1842 -0.2561
  265MPD2    C5 4064   3.652   0.086  15.608  0.3480 -0.4160 -0.1851
  265MPD2     H 4065   3.759   0.369  15.371 -0.1127  1.0163  1.6774
  265MPD2    H1 4066   3.770   4.700  15.485  1.3840 -0.5818  3.0490
  265MPD2    H2 4067   3.562   0.243  15.720  0.2344  1.9495  0.2056
  265MPD2    H3 4068   3.630   0.003  15.674 -0.4714 -0.1752 -0.1587
  265MPD2     N 4069   3.855   0.117  15.305 -0.2818 -0.1968 -0.5135
  265MPD2    H5 4070   3.868   0.017  15.294  2.2539  0.2662 -1.6343
  265MPD2    N1 4071   3.614   0.450  15.563  0.2529 -0.4780  0.5913
  265MPD2    H7 4072   3.660   0.516  15.502  0.8775 -0.3779  1.1695
  266TMC3    C1 4073   3.526   0.649  15.664  0.1609 -0.4065 -0.0451
  266TMC3    C2 4074   3.537   0.704  15.792  0.3479  0.8422 -0.2183
  266TMC3    C3 4075   3.576   0.833  15.803 -0.5658 -0.9960 -0.3715
  266TMC3    C4 4076   3.528   0.723  15.554 -0.0695 -0.6294  0.4885
  266TMC3    C5 4077   3.550   0.859  15.572 -0.7529 -0.0792 -0.0995
  266TMC3    C6 4078   3.587   0.918  15.692 -1.1045 -1.1309 -0.0617
  266TMC3     C 4079   3.533   0.503  15.659  0.4787 -0.7446  0.3402
  266TMC3     O 4080   3.471   0.444  15.749 -0.2441 -0.0049 -0.1528
  266TMC3     H 4081   3.519   0.639  15.877  0.4762  0.6589 -0.3300
  266TMC3    H1 4082   3.502   0.681  15.458 -1.2934  1.6053 -0.1615
  266TMC3    H2 4083   3.642   1.010  15.708 -1.2741 -0.6337 -2.3767
  266TMC3    C7 4084   3.577   0.932  15.454  0.5959  0.3791  0.2207
  266TMC3    C8 4085   3.652   0.863  15.920 -0.2485  0.7405 -0.2797
  266TMC3    O1 4086   3.608   0.860  15.360 -0.0110  0.7145 -0.1967
  266TMC3    O2 4087   3.704   0.764  15.970  0.3506 -0.3366  0.7898
  267MPD2     C 4088   1.473   2.712  17.548  0.7119  0.1415  0.1068
  267MPD2    C1 4089   1.364   2.630  17.555  0.2658  0.2050  0.0093
  267MPD2    C2 4090   1.251   2.665  17.494  0.0706  0.0702 -0.3119
  267MPD2    C3 4091   1.237   2.781  17.422  0.0566 -0.1105  0.3612
  267MPD2    C4 4092   1.346   2.867  17.426  0.1585  0.2205  0.0248
  267MPD2    C5 4093   1.463   2.833  17.477 -0.2148 -0.4916 -0.3197
  267MPD2     H 4094   1.164   2.601  17.500 -0.5896  0.7899 -1.8786
  267MPD2    H1 4095   1.329   2.969  17.393 -0.4181 -0.0306 -0.4529
  267MPD2    H2 4096   1.565   2.694  17.602  1.2871 -1.9806 -1.5859
  267MPD2    H3 4097   1.551   2.897  17.473  0.4766 -1.3250  1.3449
  267MPD2     N 4098   1.131   2.820  17.337 -0.1443  0.1953 -0.2895
  267MPD2    H5 4099   1.149   2.893  17.268  1.8440 -0.1371 -0.1425
  267MPD2    N1 4100   1.391   2.497  17.603  0.3841 -0.4274 -0.8644
  267MPD2    H7 4101   1.482   2.478  17.644 -0.4356 -2.2727  0.0786
  268TMC3    C1 4102   1.350   2.279  17.642  0.0746  0.2811 -0.2832
  268TMC3    C2 4103   1.317   2.166  17.570 -0.8252 -0.9021  0.0814
  268TMC3    C3 4104   1.385   2.052  17.597  0.3255 -0.1172 -0.5557
  268TMC3    C4 4105   1.447   2.277  17.739 -0.0958 -0.7175 -0.4688
  268TMC3    C5 4106   1.515   2.158   0.011  0.0208 -0.3868 -0.6540
  268TMC3    C6 4107   1.476   2.044  17.698  0.0886 -0.1671  0.1022
  268TMC3     C 4108   1.292   2.398  17.602  0.1876  0.2504  0.7148
  268TMC3     O 4109   1.174   2.395  17.567  0.2271  0.5436 -0.2416
  268TMC3     H 4110   1.258   2.175  17.479  1.4640 -3.7043 -1.6828
  268TMC3    H1 4111   1.460   2.366   0.047 -0.0986 -0.0576 -1.4580
  268TMC3    H2 4112   1.520   1.948  17.718  1.1720 -0.5395 -3.9651
  268TMC3    C7 4113   1.596   2.136   0.128 -0.2637  0.0567 -0.0631
  268TMC3    C8 4114   1.383   1.937  17.507  0.6502 -0.1205 -0.1514
  268TMC3    O1 4115   1.654   2.031   0.146  0.1172  0.3112  0.2103
  268TMC3    O2 4116   1.466   1.852  17.520  0.2288  0.0100 -0.1773
  269MPD2     C 4117   1.662   1.235  15.660  0.6668 -0.0311  0.1465
  269MPD2    C1 4118   1.543   1.265  15.724 -0.4352 -0.2203  0.3454
  269MPD2    C2 4119   1.482   1.388  15.702  0.5167 -0.4533 -0.4202
  269MPD2    C3 4120   1.531   1.480  15.609  0.0850  0.2493 -0.0693
  269MPD2    C4 4121   1.650   1.456  15.543 -0.1311 -0.3747  0.0936
  269MPD2    C5 4122   1.708   1.331  15.574  0.8641 -0.6399 -0.6493
  269MPD2     H 4123   1.389   1.411  15.752  1.3605 -0.5010  1.1728
  269MPD2    H1 4124   1.693   1.522  15.469 -1.2832  0.1662 -0.0942
  269MPD2    H2 4125   1.702   1.134  15.661 -0.5116 -0.4447  4.0460
  269MPD2    H3 4126   1.805   1.321  15.526  1.3592  1.2156 -0.0154
  269MPD2     N 4127   1.457   1.601  15.584  0.4712 -0.2692 -0.1198
  269MPD2    H5 4128   1.388   1.630  15.653  1.0930  0.9181  0.0079
  269MPD2    N1 4129   1.489   1.167  15.809  0.2504  0.3749 -0.3519
  269MPD2    H7 4130   1.530   1.076  15.793  0.6375  1.0703 -3.3650
  270TMC3    C1 4131   1.333   1.047  15.934  0.0135 -0.4957  0.6972
  270TMC3    C2 4132   1.202   1.032  15.904  0.0765  0.2642 -1.1846
  270TMC3    C3 4133   1.144   0.910  15.904  0.2859 -0.1972 -0.0170
  270TMC3    C4 4134   1.412   0.935  15.952 -0.2749 -0.7304 -0.0682
  270TMC3    C5 4135   1.349   0.810  15.944 -0.2172  0.1266 -0.4669
  270TMC3    C6 4136   1.214   0.796  15.922 -0.1747 -0.1414  0.5435
  270TMC3     C 4137   1.381   1.178  15.894 -0.3105  0.2495  0.4866
  270TMC3     O 4138   1.307   1.276  15.915  0.0336  0.1652 -0.2860
  270TMC3     H 4139   1.141   1.114  15.866 -1.5150 -0.9205 -1.1735
  270TMC3    H1 4140   1.519   0.945  15.965  0.1500 -1.7318 -2.8152
  270TMC3    H2 4141   1.158   0.704  15.909 -0.4443 -0.0192  0.8192
  270TMC3    C7 4142   1.435   0.717  15.868 -0.7441  0.2545 -0.4569
  270TMC3    C8 4143   1.030   0.896  15.810 -0.1467 -0.5167  0.6330
  270TMC3    O1 4144   1.556   0.708  15.890  0.3731  0.1682 -0.2002
  270TMC3    O2 4145   0.933   0.833  15.855  0.1706  0.0782  0.6634
  271MPD2     C 4146   0.622   0.723  13.999  0.4080 -0.4214 -0.2937
  271MPD2    C1 4147   0.554   0.719  14.120 -0.3571 -0.0506  1.3358
  271MPD2    C2 4148   0.420   0.760  14.126 -0.0532 -0.0410  0.0891
  271MPD2    C3 4149   0.358   0.797  14.005 -0.5445 -0.5971  0.4551
  271MPD2    C4 4150   0.431   0.807  13.888 -0.0366 -0.2525 -0.5448
  271MPD2    C5 4151   0.565   0.767  13.881  0.5460  0.1858 -0.5673
  271MPD2     H 4152   0.361   0.747  14.216  2.8045 -0.0726  1.9503
  271MPD2    H1 4153   0.376   0.845  13.802  0.5837 -0.4214 -1.0148
  271MPD2    H2 4154   0.724   0.685  13.992  0.7669  0.6001 -0.6492
  271MPD2    H3 4155   0.622   0.777  13.789  2.5036  1.0030  0.7543
  271MPD2     N 4156   0.225   0.833  14.001  0.1506  0.3170 -0.0041
  271MPD2    H5 4157   0.193   0.897  13.929  2.1919 -0.6272 -1.7507
  271MPD2    N1 4158   0.616   0.684  14.245  0.2024 -0.1321  0.4536
  271MPD2    H7 4159   0.576   0.718  14.332  0.8878  0.5062  0.5079
  272TMC3    C1 4160   0.780   0.608  14.392 -0.5183  0.3994 -1.0579
  272TMC3    C2 4161   0.915   0.578  14.407 -0.1799  0.0590  0.0103
  272TMC3    C3 4162   0.968   0.585  14.533  0.0351 -0.1357 -0.6751
  272TMC3    C4 4163   0.709   0.657  14.501 -0.5616 -0.0415  0.8481
  272TMC3    C5 4164   0.772   0.645  14.624 -0.2553  0.1271  0.6495
  272TMC3    C6 4165   0.898   0.606  14.641 -1.0791  0.5446  0.1281
  272TMC3     C 4166   0.741   0.629  14.254  0.4626  0.1300 -0.1823
  272TMC3     O 4167   0.806   0.574  14.165 -0.2835  0.8790  0.2273
  272TMC3     H 4168   0.976   0.555  14.321  1.6949  2.3285  0.7363
  272TMC3    H1 4169   0.605   0.688  14.497 -0.0251  1.6410 -0.0600
  272TMC3    H2 4170   0.947   0.597  14.737 -1.9218  0.6213  0.5618
  272TMC3    C7 4171   0.703   0.712  14.730 -0.1134  0.1554 -0.1812
  272TMC3    C8 4172   1.114   0.585  14.547  0.4059 -0.3472 -0.1118
  272TMC3    O1 4173   0.582   0.714  14.729  0.6206 -0.2715  0.3556
  272TMC3    O2 4174   1.162   0.631  14.443  0.3126  0.2263 -0.6813
  273MPD2     C 4175   1.503   3.834  11.723 -0.2285  0.2457  0.5170
  273MPD2    C1 4176   1.587   3.942  11.723 -0.2446 -0.2353  0.4650
  273MPD2    C2 4177   1.618   4.010  11.606 -0.4142  0.6221 -0.3180
  273MPD2    C3 4178   1.571   3.959  11.482  0.3534 -0.3869  0.7173
  273MPD2    C4 4179   1.495   3.837  11.489 -0.0038 -0.3091  0.5171
  273MPD2    C5 4180   1.453   3.785  11.606 -0.2530 -0.3482  0.2194
  273MPD2     H 4181   1.687   4.092  11.602  0.0412  0.2042 -1.0516
  273MPD2    H1 4182   1.463   3.791  11.396 -0.9421 -1.6636  1.5291
  273MPD2    H2 4183   1.468   3.791  11.817  0.3372  3.2958  2.1081
  273MPD2    H3 4184   1.389   3.697  11.603 -1.0069  0.1969  0.2008
  273MPD2     N 4185   1.623   3.999  11.356 -0.0948  0.1690  0.5520
  273MPD2    H5 4186   1.596   3.938  11.279  2.4293  1.5719 -1.4968
  273MPD2    N1 4187   1.640   3.969  11.850  0.0847 -0.2394  0.8591
  273MPD2    H7 4188   1.601   3.918  11.929 -0.7207  1.0758  1.3084
  274TMC3    C1 4189   1.774   4.108  11.206  0.3056 -0.9446  0.7157
  274TMC3    C2 4190   1.697   4.101  11.095  0.4612 -0.2755  0.3237
  274TMC3    C3 4191   1.737   4.172  10.978 -0.1012 -0.1524 -0.1311
  274TMC3    C4 4192   1.882   4.187  11.205 -0.3767 -0.0504  0.5564
  274TMC3    C5 4193   1.922   4.255  11.095 -0.6559 -0.2055  0.0185
  274TMC3    C6 4194   1.861   4.238  10.972  0.0497 -0.7809  0.8264
  274TMC3     C 4195   1.713   4.100  11.339 -0.0847  0.8352 -0.6695
  274TMC3     O 4196   1.762   4.179  11.418  0.0257  0.3209 -0.0469
  274TMC3     H 4197   1.613   4.034  11.094 -1.6897  2.4084  0.8550
  274TMC3    H1 4198   1.953   4.184  11.287  0.6456  0.2643 -0.3094
  274TMC3    H2 4199   1.892   4.299  10.888 -0.3142 -1.2995  0.3182
  274TMC3    C7 4200   1.977   4.383  11.126 -0.5447 -0.4707 -1.4041
  274TMC3    C8 4201   1.670   4.146  10.849  0.0004 -0.0139 -0.3124
  274TMC3    O1 4202   2.015   4.443  11.025  0.6925  0.1856 -0.1201
  274TMC3    O2 4203   1.572   4.075  10.846 -0.0963  0.3133  0.9733
  275MPD2     C 4204   2.098   1.672  14.527  0.1763  1.1626  0.3457
  275MPD2    C1 4205   2.017   1.750  14.606  0.6111  0.8716  1.0489
  275MPD2    C2 4206   1.880   1.751  14.580 -0.0001  0.3080 -0.6699
  275MPD2    C3 4207   1.833   1.674  14.477  0.3535  0.1506 -0.1292
  275MPD2    C4 4208   1.918   1.599  14.393 -0.6119 -0.1106  0.3534
  275MPD2    C5 4209   2.052   1.598  14.419 -0.2301  0.1005  0.1103
  275MPD2     H 4210   1.814   1.812  14.641  0.2836 -0.7124  0.6566
  275MPD2    H1 4211   1.889   1.526  14.318  1.4444 -2.7411  2.0952
  275MPD2    H2 4212   2.201   1.664  14.560  0.4909 -1.4800 -1.3537
  275MPD2    H3 4213   2.121   1.537  14.362  2.4236  2.1370  1.1442
  275MPD2     N 4214   1.698   1.668  14.446 -0.5565 -0.0963  0.1852
  275MPD2    H5 4215   1.668   1.588  14.391 -1.8087 -0.4977  1.4460
  275MPD2    N1 4216   2.057   1.817  14.721 -0.9057  0.3897  0.0876
  275MPD2    H7 4217   1.986   1.841  14.789 -1.1414 -0.7182  0.2322
  276TMC3    C1 4218   2.197   1.936  14.870  0.5416 -0.4410  0.4589
  276TMC3    C2 4219   2.108   1.906  14.965  0.2905  0.4796  0.0465
  276TMC3    C3 4220   2.104   1.978  15.080 -0.6479  0.2255  0.3454
  276TMC3    C4 4221   2.272   2.046  14.867  0.9174  0.6898  0.5071
  276TMC3    C5 4222   2.268   2.120  14.981 -0.0036 -0.0948 -0.3337
  276TMC3    C6 4223   2.183   2.090  15.085 -0.2788  0.3810  0.3851
  276TMC3     C 4224   2.186   1.873  14.742 -0.3252  0.1986 -0.5150
  276TMC3     O 4225   2.276   1.902  14.662  0.2815  0.0082 -0.0121
  276TMC3     H 4226   2.051   1.815  14.960 -2.2825  2.1317 -0.8374
  276TMC3    H1 4227   2.341   2.069  14.787  0.4086  4.4208  1.1276
  276TMC3    H2 4228   2.183   2.147  15.177  0.7458 -2.3734  2.0735
  276TMC3    C7 4229   2.387   2.190  15.013  0.5194 -0.0573  0.1568
  276TMC3    C8 4230   2.100   1.900  15.195 -0.1453  1.0978 -0.4845
  276TMC3    O1 4231   2.418   2.189  15.130 -0.3087 -0.1179 -0.3477
  276TMC3    O2 4232   2.107   1.963  15.301  0.2228 -0.1959  0.5722
  277MPD2     C 4233   4.023   0.954  13.356 -0.0440 -0.8939 -0.2653
  277MPD2    C1 4234   3.886   0.945  13.372  0.5134 -0.5263 -0.5293
  277MPD2    C2 4235   3.832   0.856  13.464  0.1067 -0.2454  0.1317
  277MPD2    C3 4236   3.913   0.769  13.536  0.0692 -0.7745  0.0172
  277MPD2    C4 4237   4.049   0.767  13.506  0.7294  0.1508  0.1032
  277MPD2    C5 4238   4.103   0.867  13.429  0.0288 -0.1580  0.7578
  277MPD2     H 4239   3.725   0.849  13.479 -0.3174 -0.2344 -2.7777
  277MPD2    H1 4240   4.123   0.710  13.563  1.2263  1.9078  1.2054
  277MPD2    H2 4241   4.074   1.042  13.318 -2.5112  0.2886 -0.7818
  277MPD2    H3 4242   4.211   0.873  13.424 -0.0230 -0.1295 -0.3485
  277MPD2     N 4243   3.854   0.696  13.638  0.0789 -0.4802 -0.0215
  277MPD2    H5 4244   3.756   0.717  13.656 -0.0819 -0.2615 -1.1613
  277MPD2    N1 4245   3.799   1.037  13.306  0.2791 -0.2082 -0.0502
  277MPD2    H7 4246   3.840   1.107  13.244  0.0421  0.8706  1.0051
  278TMC3    C1 4247   3.817   0.551  13.813 -0.2593  0.3365  0.1058
  278TMC3    C2 4248   3.778   0.418  13.791 -0.3898  0.0527 -0.8723
  278TMC3    C3 4249   3.649   0.385  13.797  0.3935 -0.3038 -0.0728
  278TMC3    C4 4250   3.730   0.648  13.849  0.4611  0.0865 -0.4419
  278TMC3    C5 4251   3.593   0.612  13.843 -0.0720  0.2724  0.2300
  278TMC3    C6 4252   3.554   0.477  13.827  0.3536 -0.0802  0.3450
  278TMC3     C 4253   3.919   0.603  13.719  0.2291 -0.2139  0.2321
  278TMC3     O 4254   4.023   0.540  13.694  0.0335 -0.0572 -0.3210
  278TMC3     H 4255   3.856   0.344  13.783  2.0120  2.7131 -2.1925
  278TMC3    H1 4256   3.765   0.747  13.872  0.4023  0.5349 -2.2947
  278TMC3    H2 4257   3.451   0.447  13.838  0.4311 -0.8814 -0.9985
  278TMC3    C7 4258   3.520   0.716  13.771 -0.6214  0.4183 -0.4081
  278TMC3    C8 4259   3.625   0.240  13.810 -0.2786 -1.1064  0.2585
  278TMC3    O1 4260   3.585   0.813  13.737  0.4929  0.3979 -0.2923
  278TMC3    O2 4261   3.720   0.166  13.819 -0.2422 -0.3620  0.0582
  279MPD2     C 4262   3.031   1.027   0.516 -0.0664 -0.0421 -0.4648
  279MPD2    C1 4263   2.948   0.923   0.474 -0.4853  0.4118  0.1146
  279MPD2    C2 4264   2.973   0.880   0.347  0.3352  0.6767  0.0120
  279MPD2    C3 4265   3.066   0.934   0.263 -0.0222  0.4178 -0.5309
  279MPD2    C4 4266   3.134   1.043   0.304 -0.2363 -0.0024  0.0203
  279MPD2    C5 4267   3.125   1.083   0.438  0.3807  0.0885 -0.0235
  279MPD2     H 4268   2.924   0.792   0.306 -0.3321  0.7959  0.5596
  279MPD2    H1 4269   3.216   1.087   0.248 -0.0405  0.6109  0.7921
  279MPD2    H2 4270   3.014   1.061   0.618 -1.3746 -1.7186 -0.1207
  279MPD2    H3 4271   3.193   1.162   0.467 -1.9062  2.1438 -0.3271
  279MPD2     N 4272   3.084   0.890   0.127 -0.8453  0.0435  0.1815
  279MPD2    H5 4273   3.152   0.945   0.076 -0.9250 -1.6462 -1.6892
  279MPD2    N1 4274   2.829   0.896   0.547  0.1061 -0.4382 -0.5495
  279MPD2    H7 4275   2.807   0.941   0.635  1.3624  0.5732 -0.7657
  280TMC3    C1 4276   2.597   0.872   0.547 -0.0657 -0.2830 -0.3813
  280TMC3    C2 4277   2.496   0.792   0.501  0.5730 -0.2218 -0.1210
  280TMC3    C3 4278   2.401   0.843   0.425 -0.5627  0.1218 -0.3237
  280TMC3    C4 4279   2.587   1.010   0.526 -0.7428  0.4741 -0.2311
  280TMC3    C5 4280   2.482   1.061   0.456  0.2445 -0.1201 -0.2715
  280TMC3    C6 4281   2.386   0.978   0.407 -0.1440 -0.1455 -0.5024
  280TMC3     C 4282   2.723   0.824   0.497  0.1841 -0.4397  0.3052
  280TMC3     O 4283   2.708   0.753   0.392  0.2573 -0.1003 -0.9316
  280TMC3     H 4284   2.497   0.685   0.521  0.8337 -0.4817 -1.5621
  280TMC3    H1 4285   2.669   1.070   0.563 -0.3444  0.0748 -0.4656
  280TMC3    H2 4286   2.303   1.025   0.355 -0.4552 -0.2467 -0.1026
  280TMC3    C7 4287   2.482   1.202   0.414  0.5234  0.1507 -0.7139
  280TMC3    C8 4288   2.364   0.770   0.304  0.0733 -0.6214  0.5128
  280TMC3    O1 4289   2.546   1.279   0.480  0.2933  0.4084 -1.0138
  280TMC3    O2 4290   2.272   0.805   0.232  0.4607 -0.1669  0.2489
  281TMC3    C1 4291   1.912   0.864  13.965  0.7582 -0.1622  1.1284
  281TMC3    C2 4292   2.008   0.916  13.878 -0.6085 -0.7329  0.2049
  281TMC3    C3 4293   2.122   0.980  13.925 -0.1082 -0.8439  0.3327
  281TMC3    C4 4294   1.927   0.880  14.101 -0.0218 -0.7322  0.3921
  281TMC3    C5 4295   2.039   0.951  14.144 -0.2897 -0.5102  0.1352
  281TMC3    C6 4296   2.128   1.006  14.055  0.8302  0.2239  0.0626
  281TMC3     C 4297   1.781   0.889  13.909  0.7144  0.3651 -0.7233
  281TMC3     O 4298   1.709   0.802  13.873 -0.3946 -0.0013 -0.1172
  281TMC3     H 4299   1.986   0.890  13.775 -1.0072 -1.3640  0.4461
  281TMC3    H1 4300   1.844   0.860  14.168  0.0309 -2.0729  0.0631
  281TMC3    H2 4301   2.203   1.080  14.082  0.7527  0.2927  0.0867
  281TMC3    C7 4302   2.107   0.901  14.260 -0.2888 -0.0563 -0.4324
  281TMC3    C8 4303   2.200   1.072  13.840 -0.1954 -0.1397  1.2537
  281TMC3    O1 4304   2.230   0.917  14.254 -0.1952  0.2823  0.1151
  281TMC3    O2 4305   2.284   1.144  13.894  0.3599  0.0955 -0.3381
  282MPD2     C 4306   3.327   2.479  14.979 -0.2735 -0.0320 -0.1535
  282MPD2    C1 4307   3.304   2.608  15.023  0.0402 -0.1562  0.0624
  282MPD2    C2 4308   3.228   2.693  14.949  0.2013  0.5976  0.1941
  282MPD2    C3 4309   3.177   2.652  14.826  0.3008 -0.3171 -0.3582
  282MPD2    C4 4310   3.210   2.529  14.772 -0.2702 -0.2423  0.1150
  282MPD2    C5 4311   3.286   2.447  14.848 -0.4257 -0.4405 -0.0000
  282MPD2     H 4312   3.218   2.796  14.982 -2.9906  0.6027 -0.8581
  282MPD2    H1 4313   3.176   2.490  14.677 -0.2572  1.5299 -0.6127
  282MPD2    H2 4314   3.368   2.396  15.037 -0.1320  2.7772  3.7298
  282MPD2    H3 4315   3.312   2.347  14.816 -0.4277 -0.1839 -0.7860
  282MPD2     N 4316   3.110   2.752  14.750  0.1496 -0.3376  0.0870
  282MPD2    H5 4317   3.103   2.845  14.789 -0.5653 -0.0480 -0.7254
  282MPD2    N1 4318   3.354   2.654  15.145  0.1624 -0.2778 -0.6940
  282MPD2    H7 4319   3.319   2.746  15.170 -0.4954 -0.8114  0.3445
  283TMC3    C1 4320   3.467   2.646  15.355  1.3912 -0.4647  0.6989
  283TMC3    C2 4321   3.448   2.784  15.368  0.0896  0.3127 -0.3092
  283TMC3    C3 4322   3.487   2.850  15.486  0.1030 -0.3675 -0.1654
  283TMC3    C4 4323   3.491   2.565  15.470  0.1244  0.0881 -0.3934
  283TMC3    C5 4324   3.497   2.636  15.591 -0.6293  0.2475  0.7187
  283TMC3    C6 4325   3.500   2.778  15.603 -0.5904  0.1922 -0.0330
  283TMC3     C 4326   3.432   2.574  15.232 -0.1248  0.4682  0.2780
  283TMC3     O 4327   3.483   2.461  15.221 -0.0593 -0.0218  0.9566
  283TMC3     H 4328   3.435   2.844  15.279  2.3334 -0.5061 -1.1904
  283TMC3    H1 4329   3.485   2.457  15.468 -1.4955  0.2088 -1.6304
  283TMC3    H2 4330   3.499   2.816  15.704  0.0219  2.1993 -0.7772
  283TMC3    C7 4331   3.488   2.557  15.712 -0.2508 -0.1880 -0.4118
  283TMC3    C8 4332   3.465   2.999  15.489  0.3039  0.4154  1.1297
  283TMC3    O1 4333   3.419   2.460  15.718 -0.1969 -0.0604 -0.2078
  283TMC3    O2 4334   3.478   3.046  15.378  0.2727 -0.5505 -0.0799
  284MPD2     C 4335   0.868   1.839  12.143  0.1609  0.6495 -0.4523
  284MPD2    C1 4336   0.996   1.854  12.184 -0.0145 -0.5721 -0.3857
  284MPD2    C2 4337   1.051   1.754  12.260  0.1750 -0.2304 -0.2481
  284MPD2    C3 4338   0.983   1.641  12.292  0.1923 -0.3928  0.6835
  284MPD2    C4 4339   0.848   1.621  12.251 -0.0977 -0.5235 -0.6445
  284MPD2    C5 4340   0.794   1.725  12.180 -0.0151 -0.5186 -0.3103
  284MPD2     H 4341   1.150   1.778  12.298 -0.9757  1.5591  1.6321
  284MPD2    H1 4342   0.787   1.538  12.283 -1.0184  0.9280  1.3771
  284MPD2    H2 4343   0.812   1.917  12.092 -0.2878  1.8218  1.8139
  284MPD2    H3 4344   0.698   1.715  12.129  0.9005  0.9384 -2.3437
  284MPD2     N 4345   1.038   1.536  12.370  0.1799 -0.0390 -0.6875
  284MPD2    H5 4346   0.981   1.454  12.387 -2.9312  2.2423 -0.0708
  284MPD2    N1 4347   1.073   1.972  12.154  0.0725  0.0836  0.2682
  284MPD2    H7 4348   1.170   1.973  12.183  0.6519 -2.0015 -1.5865
  285TMC3    C1 4349   1.138   2.180  12.074 -0.5056  0.0102  0.5598
  285TMC3    C2 4350   1.255   2.125  12.037 -0.2375  0.4353  0.1529
  285TMC3    C3 4351   1.349   2.219  12.003  0.3145 -0.4659 -0.5515
  285TMC3    C4 4352   1.107   2.311  12.047  0.3040 -0.1197  0.5133
  285TMC3    C5 4353   1.209   2.395  12.007 -0.3822  0.7607 -0.4865
  285TMC3    C6 4354   1.329   2.352  11.989 -0.0787  0.6615  0.3676
  285TMC3     C 4355   1.032   2.083  12.094  0.1930  0.2681 -0.3776
  285TMC3     O 4356   0.916   2.122  12.060 -0.6316 -0.2905 -0.4603
  285TMC3     H 4357   1.273   2.018  12.040  0.2205  0.5019 -0.3030
  285TMC3    H1 4358   1.008   2.349  12.071 -0.0455 -1.2904  0.9551
  285TMC3    H2 4359   1.398   2.417  11.937  1.0671 -0.2520  0.7138
  285TMC3    C7 4360   1.157   2.505  11.920 -0.7489  0.5696  0.0952
  285TMC3    C8 4361   1.466   2.180  11.920 -0.3536  0.0721 -0.0338
  285TMC3    O1 4362   1.233   2.594  11.888  0.3775 -0.2424 -0.1039
  285TMC3    O2 4363   1.546   2.263  11.889 -0.2797  0.6313  0.5683
  286MPD2     C 4364   2.357   0.471   1.567  0.7601  0.5018  0.2465
  286MPD2    C1 4365   2.328   0.460   1.437  0.2737  0.7244  0.4320
  286MPD2    C2 4366   2.419   0.388   1.347 -0.5398  0.6212  0.8403
  286MPD2    C3 4367   2.531   0.331   1.394  0.0397 -0.4788  1.1735
  286MPD2    C4 4368   2.553   0.338   1.533  0.7945 -0.0165 -0.2094
  286MPD2    C5 4369   2.470   0.407   1.612  0.0046 -0.4913  0.2584
  286MPD2     H 4370   2.394   0.388   1.241  0.0629 -0.6105  0.7003
  286MPD2    H1 4371   2.636   0.291   1.584  1.0453  0.3676 -0.2657
  286MPD2    H2 4372   2.290   0.518   1.637  0.0773  0.5744 -0.4564
  286MPD2    H3 4373   2.492   0.392   1.717  0.5272 -0.8802  0.0945
  286MPD2     N 4374   2.619   0.254   1.323  1.0503  0.5216  0.0910
  286MPD2    H5 4375   2.701   0.214   1.368 -0.1430  1.0980  2.7189
  286MPD2    N1 4376   2.219   0.532   1.374  0.5335 -0.4245  1.1438
  286MPD2    H7 4377   2.208   0.533   1.273 -3.6089  1.1582  1.5957
  287TMC3    C1 4378   2.722   0.138   1.155  0.5712 -0.9328  0.4167
  287TMC3    C2 4379   2.715   0.052   1.044  0.1884 -0.0806 -0.1998
  287TMC3    C3 4380   2.829   4.730   1.017  0.1813 -0.7149  0.5970
  287TMC3    C4 4381   2.843   0.171   1.222  0.0419 -0.6366 -0.1878
  287TMC3    C5 4382   2.957   0.097   1.181  0.1863 -0.2586  0.2304
  287TMC3    C6 4383   2.953   0.007   1.075 -0.4156 -0.2669 -0.1857
  287TMC3     C 4384   2.604   0.209   1.195  0.3063  1.0409  0.8044
  287TMC3     O 4385   2.506   0.219   1.116 -0.0701  0.5200  0.2430
  287TMC3     H 4386   2.627   0.033   0.984 -0.5432  0.5110  0.6812
  287TMC3    H1 4387   2.853   0.244   1.302  0.7555 -0.9323 -0.0005
  287TMC3    H2 4388   3.037   4.685   1.045 -0.3898 -0.4729  0.3006
  287TMC3    C7 4389   3.075   0.137   1.249  0.3167 -0.0246  0.3819
  287TMC3    C8 4390   2.800   4.606   0.952 -0.1085 -0.2193 -0.0240
  287TMC3    O1 4391   3.055   0.185   1.362  0.2177  0.8843  0.4860
  287TMC3    O2 4392   2.696   4.549   0.988 -0.3746 -0.0521  0.2276
  288TMC3    C1 4393   4.163   0.145  14.518  0.4605  0.5283 -0.6101
  288TMC3    C2 4394   4.100   0.072  14.618  0.3746 -0.3070  0.3193
  288TMC3    C3 4395   3.958   0.059  14.613  0.4541 -0.0993 -0.4076
  288TMC3    C4 4396   4.096   0.228  14.426  0.1761 -0.1159 -0.5266
  288TMC3    C5 4397   3.959   0.216  14.419  0.4597  0.4575 -1.0194
  288TMC3    C6 4398   3.890   0.129  14.514  0.0585  0.6849 -0.3711
  288TMC3     C 4399   4.300   0.118  14.505  0.5825 -0.9021 -0.6372
  288TMC3     O 4400   4.342   0.007  14.546  0.2026  0.2489 -0.4527
  288TMC3     H 4401   4.157   0.042  14.705  0.9133  1.6020  0.6133
  288TMC3    H1 4402   4.156   0.297  14.368  0.5877  0.7988  0.9931
  288TMC3    H2 4403   3.782   0.127  14.516  0.0213  1.3964 -2.0566
  288TMC3    C7 4404   3.879   0.316  14.352 -0.3526 -0.4768  0.5808
  288TMC3    C8 4405   3.889   0.090  14.737 -0.4987 -0.0987 -1.2682
  288TMC3    O1 4406   3.937   0.418  14.328 -0.1582  0.1941 -0.6483
  288TMC3    O2 4407   3.929   0.187  14.805  0.4678  0.9108 -0.3857
  289MPD2     C 4408   3.973   4.111  14.314  0.4966 -0.0613 -0.3322
  289MPD2    C1 4409   3.958   4.248  14.304  0.5777  0.1407 -0.2401
  289MPD2    C2 4410   3.831   4.293  14.290 -0.3141 -0.5393  0.6735
  289MPD2    C3 4411   3.725   4.212  14.294 -0.7074  0.0941  0.3763
  289MPD2    C4 4412   3.731   4.079  14.312 -0.1770 -0.3514  0.7042
  289MPD2    C5 4413   3.856   4.030  14.326 -0.4290  0.4616 -0.4974
  289MPD2     H 4414   3.812   4.400  14.290 -0.7573 -0.6374 -3.8582
  289MPD2    H1 4415   3.644   4.016  14.320  0.3749 -0.9335  2.1668
  289MPD2    H2 4416   4.067   4.057  14.323 -0.8038 -2.1124  0.9189
  289MPD2    H3 4417   3.867   3.924  14.345 -2.5450  0.1149 -1.1688
  289MPD2     N 4418   3.591   4.261  14.280  0.5427  0.3171  0.2313
  289MPD2    H5 4419   3.519   4.189  14.279  0.6822  0.1809 -0.3149
  289MPD2    N1 4420   4.068   4.338  14.304  0.4277 -0.2222  0.1337
  289MPD2    H7 4421   4.160   4.295  14.314  0.7732  0.6512  0.7448
  290TMC3    C1 4422   3.401   4.400  14.261  0.2652  0.1361  0.1940
  290TMC3    C2 4423   3.354   4.526  14.273 -0.2621  0.7424 -0.4610
  290TMC3    C3 4424   3.218   4.547  14.271  0.0574 -0.6953 -0.6595
  290TMC3    C4 4425   3.319   4.292  14.240 -0.2265 -0.7209  0.5476
  290TMC3    C5 4426   3.181   4.313  14.240 -0.1297 -0.4721  0.1271
  290TMC3    C6 4427   3.134   4.440  14.261 -0.5558 -0.0431  0.0815
  290TMC3     C 4428   3.542   4.390  14.271  0.4835  0.0075  0.3638
  290TMC3     O 4429   3.608   4.486  14.237  0.4721 -0.4255 -0.0364
  290TMC3     H 4430   3.424   4.608  14.281  2.2063 -1.3975 -0.1226
  290TMC3    H1 4431   3.357   4.191  14.225  2.3730  0.3806 -0.4144
  290TMC3    H2 4432   3.028   4.458  14.253 -0.6008  0.5132  1.8512
  290TMC3    C7 4433   3.087   4.201  14.226 -0.4038 -0.2033 -0.1673
  290TMC3    C8 4434   3.165   4.661  14.340  0.1536  0.0916 -0.0964
  290TMC3    O1 4435   2.971   4.238  14.237 -0.4457  0.3969 -0.3202
  290TMC3    O2 4436   3.044   4.677  14.346  0.2722 -0.6545  0.5065
  291MPD2     C 4437   3.450   4.016   0.191  0.9419  0.6975  0.2249
  291MPD2    C1 4438   3.425   4.005   0.330 -0.2209  0.2554 -0.2403
  291MPD2    C2 4439   3.501   4.085   0.415  0.2513 -0.5992 -0.2967
  291MPD2    C3 4440   3.595   4.176   0.367  0.1972  0.4424  0.4929
  291MPD2    C4 4441   3.601   4.189   0.231  0.0391 -0.8128 -0.7540
  291MPD2    C5 4442   3.531   4.114   0.143 -0.0063  0.1110  0.6979
  291MPD2     H 4443   3.471   4.080   0.520  2.4245  1.7616  0.4560
  291MPD2    H1 4444   3.667   4.268   0.195 -1.0541  1.0633  1.3271
  291MPD2    H2 4445   3.398   3.960   0.114  0.0133  2.5409 -0.4688
  291MPD2    H3 4446   3.545   4.131   0.037  0.6114 -1.9932  0.4424
  291MPD2     N 4447   3.655   4.272   0.450  0.4761  0.2130 -0.8922
  291MPD2    H5 4448   3.692   4.352   0.401  1.0346 -0.7228 -2.0030
  291MPD2    N1 4449   3.347   3.907   0.388  0.1481  0.2369 -0.0887
  291MPD2    H7 4450   3.331   3.911   0.488 -0.1251 -1.9684 -0.0418
  292TMC3    C1 4451   3.205   3.721   0.397  1.1673 -0.4571 -0.4294
  292TMC3    C2 4452   3.139   3.769   0.508  0.1786  0.3500  0.2041
  292TMC3    C3 4453   3.080   3.670   0.591 -0.0887 -0.0582  0.1657
  292TMC3    C4 4454   3.204   3.588   0.362 -0.9694 -0.1755  0.6594
  292TMC3    C5 4455   3.129   3.501   0.439  0.3633 -0.2242  0.1647
  292TMC3    C6 4456   3.078   3.535   0.564  0.3608 -0.4847  0.2195
  292TMC3     C 4457   3.288   3.804   0.315  1.1749  0.1372  0.5235
  292TMC3     O 4458   3.312   3.755   0.205  0.2126 -0.4665 -0.0759
  292TMC3     H 4459   3.131   3.875   0.526 -2.8607 -0.0750  1.3339
  292TMC3    H1 4460   3.251   3.548   0.273 -0.7482  2.0590 -0.2334
  292TMC3    H2 4461   3.043   3.461   0.635 -2.0547  1.1461  0.7418
  292TMC3    C7 4462   3.100   3.370   0.380  0.3482  0.3729  0.7474
  292TMC3    C8 4463   3.047   3.712   0.721  0.1285 -0.2636 -0.5041
  292TMC3    O1 4464   3.144   3.332   0.274  0.4801 -0.1135  0.3925
  292TMC3    O2 4465   3.101   3.820   0.755 -0.2048 -0.0749  0.3700
  293MPD2     C 4466   4.697   0.782  12.697 -0.0990 -0.7374 -0.0264
  293MPD2    C1 4467   4.613   0.704  12.776 -0.0045 -0.3654 -0.2118
  293MPD2    C2 4468   4.646   0.706  12.914  0.2700  0.3997 -0.1213
  293MPD2    C3 4469   0.014   0.771  12.967  0.1955  0.1313  0.8770
  293MPD2    C4 4470   0.102   0.831  12.879  0.2861 -0.2041  0.3620
  293MPD2    C5 4471   0.067   0.835  12.747  0.2703  0.1499  0.3792
  293MPD2     H 4472   4.583   0.660  12.990 -0.3303  1.1851 -0.1448
  293MPD2    H1 4473   0.195   0.870  12.919 -0.2624 -1.3064  2.7572
  293MPD2    H2 4474   4.683   0.771  12.590  1.3388 -1.0569 -0.1785
  293MPD2    H3 4475   0.129   0.885  12.673  0.3699  0.7128  0.8504
  293MPD2     N 4476   0.043   0.763  13.107  0.2200  0.4369  0.1074
  293MPD2    H5 4477   0.001   0.684  13.155  0.7257  1.7198  2.6740
  293MPD2    N1 4478   4.490   0.649  12.726 -0.2455 -0.3602  0.0571
  293MPD2    H7 4479   4.466   0.661  12.628 -0.9617  1.6944  0.4906
  294TMC3    C1 4480   4.269   0.551  12.738  0.3225 -0.3137 -0.5022
  294TMC3    C2 4481   4.187   0.458  12.796 -0.3671  0.5571 -0.4965
  294TMC3    C3 4482   4.067   0.445  12.736 -0.9344  0.1953 -0.6983
  294TMC3    C4 4483   4.240   0.627  12.624  0.2305  0.0102 -0.2689
  294TMC3    C5 4484   4.115   0.615  12.575 -0.2607 -0.2608  0.3185
  294TMC3    C6 4485   4.029   0.525  12.628 -0.3313 -0.5698 -0.0245
  294TMC3     C 4486   4.396   0.584  12.802 -0.5556 -0.5880 -0.1646
  294TMC3     O 4487   4.413   0.545  12.917 -0.1794  0.2403 -0.2592
  294TMC3     H 4488   4.214   0.398  12.882 -0.5767 -1.6391 -1.9430
  294TMC3    H1 4489   4.312   0.693  12.577 -3.5284  1.4162 -4.0959
  294TMC3    H2 4490   3.933   0.505  12.583  0.4754  0.1743 -2.0500
  294TMC3    C7 4491   4.080   0.671  12.444  0.6119 -0.1808  0.0764
  294TMC3    C8 4492   4.008   0.306  12.729 -0.5701 -0.1659 -0.6238
  294TMC3    O1 4493   3.961   0.683  12.418  0.3556  0.1016 -0.6930
  294TMC3    O2 4494   4.046   0.237  12.823 -0.3895  0.2756 -0.1871
  295MPD2     C 4495   0.943   4.348   0.974  0.1886  0.2476 -0.3407
  295MPD2    C1 4496   0.951   4.289   0.852 -0.3350  0.0597  0.2399
  295MPD2    C2 4497   0.865   4.188   0.818  0.3863  0.6515  0.2515
  295MPD2    C3 4498   0.755   4.159   0.905  0.0449  0.2431  0.2432
  295MPD2    C4 4499   0.751   4.216   1.033 -0.4001 -0.1737 -0.0635
  295MPD2    C5 4500   0.847   4.311   1.061 -0.0818 -0.0354 -0.0425
  295MPD2     H 4501   0.876   4.129   0.728 -0.4777 -2.4707  2.1869
  295MPD2    H1 4502   0.675   4.194   1.108  0.6020  1.8821  1.5253
  295MPD2    H2 4503   1.012   4.421   1.015 -0.3533  1.5210 -1.7156
  295MPD2    H3 4504   0.857   4.357   1.159  0.0594  0.3580 -0.2389
  295MPD2     N 4505   0.645   4.074   0.877  0.6277  0.2741  0.0283
  295MPD2    H5 4506   0.583   4.050   0.955  0.5686  0.5597  0.0708
  295MPD2    N1 4507   1.053   4.310   0.761  0.4338 -0.3604  0.2683
  295MPD2    H7 4508   1.056   4.260   0.673 -1.0607 -1.8689  1.0833
  296TMC3    C1 4509   0.522   3.905   0.775  0.2976 -0.0352 -0.5550
  296TMC3    C2 4510   0.414   3.915   0.857  0.1926 -0.1452 -0.1089
  296TMC3    C3 4511   0.317   3.814   0.861  0.5442 -0.1037 -0.5012
  296TMC3    C4 4512   0.514   3.815   0.665 -0.0183  0.0503 -0.1295
  296TMC3    C5 4513   0.404   3.736   0.662 -0.1438  0.1630  0.1238
  296TMC3    C6 4514   0.314   3.717   0.760  0.3109 -0.4680  0.6876
  296TMC3     C 4515   0.624   4.010   0.766 -0.4705  0.0464  0.7416
  296TMC3     O 4516   0.679   4.015   0.657 -0.2676 -0.3474 -0.3608
  296TMC3     H 4517   0.397   4.004   0.918  2.0457 -1.4875  2.3378
  296TMC3    H1 4518   0.594   3.820   0.592  0.4029 -1.3504  0.2414
  296TMC3    H2 4519   0.232   3.646   0.753  0.0354  0.0067 -0.7772
  296TMC3    C7 4520   0.411   3.637   0.551 -0.1117  0.2403 -0.2426
  296TMC3    C8 4521   0.197   3.824   0.942 -0.2012 -0.8278 -0.6955
  296TMC3    O1 4522   0.477   3.674   0.458  0.0328 -0.7231  0.9399
  296TMC3    O2 4523   0.100   3.752   0.923 -0.0031 -0.5997  0.2081
  297MPD2     C 4524   2.827   1.085  16.050 -0.2162 -0.1193 -0.5519
  297MPD2    C1 4525   2.827   1.181  15.948 -0.2011  0.3988 -0.0356
  297MPD2    C2 4526   2.909   1.291  15.954  0.1679 -0.2215 -0.9138
  297MPD2    C3 4527   2.986   1.310  16.069  0.0854  0.1941  0.7446
  297MPD2    C4 4528   2.987   1.213  16.171 -0.0689 -0.7356  0.8250
  297MPD2    C5 4529   2.899   1.109  16.160  0.3231  0.0428 -0.4912
  297MPD2     H 4530   2.900   1.364  15.875 -1.0941 -0.6703 -1.1898
  297MPD2    H1 4531   3.049   1.220  16.260 -0.3165 -3.6968  1.2362
  297MPD2    H2 4532   2.765   0.996  16.042 -0.4320  0.0331 -0.5540
  297MPD2    H3 4533   2.899   1.036  16.240  0.7930  2.6842  1.9150
  297MPD2     N 4534   3.056   1.432  16.066 -0.4492  0.4083 -0.3869
  297MPD2    H5 4535   3.042   1.491  15.985  0.5963  0.7318 -0.3289
  297MPD2    N1 4536   2.748   1.168  15.831 -1.2085 -0.4543  0.1392
  297MPD2    H7 4537   2.755   1.248  15.769  0.1404 -1.1829 -0.6373
  298TMC3    C1 4538   2.556   1.137  15.706 -0.1080  0.2355  0.2058
  298TMC3    C2 4539   2.604   1.225  15.614  0.2484 -0.0384  0.2572
  298TMC3    C3 4540   2.516   1.277  15.524 -0.1310 -0.5465 -0.3130
  298TMC3    C4 4541   2.422   1.111  15.719 -0.1325  0.8641  0.2741
  298TMC3    C5 4542   2.337   1.163  15.625  0.0779 -0.3666 -0.7373
  298TMC3    C6 4543   2.381   1.249  15.522  0.4585 -0.0598 -0.2442
  298TMC3     C 4544   2.643   1.086  15.813  0.4658 -0.5569  0.2330
  298TMC3     O 4545   2.602   0.987  15.874 -0.8959 -0.2749 -0.4130
  298TMC3     H 4546   2.710   1.249  15.605  0.2810  0.2695  1.4547
  298TMC3    H1 4547   2.393   1.059  15.810  1.6827  2.1246  1.5812
  298TMC3    H2 4548   2.312   1.287  15.448 -1.3216  0.0836  1.4584
  298TMC3    C7 4549   2.197   1.119  15.623 -0.6903  0.8730  0.3508
  298TMC3    C8 4550   2.546   1.415  15.500 -0.0989 -0.0460 -0.2565
  298TMC3    O1 4551   2.140   1.113  15.515 -0.1292 -0.1342 -0.1210
  298TMC3    O2 4552   2.617   1.471  15.584  0.4442  0.4319 -0.4222
  299MPD2     C 4553   2.131   1.561  11.076 -0.4949  0.4127 -0.0646
  299MPD2    C1 4554   2.202   1.580  10.961 -0.6854  0.5963 -0.5995
  299MPD2    C2 4555   2.138   1.547  10.842  0.2081  0.2846 -0.4148
  299MPD2    C3 4556   2.004   1.506  10.835 -0.1557 -0.5218 -0.1603
  299MPD2    C4 4557   1.938   1.498  10.955  0.2114 -0.2087 -0.3414
  299MPD2    C5 4558   2.000   1.532  11.073 -0.7131 -0.3624 -0.1677
  299MPD2     H 4559   2.201   1.543  10.754 -0.1373 -0.5423 -0.6229
  299MPD2    H1 4560   1.834   1.468  10.947 -0.6000  2.6675 -0.3168
  299MPD2    H2 4561   2.172   1.593  11.171  2.2366 -1.3109 -0.6280
  299MPD2    H3 4562   1.941   1.537  11.164 -0.9803  0.6899 -0.4001
  299MPD2     N 4563   1.930   1.489  10.718 -0.4392  0.7064  1.5063
  299MPD2    H5 4564   1.830   1.473  10.732 -0.8217  1.8552  0.1062
  299MPD2    N1 4565   2.333   1.630  10.975  0.3342  0.4050 -0.6374
  299MPD2    H7 4566   2.370   1.622  11.069  0.0839 -2.9337 -0.8345
  300TMC3    C1 4567   1.877   1.438  10.499  0.0752 -0.4366 -0.5795
  300TMC3    C2 4568   1.858   1.518  10.390  0.2447 -0.0166 -0.3513
  300TMC3    C3 4569   1.733   1.532  10.344  0.1929 -0.1442  0.5508
  300TMC3    C4 4570   1.774   1.376  10.562 -0.0672  0.0553  0.4506
  300TMC3    C5 4571   1.648   1.385  10.503  0.1644 -0.1430  1.4185
  300TMC3    C6 4572   1.629   1.459  10.397 -0.4257  0.2395  0.5882
  300TMC3     C 4573   1.982   1.484  10.592 -0.1225  0.6222  0.3868
  300TMC3     O 4574   2.086   1.522  10.546  0.4388 -0.1108  0.0382
  300TMC3     H 4575   1.932   1.590  10.357  0.3863 -0.8085 -1.7673
  300TMC3    H1 4576   1.792   1.302  10.639 -2.6300 -0.8092  0.2342
  300TMC3    H2 4577   1.530   1.471  10.355 -0.2206  0.9860  0.3312
  300TMC3    C7 4578   1.543   1.319  10.564  0.6750 -0.0889  0.2677
  300TMC3    C8 4579   1.698   1.638  10.251  0.1141  0.5546  0.1789
  300TMC3    O1 4580   1.491   1.237  10.491  0.1131 -0.3270  0.4957
  300TMC3    O2 4581   1.744   1.644  10.137  0.5695 -0.5268  0.3203
  301MPD2     C 4582   0.329   1.759   1.781  0.4835 -0.3285  0.0652
  301MPD2    C1 4583   0.256   1.719   1.668 -0.0480  0.2664 -0.2190
  301MPD2    C2 4584   0.301   1.607   1.593 -0.2735 -0.4464  0.4940
  301MPD2    C3 4585   0.428   1.551   1.631  0.1751  0.5414 -0.0592
  301MPD2    C4 4586   0.485   1.584   1.748 -0.1017  0.3686 -0.9362
  301MPD2    C5 4587   0.439   1.690   1.819  0.1643  0.3971 -0.0659
  301MPD2     H 4588   0.243   1.575   1.507  0.9173  1.0109 -0.8436
  301MPD2    H1 4589   0.572   1.531   1.784 -0.6882 -1.9018 -2.9024
  301MPD2    H2 4590   0.286   1.829   1.852  1.3422 -0.8629  1.1161
  301MPD2    H3 4591   0.485   1.708   1.915 -0.5953  2.8384 -0.1690
  301MPD2     N 4592   0.491   1.450   1.557 -0.7212  0.0638  0.5008
  301MPD2    H5 4593   0.574   1.411   1.599 -0.6211 -1.6878 -1.3009
  301MPD2    N1 4594   0.133   1.777   1.640 -0.4811  0.7085  0.3787
  301MPD2    H7 4595   0.078   1.735   1.566  0.5860  0.9812 -0.5649
  302TMC3    C1 4596   0.536   1.302   1.377 -0.2604  0.3284 -0.7488
  302TMC3    C2 4597   0.663   1.277   1.417 -0.3444 -0.7402  0.1365
  302TMC3    C3 4598   0.738   1.186   1.347 -0.8494  0.2640 -0.1776
  302TMC3    C4 4599   0.489   1.239   1.258 -0.4056 -0.1585 -1.0085
  302TMC3    C5 4600   0.563   1.157   1.184 -0.2217 -0.5870 -0.2521
  302TMC3    C6 4601   0.691   1.134   1.226  0.9703 -1.0543  0.0477
  302TMC3     C 4602   0.447   1.400   1.436 -0.1763 -0.5678  0.1047
  302TMC3     O 4603   0.346   1.416   1.366  0.0869 -0.4764 -0.0291
  302TMC3     H 4604   0.706   1.346   1.489 -1.4241 -1.2222  1.2538
  302TMC3    H1 4605   0.388   1.256   1.220 -0.5837  2.2481  0.5425
  302TMC3    H2 4606   0.754   1.065   1.172  0.9076 -0.6585 -0.5329
  302TMC3    C7 4607   0.554   1.152   1.042  0.3800  0.0913 -0.4314
  302TMC3    C8 4608   0.873   1.140   1.395 -0.6008 -0.2800  0.1148
  302TMC3    O1 4609   0.653   1.113   0.979 -0.4253 -0.4984 -0.0824
  302TMC3    O2 4610   0.929   1.078   1.305  0.6281  0.0592 -0.1689
  303MPD2     C 4611   0.506   0.845  10.581  0.2554  0.1656 -0.4204
  303MPD2    C1 4612   0.388   0.875  10.644  0.6301 -0.5765 -0.5425
  303MPD2    C2 4613   0.292   0.945  10.579  0.4920 -1.1258  0.2620
  303MPD2    C3 4614   0.309   0.989  10.446 -0.6334 -0.1666 -0.9720
  303MPD2    C4 4615   0.432   0.964  10.390 -0.4147 -0.4346 -0.1151
  303MPD2    C5 4616   0.525   0.892  10.451  0.2111  0.4493  0.2434
  303MPD2     H 4617   0.190   0.952  10.616  1.5959 -1.3201  3.2899
  303MPD2    H1 4618   0.453   1.000  10.290  1.2087 -0.7034  0.1305
  303MPD2    H2 4619   0.584   0.787  10.630  1.3463 -0.4186 -2.8790
  303MPD2    H3 4620   0.619   0.890  10.396 -0.8926 -0.6608 -1.6201
  303MPD2     N 4621   0.217   1.063  10.368  0.1456  0.2544  0.0095
  303MPD2    H5 4622   0.241   1.102  10.277  2.1436  1.7212  1.1482
  303MPD2    N1 4623   0.362   0.824  10.773  0.2476  0.4414  0.1175
  303MPD2    H7 4624   0.434   0.767  10.818  1.0188 -0.8380 -2.7035
  304TMC3    C1 4625   0.231   0.766  10.952  0.6391  0.1738 -0.5354
  304TMC3    C2 4626   0.178   0.819  11.064 -0.6578 -0.5647  0.3759
  304TMC3    C3 4627   0.129   0.728  11.158 -0.3128 -0.3574  0.7205
  304TMC3    C4 4628   0.243   0.632  10.922  0.0130 -0.8267 -0.2902
  304TMC3    C5 4629   0.187   0.546  11.013  0.3440 -0.2989  0.3521
  304TMC3    C6 4630   0.136   0.598  11.129 -0.3374 -0.3546  0.0953
  304TMC3     C 4631   0.266   0.869  10.853 -0.1806 -0.3492 -0.0170
  304TMC3     O 4632   0.193   0.966  10.850  0.0976 -0.3300 -0.1897
  304TMC3     H 4633   0.163   0.925  11.080  0.0848 -0.4653  0.4292
  304TMC3    H1 4634   0.276   0.601  10.823 -0.0303  3.0659 -1.5534
  304TMC3    H2 4635   0.073   0.532  11.189 -1.2340  1.1523  0.8008
  304TMC3    C7 4636   0.093   0.450  10.955 -0.2219 -0.5053  0.8803
  304TMC3    C8 4637   4.737   0.768  11.211 -0.6649  0.0668 -0.7651
  304TMC3    O1 4638   4.717   0.481  10.982 -0.4576 -0.0553 -0.3909
  304TMC3    O2 4639   4.721   0.885  11.252  0.0966  0.2882  0.4781
  305MPD2     C 4640   3.415   2.832  13.919  0.5031  0.2267 -0.4128
  305MPD2    C1 4641   3.411   2.707  13.976  0.1443 -0.3150 -0.3087
  305MPD2    C2 4642   3.377   2.598  13.900 -0.9561  0.3265  0.7784
  305MPD2    C3 4643   3.344   2.615  13.764 -0.3850 -0.4496 -0.4668
  305MPD2    C4 4644   3.341   2.741  13.709  0.3380  0.2962 -0.0068
  305MPD2    C5 4645   3.372   2.845  13.793  0.7112  0.2611  0.1344
  305MPD2     H 4646   3.362   2.499  13.943 -1.5183  1.6540  3.6277
  305MPD2    H1 4647   3.305   2.759  13.609  1.0126  1.0895 -0.1097
  305MPD2    H2 4648   3.431   2.920  13.981  0.6027 -1.3902  1.8365
  305MPD2    H3 4649   3.360   2.940  13.744 -2.8953  0.7338  1.8681
  305MPD2     N 4650   3.321   2.508  13.680 -0.1120  0.2668 -0.1354
  305MPD2    H5 4651   3.293   2.519  13.583  1.1660  3.6563 -0.1206
  305MPD2    N1 4652   3.433   2.697  14.110  0.7285 -0.1348  0.3952
  305MPD2    H7 4653   3.445   2.789  14.153  0.4143 -0.5823  1.4328
  306TMC3    C1 4654   3.461   2.587  14.321  0.0873  0.6090 -0.3417
  306TMC3    C2 4655   3.484   2.474  14.392  0.7541 -0.2971 -0.4931
  306TMC3    C3 4656   3.509   2.480  14.529 -0.2095 -0.4158 -0.5591
  306TMC3    C4 4657   3.448   2.710  14.382  0.5185  0.8696 -0.5142
  306TMC3    C5 4658   3.474   2.718  14.515  0.3143 -0.4567 -0.4654
  306TMC3    C6 4659   3.510   2.606  14.590  0.2293  0.0374  0.2129
  306TMC3     C 4660   3.437   2.578  14.184  0.5202 -0.3319 -0.8947
  306TMC3     O 4661   3.439   2.461  14.139  0.7075 -0.2614 -0.3361
  306TMC3     H 4662   3.496   2.381  14.337  0.6725  0.2250 -1.3976
  306TMC3    H1 4663   3.430   2.807  14.337 -0.3771  0.0462 -1.9035
  306TMC3    H2 4664   3.516   2.608  14.698 -2.2001 -2.9028  0.4113
  306TMC3    C7 4665   3.410   2.832  14.577 -0.2317 -0.1529 -0.0992
  306TMC3    C8 4666   3.573   2.369  14.598 -0.8300 -0.2964 -0.0253
  306TMC3    O1 4667   3.311   2.888  14.528  0.6707  0.6523  0.4281
  306TMC3    O2 4668   3.660   2.394  14.680 -0.0554  0.5402  0.6447
  307MPD2     C 4669   1.734   0.690   0.664  0.3129  0.2715 -0.2756
  307MPD2    C1 4670   1.664   0.805   0.668  0.1447 -0.8379  0.7201
  307MPD2    C2 4671   1.574   0.837   0.764 -0.4704 -0.5324 -0.4387
  307MPD2    C3 4672   1.550   0.746   0.869  0.1586 -0.3637  0.6039
  307MPD2    C4 4673   1.619   0.627   0.869 -0.9439 -0.2168 -0.1421
  307MPD2    C5 4674   1.707   0.603   0.765 -0.1932 -0.4354  0.2884
  307MPD2     H 4675   1.533   0.937   0.761 -2.6205 -1.4136 -0.2514
  307MPD2    H1 4676   1.617   0.562   0.956 -1.1832  1.3810  1.0508
  307MPD2    H2 4677   1.805   0.669   0.585 -0.4352  1.8277 -1.3796
  307MPD2    H3 4678   1.764   0.511   0.763 -0.0682 -0.3569  0.2621
  307MPD2     N 4679   1.463   0.770   0.974 -0.2984  0.2357  0.7703
  307MPD2    H5 4680   1.437   0.866   0.994  0.1608  0.2186  1.4800
  307MPD2    N1 4681   1.686   0.908   0.574 -0.9226  0.3749  0.0776
  307MPD2    H7 4682   1.672   1.005   0.600 -0.2865  0.3181  0.6177
  308TMC3    C1 4683   1.046   0.729   1.109  0.2607  0.3711 -0.5393
  308TMC3    C2 4684   1.055   0.866   1.120  0.2742 -0.4922 -0.0000
  308TMC3    C3 4685   1.177   0.924   1.150  0.3467  0.0107 -0.5886
  308TMC3    C4 4686   1.162   0.656   1.091 -0.1473  0.5756  0.7283
  308TMC3    C5 4687   1.279   0.716   1.114  0.0115 -0.7069  0.0977
  308TMC3    C6 4688   1.289   0.844   1.163 -0.1882  0.4965 -0.4510
  308TMC3     C 4689   0.931   0.662   1.059  0.4189  0.4206  0.1075
  308TMC3     O 4690   0.924   0.540   1.084 -0.3137 -0.0185 -0.0705
  308TMC3     H 4691   0.960   0.917   1.132 -0.2521 -0.8139 -2.7532
  308TMC3    H1 4692   1.153   0.554   1.056  0.1944  1.3189 -1.5486
  308TMC3    H2 4693   1.386   0.888   1.179 -1.1149  2.5729 -0.6235
  308TMC3    C7 4694   1.392   0.667   1.040  0.4913 -0.7987 -0.0835
  308TMC3    C8 4695   1.190   1.068   1.157  0.2388 -0.2267  0.2045
  308TMC3    O1 4696   1.378   0.553   1.000 -0.4568 -0.1965 -0.1927
  308TMC3    O2 4697   1.276   1.107   1.235 -0.0633  0.4026 -0.3174
  309MPD2     C 4698   0.708   1.040  17.365 -0.0190  0.9652 -0.4276
  309MPD2    C1 4699   0.653   1.069  17.243  0.4039 -1.0644 -0.5225
  309MPD2    C2 4700   0.514   1.086  17.239 -0.2920  0.0818 -0.1136
  309MPD2    C3 4701   0.433   1.092  17.353 -0.1764 -0.9554  0.0712
  309MPD2    C4 4702   0.494   1.060  17.475  0.0434 -0.2269  0.1714
  309MPD2    C5 4703   0.632   1.032  17.478  1.0760  0.2906  0.1489
  309MPD2     H 4704   0.472   1.107  17.142 -0.0597  1.1494  0.0198
  309MPD2    H1 4705   0.437   1.047  17.566  0.7013 -1.9291  0.3348
  309MPD2    H2 4706   0.811   1.008  17.376 -0.5671 -0.8003 -0.4713
  309MPD2    H3 4707   0.677   0.991  17.567 -0.5168  1.6036  1.5583
  309MPD2     N 4708   0.305   1.139  17.343  1.2789 -0.0997  0.7703
  309MPD2    H5 4709   0.251   1.150  17.429  0.9790  1.0969  0.4375
  309MPD2    N1 4710   0.724   1.086  17.118 -0.2998 -0.0612 -0.0554
  309MPD2    H7 4711   0.668   1.094  17.033 -1.9156  0.3396  1.0444
  310TMC3    C1 4712   0.885   1.049  16.953 -0.0082 -0.1427 -0.2756
  310TMC3    C2 4713   0.805   1.108  16.860 -0.1351 -0.1930 -0.7948
  310TMC3    C3 4714   0.820   1.088  16.725 -0.5012 -0.4834 -0.0207
  310TMC3    C4 4715   0.989   0.973  16.913 -0.0495  0.0561  0.2828
  310TMC3    C5 4716   1.004   0.959  16.777 -0.1162 -0.2630  0.5921
  310TMC3    C6 4717   0.922   1.015  16.685  0.0387 -0.1150 -0.0865
  310TMC3     C 4718   0.859   1.062  17.094 -0.2146  0.4586 -0.1917
  310TMC3     O 4719   0.949   1.035  17.173  0.2441  0.1227 -0.0830
  310TMC3     H 4720   0.722   1.172  16.888 -0.8210 -1.6555  0.4857
  310TMC3    H1 4721   1.039   0.911  16.987  0.4694  1.1566  0.8583
  310TMC3    H2 4722   0.930   0.983  16.582 -1.1025 -2.9305  0.6926
  310TMC3    C7 4723   1.105   0.866  16.728  0.5654 -0.4842  0.4356
  310TMC3    C8 4724   0.721   1.122  16.621  0.3983 -0.3821  0.0142
  310TMC3    O1 4725   1.077   0.805  16.621  0.1970  0.5704  0.3585
  310TMC3    O2 4726   0.761   1.085  16.510 -0.1660 -0.1981  0.1681
  311MPD2     C 4727   2.332   2.624  12.561 -0.8409 -0.4556 -0.0628
  311MPD2    C1 4728   2.355   2.635  12.694  0.0912  0.0358 -0.0074
  311MPD2    C2 4729   2.307   2.543  12.786 -1.0582  0.1243 -0.0876
  311MPD2    C3 4730   2.220   2.444  12.744  0.1965  0.0475  0.0676
  311MPD2    C4 4731   2.188   2.441  12.607 -0.2407  0.4622  0.3849
  311MPD2    C5 4732   2.236   2.536  12.524 -0.1683 -0.4921 -0.1720
  311MPD2     H 4733   2.326   2.559  12.892 -1.9358 -0.4307  0.1524
  311MPD2    H1 4734   2.112   2.380  12.559 -0.5488  0.9157  0.2903
  311MPD2    H2 4735   2.393   2.670  12.484 -0.8104 -0.9023 -0.3061
  311MPD2    H3 4736   2.209   2.525  12.419  2.4407  0.9647 -0.9981
  311MPD2     N 4737   2.162   2.351  12.838  0.2262  0.0124 -0.3257
  311MPD2    H5 4738   2.186   2.352  12.936  0.1064 -0.8058 -0.2930
  311MPD2    N1 4739   2.456   2.725  12.741  0.5708  0.0457 -0.4212
  311MPD2    H7 4740   2.485   2.720  12.838  1.1433 -3.3267 -0.7670
  312TMC3    C1 4741   1.981   2.234  12.928  0.4112  0.1669  0.2812
  312TMC3    C2 4742   1.847   2.228  12.911 -0.0549  0.4615  0.2826
  312TMC3    C3 4743   1.776   2.131  12.978  0.2867  0.6515  0.1713
  312TMC3    C4 4744   2.056   2.146  13.007 -0.0341 -0.2000  0.5372
  312TMC3    C5 4745   1.979   2.047  13.062 -0.1412  0.6195 -0.2935
  312TMC3    C6 4746   1.841   2.046  13.064 -0.4705  0.5282  0.0912
  312TMC3     C 4747   2.052   2.274  12.809  0.2136  0.1704  1.0279
  312TMC3     O 4748   1.997   2.252  12.702  1.0829 -0.2414  0.2019
  312TMC3     H 4749   1.806   2.276  12.823  2.0707 -0.3479 -1.1375
  312TMC3    H1 4750   2.164   2.153  13.007 -0.1307  1.2122 -1.0352
  312TMC3    H2 4751   1.791   1.958  13.102  0.7662 -0.4068 -0.4182
  312TMC3    C7 4752   2.054   1.951  13.129 -0.0935 -0.3584 -0.3039
  312TMC3    C8 4753   1.633   2.138  12.987  0.2622 -0.3844  1.2376
  312TMC3    O1 4754   1.991   1.849  13.159 -0.9237  0.2864 -0.1354
  312TMC3    O2 4755   1.578   2.041  13.039 -0.0209  0.2946  0.5452
  313MPD2     C 4756   1.042   1.871  11.765 -0.6601 -1.1108 -0.1165
  313MPD2    C1 4757   1.077   1.895  11.635  0.0452 -0.1903 -0.3308
  313MPD2    C2 4758   1.095   1.788  11.552 -0.7084 -0.2556  0.2587
  313MPD2    C3 4759   1.052   1.663  11.590  0.1895 -0.5522  0.6587
  313MPD2    C4 4760   1.008   1.643  11.720  0.3082  0.5628 -0.0324
  313MPD2    C5 4761   1.000   1.754  11.802 -0.3711  0.1551 -0.6220
  313MPD2     H 4762   1.134   1.805  11.452  0.4597  0.0472  0.7652
  313MPD2    H1 4763   0.992   1.549  11.770 -0.3173  0.9987  0.5857
  313MPD2    H2 4764   1.041   1.953  11.835  1.7239 -0.4137 -0.8924
  313MPD2    H3 4765   0.958   1.739  11.901 -0.9627  2.9960 -0.4560
  313MPD2     N 4766   1.051   1.566  11.492 -0.4020 -0.1325 -0.3302
  313MPD2    H5 4767   1.079   1.593  11.398 -1.2367 -0.4670 -0.6842
  313MPD2    N1 4768   1.121   2.016  11.582 -0.2885 -0.1597  0.0019
  313MPD2    H7 4769   1.144   2.007  11.484  0.7267 -1.2005  0.3354
  314TMC3    C1 4770   1.186   2.238  11.561 -1.2557  0.0181  0.2673
  314TMC3    C2 4771   1.316   2.283  11.559 -0.0191 -0.5898  0.3721
  314TMC3    C3 4772   1.361   2.347  11.449  0.5580 -0.0303  0.0005
  314TMC3    C4 4773   1.099   2.259  11.464  0.0810  0.4997 -0.4576
  314TMC3    C5 4774   1.145   2.322  11.351 -0.5084 -0.0023  0.1883
  314TMC3    C6 4775   1.278   2.367  11.343  0.5481  1.0036  0.0409
  314TMC3     C 4776   1.153   2.131  11.652 -0.4774 -0.1410  0.3265
  314TMC3     O 4777   1.148   2.153  11.773 -0.0883 -0.0057  0.1055
  314TMC3     H 4778   1.376   2.259  11.646  0.8545 -0.5089 -0.2141
  314TMC3    H1 4779   0.996   2.227  11.477  0.6121 -1.1422 -0.2216
  314TMC3    H2 4780   1.311   2.407  11.247  0.7992 -0.1119 -0.3318
  314TMC3    C7 4781   1.056   2.335  11.240 -0.5871 -0.9039  0.0614
  314TMC3    C8 4782   1.495   2.394  11.424 -0.3999 -1.0532  0.2341
  314TMC3    O1 4783   0.933   2.336  11.258  0.4395  0.3198 -0.0565
  314TMC3    O2 4784   1.526   2.453  11.326 -0.2538  0.3593  0.0262
  315MPD2     C 4785   1.641   0.866  17.569 -0.8045  0.6010 -0.3612
  315MPD2    C1 4786   1.765   0.863  17.620  0.1394 -0.6721 -0.2541
  315MPD2    C2 4787   1.854   0.961  17.576  0.5816 -0.3542  0.4282
  315MPD2    C3 4788   1.819   1.067  17.486  0.1235 -0.2400  0.1542
  315MPD2    C4 4789   1.681   1.066  17.449 -0.0678  0.3746  0.6842
  315MPD2    C5 4790   1.602   0.971  17.492  0.1843 -0.0523 -0.7220
  315MPD2     H 4791   1.959   0.952  17.604  0.5872 -1.5724  0.0184
  315MPD2    H1 4792   1.627   1.140  17.391  0.4379 -0.6291 -1.0360
  315MPD2    H2 4793   1.562   0.795  17.592  1.9242 -2.5278 -0.5468
  315MPD2    H3 4794   1.497   0.971  17.464  0.2602 -0.3727 -1.0203
  315MPD2     N 4795   1.924   1.160  17.446 -0.1508 -0.7692 -0.4486
  315MPD2    H5 4796   2.021   1.143  17.470 -0.7216  0.1205  2.4438
  315MPD2    N1 4797   1.786   0.755  17.706 -0.2666 -0.3114 -0.2959
  315MPD2    H7 4798   1.714   0.684  17.706 -1.3831  0.8220  0.0144
  316TMC3    C1 4799   2.013   1.352  17.350 -0.4271 -0.0961 -0.0485
  316TMC3    C2 4800   2.078   1.399  17.458  0.5261  0.0057 -0.5752
  316TMC3    C3 4801   2.199   1.458  17.437  0.0265  0.4485  0.0130
  316TMC3    C4 4802   2.066   1.377  17.229 -0.0761  0.2975 -0.4596
  316TMC3    C5 4803   2.168   1.461  17.211  0.2643 -0.1848  0.3647
  316TMC3    C6 4804   2.244   1.505  17.315  0.1734  0.2002  0.5601
  316TMC3     C 4805   1.900   1.262  17.359  0.5017  0.5087 -0.4001
  316TMC3     O 4806   1.810   1.267  17.280  0.0399  0.3485 -0.0153
  316TMC3     H 4807   2.046   1.379  17.560  2.4562  2.5128  0.5347
  316TMC3    H1 4808   2.002   1.337  17.151  1.3339 -2.5041 -0.1835
  316TMC3    H2 4809   2.334   1.565  17.305  1.6521 -2.1168 -0.0176
  316TMC3    C7 4810   2.229   1.480  17.078 -0.9399 -0.1109  0.4419
  316TMC3    C8 4811   2.264   1.522  17.551 -0.5761 -0.0073 -0.6483
  316TMC3    O1 4812   2.344   1.522  17.064  0.1607  0.0628 -0.5050
  316TMC3    O2 4813   2.328   1.622  17.541  0.5697 -0.4730  0.1798
  317MPD2     C 4814   3.669   4.732  13.206 -0.2763 -0.0282 -0.6786
  317MPD2    C1 4815   3.578   4.644  13.163  0.2650 -0.4932  0.0067
  317MPD2    C2 4816   3.597   4.506  13.178  0.7277  0.2704 -0.0009
  317MPD2    C3 4817   3.708   4.465  13.248 -0.0531  0.5186  0.0755
  317MPD2    C4 4818   3.799   4.565  13.289 -0.1782  0.3038  0.4343
  317MPD2    C5 4819   3.769   4.697  13.293 -0.4593 -0.4154  0.3464
  317MPD2     H 4820   3.518   4.435  13.154  2.7214 -1.7625 -0.5635
  317MPD2    H1 4821   3.894   4.543  13.337  0.0896 -0.0246 -0.2349
  317MPD2    H2 4822   3.647   0.099  13.198  0.7420  0.4495  3.0817
  317MPD2    H3 4823   3.842   0.034  13.319  0.0668 -0.9247  0.3395
  317MPD2     N 4824   3.720   4.327  13.291  0.2469  0.5329 -0.9308
  317MPD2    H5 4825   3.643   4.266  13.265 -1.2442  1.3522  1.5293
  317MPD2    N1 4826   3.459   4.685  13.095 -0.7428  0.0311  0.4306
  317MPD2    H7 4827   3.398   4.611  13.061  0.2195  0.2612 -1.8209
  318TMC3    C1 4828   3.805   4.133  13.387  1.1957 -0.0877  0.4625
  318TMC3    C2 4829   3.687   4.088  13.431  0.3339  1.0447 -0.3163
  318TMC3    C3 4830   3.669   3.957  13.448  0.2224 -0.4717 -0.0604
  318TMC3    C4 4831   3.902   4.047  13.359 -0.0605  0.1969 -0.2313
  318TMC3    C5 4832   3.884   3.911  13.378 -0.1869 -0.7793  0.3627
  318TMC3    C6 4833   3.760   3.862  13.413 -0.6601 -0.3210  0.7482
  318TMC3     C 4834   3.817   4.273  13.360  0.0008  0.5065  0.6513
  318TMC3     O 4835   3.932   4.319  13.375  0.4464 -0.4669  0.6829
  318TMC3     H 4836   3.614   4.157  13.471  0.5618  1.0225  0.1349
  318TMC3    H1 4837   3.997   4.091  13.331  1.1917 -0.2891  3.2456
  318TMC3    H2 4838   3.749   3.754  13.414 -2.5103 -0.1277  2.1323
  318TMC3    C7 4839   3.958   3.844  13.268 -0.1557  0.2095 -0.2845
  318TMC3    C8 4840   3.537   3.905  13.488 -0.4329 -0.4521  0.4690
  318TMC3    O1 4841   3.891   3.795  13.178 -0.3584  0.0657  0.1511
  318TMC3    O2 4842   3.553   3.805  13.559 -0.2383  0.1953  0.5172
  319MPD2     C 4843   0.317   0.548  16.260 -0.1723  0.9156  0.2399
  319MPD2    C1 4844   0.264   0.517  16.386  0.4527  0.9835  0.1745
  319MPD2    C2 4845   0.147   0.439  16.396  0.2544  1.3919  0.3836
  319MPD2    C3 4846   0.073   0.414  16.282  0.3827  0.0917  0.1233
  319MPD2    C4 4847   0.137   0.443  16.157  0.4148 -0.0920 -0.5168
  319MPD2    C5 4848   0.265   0.505  16.146  0.5526  1.0645 -0.4236
  319MPD2     H 4849   0.098   0.411  16.489  1.0399  1.3332  0.7764
  319MPD2    H1 4850   0.078   0.444  16.066  1.0097 -0.6203 -0.9094
  319MPD2    H2 4851   0.412   0.599  16.248  0.6085 -0.2327  1.5449
  319MPD2    H3 4852   0.313   0.545  16.057 -0.4643 -0.1292 -1.5217
  319MPD2     N 4853   4.689   0.339  16.272  0.0028 -0.0032 -0.3810
  319MPD2    H5 4854   4.647   0.358  16.181  1.5187  1.7358 -0.7016
  319MPD2    N1 4855   0.346   0.559  16.490  0.0285 -0.2997  0.0236
  319MPD2    H7 4856   0.434   0.605  16.470 -1.5978  2.1902 -1.3503
  320TMC3    C1 4857   4.467   0.264  16.332 -0.4133  0.7619 -0.0805
  320TMC3    C2 4858   4.416   0.363  16.261 -0.0015 -0.3696  0.9689
  320TMC3    C3 4859   4.283   0.346  16.224 -0.1426 -0.0572 -0.3281
  320TMC3    C4 4860   4.398   0.160  16.374 -0.3905  0.2071 -0.3503
  320TMC3    C5 4861   4.267   0.148  16.341  0.4331 -0.0361 -0.3551
  320TMC3    C6 4862   4.204   0.246  16.269  0.0520 -0.1857 -0.3171
  320TMC3     C 4863   4.614   0.273  16.371 -0.1238  0.6045  0.6410
  320TMC3     O 4864   4.645   0.248  16.486 -0.8888  0.1117  0.7298
  320TMC3     H 4865   4.474   0.452  16.241  0.1488 -0.4506  1.0480
  320TMC3    H1 4866   4.446   0.078  16.427 -0.0492  0.0447 -0.9182
  320TMC3    H2 4867   4.098   0.238  16.251 -0.2392 -0.1499  1.3669
  320TMC3    C7 4868   4.216   0.010  16.336  0.0735 -0.7078 -0.0175
  320TMC3    C8 4869   4.233   0.429  16.115  0.0042 -0.0304  0.7511
  320TMC3    O1 4870   4.124   0.004  16.260  0.0157 -0.4308  0.5995
  320TMC3    O2 4871   4.317   0.496  16.056 -0.4364 -0.9908  0.5026
  321TMC3    C1 4872   0.446   0.597  16.688  0.0391  0.2840  0.0458
  321TMC3    C2 4873   0.565   0.576  16.618  0.6832  0.0269 -0.1124
  321TMC3    C3 4874   0.671   0.658  16.661 -0.2568 -0.4278  0.3476
  321TMC3    C4 4875   0.421   0.700  16.769  0.0499  0.8221 -0.0262
  321TMC3    C5 4876   0.520   0.787  16.800  0.0823  0.4052 -0.2685
  321TMC3    C6 4877   0.645   0.771  16.734  0.1461  0.8575 -0.1793
  321TMC3     C 4878   0.333   0.533  16.624 -0.0935  0.0115 -0.1453
  321TMC3     O 4879   0.243   0.489  16.695  0.0592 -0.3652  0.2941
  321TMC3     H 4880   0.579   0.482  16.566  0.3804 -0.9614  1.5780
  321TMC3    H1 4881   0.323   0.697  16.816  0.8208 -1.7666  1.3879
  321TMC3    H2 4882   0.727   0.841  16.749 -1.6201  2.6112  1.4962
  321TMC3    C7 4883   0.541   0.801  16.939 -0.4091  0.2991 -0.3841
  321TMC3    C8 4884   0.795   0.588  16.686  0.0379 -0.6451  0.3233
  321TMC3    O1 4885   0.658   0.818  16.975  0.1205 -0.3031  0.4991
  321TMC3    O2 4886   0.839   0.502  16.610  0.6447  0.3062 -0.3003
  322MPD2     C 4887   3.971   1.675  13.433  0.2725 -0.2650 -0.1383
  322MPD2    C1 4888   3.906   1.723  13.545  0.2047  0.4708 -0.2835
  322MPD2    C2 4889   3.815   1.631  13.603  0.3714  0.2466  0.5434
  322MPD2    C3 4890   3.801   1.501  13.554  0.7375 -0.2814  0.2916
  322MPD2    C4 4891   3.878   1.455  13.447 -0.7109 -0.0189  0.2846
  322MPD2    C5 4892   3.961   1.546  13.386  0.3436  0.0267 -1.0905
  322MPD2     H 4893   3.743   1.656  13.679 -0.6773  2.0089 -1.0240
  322MPD2    H1 4894   3.885   1.354  13.407 -0.8040  0.3820 -0.7492
  322MPD2    H2 4895   4.047   1.740  13.392  0.7187  0.0791  1.2381
  322MPD2    H3 4896   4.018   1.520  13.298 -1.4625  0.4315 -2.3508
  322MPD2     N 4897   3.712   1.423  13.625  0.5382  0.7326 -0.1092
  322MPD2    H5 4898   3.664   1.463  13.705 -2.3096  2.0758 -2.4897
  322MPD2    N1 4899   3.927   1.859  13.590  0.0409  0.0350 -0.9058
  322MPD2    H7 4900   4.000   1.912  13.543 -1.3541  4.4252  1.8579
  323TMC3    C1 4901   3.946   2.020  13.769  0.0010  0.7363  0.1873
  323TMC3    C2 4902   4.018   2.100  13.686  0.2119 -0.8405  0.4201
  323TMC3    C3 4903   4.117   2.174  13.747 -0.7812  0.4849  0.1990
  323TMC3    C4 4904   3.967   2.010  13.903 -0.9234 -0.0265  0.6332
  323TMC3    C5 4905   4.061   2.089  13.963  0.0191  0.5748 -0.1433
  323TMC3    C6 4906   4.137   2.170  13.883  0.6918 -0.4440  0.3724
  323TMC3     C 4907   3.873   1.908  13.706  0.0169 -0.8104 -0.0844
  323TMC3     O 4908   3.797   1.849  13.783  0.2458  0.1129 -0.2882
  323TMC3     H 4909   3.997   2.106  13.580 -2.5448 -1.3783  0.9551
  323TMC3    H1 4910   3.914   1.939  13.965 -0.8112 -2.2034 -1.7644
  323TMC3    H2 4911   4.208   2.242  13.922  0.7155  0.2978 -1.0260
  323TMC3    C7 4912   4.109   2.047  14.093 -0.4170 -0.1690  0.4474
  323TMC3    C8 4913   4.191   2.263  13.665  0.2366  0.1395  0.1833
  323TMC3    O1 4914   4.074   1.935  14.126 -0.4700 -0.2482 -0.0366
  323TMC3    O2 4915   4.310   2.271  13.691  0.6216 -0.0009 -0.4103
  324MPD2     C 4916   0.432   2.919  14.234  0.5229  1.1623 -0.6214
  324MPD2    C1 4917   0.456   3.001  14.128 -0.1829 -0.2144  0.1688
  324MPD2    C2 4918   0.347   3.030  14.045 -0.2454  0.4100 -0.2846
  324MPD2    C3 4919   0.220   2.993  14.078  0.0523 -0.0023  0.6618
  324MPD2    C4 4920   0.199   2.911  14.182  0.0503  0.3601  1.3461
  324MPD2    C5 4921   0.306   2.878  14.258 -0.5303  0.2206 -0.0332
  324MPD2     H 4922   0.367   3.088  13.956 -2.2239 -0.5107 -1.3392
  324MPD2    H1 4923   0.100   2.871  14.205 -0.8993  1.8234 -0.2238
  324MPD2    H2 4924   0.502   2.897  14.314 -0.6671  0.4775  0.2323
  324MPD2    H3 4925   0.290   2.829  14.354 -1.4372 -0.7483 -0.6881
  324MPD2     N 4926   0.103   3.034  14.011 -0.6624  1.4196  0.4766
  324MPD2    H5 4927   0.018   2.986  14.038  1.3137 -1.4705  1.5653
  324MPD2    N1 4928   0.594   3.041  14.115  0.1262 -0.0814  0.3216
  324MPD2    H7 4929   0.653   3.022  14.196 -0.8403 -1.3743  0.7373
  325TMC3    C1 4930   4.706   3.137  13.851 -0.5750  0.0385 -0.0480
  325TMC3    C2 4931   4.615   3.035  13.885  0.1326 -0.0670  0.8061
  325TMC3    C3 4932   4.490   3.082  13.922  0.5594  0.3731  0.4015
  325TMC3    C4 4933   4.671   3.262  13.825  0.7490  0.4685  0.1993
  325TMC3    C5 4934   4.545   3.302  13.864 -0.2097 -0.6809 -0.0608
  325TMC3    C6 4935   4.451   3.213  13.915 -0.2908 -0.1002 -0.0842
  325TMC3     C 4936   0.102   3.120  13.901  0.0002  0.3392 -0.0117
  325TMC3     O 4937   0.193   3.185  13.848 -0.0043  0.1285  0.3679
  325TMC3     H 4938   4.652   2.933  13.889  0.1798  0.0281  2.6097
  325TMC3    H1 4939   0.007   3.339  13.806  1.7479 -0.2870  1.0421
  325TMC3    H2 4940   4.358   3.249  13.958 -0.0786  0.3886 -0.0405
  325TMC3    C7 4941   4.547   3.438  13.911 -1.0025  0.0991 -0.4706
  325TMC3    C8 4942   4.394   2.976  13.952  0.3544  0.3065 -0.2477
  325TMC3    O1 4943   4.615   3.511  13.840  0.4657 -0.4771 -0.0563
  325TMC3    O2 4944   4.443   2.870  13.989  0.3026  0.1238  0.0388
  326MPD2     C 4945   1.109   4.125  11.002 -0.4825  0.3422 -0.1053
  326MPD2    C1 4946   1.151   4.196  10.892  0.2204 -0.6569 -0.3771
  326MPD2    C2 4947   1.276   4.261  10.893 -0.4735 -0.0022  0.5857
  326MPD2    C3 4948   1.347   4.269  11.015  0.6351  0.2339 -0.0829
  326MPD2    C4 4949   1.304   4.196  11.120 -0.8746 -0.1691  0.0582
  326MPD2    C5 4950   1.187   4.129  11.112  0.6847 -0.6542 -0.7788
  326MPD2     H 4951   1.305   4.324  10.810  0.0192  0.0402  0.7910
  326MPD2    H1 4952   1.366   4.190  11.209  0.5551 -1.4979 -1.0179
  326MPD2    H2 4953   1.013   4.075  11.009 -1.3514  1.9833 -0.4694
  326MPD2    H3 4954   1.153   4.078  11.202 -1.1237 -1.7746 -2.1048
  326MPD2     N 4955   1.451   4.367  11.019 -0.5057 -0.4482 -0.3499
  326MPD2    H5 4956   1.462   4.421  10.934 -0.6497  0.6646  0.3302
  326MPD2    N1 4957   1.087   4.205  10.771 -0.2821 -0.7515 -0.2677
  326MPD2    H7 4958   1.135   4.245  10.690 -1.0338 -0.9368 -0.8052
  327TMC3    C1 4959   0.953   4.157  10.597  0.4108  0.4169 -0.0623
  327TMC3    C2 4960   0.862   4.253  10.567 -0.0460  0.0567 -0.2289
  327TMC3    C3 4961   0.881   4.326  10.445 -0.4982 -0.0222 -0.3951
  327TMC3    C4 4962   1.064   4.140  10.524  0.7009 -0.3058 -0.0167
  327TMC3    C5 4963   1.095   4.211  10.411  0.0157  0.1205 -0.3263
  327TMC3    C6 4964   0.996   4.297  10.366  0.5981  0.8891 -0.0500
  327TMC3     C 4965   0.973   4.137  10.745 -0.0476 -0.6322 -0.0060
  327TMC3     O 4966   0.874   4.118  10.810 -0.0927  0.4432 -0.2552
  327TMC3     H 4967   0.783   4.269  10.639  0.4611  0.0230  0.3309
  327TMC3    H1 4968   1.135   4.069  10.564  0.0103 -1.1627 -0.3314
  327TMC3    H2 4969   1.014   4.357  10.278 -0.6050  3.1168  1.2268
  327TMC3    C7 4970   1.224   4.254  10.375 -0.2889  0.8080  0.0120
  327TMC3    C8 4971   0.828   4.459  10.447 -0.4153  0.2801  0.2069
  327TMC3    O1 4972   1.231   4.331  10.280 -0.3970 -0.9496  0.5461
  327TMC3    O2 4973   0.867   4.539  10.362  0.0993  0.3159 -0.0501
  328MPD2     C 4974   4.583   4.448  17.088 -0.4026  0.3153 -0.1903
  328MPD2    C1 4975   4.498   4.359  17.144 -0.3850 -0.4612 -0.2674
  328MPD2    C2 4976   4.397   4.309  17.058 -1.3588 -0.5116  0.2145
  328MPD2    C3 4977   4.376   4.365  16.931 -0.3902 -0.8291 -0.1645
  328MPD2    C4 4978   4.452   4.472  16.889  0.0518 -0.4789  0.2785
  328MPD2    C5 4979   4.556   4.505  16.970  0.6987  0.0361  0.2026
  328MPD2     H 4980   4.319   4.240  17.088 -1.1512  0.2245  2.4822
  328MPD2    H1 4981   4.447   4.508  16.786  0.0566  2.5489  1.3427
  328MPD2    H2 4982   4.668   4.482  17.147 -1.4310 -0.8080  1.9476
  328MPD2    H3 4983   4.625   4.578  16.929 -1.5310  0.3993 -2.9182
  328MPD2     N 4984   4.279   4.321  16.838 -0.0254 -0.1116 -0.0828
  328MPD2    H5 4985   4.262   4.363  16.748  1.0024 -0.6405 -0.5228
  328MPD2    N1 4986   4.504   4.330  17.286 -0.4589 -0.3008  0.1500
  328MPD2    H7 4987   4.582   4.371  17.335  0.0803 -0.5084 -0.5463
  329TMC3    C1 4988   4.446   4.246  17.500  0.3353  0.2198 -0.2055
  329TMC3    C2 4989   4.490   4.357  17.568  0.0375 -0.2084  0.1610
  329TMC3    C3 4990   4.484   4.352  17.708  0.4891 -0.2673 -0.5920
  329TMC3    C4 4991   4.392   4.141  17.569  0.4491  0.2162  0.2287
  329TMC3    C5 4992   4.393   4.132  17.706  0.2717 -0.6140 -0.3129
  329TMC3    C6 4993   4.445   4.237   0.026  0.0534  0.3500 -0.5598
  329TMC3     C 4994   4.420   4.249  17.353  0.4702 -0.1322  0.0265
  329TMC3     O 4995   4.334   4.175  17.302  0.1924 -0.8048  0.4632
  329TMC3     H 4996   4.516   4.448  17.517 -1.6750  0.4403  0.4358
  329TMC3    H1 4997   4.343   4.064  17.511  1.0868 -1.5266  1.9881
  329TMC3    H2 4998   4.456   4.234   0.133 -1.2647 -0.0617 -0.4287
  329TMC3    C7 4999   4.315   4.025   0.020 -0.2411  0.6601 -0.2737
  329TMC3    C8 5000   4.451   4.481   0.021 -0.1506  0.3029 -0.2785
  329TMC3    O1 5001   4.257   3.941  17.707  0.5363 -0.4088  0.3951
  329TMC3    O2 5002   4.495   4.577  17.717 -0.2588  0.3219 -0.0753
  330TMC3    C1 5003   1.124   3.747   9.197  0.0197  0.6997 -0.2081
  330TMC3    C2 5004   1.033   3.665   9.263 -0.2205  0.0630  0.0359
  330TMC3    C3 5005   1.058   3.627   9.391  0.0740  0.1615  0.4524
  330TMC3    C4 5006   1.245   3.773   9.252 -0.6277 -0.2026 -0.2395
  330TMC3    C5 5007   1.268   3.728   9.381  0.0528  0.0187 -0.5626
  330TMC3    C6 5008   1.177   3.653   9.451  0.1556 -0.3573  0.3220
  330TMC3     C 5009   1.056   3.838   9.107  0.5430  0.0819  0.1034
  330TMC3     O 5010   1.003   3.797   9.003 -0.6827 -0.3014  0.6273
  330TMC3     H 5011   0.929   3.659   9.232 -0.2554  0.9624 -0.0495
  330TMC3    H1 5012   1.316   3.837   9.202  0.7167 -0.2539  1.6038
  330TMC3    H2 5013   1.173   3.658   9.560 -1.4036 -1.2101  0.3043
  330TMC3    C7 5014   1.394   3.757   9.441 -0.3727  0.6814 -0.8406
  330TMC3    C8 5015   0.941   3.613   9.472  0.5511  0.2015  0.6730
  330TMC3    O1 5016   1.443   3.862   9.403 -0.1696  0.0123  0.0250
  330TMC3    O2 5017   0.850   3.694   9.467 -0.3387 -0.2593  0.0972
  331MPD2     C 5018   4.084   2.813  12.496  0.1455 -0.7881 -0.5996
  331MPD2    C1 5019   4.149   2.798  12.375  0.8425 -0.6873 -0.2971
  331MPD2    C2 5020   4.269   2.724  12.374 -0.8787  0.0931  0.1106
  331MPD2    C3 5021   4.330   2.671  12.482 -0.5326 -0.6787  0.1274
  331MPD2    C4 5022   4.256   2.676  12.603 -0.5772 -0.0455  0.4925
  331MPD2    C5 5023   4.136   2.744  12.610 -0.4760 -0.2725  0.5624
  331MPD2     H 5024   4.316   2.704  12.278  1.5016 -0.0760  1.3055
  331MPD2    H1 5025   4.288   2.635  12.699  2.0525  0.6218 -0.0868
  331MPD2    H2 5026   3.999   2.879  12.512  1.4039  0.1601  2.1708
  331MPD2    H3 5027   4.083   2.758  12.703  0.6358  2.4246  0.8094
  331MPD2     N 5028   4.456   2.610  12.467 -0.3183  0.0129  0.5148
  331MPD2    H5 5029   4.484   2.598  12.371 -1.3187 -0.4284  0.2718
  331MPD2    N1 5030   4.113   2.855  12.253  0.1686 -0.2836 -0.2150
  331MPD2    H7 5031   4.164   2.829  12.169  1.4281  2.7258 -0.3771
  332TMC3    C1 5032   4.645   2.484  12.491  0.6536  0.6547 -0.2486
  332TMC3    C2 5033   4.644   2.501  12.355 -0.6226  0.2030 -1.1481
  332TMC3    C3 5034   4.695   2.392  12.287 -0.0089 -0.1814 -0.9105
  332TMC3    C4 5035   4.701   2.370  12.553 -0.2842  0.4412 -0.1242
  332TMC3    C5 5036   0.007   2.270  12.468 -0.0275  0.6484  0.1135
  332TMC3    C6 5037   4.729   2.269  12.334  0.1747  0.2869 -0.3157
  332TMC3     C 5038   4.534   2.548  12.566  0.0506 -0.9111 -0.8066
  332TMC3     O 5039   4.506   2.521  12.683  0.2599  0.0811  0.2312
  332TMC3     H 5040   4.621   2.590  12.297 -2.6275  0.6741  0.3954
  332TMC3    H1 5041   4.701   2.372  12.661  1.8085  1.3460 -0.1421
  332TMC3    H2 5042   0.031   2.189  12.274  1.0626  1.9383 -1.9277
  332TMC3    C7 5043   0.046   2.145  12.526  0.0557 -0.6397 -0.8248
  332TMC3    C8 5044   4.677   2.399  12.142  0.0344  0.2067  0.5611
  332TMC3    O1 5045   0.012   2.047  12.462 -0.0851  0.1164 -0.0140
  332TMC3    O2 5046   4.677   2.508  12.085 -0.1531  0.3986 -0.5628
  333MPD2     C 5047   4.440   2.688  11.202 -0.2627 -0.4731  0.6649
  333MPD2    C1 5048   4.516   2.587  11.144 -0.5376  0.1061 -0.3494
  333MPD2    C2 5049   4.497   2.460  11.189 -0.1182 -0.0816  0.8989
  333MPD2    C3 5050   4.402   2.432  11.293  0.5704  0.3584 -0.0738
  333MPD2    C4 5051   4.351   2.540  11.367  0.2310 -0.6932 -0.4188
  333MPD2    C5 5052   4.376   2.668  11.321  0.2757  0.8444  0.6460
  333MPD2     H 5053   4.542   2.378  11.136  0.6297  0.5592  0.5442
  333MPD2    H1 5054   4.287   2.539  11.455  1.1921 -1.3870  0.2661
  333MPD2    H2 5055   4.452   2.790  11.168 -1.4534  0.5722  3.3831
  333MPD2    H3 5056   4.330   2.753  11.370 -0.8452 -0.4361  1.7989
  333MPD2     N 5057   4.392   2.292  11.323  0.1709  0.0021  0.3748
  333MPD2    H5 5058   4.418   2.229  11.248  1.3940  2.3699 -1.1769
  333MPD2    N1 5059   4.606   2.621  11.042 -0.2588  0.0165  0.3535
  333MPD2    H7 5060   4.621   2.719  11.019  2.7806 -1.0780 -2.2224
  334TMC3    C1 5061   0.036   2.593  10.882  0.1625 -0.4596  0.2352
  334TMC3    C2 5062   0.153   2.534  10.843  0.1781 -0.1173 -0.1698
  334TMC3    C3 5063   0.236   2.595  10.758  0.3431  0.2791  0.8759
  334TMC3    C4 5064   0.005   2.719  10.830  0.6429  0.2093 -0.1188
  334TMC3    C5 5065   0.081   2.776  10.730 -0.1526 -0.0937  0.7759
  334TMC3    C6 5066   0.201   2.715  10.698  0.8060 -0.8825  0.2592
  334TMC3     C 5067   4.688   2.532  10.982 -1.1359 -0.4111 -0.1905
  334TMC3     O 5068   4.707   2.408  10.998 -0.3315  0.0934 -0.7611
  334TMC3     H 5069   0.179   2.438  10.886  0.0553  0.6256  1.5708
  334TMC3    H1 5070   4.660   2.776  10.870  0.5798  0.3902 -0.5085
  334TMC3    H2 5071   0.263   2.756  10.620  0.2875  1.2947  1.0133
  334TMC3    C7 5072   0.055   2.906  10.676  0.7127 -0.8929 -0.8744
  334TMC3    C8 5073   0.348   2.527  10.697 -0.5820  0.2981  0.1426
  334TMC3    O1 5074   0.150   2.968  10.627  0.3866 -0.1652 -0.4954
  334TMC3    O2 5075   0.370   2.418  10.746 -0.5638 -0.0672  0.6337
  335TMC3    C1 5076   4.716   3.940   0.080  0.7924  0.2629  0.0715
  335TMC3    C2 5077   4.690   3.881  17.708 -0.1180  0.1385  0.1193
  335TMC3    C3 5078   4.706   3.965  17.597  0.8039 -0.6844 -0.5824
  335TMC3    C4 5079   0.006   4.081   0.095 -0.4022 -0.3663  0.7968
  335TMC3    C5 5080   0.029   4.149  17.735 -0.2041  0.4667 -0.0948
  335TMC3    C6 5081   0.007   4.096  17.603 -0.3965  0.1788  0.3815
  335TMC3     C 5082   4.667   3.871   0.197 -1.0184  0.2848  0.4544
  335TMC3     O 5083   4.618   3.942   0.283  0.3530  0.1061 -0.0887
  335TMC3     H 5084   4.686   3.774  17.692  0.9920  0.1363 -0.1696
  335TMC3    H1 5085   0.010   4.126   0.193  0.4554  1.6068 -0.1476
  335TMC3    H2 5086   0.006   4.154  17.511 -1.8540  1.2141  1.0496
  335TMC3    C7 5087   0.084   4.280  17.736  0.6686  0.0868  0.2188
  335TMC3    C8 5088   4.696   3.908  17.463 -0.4649  0.1912 -0.4402
  335TMC3    O1 5089   0.036   4.359   0.066 -0.3154  0.3456 -0.2725
  335TMC3    O2 5090   4.738   3.969  17.368 -0.6275 -0.5595  0.6054
  336MPD2     C 5091   4.605   1.694  16.524 -1.0756 -0.2132  0.0068
  336MPD2    C1 5092   4.565   1.653  16.398 -0.3756 -0.0333  0.5030
  336MPD2    C2 5093   4.586   1.522  16.359 -0.3201 -0.2822 -0.1064
  336MPD2    C3 5094   4.638   1.431  16.446  0.5561 -0.1383  0.8271
  336MPD2    C4 5095   4.664   1.471  16.579 -0.3320 -0.3133  0.2070
  336MPD2    C5 5096   4.656   1.604  16.613 -0.0943 -0.3461 -0.2564
  336MPD2     H 5097   4.554   1.484  16.263 -0.5304 -1.2326  0.3400
  336MPD2    H1 5098   4.712   1.404  16.649  1.5877 -0.3403 -1.1408
  336MPD2    H2 5099   4.582   1.793  16.562 -0.4629 -0.3200  0.6826
  336MPD2    H3 5100   4.693   1.641  16.708  0.9892  1.9537 -1.5691
  336MPD2     N 5101   4.663   1.299  16.405 -0.0851 -0.0763  0.5474
  336MPD2    H5 5102   4.646   1.278  16.307 -0.9218  0.4289  0.5859
  336MPD2    N1 5103   4.522   1.748  16.302  0.0860 -0.0135  0.1365
  336MPD2    H7 5104   4.512   1.705  16.210  2.0430  0.7100 -0.4277
  337TMC3    C1 5105   4.455   1.951  16.195  0.1381 -0.0659  0.0325
  337TMC3    C2 5106   4.443   1.879  16.076 -0.0105  0.0554 -0.4316
  337TMC3    C3 5107   4.395   1.943  15.967 -0.1413 -0.3885 -0.0312
  337TMC3    C4 5108   4.420   2.082  16.209  0.0559 -0.6917 -0.6029
  337TMC3    C5 5109   4.373   2.145  16.098  0.9092  0.4634  0.0963
  337TMC3    C6 5110   4.378   2.078  15.968  0.4982 -0.4927  0.1990
  337TMC3     C 5111   4.493   1.884  16.317 -0.4940 -0.1844 -0.8556
  337TMC3     O 5112   4.507   1.953  16.417 -0.1470 -0.1053  0.1726
  337TMC3     H 5113   4.464   1.773  16.063 -0.7254 -0.1578  0.1728
  337TMC3    H1 5114   4.425   2.127  16.308 -0.3852  2.0314 -1.8501
  337TMC3    H2 5115   4.355   2.134  15.879 -2.7968  0.5963  1.7475
  337TMC3    C7 5116   4.333   2.281  16.109 -0.2063  0.1011  0.1537
  337TMC3    C8 5117   4.407   1.881  15.837  0.5012  1.1240  0.0862
  337TMC3    O1 5118   4.390   2.347  16.195  0.1209 -0.3160 -0.3421
  337TMC3    O2 5119   4.460   1.773  15.829  0.3154  0.2018  0.0911
  338MPD2     C 5120   4.578   1.141   1.051  0.9113  0.8183 -0.3559
  338MPD2    C1 5121   4.545   1.152   0.917 -0.6759 -0.5649  0.6241
  338MPD2    C2 5122   4.413   1.189   0.881  0.1158  0.0315  0.1224
  338MPD2    C3 5123   4.318   1.217   0.978  0.5346  0.6372  0.2386
  338MPD2    C4 5124   4.353   1.196   1.110  0.6709 -0.1715 -0.4726
  338MPD2    C5 5125   4.483   1.153   1.144  0.2397 -0.3558  0.5812
  338MPD2     H 5126   4.385   1.204   0.778  1.7744 -1.0027 -0.4862
  338MPD2    H1 5127   4.283   1.204   1.193 -0.4460 -1.2993 -1.3101
  338MPD2    H2 5128   4.680   1.119   1.080  0.8225  2.3671  1.1867
  338MPD2    H3 5129   4.500   1.144   1.251  0.4477 -0.8417  0.5086
  338MPD2     N 5130   4.190   1.256   0.934  0.2699  0.1585 -0.2344
  338MPD2    H5 5131   4.183   1.241   0.834 -1.8906 -1.2652  0.1312
  338MPD2    N1 5132   4.636   1.109   0.818 -0.4064  0.4717  0.1719
  338MPD2    H7 5133   4.600   1.099   0.723 -0.2901 -0.2308  0.2002
  339TMC3    C1 5134   3.965   1.313   0.948 -0.5558  0.2941 -0.0097
  339TMC3    C2 5135   3.863   1.363   1.024 -0.6499  0.8369 -0.3192
  339TMC3    C3 5136   3.789   1.471   0.984 -0.7403  0.5455 -0.2585
  339TMC3    C4 5137   3.978   1.365   0.821  0.2988 -0.3143  0.3775
  339TMC3    C5 5138   3.899   1.469   0.780 -0.2097 -0.2334  0.3961
  339TMC3    C6 5139   3.809   1.524   0.859  0.8529 -0.5448  0.7376
  339TMC3     C 5140   4.078   1.266   1.015 -0.2114 -0.1195 -0.2189
  339TMC3     O 5141   4.066   1.247   1.135  0.3012  0.2162 -0.1154
  339TMC3     H 5142   3.838   1.303   1.111 -0.8394  0.6054 -0.5331
  339TMC3    H1 5143   4.053   1.339   0.747  0.3796  2.0023 -0.3287
  339TMC3    H2 5144   3.743   1.602   0.822  2.4066  0.9890  1.2307
  339TMC3    C7 5145   3.919   1.520   0.645  0.0408 -0.5305  0.5317
  339TMC3    C8 5146   3.731   1.568   1.083 -0.4346 -0.6839  0.5768
  339TMC3    O1 5147   3.894   1.639   0.626 -1.1300  0.3378 -0.4042
  339TMC3    O2 5148   3.682   1.668   1.030  0.4067 -0.0184 -0.0781
  340MPD2     C 5149   4.460   3.737  10.248 -0.2702 -0.2472  0.1382
  340MPD2    C1 5150   4.497   3.726  10.118 -0.2000  0.4504 -0.5616
  340MPD2    C2 5151   4.518   3.844  10.050  0.0388 -0.0619  0.4277
  340MPD2    C3 5152   4.506   3.967  10.112 -0.3919  0.7879  0.3063
  340MPD2    C4 5153   4.457   3.976  10.239  0.1078 -0.1698  0.8461
  340MPD2    C5 5154   4.437   3.859  10.304  0.3608 -0.4503  0.8700
  340MPD2     H 5155   4.545   3.842   9.945 -1.6980 -1.4856  0.0131
  340MPD2    H1 5156   4.444   4.072  10.288 -2.2792  0.4340 -0.9369
  340MPD2    H2 5157   4.445   3.647  10.306  1.6142  0.2801  1.4460
  340MPD2    H3 5158   4.416   3.869  10.410  0.5852 -0.4947  0.9193
  340MPD2     N 5159   4.546   4.088  10.055  0.7244 -0.8442 -0.4642
  340MPD2    H5 5160   4.551   4.173  10.110  1.4558 -0.3569 -1.2803
  340MPD2    N1 5161   4.494   3.596  10.062 -0.1459  0.2759  0.0695
  340MPD2    H7 5162   4.471   3.521  10.126  1.3303  0.3613  0.7052
  341TMC3    C1 5163   4.514   3.413   9.918  0.2985 -0.9233 -0.6575
  341TMC3    C2 5164   4.441   3.333  10.008  0.2716 -0.0109  0.0497
  341TMC3    C3 5165   4.467   3.199  10.014  0.1341  0.2312  0.4270
  341TMC3    C4 5166   4.598   3.355   9.831 -0.8424  0.3370 -0.3650
  341TMC3    C5 5167   4.624   3.221   9.842  0.6283 -0.7866 -0.5626
  341TMC3    C6 5168   4.559   3.136   9.934 -0.6142  0.1953 -0.1450
  341TMC3     C 5169   4.517   3.558   9.938  0.5469 -0.3214  0.7438
  341TMC3     O 5170   4.541   3.628   9.839  0.1103 -0.8407  0.5714
  341TMC3     H 5171   4.360   3.378  10.064 -1.2026 -1.2290 -1.0883
  341TMC3    H1 5172   4.662   3.416   9.769 -1.3459 -2.0267 -3.1967
  341TMC3    H2 5173   4.582   3.030   9.942  1.1522  0.6867  1.2411
  341TMC3    C7 5174   4.732   3.168   9.750 -0.3299  0.2408 -0.0870
  341TMC3    C8 5175   4.366   3.107  10.067  0.2444  0.1952 -0.6607
  341TMC3    O1 5176   0.048   3.239   9.667 -0.0075 -0.0790  0.1448
  341TMC3    O2 5177   4.367   2.992  10.024 -0.0402  0.0337 -0.7012
  342MPD2     C 5178   2.924   1.857   0.163  0.3891  0.3371  0.6291
  342MPD2    C1 5179   2.995   1.892   0.053 -0.2273  0.2215  0.3148
  342MPD2    C2 5180   3.023   2.025   0.028 -0.3472 -0.0147  0.8029
  342MPD2    C3 5181   2.980   2.133   0.110  0.1426  0.3013  0.2548
  342MPD2    C4 5182   2.892   2.098   0.215 -0.1585 -0.8309 -0.0393
  342MPD2    C5 5183   2.875   1.964   0.238  0.4079  0.3652 -0.5032
  342MPD2     H 5184   3.088   2.052  17.699 -1.0886 -2.1245 -0.4639
  342MPD2    H1 5185   2.853   2.170   0.286 -0.4056  0.8388 -1.8443
  342MPD2    H2 5186   2.903   1.753   0.186 -2.0177  0.6579 -0.0591
  342MPD2    H3 5187   2.821   1.945   0.330 -0.4559 -0.3888 -1.1597
  342MPD2     N 5188   3.005   2.271   0.091 -0.2322  0.1964  0.9617
  342MPD2    H5 5189   2.966   2.335   0.160 -0.0292 -1.7179  2.8395
  342MPD2    N1 5190   3.038   1.801  17.708 -0.1256 -0.6545 -0.2534
  342MPD2    H7 5191   3.093   1.839  17.631 -0.4043  0.9804  0.3557
  343TMC3    C1 5192   3.057   1.594  17.583  0.4720 -0.2244 -0.1125
  343TMC3    C2 5193   3.139   1.660  17.497 -0.5381 -0.6648 -0.2621
  343TMC3    C3 5194   3.177   1.595  17.379 -0.1107 -0.2472  0.5669
  343TMC3    C4 5195   3.013   1.469  17.556 -0.5051  0.3310 -0.5628
  343TMC3    C5 5196   3.051   1.406  17.441  0.1238  0.4527  0.3461
  343TMC3    C6 5197   3.128   1.468  17.350 -0.6523  0.0485 -0.1165
  343TMC3     C 5198   3.008   1.670  17.699  0.6574  0.4790  0.4342
  343TMC3     O 5199   2.936   1.602   0.022  0.0625  0.0864  0.0013
  343TMC3     H 5200   3.179   1.757  17.524 -1.6727 -0.8023  1.9518
  343TMC3    H1 5201   2.934   1.434  17.622 -0.9867  0.7590 -0.9126
  343TMC3    H2 5202   3.167   1.417  17.263 -4.1255 -2.0127 -0.4775
  343TMC3    C7 5203   2.985   1.283  17.396 -0.2438 -0.1430  0.3435
  343TMC3    C8 5204   3.287   1.654  17.295  0.6173 -0.1780 -0.1852
  343TMC3    O1 5205   2.986   1.248  17.280  0.1366  0.2379  0.0697
  343TMC3    O2 5206   3.329   1.766  17.331  0.1246 -0.4352  0.1330
  344MPD2     C 5207   2.977   2.099  10.988  0.4879  0.3928 -0.1788
  344MPD2    C1 5208   2.938   2.077  10.859  1.2177 -0.3585 -0.1970
  344MPD2    C2 5209   3.011   2.129  10.751  0.3945  0.5152  0.5784
  344MPD2    C3 5210   3.126   2.197  10.775  0.0552 -0.1342 -0.3143
  344MPD2    C4 5211   3.163   2.209  10.907 -0.3450  0.1576  0.5602
  344MPD2    C5 5212   3.103   2.152  11.014 -0.0385 -0.4817 -0.0533
  344MPD2     H 5213   2.963   2.125  10.653  0.6891 -1.6950  0.5199
  344MPD2    H1 5214   3.253   2.263  10.932  0.7929 -0.4337 -2.3181
  344MPD2    H2 5215   2.926   2.037  11.061  2.1848 -1.5265 -0.6258
  344MPD2    H3 5216   3.144   2.162  11.114  0.4450  0.8613 -0.3952
  344MPD2     N 5217   3.209   2.266  10.681  0.5538  0.1952 -0.1302
  344MPD2    H5 5218   3.283   2.326  10.715  0.6491 -0.4288  0.7538
  344MPD2    N1 5219   2.807   2.030  10.832  0.0852 -0.5374  0.3560
  344MPD2    H7 5220   2.790   1.988  10.741  1.6544  2.0447 -1.1046
  345TMC3    C1 5221   3.298   2.351  10.485 -0.7914  0.1562 -0.0676
  345TMC3    C2 5222   3.398   2.393  10.566  0.3743 -0.1046 -0.1746
  345TMC3    C3 5223   3.453   2.517  10.541 -0.5142  0.1289 -0.7418
  345TMC3    C4 5224   3.267   2.422  10.375  0.9912 -0.2309 -0.1937
  345TMC3    C5 5225   3.325   2.546  10.353  0.3765 -0.1623 -0.4502
  345TMC3    C6 5226   3.420   2.600  10.439 -0.0351 -0.2928 -0.0327
  345TMC3     C 5227   3.197   2.260  10.541 -0.0870  0.4998  0.2928
  345TMC3     O 5228   3.103   2.223  10.478  0.2506  0.5570 -0.1651
  345TMC3     H 5229   3.450   2.328  10.635 -1.1775 -0.0574  1.0244
  345TMC3    H1 5230   3.182   2.402  10.310  0.5318  0.1860  0.2830
  345TMC3    H2 5231   3.456   2.703  10.436  0.6315 -0.5889 -2.0132
  345TMC3    C7 5232   3.317   2.628  10.232 -0.7619  0.2467 -0.2396
  345TMC3    C8 5233   3.506   2.574  10.660 -0.3326 -0.1603 -0.4523
  345TMC3    O1 5234   3.350   2.749  10.244 -0.3778  0.1382 -0.8447
  345TMC3    O2 5235   3.464   2.513  10.761 -0.2958 -0.6510 -0.3399
  346MPD2     C 5236   3.595   3.685  14.497 -0.8634  0.4271 -0.4554
  346MPD2    C1 5237   3.681   3.647  14.400  0.0167 -0.3302  0.6065
  346MPD2    C2 5238   3.810   3.641  14.445 -0.3663 -0.1903  0.2314
  346MPD2    C3 5239   3.848   3.655  14.576  0.5333  0.7460 -0.9042
  346MPD2    C4 5240   3.762   3.692  14.671  0.2688  0.6093 -1.0007
  346MPD2    C5 5241   3.635   3.721  14.628 -0.2156 -0.5086 -0.0465
  346MPD2     H 5242   3.878   3.606  14.367  1.0756  2.4275  0.3199
  346MPD2    H1 5243   3.780   3.712  14.776 -3.3003 -0.8621 -0.0962
  346MPD2    H2 5244   3.488   3.695  14.482 -1.0208 -1.5268 -0.6796
  346MPD2    H3 5245   3.563   3.747  14.705 -0.4195 -0.1784 -0.3495
  346MPD2     N 5246   3.983   3.617  14.609  0.4177 -1.2205  0.2978
  346MPD2    H5 5247   4.035   3.563  14.541 -0.0817 -0.5463 -0.6087
  346MPD2    N1 5248   3.635   3.636  14.267 -0.1351  0.3589 -0.2591
  346MPD2    H7 5249   3.705   3.619  14.195 -0.3576 -0.3117 -0.3208
  347TMC3    C1 5250   4.170   3.574  14.747  0.0308  0.0982 -0.0115
  347TMC3    C2 5251   4.256   3.621  14.653 -0.8710 -0.1911 -0.9882
  347TMC3    C3 5252   4.376   3.672  14.695 -1.0887  1.0813  0.4131
  347TMC3    C4 5253   4.202   3.573  14.881  1.3087 -1.1039 -0.1378
  347TMC3    C5 5254   4.325   3.625  14.919  0.0209  0.1502 -0.3507
  347TMC3    C6 5255   4.408   3.685  14.823  0.5217  0.5442 -0.1132
  347TMC3     C 5256   4.037   3.628  14.737  0.1801 -0.0406 -0.6791
  347TMC3     O 5257   4.001   3.683  14.840  0.0125  0.2034  0.0537
  347TMC3     H 5258   4.209   3.654  14.561  0.5784 -2.1367 -2.4259
  347TMC3    H1 5259   4.139   3.526  14.955  0.4843 -0.0215 -0.1435
  347TMC3    H2 5260   4.504   3.731  14.846  1.1835 -1.5196  1.1714
  347TMC3    C7 5261   4.320   3.669  15.057  0.7200  0.0674  0.0644
  347TMC3    C8 5262   4.469   3.710  14.595 -0.1575  0.7218 -0.2106
  347TMC3    O1 5263   4.224   3.637  15.127 -0.1102 -0.1453  0.2562
  347TMC3    O2 5264   4.557   3.785  14.631 -0.0705 -0.4043  1.0801
  348MPD2     C 5265   2.413   3.428  12.120 -0.2295 -0.3325  0.0311
  348MPD2    C1 5266   2.307   3.380  12.043  0.1131 -0.2770  0.3199
  348MPD2    C2 5267   2.215   3.467  11.993  0.4211 -0.8048 -0.8158
  348MPD2    C3 5268   2.242   3.602  11.990  0.3201  0.4835 -0.0291
  348MPD2    C4 5269   2.350   3.648  12.062 -0.3947  0.1142  0.5806
  348MPD2    C5 5270   2.437   3.563  12.121  0.1668  0.0043 -0.0115
  348MPD2     H 5271   2.120   3.434  11.954  0.3122 -0.0384 -1.2142
  348MPD2    H1 5272   2.380   3.752  12.063  3.2713 -0.9585  1.0701
  348MPD2    H2 5273   2.480   3.362  12.174 -0.3546  0.2396  0.8820
  348MPD2    H3 5274   2.531   3.590  12.168 -0.8423  3.1240  0.1886
  348MPD2     N 5275   2.154   3.681  11.906  0.1567  0.5290 -0.7179
  348MPD2    H5 5276   2.099   3.630  11.838 -0.0971 -1.1983  0.7894
  348MPD2    N1 5277   2.287   3.250  12.009  0.4550 -0.6849 -0.1999
  348MPD2    H7 5278   2.218   3.236  11.936 -0.1262  2.8143 -0.3063
  349TMC3    C1 5279   2.308   3.021  11.991  0.3941  0.3736  0.5831
  349TMC3    C2 5280   2.350   2.904  12.057  0.2486 -0.4536 -0.4504
  349TMC3    C3 5281   2.291   2.787  12.018 -0.1712  0.2593  0.0532
  349TMC3    C4 5282   2.218   3.011  11.889  0.3046  0.2306  0.7324
  349TMC3    C5 5283   2.170   2.884  11.852 -1.0402 -0.2545 -0.0465
  349TMC3    C6 5284   2.192   2.769  11.919  0.1709 -0.3012 -0.0410
  349TMC3     C 5285   2.355   3.142  12.052 -0.5977 -0.3772 -0.7125
  349TMC3     O 5286   2.438   3.133  12.144 -0.1713  0.3039  0.2404
  349TMC3     H 5287   2.420   2.907  12.139  0.3586 -2.2084 -0.4828
  349TMC3    H1 5288   2.170   3.094  11.838 -0.5057 -0.4073  0.4586
  349TMC3    H2 5289   2.141   2.678  11.889 -1.7841  0.8248 -0.1304
  349TMC3    C7 5290   2.086   2.873  11.730 -0.3845 -0.2102  0.6728
  349TMC3    C8 5291   2.339   2.669  12.083  0.1405 -0.7238 -1.1921
  349TMC3    O1 5292   2.023   2.766  11.718 -0.6107  0.4422 -0.0431
  349TMC3    O2 5293   2.440   2.682  12.149  0.5724  0.5518  0.0801
  350MPD2     C 5294   1.165   1.550  10.555  0.0194  0.3458  0.9116
  350MPD2    C1 5295   1.143   1.415  10.563  0.2203 -0.3750  0.9706
  350MPD2    C2 5296   1.120   1.357  10.686  0.5039  0.1695 -0.5490
  350MPD2    C3 5297   1.129   1.435  10.800 -0.1544 -0.4397 -0.3434
  350MPD2    C4 5298   1.156   1.571  10.797  0.5430 -0.1878  0.2432
  350MPD2    C5 5299   1.174   1.625  10.667 -0.7406  0.0735 -0.4173
  350MPD2     H 5300   1.100   1.250  10.683  0.3744  0.1393  1.0352
  350MPD2    H1 5301   1.164   1.636  10.884 -0.6572  0.9082 -0.4736
  350MPD2    H2 5302   1.177   1.590  10.456  0.1020 -1.0480  0.3508
  350MPD2    H3 5303   1.177   1.733  10.656 -2.5332  0.3641  2.0399
  350MPD2     N 5304   1.106   1.357  10.922  0.2493 -0.4688  0.0941
  350MPD2    H5 5305   1.069   1.262  10.914  0.8723 -0.4348 -2.8663
  350MPD2    N1 5306   1.140   1.332  10.446 -1.2965 -0.1477 -0.3046
  350MPD2    H7 5307   1.148   1.231  10.448 -2.7754 -0.2654 -0.7052
  351TMC3    C1 5308   1.158   1.286  10.215 -0.1794  0.7951 -0.5483
  351TMC3    C2 5309   1.269   1.207  10.224  0.3496  0.1313 -0.4855
  351TMC3    C3 5310   1.301   1.122  10.119  0.3192 -0.1829 -0.4958
  351TMC3    C4 5311   1.076   1.289  10.106 -0.0861 -0.0671 -0.0939
  351TMC3    C5 5312   1.094   1.187  10.022 -0.2550  0.5527  0.2520
  351TMC3    C6 5313   1.200   1.106  10.026 -0.1765 -0.8959 -0.5022
  351TMC3     C 5314   1.132   1.382  10.317  0.2062 -0.0493 -0.0636
  351TMC3     O 5315   1.085   1.491  10.291  0.8230 -0.5228  0.6789
  351TMC3     H 5316   1.338   1.212  10.308 -0.1127 -0.9000 -0.0371
  351TMC3    H1 5317   0.989   1.354  10.098 -0.0366 -0.2918 -2.5493
  351TMC3    H2 5318   1.226   1.047   9.938  0.4191 -2.7946  0.9279
  351TMC3    C7 5319   1.023   1.187   9.890  0.4418  0.1998  0.4712
  351TMC3    C8 5320   1.408   1.031  10.124 -0.7258 -0.0397 -0.3068
  351TMC3    O1 5321   1.002   1.298   9.837  0.3164 -0.5617  0.1839
  351TMC3    O2 5322   1.420   0.957  10.029 -0.2064  0.2559  0.5956
  352MPD2     C 5323   4.538   2.568   1.084 -0.1560  0.2359 -0.1151
  352MPD2    C1 5324   4.428   2.549   1.166 -0.3197 -0.1297 -0.1206
  352MPD2    C2 5325   4.416   2.444   1.258 -0.0771  0.9369 -0.5567
  352MPD2    C3 5326   4.526   2.366   1.274  0.0272 -0.3652  0.3902
  352MPD2    C4 5327   4.645   2.390   1.200  0.2873 -0.0532 -0.3980
  352MPD2    C5 5328   4.645   2.482   1.098 -0.3002 -0.3076  0.6407
  352MPD2     H 5329   4.324   2.421   1.311 -0.0065 -1.6611 -1.5742
  352MPD2    H1 5330   4.730   2.325   1.217  0.0325  0.5769  3.2747
  352MPD2    H2 5331   4.535   2.644   1.007 -0.4339 -0.2178 -0.5545
  352MPD2    H3 5332   4.730   2.510   1.037  0.5570 -2.1501  1.0103
  352MPD2     N 5333   4.515   2.270   1.370 -0.3070 -0.1379  0.1003
  352MPD2    H5 5334   4.422   2.254   1.407  0.1341  1.0287  1.7107
  352MPD2    N1 5335   4.332   2.645   1.157 -0.0520 -0.2128  0.2999
  352MPD2    H7 5336   4.322   2.693   1.068 -1.4828  1.4025  1.3257
  353TMC3    C1 5337   4.586   2.086   1.501 -0.1940  0.0525 -0.3125
  353TMC3    C2 5338   4.688   2.051   1.586  0.8272 -0.6109  0.1358
  353TMC3    C3 5339   4.692   1.917   1.633  0.3057 -0.5203  0.1236
  353TMC3    C4 5340   4.499   1.998   1.441  0.2476 -0.3885 -0.2390
  353TMC3    C5 5341   4.517   1.867   1.474  0.7431  0.5089  0.0071
  353TMC3    C6 5342   4.615   1.823   1.567  0.2154 -0.2187 -0.0787
  353TMC3     C 5343   4.620   2.198   1.418  0.0704  0.3614  0.3284
  353TMC3     O 5344   0.004   2.211   1.406 -0.6368 -0.9399  0.3642
  353TMC3     H 5345   0.026   2.122   1.616  1.0925 -1.5232  1.6486
  353TMC3    H1 5346   4.432   2.027   1.361  0.9973 -0.1733 -0.7859
  353TMC3    H2 5347   4.623   1.719   1.598 -1.2303 -0.2971  0.0097
  353TMC3    C7 5348   4.450   1.763   1.394  0.5143  0.9100 -0.2739
  353TMC3    C8 5349   0.086   1.889   1.689 -0.2928  0.0640 -0.2361
  353TMC3    O1 5350   4.510   1.655   1.388 -0.7407 -0.2699  0.1432
  353TMC3    O2 5351   0.148   1.975   1.746 -0.5218 -1.1891 -0.8509
  354TMC3    C1 5352   1.272   3.950  13.710  0.6592 -0.2707 -0.0348
  354TMC3    C2 5353   1.277   4.090  13.684  0.2222  0.1432 -0.9105
  354TMC3    C3 5354   1.262   4.131  13.549  0.3957 -0.6448 -0.2972
  354TMC3    C4 5355   1.261   3.864  13.606 -0.7023 -0.3014  0.5167
  354TMC3    C5 5356   1.268   3.910  13.474  0.5561  0.3700 -0.1369
  354TMC3    C6 5357   1.258   4.040  13.452  1.2282 -0.3287 -0.3033
  354TMC3     C 5358   1.290   3.894  13.846  0.9470 -0.3397  0.2699
  354TMC3     O 5359   1.234   3.785  13.871  0.7017 -0.0138 -0.1127
  354TMC3     H 5360   1.287   4.153  13.772  1.7416 -0.0502 -0.9448
  354TMC3    H1 5361   1.281   3.759  13.620 -0.1583 -0.3150 -0.4023
  354TMC3    H2 5362   1.255   4.074  13.349  1.5364 -0.7830 -0.4616
  354TMC3    C7 5363   1.323   3.824  13.369  0.3621 -0.3689  0.0389
  354TMC3    C8 5364   1.286   4.266  13.506 -0.0559  0.7903  0.7147
  354TMC3    O1 5365   1.343   3.710  13.408 -0.5012 -1.3238  0.0702
  354TMC3    O2 5366   1.240   4.292  13.394 -0.6084  0.5787 -0.3676
  355MPD2     C 5367   1.081   0.380  12.210  0.6758 -0.3270 -0.1991
  355MPD2    C1 5368   1.139   0.423  12.083 -0.1955 -0.5632 -0.6987
  355MPD2    C2 5369   1.271   0.442  12.078  0.3051  0.3827 -0.0891
  355MPD2    C3 5370   1.353   0.432  12.192 -0.6533  0.6022 -0.0531
  355MPD2    C4 5371   1.297   0.384  12.306  0.0331  0.6378  0.1875
  355MPD2    C5 5372   1.166   0.358  12.315  0.5981  0.4764  0.1437
  355MPD2     H 5373   1.319   0.452  11.981  1.1309 -0.6706  0.2111
  355MPD2    H1 5374   1.352   0.362  12.396 -0.1246  1.7879  0.5668
  355MPD2    H2 5375   0.974   0.370  12.220  1.1363 -3.8175  1.0955
  355MPD2    H3 5376   1.129   0.312  12.406  1.7518 -1.3463 -0.2958
  355MPD2     N 5377   1.491   0.464  12.199  0.0735  0.3005  0.1044
  355MPD2    H5 5378   1.531   0.482  12.290  3.0031 -1.1216 -0.8907
  355MPD2    N1 5379   1.052   0.446  11.972  0.1521 -0.2455  0.2006
  355MPD2    H7 5380   0.959   0.405  11.982 -0.4498  1.4569  1.6418
  356TMC3    C1 5381   1.685   0.586  12.126 -0.6531 -0.5659 -0.1865
  356TMC3    C2 5382   1.709   0.696  12.053 -0.4677 -0.6848 -0.0780
  356TMC3    C3 5383   1.787   0.796  12.103 -0.5333  0.8749  0.2088
  356TMC3    C4 5384   1.746   0.562  12.247  0.2633 -0.2978 -0.1497
  356TMC3    C5 5385   1.840   0.655  12.285  0.2578 -0.5646 -1.0203
  356TMC3    C6 5386   1.871   0.767  12.210 -0.2498  0.9214  0.2086
  356TMC3     C 5387   1.562   0.515  12.092 -0.2143  0.2949  0.0730
  356TMC3     O 5388   1.542   0.511  11.972  0.3223  0.4423 -0.1525
  356TMC3     H 5389   1.643   0.716  11.969  1.0112 -0.4782 -1.1911
  356TMC3    H1 5390   1.728   0.475  12.309  0.2073 -1.3370 -1.6228
  356TMC3    H2 5391   1.954   0.834  12.229  0.2468  0.7700 -1.4724
  356TMC3    C7 5392   1.918   0.625  12.404  0.8470 -0.7591  0.2421
  356TMC3    C8 5393   1.827   0.900  12.014 -0.1537 -0.2109  0.3279
  356TMC3    O1 5394   1.928   0.505  12.425 -0.0446  0.1685 -0.8830
  356TMC3    O2 5395   1.804   0.878  11.896  0.1343 -0.1013  0.8997
  357MPD2     C 5396   1.725   0.117   0.988  0.2249  0.4644  0.1415
  357MPD2    C1 5397   1.809   0.128   1.091 -0.3716  0.7533  0.1631
  357MPD2    C2 5398   1.767   0.193   1.208 -0.3565  0.3744 -0.3288
  357MPD2    C3 5399   1.643   0.253   1.231 -0.1674  0.0134  0.0393
  357MPD2    C4 5400   1.561   0.244   1.120  0.2162  0.0486 -0.0217
  357MPD2    C5 5401   1.604   0.184   1.000 -0.2388  0.3559 -0.2465
  357MPD2     H 5402   1.841   0.197   1.287 -1.9984  2.0494  1.1247
  357MPD2    H1 5403   1.464   0.293   1.121  1.0340  1.6774  0.5481
  357MPD2    H2 5404   1.736   0.057   0.898  2.7124  1.3886 -0.1735
  357MPD2    H3 5405   1.524   0.195   0.927 -0.2467  0.5314 -0.2109
  357MPD2     N 5406   1.590   0.320   1.342  0.1410  0.1565  0.3259
  357MPD2    H5 5407   1.494   0.353   1.339  1.0468  2.8236  0.2868
  357MPD2    N1 5408   1.932   0.057   1.080  0.3780  0.1851 -0.1864
  357MPD2    H7 5409   1.944   0.009   0.991 -0.6265 -1.8908  0.8162
  358TMC3    C1 5410   2.137   4.700   1.144  0.7903  0.4003 -0.0526
  358TMC3    C2 5411   2.149   4.647   1.013  0.0603  0.0456  0.5838
  358TMC3    C3 5412   2.275   4.584   0.990 -0.1403  0.3036 -0.4605
  358TMC3    C4 5413   2.233   4.694   1.237  0.3637 -0.4876  0.0906
  358TMC3    C5 5414   2.347   4.628   1.214 -0.7530  0.2593 -0.1009
  358TMC3    C6 5415   2.368   4.577   1.092  0.7352  0.5355  0.0265
  358TMC3     C 5416   2.029   0.048   1.179  0.4174 -0.1248 -0.0642
  358TMC3     O 5417   2.035   0.099   1.294 -0.2621  0.8173  0.0955
  358TMC3     H 5418   2.073   4.657   0.937 -0.1533 -1.8691  0.5422
  358TMC3    H1 5419   2.208   4.734   1.335 -3.0588  2.2643 -1.9009
  358TMC3    H2 5420   2.458   4.526   1.059  1.4920  1.6662  0.3556
  358TMC3    C7 5421   2.453   4.626   1.313  0.5184  0.0791 -0.4401
  358TMC3    C8 5422   2.296   4.511   0.870  0.5799  0.8688 -0.2631
  358TMC3    O1 5423   2.435   4.683   1.421 -0.0147 -0.7528  0.5531
  358TMC3    O2 5424   2.408   4.477   0.844 -0.0846  0.6439 -0.6110
  359MPD2     C 5425   2.017   3.505  12.248 -0.4516  0.1529  0.0539
  359MPD2    C1 5426   1.892   3.554  12.217  0.5504 -0.4218 -1.0593
  359MPD2    C2 5427   1.790   3.464  12.246 -0.5101 -1.1056 -0.4199
  359MPD2    C3 5428   1.808   3.332  12.282 -0.4143 -0.4460  0.4621
  359MPD2    C4 5429   1.931   3.292  12.315  0.3152 -0.0629 -0.1318
  359MPD2    C5 5430   2.030   3.374  12.280  0.4117 -0.1042  0.7308
  359MPD2     H 5431   1.688   3.501  12.238 -0.3718 -0.9150 -1.3485
  359MPD2    H1 5432   1.952   3.195  12.359 -0.1983  0.3841  1.0770
  359MPD2    H2 5433   2.102   3.573  12.245  0.7147 -1.2736  1.4568
  359MPD2    H3 5434   2.129   3.333  12.292  0.3543 -0.7371 -1.0334
  359MPD2     N 5435   1.708   3.233  12.294 -0.2392 -0.4411  0.0811
  359MPD2    H5 5436   1.747   3.140  12.307 -0.2177 -0.5168 -0.4988
  359MPD2    N1 5437   1.866   3.687  12.179  0.1943 -0.0619 -0.0334
  359MPD2    H7 5438   1.788   3.697  12.114  0.3349 -0.9589 -0.3448
  360TMC3    C1 5439   1.902   3.925  12.179  0.3953 -0.2128 -0.2933
  360TMC3    C2 5440   1.982   4.034  12.219 -0.3809  0.2816  0.0253
  360TMC3    C3 5441   1.973   4.146  12.147  0.0476  1.5520 -0.6323
  360TMC3    C4 5442   1.829   3.929  12.063  0.4579  0.1096  0.5063
  360TMC3    C5 5443   1.821   4.048  11.998 -0.4271  0.4796 -0.5012
  360TMC3    C6 5444   1.892   4.156  12.040 -0.9251  0.0597 -1.1789
  360TMC3     C 5445   1.940   3.795  12.221 -0.2795 -0.0762  0.7182
  360TMC3     O 5446   2.031   3.792  12.301 -0.1393 -0.1821  0.0279
  360TMC3     H 5447   2.057   4.017  12.296 -2.3009  1.4495  2.1273
  360TMC3    H1 5448   1.772   3.843  12.027  0.9324 -0.3226  0.7831
  360TMC3    H2 5449   1.899   4.239  11.971  0.8189  0.1000 -0.9528
  360TMC3    C7 5450   1.742   4.063  11.872  0.4431 -0.1435 -0.4392
  360TMC3    C8 5451   2.095   4.228  12.131 -0.0840 -0.0849  0.2397
  360TMC3    O1 5452   1.793   4.140  11.796 -0.5134  0.1512 -0.2948
  360TMC3    O2 5453   2.076   4.348  12.126  0.1049 -0.0220  0.6278
  361MPD2     C 5454   4.256   2.491  16.537  0.0610 -0.2540  0.1353
  361MPD2    C1 5455   4.226   2.595  16.628  0.0373  0.2559 -0.3395
  361MPD2    C2 5456   4.211   2.565  16.763  1.3725 -0.0741  0.3089
  361MPD2    C3 5457   4.210   2.437  16.803 -0.4887  0.5354  0.4053
  361MPD2    C4 5458   4.223   2.329  16.714  0.1958  0.3341 -0.0611
  361MPD2    C5 5459   4.258   2.360  16.583  0.6904 -0.0278  0.6642
  361MPD2     H 5460   4.211   2.646  16.836  2.1069  0.6872 -0.5356
  361MPD2    H1 5461   4.224   2.226  16.748 -2.3502 -0.6638 -3.1163
  361MPD2    H2 5462   4.298   2.516  16.440 -0.8030 -2.1952 -0.7461
  361MPD2    H3 5463   4.275   2.271  16.523  1.1452  1.8030 -1.9426
  361MPD2     N 5464   4.189   2.399  16.936  0.1427  0.4304 -0.1326
  361MPD2    H5 5465   4.181   2.299  16.954  0.2926  0.0314 -2.3463
  361MPD2    N1 5466   4.209   2.728  16.595 -0.1063 -0.2521 -0.7098
  361MPD2    H7 5467   4.191   2.783  16.678 -1.0097 -0.4956 -0.7470
  362TMC3    C1 5468   4.135   2.918  16.477 -0.0094 -0.0473  0.4520
  362TMC3    C2 5469   4.171   2.997  16.586 -0.4059  0.0842 -0.0056
  362TMC3    C3 5470   4.094   3.107  16.609  0.1994  0.2274  0.1563
  362TMC3    C4 5471   4.032   2.946  16.389 -0.0818  0.2498 -0.0986
  362TMC3    C5 5472   3.954   3.055  16.425 -0.6377 -0.0047  0.2333
  362TMC3    C6 5473   3.994   3.139  16.528 -0.0322 -0.3776  0.5936
  362TMC3     C 5474   4.182   2.777  16.467 -0.3385  0.1057 -0.0730
  362TMC3     O 5475   4.203   2.723  16.360 -0.2430 -0.0368 -0.4687
  362TMC3     H 5476   4.254   2.960  16.644  1.0303  0.5960 -1.7249
  362TMC3    H1 5477   4.004   2.875  16.312 -1.1117 -0.8428  1.2703
  362TMC3    H2 5478   3.924   3.218  16.555  0.4715  0.7450 -1.3890
  362TMC3    C7 5479   3.818   3.070  16.356  0.3288  0.3771  0.6808
  362TMC3    C8 5480   4.153   3.203  16.703  0.4267  0.7979 -0.9438
  362TMC3    O1 5481   3.777   3.189  16.347 -0.2109 -0.3828 -0.1172
  362TMC3    O2 5482   4.269   3.200  16.737  0.6518 -0.0373  0.3440
  363TMC3    C1 5483   2.501   0.775   9.683  0.3849  0.3078  1.1255
  363TMC3    C2 5484   2.549   0.691   9.787 -0.1011 -0.5190 -0.4589
  363TMC3    C3 5485   2.513   0.720   9.921  0.0237 -0.3039  1.0808
  363TMC3    C4 5486   2.410   0.873   9.714 -0.3874 -0.5897 -0.3405
  363TMC3    C5 5487   2.383   0.906   9.842 -0.0420  1.1086  1.0332
  363TMC3    C6 5488   2.432   0.829   9.947  0.1185  0.7043  0.1639
  363TMC3     C 5489   2.489   0.727   9.547  0.2810  0.9532 -0.0154
  363TMC3     O 5490   2.418   0.788   9.466 -0.4348  0.0140 -0.0341
  363TMC3     H 5491   2.617   0.607   9.779  0.1413 -0.3085 -0.6004
  363TMC3    H1 5492   2.355   0.913   9.629 -0.5175 -1.5332 -0.6953
  363TMC3    H2 5493   2.395   0.850  10.047  1.9383  2.6180  0.4326
  363TMC3    C7 5494   2.277   1.001   9.857  0.0946  0.1968  0.7966
  363TMC3    C8 5495   2.526   0.616  10.017  0.5442 -0.4547 -0.9032
  363TMC3    O1 5496   2.217   1.030   9.756  0.1071 -0.0937 -0.0051
  363TMC3    O2 5497   2.521   0.499   9.971 -0.4134  0.1892 -0.2528
  364MPD2     C 5498   0.523   0.097  10.558 -0.4551  0.4980  0.5178
  364MPD2    C1 5499   0.658   0.103  10.528  0.0249 -0.4794  0.2313
  364MPD2    C2 5500   0.723   4.726  10.525 -0.1429 -0.1536  0.2077
  364MPD2    C3 5501   0.652   4.601  10.533  0.4435  0.9579  0.3038
  364MPD2    C4 5502   0.516   4.593  10.562  0.1371 -0.0856 -0.1040
  364MPD2    C5 5503   0.456   4.717  10.574  0.2574 -0.4164  0.5956
  364MPD2     H 5504   0.830   4.711  10.512 -0.1070 -0.8556  1.3906
  364MPD2    H1 5505   0.459   4.501  10.563  1.0459 -0.6411  0.9241
  364MPD2    H2 5506   0.464   0.185  10.578 -0.6336  0.4289  0.2962
  364MPD2    H3 5507   0.350   4.717  10.599  0.7145 -1.4388  2.4833
  364MPD2     N 5508   0.711   4.474  10.516 -0.2961  0.5267 -0.1110
  364MPD2    H5 5509   0.652   4.396  10.543 -0.3485  1.0971  1.4267
  364MPD2    N1 5510   0.709   0.230  10.505 -0.2806 -0.2537 -0.0004
  364MPD2    H7 5511   0.634   0.298  10.504  0.7055  0.8035 -1.7228
  365TMC3    C1 5512   0.873   0.399  10.451  0.1849  0.5007  0.0226
  365TMC3    C2 5513   0.970   0.427  10.358  0.0342 -0.6184  0.0400
  365TMC3    C3 5514   1.018   0.552  10.370 -0.2838 -0.5593 -0.3488
  365TMC3    C4 5515   0.838   0.484  10.557 -0.0388  0.2270 -0.0663
  365TMC3    C5 5516   0.891   0.606  10.561  0.7371 -0.7722  0.3601
  365TMC3    C6 5517   0.979   0.641  10.463 -0.5724  0.3596  0.3332
  365TMC3     C 5518   0.837   0.254  10.462 -0.2284  0.1729 -0.0220
  365TMC3     O 5519   0.917   0.170  10.415  0.1951 -0.4489 -0.1999
  365TMC3     H 5520   0.982   0.367  10.268  0.6824 -0.3399 -0.0631
  365TMC3    H1 5521   0.765   0.452  10.631  0.7431  2.8626  1.8305
  365TMC3    H2 5522   1.027   0.738  10.464 -1.7598  0.9504 -0.0778
  365TMC3    C7 5523   0.873   0.702  10.667 -1.3041  0.1490  0.6271
  365TMC3    C8 5524   1.105   0.608  10.270 -0.4704 -0.9331  0.2204
  365TMC3    O1 5525   0.928   0.813  10.668 -0.4871 -0.6954 -0.2654
  365TMC3    O2 5526   1.130   0.728  10.281  0.0712 -0.9134 -0.0107
  366MPD2     C 5527   4.291   0.577  15.180 -0.2286 -0.5242  0.2329
  366MPD2    C1 5528   4.326   0.699  15.133  0.5051  0.2958 -0.8180
  366MPD2    C2 5529   4.461   0.716  15.107  0.4993 -0.3519 -0.1790
  366MPD2    C3 5530   4.555   0.627  15.144 -0.2080 -0.4385  0.1893
  366MPD2    C4 5531   4.513   0.497  15.181 -0.0610  0.2517  0.1034
  366MPD2    C5 5532   4.377   0.477  15.190 -0.5281 -0.0820 -0.2675
  366MPD2     H 5533   4.495   0.816  15.085 -1.2241  0.0277 -1.1595
  366MPD2    H1 5534   4.578   0.414  15.207  0.4439  0.6447  0.0807
  366MPD2    H2 5535   4.187   0.553  15.197 -0.6309  1.7835  1.0870
  366MPD2    H3 5536   4.348   0.378  15.222  0.4189 -0.3495 -0.2461
  366MPD2     N 5537   4.685   0.681  15.152 -0.4140 -0.1247 -0.0891
  366MPD2    H5 5538   4.700   0.773  15.111  0.0642 -0.0538  0.2371
  366MPD2    N1 5539   4.241   0.819  15.138  0.7965 -0.0519 -0.8040
  366MPD2    H7 5540   4.288   0.902  15.103  0.8517 -0.3766 -1.5029
  367TMC3    C1 5541   4.105   0.957  15.238  0.2663  0.1795 -0.2876
  367TMC3    C2 5542   4.208   0.985  15.325  0.2979 -0.2050 -0.0639
  367TMC3    C3 5543   4.271   1.105  15.329 -0.2245  0.5902 -0.6075
  367TMC3    C4 5544   4.080   1.054  15.142  0.7229  0.8256 -0.5905
  367TMC3    C5 5545   4.151   1.177  15.147  1.1144  0.4051 -0.6751
  367TMC3    C6 5546   4.243   1.207  15.246 -0.6765 -0.4552 -0.2597
  367TMC3     C 5547   4.121   0.828  15.192 -0.2997  0.2884  0.4139
  367TMC3     O 5548   4.055   0.751  15.257 -0.7293  0.1244  0.0969
  367TMC3     H 5549   4.242   0.905  15.390  1.8233  0.0665 -0.5242
  367TMC3    H1 5550   4.020   1.029  15.055 -0.5829  1.5544  0.1014
  367TMC3    H2 5551   4.311   1.291  15.235  0.2448 -0.8429  2.6936
  367TMC3    C7 5552   4.092   1.293  15.091 -0.3600 -0.1002 -0.0020
  367TMC3    C8 5553   4.380   1.118  15.427  0.1131 -0.0845 -0.2126
  367TMC3    O1 5554   4.093   1.388  15.164 -0.4455 -0.3083 -0.1663
  367TMC3    O2 5555   4.447   1.023  15.465 -0.5078 -0.6286  0.1701
  368MPD2     C 5556   0.163   2.789  13.268  1.3616  0.0345 -0.0405
  368MPD2    C1 5557   0.174   2.887  13.175  0.2220  0.3795 -0.1774
  368MPD2    C2 5558   0.302   2.906  13.128 -0.2213  0.1907 -0.4666
  368MPD2    C3 5559   0.411   2.826  13.168 -1.0848 -0.0464  0.2745
  368MPD2    C4 5560   0.392   2.728  13.261  0.3673  1.2609 -0.3538
  368MPD2    C5 5561   0.266   2.708  13.315 -0.4897  0.0322  0.0303
  368MPD2     H 5562   0.310   2.962  13.036 -0.6952  1.7536  0.4599
  368MPD2    H1 5563   0.473   2.668  13.302 -2.7533 -3.4286 -1.0256
  368MPD2    H2 5564   0.061   2.770  13.300  1.2953  1.7880  0.8016
  368MPD2    H3 5565   0.247   2.634  13.391 -1.9157  1.3618  0.9748
  368MPD2     N 5566   0.533   2.863  13.112 -0.0258  0.4407 -0.5654
  368MPD2    H5 5567   0.531   2.932  13.038 -0.2544 -0.1610 -1.1202
  368MPD2    N1 5568   0.058   2.965  13.145  0.8567  0.3473  0.4941
  368MPD2    H7 5569   4.705   2.931  13.171  0.2528  2.0204  0.5309
  369TMC3    C1 5570   4.671   3.150  13.074 -0.1964  0.3514  0.2077
  369TMC3    C2 5571   4.658   3.249  12.977 -0.4943  0.1276 -0.2573
  369TMC3    C3 5572   4.532   3.290  12.943  0.0204  0.4740  0.0683
  369TMC3    C4 5573   4.562   3.097  13.134 -0.0303  0.5499 -0.7731
  369TMC3    C5 5574   4.436   3.146  13.111  0.4168 -0.5483 -0.8592
  369TMC3    C6 5575   4.420   3.236  13.010 -0.6108  1.5115  0.0442
  369TMC3     C 5576   0.060   3.093  13.095 -0.2018 -0.8795  0.0975
  369TMC3     O 5577   0.156   3.164  13.079 -0.3053 -0.8432  0.2224
  369TMC3     H 5578   0.004   3.301  12.932 -0.8898 -0.2619 -1.4346
  369TMC3    H1 5579   4.580   3.045  13.228 -1.7128 -0.2463 -0.8860
  369TMC3    H2 5580   4.317   3.264  12.988 -0.9335 -0.2083 -0.6093
  369TMC3    C7 5581   4.333   3.058  13.153 -0.3556  0.0217 -0.0987
  369TMC3    C8 5582   4.508   3.395  12.845 -0.2133 -0.1517 -0.3853
  369TMC3    O1 5583   4.355   2.939  13.153  0.4530 -0.0299 -0.1627
  369TMC3    O2 5584   4.403   3.392  12.784 -0.2456  0.2654  0.4994
  370TMC3    C1 5585   0.110   3.731  16.038 -0.2342  0.1725 -0.3292
  370TMC3    C2 5586   0.018   3.666  16.116 -0.0880 -0.6542 -0.2071
  370TMC3    C3 5587   4.721   3.539  16.096  0.0195  0.1282  0.2800
  370TMC3    C4 5588   0.186   3.648  15.952  0.0879  0.7655 -0.1326
  370TMC3    C5 5589   0.149   3.516  15.941  0.1489 -0.1266  0.2472
  370TMC3    C6 5590   0.047   3.459  16.012 -0.3239 -0.0281  0.3370
  370TMC3     C 5591   0.184   3.821  16.119  0.2002  0.7940 -0.3376
  370TMC3     O 5592   0.158   3.814  16.237 -0.6408 -0.3026  0.3690
  370TMC3     H 5593   4.691   3.733  16.171  1.7406 -0.5089  1.8038
  370TMC3    H1 5594   0.248   3.698  15.879 -0.3416  2.0808  0.4137
  370TMC3    H2 5595   0.025   3.353  16.003 -2.1402  0.5264 -1.6343
  370TMC3    C7 5596   0.220   3.441  15.838  0.2611  0.1149  0.0393
  370TMC3    C8 5597   4.684   3.468  16.216  0.2183 -0.2680  0.5902
  370TMC3    O1 5598   0.248   3.487  15.731  0.1606 -0.4078 -0.3619
  370TMC3    O2 5599   4.685   3.345  16.217 -0.0950  0.1711 -0.0885
  371TMC3    C1 5600   1.407   1.820  15.499 -0.3819  0.3837  0.2894
  371TMC3    C2 5601   1.291   1.821  15.575 -0.9134 -0.7461  0.0026
  371TMC3    C3 5602   1.222   1.937  15.604 -0.3579  0.1668 -0.2442
  371TMC3    C4 5603   1.462   1.938  15.471 -0.0195 -0.1804 -0.0610
  371TMC3    C5 5604   1.397   2.054  15.505  0.0066 -0.1525 -0.2022
  371TMC3    C6 5605   1.279   2.057  15.574  0.6700  0.7355 -0.4061
  371TMC3     C 5606   1.492   1.699  15.489  0.4783 -0.2600  0.3073
  371TMC3     O 5607   1.572   1.695  15.395 -0.2542 -0.1647  0.6528
  371TMC3     H 5608   1.256   1.723  15.605 -0.6522 -0.7628  0.2558
  371TMC3    H1 5609   1.546   1.953  15.403  0.9627  0.4144  1.2786
  371TMC3    H2 5610   1.228   2.151  15.593 -0.1117 -0.0693  1.5512
  371TMC3    C7 5611   1.434   2.183  15.439 -0.1458  0.4108  0.0024
  371TMC3    C8 5612   1.099   1.917  15.676 -0.5616 -0.0335  0.3089
  371TMC3    O1 5613   1.344   2.265  15.438 -0.3892  0.2056  0.8839
  371TMC3    O2 5614   1.044   1.815  15.641 -0.2139 -0.1191  0.3308
  372MPD2     C 5615   1.745   2.855  13.413  0.5372 -0.5440  0.5300
  372MPD2    C1 5616   1.764   2.825  13.546  0.7630  0.3474 -0.7910
  372MPD2    C2 5617   1.653   2.806  13.629  0.0965  0.1162 -0.0997
  372MPD2    C3 5618   1.525   2.816  13.579  0.2933  0.3933 -0.5147
  372MPD2    C4 5619   1.509   2.871  13.454 -0.3539 -0.2836 -0.0713
  372MPD2    C5 5620   1.617   2.877  13.368  0.4123  0.2372 -0.0564
  372MPD2     H 5621   1.660   2.784  13.735 -0.1746 -2.6439 -0.6563
  372MPD2    H1 5622   1.409   2.891  13.416  0.5997 -0.0946 -2.4366
  372MPD2    H2 5623   1.824   2.863  13.340  1.0752  1.1775  1.2921
  372MPD2    H3 5624   1.609   2.918  13.268 -1.1195 -0.2933 -0.1471
  372MPD2     N 5625   1.420   2.782  13.666 -0.2209 -0.7062 -0.2649
  372MPD2    H5 5626   1.436   2.760  13.764 -0.3058 -3.1191 -0.7884
  372MPD2    N1 5627   1.892   2.800  13.605  0.4163  0.6308  0.3204
  372MPD2    H7 5628   1.888   2.768  13.701 -1.7439  1.2940  0.4716
  373TMC3    C1 5629   1.202   2.720  13.731 -1.1936 -0.5524 -0.1899
  373TMC3    C2 5630   1.077   2.779  13.760 -0.1016  0.9999  0.5892
  373TMC3    C3 5631   0.982   2.706  13.826 -0.0466 -0.0843 -0.2292
  373TMC3    C4 5632   1.237   2.594  13.780 -0.5121  0.0017  0.0816
  373TMC3    C5 5633   1.138   2.522  13.842 -1.1478 -0.0796  0.2938
  373TMC3    C6 5634   1.007   2.572  13.861 -0.1773  0.1888  0.0462
  373TMC3     C 5635   1.287   2.786  13.633  0.3341  0.2008 -0.8311
  373TMC3     O 5636   1.234   2.806  13.521  0.3152 -0.5447  0.1000
  373TMC3     H 5637   1.061   2.870  13.703 -1.0518  0.9578  0.7904
  373TMC3    H1 5638   1.336   2.552  13.767 -0.2072  1.1056 -1.1302
  373TMC3    H2 5639   0.934   2.510  13.912 -0.3789 -0.8478 -1.5149
  373TMC3    C7 5640   1.184   2.387  13.899 -0.4812 -0.2047  0.8178
  373TMC3    C8 5641   0.842   2.741  13.814  0.3934  0.8818  0.4790
  373TMC3    O1 5642   1.300   2.364  13.924 -0.3105 -0.3108  0.3806
  373TMC3    O2 5643   0.813   2.775  13.698  0.5030 -0.0356 -0.2962
  374TMC3    C1 5644   0.999   3.597  10.064 -0.2958 -0.3945 -0.1412
  374TMC3    C2 5645   1.134   3.624  10.072 -0.5654 -0.2094  0.3139
  374TMC3    C3 5646   1.187   3.728   9.998 -0.3865  0.2201 -0.2516
  374TMC3    C4 5647   0.920   3.665   9.964 -1.1011 -0.2068 -0.3074
  374TMC3    C5 5648   0.978   3.759   9.891 -0.2699 -0.4000 -0.0395
  374TMC3    C6 5649   1.105   3.801   9.911 -0.4752  0.5536 -0.1929
  374TMC3     C 5650   0.938   3.493  10.147 -0.3407  0.1099  0.7524
  374TMC3     O 5651   1.024   3.421  10.192 -0.0859  0.2825 -0.0221
  374TMC3     H 5652   1.193   3.568  10.143 -0.8655  0.4924  1.1121
  374TMC3    H1 5653   0.816   3.638   9.951 -1.2443 -0.1117  0.6275
  374TMC3    H2 5654   1.146   3.889   9.863  1.1596 -0.1324 -0.0830
  374TMC3    C7 5655   0.894   3.869   9.854 -0.6443  0.6232 -0.6642
  374TMC3    C8 5656   1.333   3.779  10.023  1.0870  0.1579  0.0852
  374TMC3    O1 5657   0.937   3.981   9.893  0.2283 -0.1849  0.2402
  374TMC3    O2 5658   1.360   3.886   9.966 -0.1542 -0.4754 -0.5453
  375MPD2     C 5659   1.245   4.275  17.303  0.1921 -0.0950 -0.0362
  375MPD2    C1 5660   1.188   4.259  17.175 -0.5966 -0.0836 -0.0653
  375MPD2    C2 5661   1.257   4.190  17.073  0.0948  0.6184  0.0395
  375MPD2    C3 5662   1.377   4.144  17.104 -0.7412  0.2888  0.2979
  375MPD2    C4 5663   1.433   4.162  17.227 -0.5763 -0.1405  0.0296
  375MPD2    C5 5664   1.361   4.222  17.329 -0.0312 -0.6342 -0.8774
  375MPD2     H 5665   1.212   4.184  16.975  0.9995  0.6597 -0.3764
  375MPD2    H1 5666   1.529   4.113  17.242  0.9243  2.0869 -2.1537
  375MPD2    H2 5667   1.199   4.319  17.390 -0.0890  0.4851 -0.4801
  375MPD2    H3 5668   1.396   4.227  17.432  0.0994  1.5224 -1.0333
  375MPD2     N 5669   1.448   4.053  17.021  0.0841 -0.1680 -0.3934
  375MPD2    H5 5670   1.531   4.016  17.066  2.2708  2.2009 -2.4456
  375MPD2    N1 5671   1.065   4.329  17.147  0.4613 -0.1611  0.8201
  375MPD2    H7 5672   1.028   4.321  17.053  1.8977 -0.9852  0.3227
  376TMC3    C1 5673   1.488   3.917  16.823  0.2191 -0.3423  0.2593
  376TMC3    C2 5674   1.624   3.909  16.845 -0.3335 -0.6618 -0.3166
  376TMC3    C3 5675   1.703   3.837  16.760  0.5476  0.6736 -0.3901
  376TMC3    C4 5676   1.426   3.871  16.711 -0.0850 -0.2710 -0.1654
  376TMC3    C5 5677   1.511   3.816  16.619 -0.4610  0.1375 -0.5304
  376TMC3    C6 5678   1.644   3.791  16.644 -0.1701 -0.3540  0.5112
  376TMC3     C 5679   1.402   4.005  16.902  0.5211 -0.2456  0.4321
  376TMC3     O 5680   1.302   4.039  16.841  0.4594  0.0131 -0.2977
  376TMC3     H 5681   1.660   3.969  16.927 -2.0681  0.2293 -0.2075
  376TMC3    H1 5682   1.320   3.883  16.691 -0.0293 -1.0308 -0.9084
  376TMC3    H2 5683   1.705   3.739  16.571  1.0999  1.1384  0.5154
  376TMC3    C7 5684   1.452   3.758  16.497  0.3532 -0.4397 -0.2739
  376TMC3    C8 5685   1.844   3.865  16.764 -0.1871  0.6714 -0.1861
  376TMC3    O1 5686   1.543   3.733  16.416  0.2403 -0.5533  0.3627
  376TMC3    O2 5687   1.897   3.864  16.655 -0.4763  0.1748 -0.6892
  377MPD2     C 5688   3.354   3.379  12.742 -0.4867  0.3307 -0.1649
  377MPD2    C1 5689   3.481   3.327  12.764  0.7598  0.0584 -0.3216
  377MPD2    C2 5690   3.507   3.265  12.889 -0.4250 -0.1104  0.6576
  377MPD2    C3 5691   3.424   3.286  12.997  0.1842 -0.5000  0.3657
  377MPD2    C4 5692   3.300   3.343  12.978 -1.0748 -1.0151  0.9378
  377MPD2    C5 5693   3.264   3.377  12.846 -0.0872  0.1116  0.6019
  377MPD2     H 5694   3.600   3.209  12.895 -0.9945 -1.0520  0.7473
  377MPD2    H1 5695   3.232   3.360  13.061 -0.9190 -0.7786  1.0157
  377MPD2    H2 5696   3.327   3.426  12.649 -2.1028 -1.9146 -0.8321
  377MPD2    H3 5697   3.162   3.405  12.822 -0.3587 -0.7267  0.7819
  377MPD2     N 5698   3.456   3.244  13.127  1.2614  0.6127 -1.3956
  377MPD2    H5 5699   3.391   3.263  13.202  1.0838 -0.6413 -1.2248
  377MPD2    N1 5700   3.582   3.328  12.663 -0.0239  0.4011  0.4360
  377MPD2    H7 5701   3.568   3.386  12.581  0.8804 -1.3489 -0.9605
  378TMC3    C1 5702   3.736   3.366  12.304  0.0136  0.8815 -0.1059
  378TMC3    C2 5703   3.674   3.332  12.422  0.8813 -0.2220  0.9315
  378TMC3    C3 5704   3.753   3.280  12.523  0.7610 -1.4697 -0.2785
  378TMC3    C4 5705   3.868   3.342  12.281  0.7770 -0.6468  0.5967
  378TMC3    C5 5706   3.941   3.294  12.386 -0.1940  0.0328  0.3528
  378TMC3    C6 5707   3.887   3.251  12.506  0.1238 -0.4403  0.1565
  378TMC3     C 5708   3.660   3.458  12.220  0.3714 -0.0078  0.1891
  378TMC3     O 5709   3.558   3.485  12.279 -0.2447 -0.4349  0.6641
  378TMC3     H 5710   3.566   3.336  12.433  1.1721  0.8962  3.3436
  378TMC3    H1 5711   3.914   3.373  12.188 -0.6877  0.5197  0.2574
  378TMC3    H2 5712   3.938   3.201  12.587  1.1925 -2.3372 -1.6723
  378TMC3    C7 5713   4.080   3.262  12.381  0.1399  0.2769 -0.2917
  378TMC3    C8 5714   3.702   3.262  12.656 -0.2033  0.0253 -0.1278
  378TMC3    O1 5715   4.129   3.220  12.485 -0.0675 -0.0626 -0.1111
  378TMC3    O2 5716   3.767   3.203  12.740 -0.0594  0.0423 -0.0872
  379MPD2     C 5717   0.287   1.346  16.441 -0.5887  0.3226  0.4125
  379MPD2    C1 5718   0.382   1.262  16.377  0.1913 -0.0234 -0.3348
  379MPD2    C2 5719   0.484   1.201  16.454 -0.9067 -0.0080  0.1751
  379MPD2    C3 5720   0.501   1.232  16.584  0.4125  0.0840  0.1431
  379MPD2    C4 5721   0.405   1.305  16.643  0.6385 -0.6867  0.1004
  379MPD2    C5 5722   0.302   1.368  16.579  0.4798 -0.3382 -0.0498
  379MPD2     H 5723   0.565   1.151  16.403 -1.3187  1.2502 -1.7361
  379MPD2    H1 5724   0.415   1.332  16.748 -0.1236 -1.2366  0.3150
  379MPD2    H2 5725   0.197   1.384  16.394 -0.0718  1.0522  0.0197
  379MPD2    H3 5726   0.229   1.425  16.635  1.3358  1.5865 -0.9142
  379MPD2     N 5727   0.614   1.189  16.664 -0.0666 -0.5036 -0.7839
  379MPD2    H5 5728   0.613   1.216  16.762 -1.9533  1.9012 -1.4518
  379MPD2    N1 5729   0.364   1.225  16.241 -0.3207  0.1085 -0.4953
  379MPD2    H7 5730   0.277   1.259  16.200 -0.9022  0.2399  0.8505
  380TMC3    C1 5731   0.409   1.168  16.021 -0.9775  0.0111 -0.2419
  380TMC3    C2 5732   0.503   1.151  15.922  0.8851  0.3165  0.1248
  380TMC3    C3 5733   0.470   1.165  15.790  0.2135 -0.1737 -0.0738
  380TMC3    C4 5734   0.277   1.187  15.991 -0.0652  0.2169  0.2317
  380TMC3    C5 5735   0.247   1.185  15.859  0.2557 -0.2100 -0.5092
  380TMC3    C6 5736   0.338   1.180  15.761 -0.0553 -0.2392  0.0962
  380TMC3     C 5737   0.457   1.184  16.156 -0.2299  0.3648  0.4321
  380TMC3     O 5738   0.573   1.162  16.178  0.0626 -0.4845 -0.3244
  380TMC3     H 5739   0.604   1.171  15.957  1.4989  1.1590 -2.0953
  380TMC3    H1 5740   0.200   1.193  16.068 -0.1616  0.2261  0.1348
  380TMC3    H2 5741   0.311   1.184  15.656  0.6536  1.5136 -0.0136
  380TMC3    C7 5742   0.132   1.267  15.831 -0.2241 -0.5493 -0.0108
  380TMC3    C8 5743   0.572   1.220  15.703 -0.4890  0.2376  0.1729
  380TMC3    O1 5744   0.124   1.363  15.908  0.2192 -0.0941  0.0249
  380TMC3    O2 5745   0.531   1.263  15.599 -0.3221  0.1305 -0.3792
  381TMC3    C1 5746   4.572   3.047  16.240  0.0158  0.3895  0.5076
  381TMC3    C2 5747   4.691   3.060  16.174  0.3417 -0.2585  0.7625
  381TMC3    C3 5748   0.057   2.978  16.208 -0.8258 -0.2366  0.6613
  381TMC3    C4 5749   4.552   2.942  16.327 -0.6677  0.8304  0.4878
  381TMC3    C5 5750   4.658   2.858  16.347  0.4259  0.0584  1.4446
  381TMC3    C6 5751   0.042   2.882  16.298 -0.2272 -0.1838 -0.1670
  381TMC3     C 5752   4.456   3.106  16.186 -0.5963 -0.2415 -0.1153
  381TMC3     O 5753   4.447   3.124  16.062 -0.4534  0.4403  0.5794
  381TMC3     H 5754   4.702   3.135  16.097  1.6923 -0.8115  0.4161
  381TMC3    H1 5755   4.453   2.936  16.371 -0.9067 -2.6182 -0.5169
  381TMC3    H2 5756   0.127   2.821  16.327 -2.0106 -0.4435  4.4622
  381TMC3    C7 5757   4.636   2.752  16.448 -0.2097 -0.1386 -0.1378
  381TMC3    C8 5758   0.194   3.038  16.223  0.4943  0.3710  0.0713
  381TMC3    O1 5759   4.700   2.651  16.430 -0.7713 -0.1739  0.8870
  381TMC3    O2 5760   0.294   2.972  16.246  0.6340  0.1293  0.2799
  382MPD2     C 5761   4.397   0.691  16.577  0.1936  0.7824 -0.1918
  382MPD2    C1 5762   4.466   0.722  16.688 -0.0180  0.6985 -0.0273
  382MPD2    C2 5763   4.503   0.613  16.762 -0.3317 -0.2243  0.7879
  382MPD2    C3 5764   4.476   0.482  16.725  0.1132  0.2060 -0.4659
  382MPD2    C4 5765   4.405   0.461  16.606  0.2647 -0.1067 -0.0866
  382MPD2    C5 5766   4.358   0.571  16.543 -0.8018 -0.7694  0.1608
  382MPD2     H 5767   4.558   0.647  16.849  0.4342  1.3732 -0.3295
  382MPD2    H1 5768   4.373   0.364  16.570  0.9916  0.4607 -2.2820
  382MPD2    H2 5769   4.357   0.763  16.507 -0.3445 -0.3050 -1.0008
  382MPD2    H3 5770   4.296   0.561  16.455 -0.5806  0.6250 -0.1577
  382MPD2     N 5771   4.499   0.371  16.816  0.0225  0.3732 -0.3404
  382MPD2    H5 5772   4.470   0.278  16.787  0.5240 -0.3210  1.3751
  382MPD2    N1 5773   4.502   0.859  16.729 -0.2538 -0.1494  0.1597
  382MPD2    H7 5774   4.552   0.866  16.817  1.4148 -3.3804 -0.5568
  383TMC3    C1 5775   4.535   0.266  17.022 -0.0981 -0.2286  0.2990
  383TMC3    C2 5776   4.427   0.178  17.006 -0.1136  0.2710  0.0196
  383TMC3    C3 5777   4.415   0.075  17.098 -0.6265  0.2911 -0.1515
  383TMC3    C4 5778   4.627   0.252  17.129 -0.3713 -0.3528 -0.4803
  383TMC3    C5 5779   4.615   0.135  17.205 -0.9241 -0.6126 -0.0880
  383TMC3    C6 5780   4.507   0.051  17.203 -0.4346  1.1144 -0.0438
  383TMC3     C 5781   4.553   0.381  16.944  0.2939  0.0703 -0.5753
  383TMC3     O 5782   4.640   0.458  16.980  0.1209 -0.9569  0.1807
  383TMC3     H 5783   4.347   0.202  16.936  1.1397 -0.7016 -1.7738
  383TMC3    H1 5784   4.708   0.322  17.145  0.5890 -1.9425  1.6431
  383TMC3    H2 5785   4.498   4.707  17.272  0.3424  1.3728  0.3771
  383TMC3    C7 5786   4.684   0.147  17.333 -0.1246  0.6793  0.8349
  383TMC3    C8 5787   4.300   4.733  17.085  0.0140 -0.7556 -0.1711
  383TMC3    O1 5788   4.646   0.078  17.425 -0.2952 -0.4821 -0.3936
  383TMC3    O2 5789   4.241   0.008  16.983 -0.1778 -0.3717  0.0596
  384MPD2     C 5790   0.401   1.672  12.048 -0.1753 -0.4467 -0.2401
  384MPD2    C1 5791   0.438   1.605  12.165  0.3861 -1.1886 -0.1184
  384MPD2    C2 5792   0.530   1.501  12.160 -0.1079  0.0495  0.8431
  384MPD2    C3 5793   0.591   1.478  12.038 -0.4569 -0.6815 -0.1293
  384MPD2    C4 5794   0.559   1.547  11.925  0.1254 -0.0186 -0.2421
  384MPD2    C5 5795   0.467   1.647  11.931 -0.4272  0.1869  0.5051
  384MPD2     H 5796   0.559   1.443  12.247  0.6316 -0.0798  0.5147
  384MPD2    H1 5797   0.603   1.524  11.829  0.4751 -0.3247 -0.0074
  384MPD2    H2 5798   0.340   1.761  12.046  1.2328  0.4931 -1.2581
  384MPD2    H3 5799   0.443   1.707  11.844  1.8791 -0.3028 -0.4649
  384MPD2     N 5800   0.671   1.364  12.018  0.2350 -0.3866  0.4566
  384MPD2    H5 5801   0.738   1.364  11.941 -0.0416  0.5516  0.2107
  384MPD2    N1 5802   0.395   1.634  12.294 -0.0125  0.0770 -0.1639
  384MPD2    H7 5803   0.439   1.582  12.369  0.8015 -0.5997 -1.1053
  385TMC3    C1 5804   0.762   1.155  12.079 -1.1381 -1.3745 -0.5282
  385TMC3    C2 5805   0.707   1.029  12.085 -0.6861  0.3343 -0.3246
  385TMC3    C3 5806   0.738   0.950  12.193 -0.5874 -1.3111 -0.8971
  385TMC3    C4 5807   0.846   1.199  12.173 -0.6886  0.1361  0.3137
  385TMC3    C5 5808   0.856   1.127  12.292 -0.3402 -0.7714  0.2185
  385TMC3    C6 5809   0.814   0.996  12.300  0.3816  0.2630 -0.4307
  385TMC3     C 5810   0.649   1.248  12.078 -0.2835  0.1309  0.2597
  385TMC3     O 5811   0.552   1.217  12.148  0.0307 -0.1182  0.1996
  385TMC3     H 5812   0.633   1.000  12.011  0.4653  1.1784 -1.7963
  385TMC3    H1 5813   0.876   1.303  12.168 -0.8165  0.3025  2.7701
  385TMC3    H2 5814   0.846   0.931  12.381  0.9728  0.6395 -0.3598
  385TMC3    C7 5815   0.857   1.218  12.407 -0.1381 -0.4326  0.0416
  385TMC3    C8 5816   0.727   0.803  12.186 -0.4030  0.0631  0.3097
  385TMC3    O1 5817   0.848   1.335  12.378 -0.3940 -0.1695 -0.2834
  385TMC3    O2 5818   0.785   0.741  12.276 -0.6838 -0.1516 -0.4963
  386TMC3    C1 5819   0.527   3.349  11.410  0.0213 -0.4564  0.3360
  386TMC3    C2 5820   0.522   3.365  11.279 -0.0550 -0.0067 -0.1895
  386TMC3    C3 5821   0.437   3.454  11.224 -0.3603  0.0088 -0.4595
  386TMC3    C4 5822   0.438   3.413  11.491 -0.5159 -0.0486 -0.2689
  386TMC3    C5 5823   0.346   3.499  11.432 -1.0119 -0.7502  0.1720
  386TMC3    C6 5824   0.344   3.525  11.298  0.3155 -0.4436 -0.2965
  386TMC3     C 5825   0.584   3.223  11.454 -0.3917 -0.7327  0.8576
  386TMC3     O 5826   0.587   3.134  11.371 -0.3286 -0.1291 -0.1029
  386TMC3     H 5827   0.596   3.310  11.221 -0.0666  1.7237 -1.8229
  386TMC3    H1 5828   0.444   3.413  11.599 -0.7592 -2.5574 -0.2447
  386TMC3    H2 5829   0.261   3.567  11.243 -1.4632 -0.8279  2.1017
  386TMC3    C7 5830   0.250   3.564  11.519 -0.4676  0.1050 -0.0645
  386TMC3    C8 5831   0.429   3.466  11.077  0.2942  0.2645 -0.2098
  386TMC3    O1 5832   0.232   3.502  11.626 -0.1451 -0.1033  0.2558
  386TMC3    O2 5833   0.318   3.495  11.030  0.0487  0.1736  0.2423
  387MPD2     C 5834   3.306   3.809  10.016  0.0096  0.6616  0.2668
  387MPD2    C1 5835   3.387   3.739  10.108 -0.0147  0.1507  0.1966
  387MPD2    C2 5836   3.432   3.614  10.072  0.3666 -0.1422 -0.1085
  387MPD2    C3 5837   3.382   3.553   9.959 -0.2864  0.0039  0.3800
  387MPD2    C4 5838   3.292   3.616   9.877 -0.0859 -0.1363 -0.7601
  387MPD2    C5 5839   3.257   3.745   9.905 -0.4712 -0.1854 -0.3063
  387MPD2     H 5840   3.498   3.557  10.137  1.0400 -0.8022 -1.3784
  387MPD2    H1 5841   3.252   3.563   9.791 -0.4527  0.4464 -0.9491
  387MPD2    H2 5842   3.281   3.913  10.032 -1.0303  0.3184  0.8463
  387MPD2    H3 5843   3.197   3.799   9.832 -0.3694  2.3408  1.4761
  387MPD2     N 5844   3.434   3.425   9.927 -0.3132 -0.0104  0.1142
  387MPD2    H5 5845   3.501   3.394   9.996  0.0350 -0.2525 -0.3376
  387MPD2    N1 5846   3.457   3.801  10.214  0.0259  0.0438  0.1526
  387MPD2    H7 5847   3.519   3.739  10.266 -0.9683  0.9415  2.4277
  388TMC3    C1 5848   3.555   3.975  10.335 -0.5497 -0.8329  0.4419
  388TMC3    C2 5849   3.552   4.074  10.429  0.5405  0.0540 -0.1753
  388TMC3    C3 5850   3.662   4.084  10.507  0.0809 -0.4536 -0.4783
  388TMC3    C4 5851   3.670   3.906  10.305 -0.5348 -0.3659  0.3017
  388TMC3    C5 5852   3.776   3.910  10.389  0.5933  0.7976  0.0555
  388TMC3    C6 5853   3.770   3.998  10.496  0.8153 -0.5137  0.2108
  388TMC3     C 5854   3.450   3.936  10.251  0.4410 -0.6413 -0.6584
  388TMC3     O 5855   3.368   4.021  10.215 -0.0492 -0.8777 -0.4870
  388TMC3     H 5856   3.467   4.139  10.445 -0.6868 -1.3118 -1.1371
  388TMC3    H1 5857   3.674   3.854  10.210 -1.6566 -0.3432  0.2412
  388TMC3    H2 5858   3.850   4.016  10.567 -0.0727 -0.5977  1.2293
  388TMC3    C7 5859   3.896   3.845  10.345  0.5260  0.6062  0.5414
  388TMC3    C8 5860   3.658   4.164  10.625 -0.0263 -0.3298 -0.0275
  388TMC3    O1 5861   4.010   3.882  10.377  0.1777 -0.6762  0.4349
  388TMC3    O2 5862   3.685   4.106  10.731 -0.6311  0.4849  1.2237
  389MPD2     C 5863   2.329   1.975  11.408  0.2690 -0.7513  0.4319
  389MPD2    C1 5864   2.218   1.911  11.360  0.1608 -0.1188 -0.0266
  389MPD2    C2 5865   2.141   1.833  11.450  0.1602 -0.0106 -0.4236
  389MPD2    C3 5866   2.168   1.834  11.586  0.1818  0.2644  0.2314
  389MPD2    C4 5867   2.282   1.904  11.631  0.4552  0.7462  0.0657
  389MPD2    C5 5868   2.365   1.964  11.538  0.1823 -0.1260  0.2724
  389MPD2     H 5869   2.049   1.788  11.413 -0.7277  0.1378  1.6157
  389MPD2    H1 5870   2.305   1.900  11.736  3.3663 -0.4024 -0.6353
  389MPD2    H2 5871   2.399   2.037  11.354 -0.3244 -2.0139 -1.7802
  389MPD2    H3 5872   2.454   2.011  11.577  0.8250 -0.0666 -1.3011
  389MPD2     N 5873   2.080   1.787  11.687  0.0996 -0.1594  0.0417
  389MPD2    H5 5874   2.094   1.811  11.785 -1.4496  1.7493 -0.1959
  389MPD2    N1 5875   2.190   1.928  11.222  0.3481 -0.2103  0.3316
  389MPD2    H7 5876   2.264   1.977  11.172 -0.4920  1.1609  0.4346
  390TMC3    C1 5877   1.898   1.667  11.777 -0.0276 -0.6712 -0.3088
  390TMC3    C2 5878   1.798   1.587  11.749 -0.4244 -0.2893  0.4843
  390TMC3    C3 5879   1.693   1.587  11.843 -0.2839 -0.2105 -0.0890
  390TMC3    C4 5880   1.897   1.747  11.893  0.1614  0.0884  0.3433
  390TMC3    C5 5881   1.793   1.750  11.981  0.3766  0.0458 -0.5776
  390TMC3    C6 5882   1.685   1.672  11.949  0.0243 -0.4660 -0.0661
  390TMC3     C 5883   1.983   1.694  11.664 -0.3500 -0.0199  0.2616
  390TMC3     O 5884   1.980   1.621  11.566  0.2727  0.0967 -0.3633
  390TMC3     H 5885   1.805   1.504  11.680 -0.9609 -0.1338  0.2365
  390TMC3    H1 5886   1.989   1.802  11.912  0.2766 -0.0016  0.0376
  390TMC3    H2 5887   1.597   1.672  12.012  0.7674  1.1628  0.9906
  390TMC3    C7 5888   1.831   1.752  12.116 -0.5419 -0.2639 -0.7093
  390TMC3    C8 5889   1.643   1.449  11.861  0.2365 -0.2690  0.5335
  390TMC3    O1 5890   1.948   1.765  12.132 -0.6445 -0.3350 -0.4254
  390TMC3    O2 5891   1.621   1.382  11.763 -0.2613 -0.0040 -0.3330
  391MPD2     C 5892   1.671   3.527  11.452 -0.1526  0.2865 -0.2694
  391MPD2    C1 5893   1.779   3.602  11.420  0.3647  0.1301  0.2555
  391MPD2    C2 5894   1.823   3.601  11.285  0.5436 -0.9853 -0.7753
  391MPD2    C3 5895   1.756   3.527  11.185 -0.7728  0.1583 -0.0644
  391MPD2    C4 5896   1.659   3.433  11.231  0.4786  0.2204  0.4945
  391MPD2    C5 5897   1.617   3.438  11.362 -0.4694  0.3904 -0.1000
  391MPD2     H 5898   1.904   3.660  11.244  0.1755 -0.8644 -1.3244
  391MPD2    H1 5899   1.606   3.366  11.165  0.0835 -2.7491  3.7999
  391MPD2    H2 5900   1.628   3.540  11.550  0.8765 -1.3429  0.4011
  391MPD2    H3 5901   1.539   3.371  11.397 -0.3663  0.2388 -0.1595
  391MPD2     N 5902   1.786   3.543  11.047 -0.1230 -1.2407 -0.1253
  391MPD2    H5 5903   1.856   3.613  11.025 -1.1047 -0.0238  0.6262
  391MPD2    N1 5904   1.831   3.685  11.519 -0.0246 -0.9949  0.1620
  391MPD2    H7 5905   1.776   3.684  11.605 -0.4937  2.3655 -0.1209
  392TMC3    C1 5906   1.813   3.476  10.820  0.0525 -0.3611 -0.7247
  392TMC3    C2 5907   1.739   3.475  10.703 -0.4069  0.5006  0.2678
  392TMC3    C3 5908   1.811   3.508  10.587  0.3589 -0.0819 -0.0852
  392TMC3    C4 5909   1.943   3.515  10.820 -0.3670 -0.2410  0.2661
  392TMC3    C5 5910   2.012   3.528  10.703 -0.0818 -0.1452 -0.3037
  392TMC3    C6 5911   1.955   3.518  10.584  0.0584  0.1398  0.3156
  392TMC3     C 5912   1.738   3.463  10.945 -0.0363  0.0072 -0.7029
  392TMC3     O 5913   1.642   3.387  10.944 -0.3491  0.0000  0.4378
  392TMC3     H 5914   1.631   3.478  10.703 -0.3498  2.4820 -0.8627
  392TMC3    H1 5915   2.003   3.524  10.911  0.9094 -0.2297 -0.5731
  392TMC3    H2 5916   2.002   3.559  10.495 -2.7095  2.4480 -0.1134
  392TMC3    C7 5917   2.133   3.609  10.715 -0.5404  0.0737  0.3917
  392TMC3    C8 5918   1.737   3.517  10.459  0.3724  0.8197  0.0349
  392TMC3    O1 5919   2.144   3.678  10.814  0.0074  0.2166  0.2514
  392TMC3    O2 5920   1.630   3.464  10.457 -0.9624 -0.2015  0.2916
  393TMC3    C1 5921   0.143   1.410  10.624  0.2850 -0.9025  0.8231
  393TMC3    C2 5922   0.016   1.410  10.573 -0.8495  0.3802 -0.1691
  393TMC3    C3 5923   4.653   1.367  10.649  0.1150 -0.2176 -0.0437
  393TMC3    C4 5924   0.169   1.380  10.756 -0.0461  0.5467 -0.6531
  393TMC3    C5 5925   0.069   1.331  10.830 -0.4127  0.2469 -0.4057
  393TMC3    C6 5926   4.683   1.325  10.775 -0.1279  0.5977  0.1235
  393TMC3     C 5927   0.250   1.456  10.540 -0.0404  0.3873  0.2145
  393TMC3     O 5928   0.231   1.533  10.442 -0.6443  0.3518  0.3494
  393TMC3     H 5929   0.008   1.410  10.465 -0.1072  0.4727 -0.2207
  393TMC3    H1 5930   0.259   1.400  10.813 -0.3107 -1.7344  0.5700
  393TMC3    H2 5931   4.609   1.280  10.841  0.3087 -0.6629 -0.2502
  393TMC3    C7 5932   0.088   1.279  10.960  0.2991 -0.3284  0.3321
  393TMC3    C8 5933   4.522   1.337  10.600 -0.4552 -0.0396 -0.0255
  393TMC3    O1 5934   4.727   1.255  11.028  0.0605  0.2269 -0.1050
  393TMC3    O2 5935   4.450   1.276  10.680  0.1473  0.2552 -0.2377
  394TMC3    C1 5936   2.085   1.938  11.013 -0.8623  0.7143 -0.2418
  394TMC3    C2 5937   1.984   1.903  10.922 -0.2785 -0.7010  1.0031
  394TMC3    C3 5938   2.018   1.897  10.788  0.3528 -0.0189 -0.1034
  394TMC3    C4 5939   2.204   1.998  10.971  0.1847  0.7621 -0.4761
  394TMC3    C5 5940   2.226   1.990  10.838 -0.7425  0.3567 -0.9019
  394TMC3    C6 5941   2.136   1.944  10.745 -0.1148  0.2750  0.1764
  394TMC3     C 5942   2.076   1.894  11.154 -0.4949 -0.1806 -0.6356
  394TMC3     O 5943   1.972   1.844  11.198 -0.5378 -0.0981 -0.2830
  394TMC3     H 5944   1.889   1.869  10.962 -1.4556  0.2837 -0.8980
  394TMC3    H1 5945   2.279   2.036  11.039 -0.1699  1.5766 -0.5447
  394TMC3    H2 5946   2.134   1.961  10.638  1.4626 -0.6447 -0.0013
  394TMC3    C7 5947   2.346   2.053  10.781  0.2741 -0.0367  0.3927
  394TMC3    C8 5948   1.924   1.860  10.685  0.0699 -0.4830  0.1915
  394TMC3    O1 5949   2.399   2.141  10.852 -0.1371  0.1922  0.0303
  394TMC3    O2 5950   1.975   1.816  10.584  0.6557 -0.1022  0.4527
  395TMC3    C1 5951   2.237   3.766  14.884  0.3122  0.1848  0.3816
  395TMC3    C2 5952   2.187   3.751  14.755 -0.2568 -0.1004  0.1218
  395TMC3    C3 5953   2.278   3.773  14.655  0.1787 -0.1000 -0.6469
  395TMC3    C4 5954   2.371   3.794  14.911  0.0011  0.5592  0.6824
  395TMC3    C5 5955   2.460   3.800  14.807  0.0075  0.3361 -0.6580
  395TMC3    C6 5956   2.411   3.798  14.680 -0.3963  0.1083 -0.1537
  395TMC3     C 5957   2.144   3.763  15.005  0.1286  0.1328 -0.1840
  395TMC3     O 5958   2.183   3.832  15.100  0.1227  0.1523 -0.0797
  395TMC3     H 5959   2.081   3.741  14.735 -0.0501  1.5886 -1.8167
  395TMC3    H1 5960   2.401   3.806  15.014  0.3761  0.2240  0.6126
  395TMC3    H2 5961   2.480   3.818  14.599 -0.8756  0.3287 -0.5080
  395TMC3    C7 5962   2.595   3.832  14.841 -0.7202 -0.2159  0.1425
  395TMC3    C8 5963   2.236   3.788  14.515 -0.0723  0.2297  0.1063
  395TMC3    O1 5964   2.620   3.870  14.955 -0.4039 -0.2437  0.2296
  395TMC3    O2 5965   2.292   3.861  14.438 -0.2776  0.4838 -0.2822
  396MPD2     C 5966   2.273   4.255  17.413  0.6888 -0.1424 -0.9188
  396MPD2    C1 5967   2.404   4.296  17.386 -0.5905 -0.6473 -0.6554
  396MPD2    C2 5968   2.421   4.399  17.293  0.1537 -0.9918 -0.5278
  396MPD2    C3 5969   2.318   4.471  17.237  0.0837 -0.1981  0.1004
  396MPD2    C4 5970   2.193   4.444  17.277 -0.2224  0.0696 -0.0347
  396MPD2    C5 5971   2.172   4.329  17.356  0.2317  0.3186  0.2862
  396MPD2     H 5972   2.522   4.424  17.264 -0.9802 -0.4699 -3.9810
  396MPD2    H1 5973   2.110   4.505  17.244  1.6727  2.2282 -0.7600
  396MPD2    H2 5974   2.242   4.171  17.474  0.1755 -0.4746 -1.6390
  396MPD2    H3 5975   2.072   4.314  17.394  0.1524 -0.7558 -0.3413
  396MPD2     N 5976   2.356   4.579  17.153 -0.5764 -0.0693 -0.0725
  396MPD2    H5 5977   2.454   4.604  17.145 -0.5304 -0.5227 -0.9370
  396MPD2    N1 5978   2.524   4.231  17.427  0.7775 -0.1204 -0.3276
  396MPD2    H7 5979   2.611   4.258  17.384  1.0584  1.5264  1.2973
  397TMC3    C1 5980   2.622   4.013  17.464  0.0364 -0.0979 -0.1621
  397TMC3    C2 5981   2.644   4.035  17.325  0.4776 -0.6470  0.8502
  397TMC3    C3 5982   2.568   3.969  17.231  0.3245 -0.3678  0.1659
  397TMC3    C4 5983   2.552   3.898  17.490  0.2540 -0.6428  0.3767
  397TMC3    C5 5984   2.492   3.825  17.390  0.9028  0.0396 -0.1260
  397TMC3    C6 5985   2.488   3.865  17.261 -0.6067  0.2028  0.0581
  397TMC3     C 5986   2.528   4.117  17.505 -0.0969  0.2430  0.4710
  397TMC3     O 5987   2.440   4.085  17.585  0.1146 -0.0314  0.2685
  397TMC3     H 5988   2.684   4.127  17.285 -0.2401 -0.2793  0.9644
  397TMC3    H1 5989   2.566   3.853  17.588 -0.5060 -1.7980 -0.0420
  397TMC3    H2 5990   2.431   3.814  17.184  0.7412  2.0161 -2.1282
  397TMC3    C7 5991   2.374   3.762  17.444  0.1959  0.4677 -0.1229
  397TMC3    C8 5992   2.519   4.059  17.128  0.1489  0.2251 -0.3145
  397TMC3    O1 5993   2.337   3.656  17.399  0.2627  0.5347 -0.1011
  397TMC3    O2 5994   2.603   4.138  17.084 -0.1351 -0.2831 -0.1105
  398MPD2     C 5995   0.580   1.021   0.152 -0.0570 -0.1884 -0.1464
  398MPD2    C1 5996   0.676   1.018   0.249  0.8224  0.3013  0.3163
  398MPD2    C2 5997   0.719   1.130   0.306 -0.5762  0.0795  0.0556
  398MPD2    C3 5998   0.658   1.250   0.279  0.0188 -0.2411 -0.0362
  398MPD2    C4 5999   0.558   1.259   0.187 -0.9298  0.3158 -0.4874
  398MPD2    C5 6000   0.525   1.141   0.117  0.4533  0.6264  0.3148
  398MPD2     H 6001   0.802   1.124   0.376 -0.8117  0.6855  0.3881
  398MPD2    H1 6002   0.518   1.356   0.161 -2.7827 -0.4913 -0.6411
  398MPD2    H2 6003   0.557   0.931   0.096 -0.0492 -0.1388 -0.2293
  398MPD2    H3 6004   0.452   1.146   0.037  1.0925 -0.7253 -0.3355
  398MPD2     N 6005   0.699   1.358   0.359  0.0068  0.1359 -0.2753
  398MPD2    H5 6006   0.774   1.339   0.425 -0.6191  0.7651  0.6277
  398MPD2    N1 6007   0.728   0.899   0.311 -0.6021  0.7636 -0.1083
  398MPD2    H7 6008   0.814   0.907   0.365 -0.6947  2.8270 -0.2634
  399TMC3    C1 6009   0.757   0.675   0.389  0.2525  0.5578  0.5140
  399TMC3    C2 6010   0.807   0.725   0.502 -0.4153 -0.6071  0.6295
  399TMC3    C3 6011   0.880   0.641   0.581 -0.3925 -0.0025 -0.1803
  399TMC3    C4 6012   0.771   0.548   0.355 -0.5274  0.5023  0.0028
  399TMC3    C5 6013   0.842   0.466   0.436  0.1247 -0.7401  0.3302
  399TMC3    C6 6014   0.905   0.510   0.547 -0.7942  0.5576  0.5625
  399TMC3     C 6015   0.687   0.766   0.296  0.1660 -0.1130  0.5255
  399TMC3     O 6016   0.607   0.718   0.216  0.0945 -0.2820 -0.0729
  399TMC3     H 6017   0.767   0.817   0.543 -0.3193 -0.0632 -0.4956
  399TMC3    H1 6018   0.717   0.514   0.267  0.1510  0.2053 -0.2973
  399TMC3    H2 6019   0.991   0.462   0.593 -2.5393  0.8266  4.1397
  399TMC3    C7 6020   0.840   0.323   0.402 -0.0929 -0.2393 -0.2728
  399TMC3    C8 6021   0.984   0.701   0.665 -0.3870  0.4726 -0.2225
  399TMC3    O1 6022   0.778   0.275   0.307 -0.0383  0.5571  0.0618
  399TMC3    O2 6023   1.040   0.633   0.751 -0.3683  0.5319 -0.2756
  400TMC3    C1 6024   4.132   4.178  16.732  0.0068  0.8340  0.2506
  400TMC3    C2 6025   4.091   4.048  16.712 -0.2094 -0.2698  0.0463
  400TMC3    C3 6026   3.981   4.024  16.630  0.1153 -0.1014  0.0478
  400TMC3    C4 6027   4.054   4.280  16.679  0.8827  0.2018 -0.9197
  400TMC3    C5 6028   3.952   4.256  16.591  0.6101 -0.2251  0.2868
  400TMC3    C6 6029   3.917   4.125  16.570  0.3057 -0.0970 -0.6357
  400TMC3     C 6030   4.226   4.197  16.840  0.3661  0.3714 -0.5996
  400TMC3     O 6031   4.231   4.107  16.923 -0.5362  0.1205  0.1311
  400TMC3     H 6032   4.150   3.972  16.763 -1.0962  0.4179  2.0778
  400TMC3    H1 6033   4.092   4.381  16.690 -1.3174  0.8054  0.9801
  400TMC3    H2 6034   3.835   4.100  16.504  0.6430  0.3483 -1.2288
  400TMC3    C7 6035   3.869   4.359  16.526 -0.0501  0.6096 -0.2621
  400TMC3    C8 6036   3.966   3.884  16.601  0.2113 -0.5183 -0.4847
  400TMC3    O1 6037   3.776   4.321  16.462  0.0594 -0.0647 -0.2213
  400TMC3    O2 6038   4.066   3.815  16.624 -0.0688 -0.0988  0.2910
  401MPD2     C 6039   2.122   2.911   0.708 -0.1775 -1.2249  0.0782
  401MPD2    C1 6040   2.235   2.872   0.779 -0.1559 -0.1880 -0.4530
  401MPD2    C2 6041   2.283   2.742   0.767 -0.2439 -0.0231 -0.1905
  401MPD2    C3 6042   2.219   2.650   0.692  0.7986 -0.0298 -0.3542
  401MPD2    C4 6043   2.109   2.687   0.614  1.2222 -0.3038 -0.3695
  401MPD2    C5 6044   2.065   2.815   0.624  0.2573 -0.1118 -0.5607
  401MPD2     H 6045   2.368   2.699   0.818  1.8096  1.2530 -2.5691
  401MPD2    H1 6046   2.056   2.614   0.555 -0.5896  0.4141  0.3671
  401MPD2    H2 6047   2.085   3.013   0.719  1.7254 -0.3452 -1.6167
  401MPD2    H3 6048   1.981   2.849   0.564  0.0595 -0.3045 -0.3921
  401MPD2     N 6049   2.268   2.519   0.701 -0.3180  0.0139  0.1544
  401MPD2    H5 6050   2.346   2.506   0.764 -0.4309 -0.3729  0.2138
  401MPD2    N1 6051   2.302   2.957   0.873  0.1374 -0.4658  0.1570
  401MPD2    H7 6052   2.383   2.918   0.920 -1.8748 -2.0443  2.3108
  402TMC3    C1 6053   2.317   2.301   0.647  0.5906  0.8092  0.4323
  402TMC3    C2 6054   2.331   2.264   0.783  0.1047 -0.2794  0.4520
  402TMC3    C3 6055   2.353   2.134   0.811 -0.1092 -0.9975  0.1856
  402TMC3    C4 6056   2.330   2.204   0.548 -0.0332  0.8337 -0.5376
  402TMC3    C5 6057   2.376   2.081   0.586 -0.3126 -0.5794 -0.0050
  402TMC3    C6 6058   2.381   2.036   0.716  0.1514 -0.4131  0.4370
  402TMC3     C 6059   2.235   2.417   0.614  0.5255 -0.5537  0.2228
  402TMC3     O 6060   2.157   2.414   0.518  0.0314  0.1639  0.4252
  402TMC3     H 6061   2.281   2.322   0.860  0.2604 -0.7669  0.9231
  402TMC3    H1 6062   2.302   2.221   0.445 -0.5412 -1.4977 -0.7789
  402TMC3    H2 6063   2.389   1.930   0.736  1.4867 -0.5593 -0.8588
  402TMC3    C7 6064   2.468   2.007   0.504  0.0202 -0.2544 -0.1243
  402TMC3    C8 6065   2.378   2.091   0.943 -0.1777 -0.1104  0.5450
  402TMC3    O1 6066   2.447   1.995   0.387  0.0117  0.7027 -0.6142
  402TMC3    O2 6067   2.438   1.983   0.953  0.0228 -0.1590 -0.0244
  403MPD2     C 6068   0.017   1.343  13.529  0.0732  0.2530 -0.0095
  403MPD2    C1 6069   0.089   1.254  13.610  0.7545  0.0635  0.2008
  403MPD2    C2 6070   0.172   1.295  13.714  0.0248 -0.0028  0.4470
  403MPD2    C3 6071   0.193   1.431  13.727 -0.4632 -0.0844  0.5246
  403MPD2    C4 6072   0.126   1.523  13.641  0.1363  0.3800  0.0925
  403MPD2    C5 6073   0.032   1.475  13.552 -0.5280  0.1329  0.4915
  403MPD2     H 6074   0.236   1.229  13.772  2.3121 -0.8208 -3.0114
  403MPD2    H1 6075   0.119   1.631  13.651 -1.1038  0.1719  1.4055
  403MPD2    H2 6076   4.686   1.325  13.448 -2.8828  2.0594  2.1787
  403MPD2    H3 6077   4.716   1.552  13.498  2.7569  2.7196  0.8356
  403MPD2     N 6078   0.286   1.480  13.818 -0.5125 -0.3441  0.6620
  403MPD2    H5 6079   0.322   1.412  13.884  0.8323  0.8700  1.2031
  403MPD2    N1 6080   0.080   1.122  13.570  0.1864  0.1136  0.1329
  403MPD2    H7 6081   0.023   1.103  13.488  0.3712 -3.6312  0.8941
  404TMC3    C1 6082   0.142   0.907  13.541  0.4296 -0.0164  0.4152
  404TMC3    C2 6083   0.151   0.780  13.592  0.2219 -0.1771  0.5867
  404TMC3    C3 6084   0.128   0.673  13.503 -0.2797 -0.4399  1.4426
  404TMC3    C4 6085   0.122   0.932  13.407  0.4914 -0.4381  0.5295
  404TMC3    C5 6086   0.106   0.821  13.326 -0.5963 -0.2828  0.1095
  404TMC3    C6 6087   0.104   0.691  13.369 -0.0149 -0.0546 -0.4469
  404TMC3     C 6088   0.139   1.015  13.632 -0.2183  0.1394 -0.6741
  404TMC3     O 6089   0.184   0.994  13.744 -0.0950  0.1284 -0.4294
  404TMC3     H 6090   0.157   0.771  13.699 -0.1595 -0.9727  0.5445
  404TMC3    H1 6091   0.117   1.025  13.351  0.8711  0.1243  1.4258
  404TMC3    H2 6092   0.112   0.606  13.302  1.1536  0.0675 -0.4586
  404TMC3    C7 6093   0.132   0.836  13.182 -0.1412  0.5683  0.2463
  404TMC3    C8 6094   0.172   0.544  13.545 -0.8204 -0.1101 -0.1605
  404TMC3    O1 6095   0.229   0.906  13.163  0.5100 -0.5682 -0.0815
  404TMC3    O2 6096   0.211   0.466  13.458 -0.6217 -0.9062 -0.1485
  405MPD2     C 6097   0.866   1.621  14.915  0.1039 -0.3029 -0.3421
  405MPD2    C1 6098   0.771   1.544  14.861 -0.3678 -0.3121  0.1033
  405MPD2    C2 6099   0.700   1.600  14.750  0.4805  0.0878 -0.4200
  405MPD2    C3 6100   0.721   1.730  14.706  0.0144 -0.0332  0.7948
  405MPD2    C4 6101   0.811   1.810  14.765 -0.2024  0.1588  0.1690
  405MPD2    C5 6102   0.884   1.756  14.868 -0.0584 -0.7416 -0.1936
  405MPD2     H 6103   0.621   1.543  14.702 -0.0124  0.7430 -0.4006
  405MPD2    H1 6104   0.829   1.914  14.738  0.7638 -0.1942 -0.5275
  405MPD2    H2 6105   0.923   1.589  15.001  0.1745  1.0623  0.1274
  405MPD2    H3 6106   0.966   1.810  14.911  1.2264 -1.2890 -1.9416
  405MPD2     N 6107   0.642   1.778  14.601 -0.6143  0.8538  0.0500
  405MPD2    H5 6108   0.604   1.706  14.540  1.1682  1.8795 -2.2583
  405MPD2    N1 6109   0.727   1.419  14.904 -0.6040  0.5454  0.0438
  405MPD2    H7 6110   0.652   1.383  14.846 -1.6275  3.0221 -0.1860
  406TMC3    C1 6111   0.304   2.079  14.464  0.2230 -0.4179  0.1467
  406TMC3    C2 6112   0.227   1.972  14.424 -0.3647  0.1583 -0.3595
  406TMC3    C3 6113   0.283   1.846  14.430  0.2663  0.6352 -0.2275
  406TMC3    C4 6114   0.431   2.060  14.508  0.5037  0.7834  0.1671
  406TMC3    C5 6115   0.491   1.934  14.505  0.4316  0.5096 -0.5263
  406TMC3    C6 6116   0.413   1.821  14.471  0.0894 -0.0403 -0.7526
  406TMC3     C 6117   0.240   2.210  14.498 -0.5516 -0.0681  0.0894
  406TMC3     O 6118   0.301   2.307  14.461 -0.4646  0.0439  0.3513
  406TMC3     H 6119   0.122   1.977  14.397 -0.7818 -0.8496  1.0398
  406TMC3    H1 6120   0.485   2.141  14.555  0.7936  0.3112  0.6440
  406TMC3    H2 6121   0.466   1.727  14.464 -2.4894 -1.6990  1.6387
  406TMC3    C7 6122   0.605   1.916  14.587  0.5716  0.0541 -0.5159
  406TMC3    C8 6123   0.187   1.750  14.479 -0.3175 -0.1876  0.2282
  406TMC3    O1 6124   0.643   2.014  14.652 -0.2584 -0.1093 -0.3436
  406TMC3    O2 6125   0.073   1.761  14.448 -0.4097  0.5898 -0.4235
  407MPD2     C 6126   2.875   3.301   9.987 -0.5947  0.4532  0.3673
  407MPD2    C1 6127   2.957   3.408   9.946 -0.1778 -0.1288  0.2123
  407MPD2    C2 6128   2.996   3.495  10.046  0.2681 -0.6194  0.5397
  407MPD2    C3 6129   2.969   3.471  10.186 -0.0791  1.1432  0.2800
  407MPD2    C4 6130   2.905   3.346  10.216  0.5609  0.0409 -0.1008
  407MPD2    C5 6131   2.853   3.270  10.117 -0.8192 -0.5051 -0.3598
  407MPD2     H 6132   3.051   3.585  10.021 -1.9396  0.6864  0.4550
  407MPD2    H1 6133   2.880   3.309  10.315  0.8685  0.7570  0.2425
  407MPD2    H2 6134   2.839   3.227   9.916 -0.2422  0.0344  0.6241
  407MPD2    H3 6135   2.796   3.180  10.137 -1.4486 -0.1472 -0.5553
  407MPD2     N 6136   3.020   3.564  10.281 -0.4386  0.4224  0.3438
  407MPD2    H5 6137   3.042   3.656  10.245  0.4410  0.4147  0.8579
  407MPD2    N1 6138   2.996   3.436   9.814  0.5684  0.2115 -1.0187
  407MPD2    H7 6139   3.054   3.518   9.802  1.1189  0.1117  0.9987
  408TMC3    C1 6140   3.054   3.389   9.600  0.4226 -0.0220 -0.1933
  408TMC3    C2 6141   3.106   3.292   9.520 -0.4131  0.2222 -0.3489
  408TMC3    C3 6142   3.197   3.326   9.432 -0.2717  0.5269  0.3028
  408TMC3    C4 6143   3.089   3.518   9.592  0.5413  0.2116  0.6683
  408TMC3    C5 6144   3.180   3.543   9.499 -0.6463  0.3045  0.3245
  408TMC3    C6 6145   3.233   3.454   9.411  0.1665 -0.3532 -0.8370
  408TMC3     C 6146   2.974   3.351   9.711 -0.3274 -0.2501  0.1830
  408TMC3     O 6147   2.903   3.252   9.702 -0.3343  0.3292  0.1206
  408TMC3     H 6148   3.096   3.188   9.547 -1.1228  0.1522 -0.8817
  408TMC3    H1 6149   3.050   3.603   9.648 -0.2046  0.9501 -0.9675
  408TMC3    H2 6150   3.304   3.489   9.337  0.7726 -1.9444 -0.9966
  408TMC3    C7 6151   3.256   3.666   9.515  0.0939  0.0865  0.3500
  408TMC3    C8 6152   3.305   3.235   9.426  0.2729 -0.2277  0.0265
  408TMC3    O1 6153   3.376   3.643   9.507 -0.7005  0.5783  0.0215
  408TMC3    O2 6154   3.287   3.112   9.428 -0.1133 -0.9537  0.2762
  409MPD2     C 6155   3.092   4.089  16.936  0.0334 -0.4923  0.1091
  409MPD2    C1 6156   3.210   4.041  16.889  0.0633  0.2961  0.5551
  409MPD2    C2 6157   3.301   4.119  16.829  0.2794 -0.2573 -0.2284
  409MPD2    C3 6158   3.278   4.256  16.820  0.4968  0.0078  0.4572
  409MPD2    C4 6159   3.160   4.307  16.873  0.1621  1.3048  0.4523
  409MPD2    C5 6160   3.066   4.221  16.926  0.2006 -0.1573  0.4610
  409MPD2     H 6161   3.391   4.078  16.785 -0.7749 -0.6170 -2.0903
  409MPD2    H1 6162   3.139   4.414  16.877  0.4693  1.3871 -0.2548
  409MPD2    H2 6163   3.028   4.026  16.997 -2.2788 -0.5994 -2.3749
  409MPD2    H3 6164   2.971   4.249  16.971 -1.0163 -3.1304 -0.2602
  409MPD2     N 6165   3.365   4.353  16.765  0.0826  0.1696  0.1693
  409MPD2    H5 6166   3.340   4.451  16.764 -0.2118  0.0528 -3.0767
  409MPD2    N1 6167   3.237   3.905  16.916  0.8432  0.0328  0.0703
  409MPD2    H7 6168   3.187   3.848  16.983  1.9661  0.2074  1.0722
  410TMC3    C1 6169   3.571   4.437  16.707 -0.1251 -0.5960 -1.0016
  410TMC3    C2 6170   3.670   4.444  16.803  0.5215 -0.3774 -0.2376
  410TMC3    C3 6171   3.682   4.558  16.880  0.2696 -0.0280  0.0847
  410TMC3    C4 6172   3.499   4.550  16.675 -0.2550 -0.4458  0.4477
  410TMC3    C5 6173   3.500   4.656  16.766 -0.2708 -0.0595 -0.5246
  410TMC3    C6 6174   3.601   4.668  16.859  0.6790  0.0607  0.6887
  410TMC3     C 6175   3.493   4.321  16.736  0.1548  0.3203 -0.6250
  410TMC3     O 6176   3.561   4.226  16.763 -0.4861 -0.6916  0.5986
  410TMC3     H 6177   3.750   4.370  16.811  0.7254 -0.3267 -1.7078
  410TMC3    H1 6178   3.422   4.544  16.599 -0.6343  0.1864  0.7851
  410TMC3    H2 6179   3.613   0.025  16.909  3.1246 -0.0071  0.2344
  410TMC3    C7 6180   3.367   4.690  16.815  0.5174  0.4382  0.6214
  410TMC3    C8 6181   3.796   4.576  16.968  0.2622  0.1562 -0.0584
  410TMC3    O1 6182   3.277   4.614  16.777  0.4620  0.5223  0.4557
  410TMC3    O2 6183   3.821   4.691  17.004  0.3606  0.3180  0.6701
  411MPD2     C 6184   3.310   4.505  14.683  0.0997 -0.0496 -0.1203
  411MPD2    C1 6185   3.209   4.553  14.765 -0.3952  1.0677  0.3316
  411MPD2    C2 6186   3.084   4.486  14.752 -0.8431  0.3661  0.2397
  411MPD2    C3 6187   3.069   4.384  14.656  0.0116  0.0282  0.1207
  411MPD2    C4 6188   3.176   4.330  14.593 -0.6237  0.2788  0.1483
  411MPD2    C5 6189   3.296   4.394  14.610 -0.6642 -0.2634 -0.0311
  411MPD2     H 6190   2.996   4.526  14.801 -1.1905  1.3210 -1.1731
  411MPD2    H1 6191   3.152   4.257  14.517  0.2916  0.8684 -0.7023
  411MPD2    H2 6192   3.403   4.561  14.674  0.3847 -0.5043  0.0298
  411MPD2    H3 6193   3.379   4.350  14.556 -0.1778  0.2671  0.2843
  411MPD2     N 6194   2.942   4.329  14.633 -0.2574  0.3389  0.2612
  411MPD2    H5 6195   2.925   4.249  14.573 -2.1913  0.9015  0.0665
  411MPD2    N1 6196   3.220   4.669  14.836 -0.2457  0.4302  0.0426
  411MPD2    H7 6197   3.300   4.725  14.809  1.4874 -1.7019  0.7169
  412TMC3    C1 6198   2.715   4.303  14.635 -0.2230 -0.2898 -0.3953
  412TMC3    C2 6199   2.628   4.254  14.726  0.2216  0.3246  0.4161
  412TMC3    C3 6200   2.556   4.147  14.679 -1.2090 -0.0479  0.3984
  412TMC3    C4 6201   2.738   4.255  14.510  0.4520  0.0085  0.7601
  412TMC3    C5 6202   2.664   4.143  14.472  0.3573  0.4171 -0.0601
  412TMC3    C6 6203   2.578   4.090  14.558 -0.3715  0.6392  0.5197
  412TMC3     C 6204   2.832   4.367  14.696 -0.1984  0.1668  0.0916
  412TMC3     O 6205   2.804   4.412  14.807 -0.2676  0.0029 -0.3211
  412TMC3     H 6206   2.618   4.287  14.828 -1.5538 -1.1395  0.7242
  412TMC3    H1 6207   2.802   4.303  14.437  0.4360  0.0210  0.7543
  412TMC3    H2 6208   2.517   4.008  14.521 -0.4120  1.5015 -1.3461
  412TMC3    C7 6209   2.611   4.149  14.333  0.2822 -0.3400 -0.2640
  412TMC3    C8 6210   2.409   4.155  14.701 -0.3707 -0.1450 -0.0480
  412TMC3    O1 6211   2.503   4.093  14.323 -0.5695 -0.0698 -0.1181
  412TMC3    O2 6212   2.377   4.196  14.812  0.0932  0.5649  0.4632
  413MPD2     C 6213   4.478   3.184  15.451 -0.1130 -0.1786  0.6479
  413MPD2    C1 6214   4.398   3.101  15.382  0.5358 -0.8599  0.3057
  413MPD2    C2 6215   4.443   2.970  15.359  0.3689 -0.3176  0.6306
  413MPD2    C3 6216   4.571   2.928  15.403 -0.6243 -0.5374 -0.8240
  413MPD2    C4 6217   4.651   3.026  15.467 -0.9857  0.2011 -0.0890
  413MPD2    C5 6218   4.604   3.152  15.481 -0.7117  0.1018 -0.1058
  413MPD2     H 6219   4.385   2.892  15.312 -1.1185  0.9277  0.4019
  413MPD2    H1 6220   0.015   3.012  15.498 -1.2782 -0.4356  0.6348
  413MPD2    H2 6221   4.456   3.287  15.479 -2.6916 -0.9938  1.6549
  413MPD2    H3 6222   4.664   3.235  15.519  2.6003 -1.9987 -0.7571
  413MPD2     N 6223   4.626   2.800  15.357  0.4700 -0.0161 -0.3935
  413MPD2    H5 6224   4.561   2.744  15.303 -2.3918  1.3023  1.6468
  413MPD2    N1 6225   4.267   3.146  15.337 -0.0040 -0.9127 -0.5075
  413MPD2    H7 6226   4.236   3.237  15.368  2.0089 -0.6803  0.8162
  414TMC3    C1 6227   0.021   2.603  15.352  0.5379  0.0564  0.0955
  414TMC3    C2 6228   0.094   2.514  15.429 -0.4676  0.4076  0.0379
  414TMC3    C3 6229   0.107   2.393  15.384 -0.1575  0.0148  0.9430
  414TMC3    C4 6230   4.703   2.570  15.233 -0.2896 -0.5068  0.3538
  414TMC3    C5 6231   4.716   2.442  15.187 -0.5553  0.3357 -0.2043
  414TMC3    C6 6232   0.040   2.352  15.273 -0.1726  0.2614 -0.1519
  414TMC3     C 6233   0.002   2.740  15.407  0.1550  0.2745  0.3060
  414TMC3     O 6234   0.071   2.776  15.497 -0.3411 -0.9242  0.6138
  414TMC3     H 6235   0.119   2.534  15.533  0.1983  2.1529 -0.4568
  414TMC3    H1 6236   4.653   2.645  15.174  0.4671  0.3835  0.8343
  414TMC3    H2 6237   0.045   2.248  15.242 -2.0844  0.1452 -0.0691
  414TMC3    C7 6238   4.679   2.414  15.048 -0.2410  0.0271 -0.0796
  414TMC3    C8 6239   0.221   2.313  15.428 -0.1605  0.2484 -0.2492
  414TMC3    O1 6240   4.578   2.468  15.002 -0.2583 -0.7451  0.1088
  414TMC3    O2 6241   0.220   2.193  15.419  0.0249 -0.4290  0.6920
  415TMC3    C1 6242   0.012   1.155  10.314 -0.2712 -0.1451  0.1691
  415TMC3    C2 6243   0.066   1.202  10.202 -0.2913  0.7097 -0.6360
  415TMC3    C3 6244   4.731   1.190  10.088 -0.7819  0.0966 -0.2930
  415TMC3    C4 6245   4.622   1.107  10.327  0.4041  0.0652  0.3961
  415TMC3    C5 6246   4.552   1.101  10.208  0.0846  0.1968 -0.5974
  415TMC3    C6 6247   4.598   1.147  10.087  1.2485  0.1492  0.5621
  415TMC3     C 6248   0.096   1.105  10.412  0.0929  0.6868  0.9832
  415TMC3     O 6249   0.042   1.090  10.521 -0.1582  0.2170  0.3203
  415TMC3     H 6250   0.171   1.227  10.205  0.2357 -1.5648  0.2123
  415TMC3    H1 6251   4.579   1.077  10.422  0.4892  0.4625  0.5621
  415TMC3    H2 6252   4.542   1.145   9.994  1.4707 -0.2287  0.4376
  415TMC3    C7 6253   4.427   1.028  10.193  0.1365 -0.1448  0.4457
  415TMC3    C8 6254   0.054   1.197   9.967 -0.1106  0.3118 -0.3926
  415TMC3    O1 6255   4.369   1.051  10.090  0.2100 -0.1307 -0.2541
  415TMC3    O2 6256   0.000   1.129   9.875 -0.1842  0.0053 -0.1364
  416MPD2     C 6257   1.942   0.074  11.410 -0.0736 -0.7857  0.0448
  416MPD2    C1 6258   1.875   4.716  11.475 -0.5275  0.2731 -0.5126
  416MPD2    C2 6259   1.888   4.584  11.423  0.1636 -0.2789 -0.8961
  416MPD2    C3 6260   1.949   4.556  11.304 -0.1948  0.4380  0.8447
  416MPD2    C4 6261   2.001   4.665  11.234 -0.2934  0.1746 -0.3147
  416MPD2    C5 6262   2.006   0.048  11.294  0.4415  0.3354 -0.0267
  416MPD2     H 6263   1.832   4.504  11.470  0.6941 -0.0146  0.1871
  416MPD2    H1 6264   2.051   4.643  11.140 -0.8942 -0.8320 -0.3926
  416MPD2    H2 6265   1.951   0.172  11.454  0.9996 -0.6473 -0.4903
  416MPD2    H3 6266   2.053   0.129  11.240  0.8806 -0.6874 -1.1581
  416MPD2     N 6267   1.932   4.426  11.252  1.2764  0.4377  0.1365
  416MPD2    H5 6268   1.858   4.369  11.292  0.6133  1.3215  0.1826
  416MPD2    N1 6269   1.798   0.012  11.587 -0.1099  0.1899  0.1844
  416MPD2    H7 6270   1.788   0.110  11.611 -1.4392 -0.0796  0.7876
  417TMC3    C1 6271   1.680   4.738  11.787 -0.2002 -0.2263 -0.5038
  417TMC3    C2 6272   1.685   4.684  11.914 -0.3996  0.1227 -0.1952
  417TMC3    C3 6273   1.610   0.009  12.014  0.1257 -0.1197  0.5466
  417TMC3    C4 6274   1.601   0.109  11.755  0.2046 -0.5095 -0.3842
  417TMC3    C5 6275   1.517   0.159  11.852  0.3739  0.7709 -0.1404
  417TMC3    C6 6276   1.527   0.113  11.983  0.2680 -0.3299 -0.0978
  417TMC3     C 6277   1.746   4.664  11.682  0.1136  0.4595  0.0414
  417TMC3     O 6278   1.771   4.545  11.703  0.2929  0.2594 -0.8583
  417TMC3     H 6279   1.741   4.594  11.935 -2.2114 -1.2575 -1.4048
  417TMC3    H1 6280   1.590   0.142  11.652  0.1898  1.4247  0.2383
  417TMC3    H2 6281   1.450   0.137  12.055  0.4198  1.4321 -0.5424
  417TMC3    C7 6282   1.393   0.200  11.801 -0.1486 -0.3354  0.3500
  417TMC3    C8 6283   1.634   4.719  12.162  0.0325  0.4202  0.0519
  417TMC3    O1 6284   1.387   0.271  11.699  0.3994  0.3329 -0.2410
  417TMC3    O2 6285   1.555   0.035  12.237 -0.2595 -0.0093  0.2253
  418TMC3    C1 6286   0.942   1.689   0.455 -0.0641 -0.0715 -0.2110
  418TMC3    C2 6287   0.826   1.672   0.383  0.3206  0.4095 -0.4027
  418TMC3    C3 6288   0.736   1.585   0.441 -0.0188  0.1949 -0.6589
  418TMC3    C4 6289   0.967   1.625   0.575  0.5136 -0.9018 -0.5339
  418TMC3    C5 6290   0.876   1.543   0.624 -0.7878  0.1258 -0.7553
  418TMC3    C6 6291   0.757   1.524   0.561  0.3008  1.0434  0.2183
  418TMC3     C 6292   1.053   1.728   0.371  0.3661  0.4830 -0.1790
  418TMC3     O 6293   1.040   1.824   0.298  0.1388 -0.3544 -1.0718
  418TMC3     H 6294   0.828   1.691   0.276  1.5324  0.3814 -0.3809
  418TMC3    H1 6295   1.060   1.636   0.629  0.6752  1.0386 -1.1845
  418TMC3    H2 6296   0.689   1.448   0.597  2.3841 -0.2846  1.3653
  418TMC3    C7 6297   0.907   1.462   0.739  0.0138  0.1122  0.1372
  418TMC3    C8 6298   0.667   1.497   0.342 -0.4462 -0.1981  0.5688
  418TMC3    O1 6299   0.848   1.356   0.762 -0.5460  0.7168 -0.0374
  418TMC3    O2 6300   0.625   1.556   0.241 -0.8860  0.7622 -0.1974
  419MPD2     C 6301   4.110   4.150  11.980 -0.0890  0.4588 -0.1464
  419MPD2    C1 6302   3.982   4.195  12.012  0.1757 -0.2205  0.3527
  419MPD2    C2 6303   3.931   4.157  12.131 -0.9368  0.4791 -0.2896
  419MPD2    C3 6304   4.010   4.092  12.232 -0.4915  0.5976 -0.0178
  419MPD2    C4 6305   4.132   4.041  12.196  0.0619 -0.1071  0.3164
  419MPD2    C5 6306   4.178   4.076  12.070  0.2365 -0.8120  0.3943
  419MPD2     H 6307   3.831   4.194  12.149 -1.3445  0.2299 -2.1002
  419MPD2    H1 6308   4.200   3.976  12.250 -0.6731 -0.3365  0.9666
  419MPD2    H2 6309   4.153   4.171  11.882 -1.2292  1.1865 -0.4932
  419MPD2    H3 6310   4.270   4.022  12.049  1.1318  0.6228  0.6652
  419MPD2     N 6311   3.954   4.076  12.363  0.6266  0.4833 -0.4539
  419MPD2    H5 6312   3.865   4.124  12.377  0.8383  0.2693  1.6847
  419MPD2    N1 6313   3.928   4.316  11.960 -0.1485 -0.1069  0.2888
  419MPD2    H7 6314   3.858   4.357  12.020  1.0644 -0.4392  1.9340
  420TMC3    C1 6315   3.942   4.042  12.587 -0.4892  0.5032 -0.0868
  420TMC3    C2 6316   3.802   4.034  12.574  0.1764  0.3521  0.0134
  420TMC3    C3 6317   3.728   4.097  12.674 -0.0298 -0.5685  0.2562
  420TMC3    C4 6318   4.004   4.087  12.697  0.1648 -0.1608  0.1781
  420TMC3    C5 6319   3.930   4.151  12.794 -0.6501  0.3433  0.6113
  420TMC3    C6 6320   3.790   4.159  12.779  0.6841 -0.6495  0.7078
  420TMC3     C 6321   4.020   4.026  12.467 -0.7156  0.1545  0.0671
  420TMC3     O 6322   4.140   4.017  12.482  0.0576 -0.1942  0.1119
  420TMC3     H 6323   3.762   3.990  12.484  1.9836  0.0471 -0.6459
  420TMC3    H1 6324   4.112   4.084  12.700  0.1680  0.5532  0.9671
  420TMC3    H2 6325   3.736   4.209  12.859  0.4470 -1.0797  0.8146
  420TMC3    C7 6326   3.980   4.157  12.930 -0.1526  0.5114 -0.1156
  420TMC3    C8 6327   3.595   4.153  12.649 -0.1956 -0.1934 -0.0927
  420TMC3    O1 6328   3.890   4.166  13.015 -0.6163  0.2579 -0.1618
  420TMC3    O2 6329   3.577   4.263  12.702  0.7370 -0.0295  0.2804
  421TMC3    C1 6330   0.436   1.608  13.926 -0.0244  0.3195 -0.1404
  421TMC3    C2 6331   0.451   1.720  14.005 -0.4167  0.2976  0.1458
  421TMC3    C3 6332   0.543   1.714  14.108  0.6595 -0.5095 -0.6870
  421TMC3    C4 6333   0.519   1.501  13.938 -0.2114 -0.4100 -0.1821
  421TMC3    C5 6334   0.613   1.501  14.038 -0.0303 -0.8174 -0.3060
  421TMC3    C6 6335   0.624   1.604  14.126 -0.1699  0.0281 -0.0093
  421TMC3     C 6336   0.329   1.606  13.826  0.4399  0.1207 -0.2428
  421TMC3     O 6337   0.286   1.715  13.785 -0.2529  0.1289  0.0229
  421TMC3     H 6338   0.359   1.778  14.002  0.0817  1.1279  1.1559
  421TMC3    H1 6339   0.508   1.406  13.886 -1.3868 -0.9650  1.0788
  421TMC3    H2 6340   0.696   1.604  14.206  0.3511 -0.5412 -0.4803
  421TMC3    C7 6341   0.726   1.409  14.038 -0.5467  0.2646 -0.1243
  421TMC3    C8 6342   0.584   1.831  14.176 -0.0162 -0.2172  0.5321
  421TMC3    O1 6343   0.798   1.425  14.133 -0.1953  0.2260 -0.0718
  421TMC3    O2 6344   0.669   1.823  14.260 -0.0266 -0.2456 -0.0984
  422TMC3    C1 6345   2.837   2.892  12.799 -0.1220  0.0023  0.6264
  422TMC3    C2 6346   2.842   3.028  12.784  0.1049 -0.4500  0.6400
  422TMC3    C3 6347   2.737   3.095  12.735 -0.3004  0.3280 -0.0455
  422TMC3    C4 6348   2.727   2.827  12.774  0.3449  0.1055 -0.0926
  422TMC3    C5 6349   2.620   2.898  12.734  0.0927 -1.1370 -1.7060
  422TMC3    C6 6350   2.619   3.035  12.703  0.4399 -0.0446  0.3938
  422TMC3     C 6351   2.951   2.827  12.736 -0.4202 -0.2522 -0.3780
  422TMC3     O 6352   3.003   2.895  12.651 -0.3929  0.2453  0.1162
  422TMC3     H 6353   2.935   3.082  12.795 -0.5693  0.4429  2.0323
  422TMC3    H1 6354   2.724   2.721  12.754  2.2682 -0.1563  0.9518
  422TMC3    H2 6355   2.529   3.088  12.673 -1.1764 -1.4853  2.6939
  422TMC3    C7 6356   2.522   2.821  12.668 -0.4839 -0.4569  0.2750
  422TMC3    C8 6357   2.752   3.238  12.712  0.7999 -0.1774 -0.4353
  422TMC3    O1 6358   2.499   2.861  12.555  0.2548  0.0134  0.0499
  422TMC3    O2 6359   2.842   3.288  12.777  0.9339 -0.5586  0.3496
  423MPD2     C 6360   4.019   3.142   0.705 -0.8384  0.0049 -0.1629
  423MPD2    C1 6361   4.121   3.058   0.749 -0.1076 -0.1008 -0.3333
  423MPD2    C2 6362   4.234   3.040   0.669  0.3597 -0.1623 -0.0280
  423MPD2    C3 6363   4.247   3.125   0.561 -0.3987  0.1130  0.3745
  423MPD2    C4 6364   4.142   3.206   0.519  0.2654  0.3015 -0.2072
  423MPD2    C5 6365   4.033   3.218   0.595  0.2583 -0.6470 -0.6879
  423MPD2     H 6366   4.307   2.967   0.702  1.0615  0.2256 -0.6977
  423MPD2    H1 6367   4.134   3.259   0.425 -0.1530  0.2713 -0.1863
  423MPD2    H2 6368   3.925   3.153   0.758 -1.4811  2.3765 -1.7918
  423MPD2    H3 6369   3.945   3.276   0.570  0.7742 -0.6709 -2.5451
  423MPD2     N 6370   4.358   3.123   0.475 -0.2776 -0.2134  0.8720
  423MPD2    H5 6371   4.366   3.174   0.387  1.3046 -2.0072 -0.0308
  423MPD2    N1 6372   4.121   2.992   0.877 -0.8915 -0.1751 -0.5349
  423MPD2    H7 6373   4.178   2.908   0.881 -0.1108  0.3065 -1.5666
  424TMC3    C1 6374   4.049   2.952   1.107 -0.0065 -0.1830 -0.1417
  424TMC3    C2 6375   4.141   2.846   1.117 -0.7707 -0.6981  0.5694
  424TMC3    C3 6376   4.158   2.791   1.238 -0.3153 -0.3373  0.3530
  424TMC3    C4 6377   3.986   3.005   1.215 -0.2663  0.2272  0.2652
  424TMC3    C5 6378   4.022   2.962   1.340 -0.8052 -1.3078 -0.0286
  424TMC3    C6 6379   4.102   2.849   1.353  0.5834 -0.5936 -0.1450
  424TMC3     C 6380   4.038   3.031   0.985 -0.4830  0.5495 -0.6535
  424TMC3     O 6381   3.960   3.127   0.984  0.1477 -0.6860 -0.1120
  424TMC3     H 6382   4.180   2.788   1.035 -0.7327 -0.3271  0.3256
  424TMC3    H1 6383   3.918   3.089   1.202  0.3957  0.8177  0.6071
  424TMC3    H2 6384   4.128   2.816   1.453 -2.7371  0.1027  0.9453
  424TMC3    C7 6385   3.936   2.986   1.461 -0.5566 -0.0127  0.8509
  424TMC3    C8 6386   4.252   2.678   1.259 -0.7071 -0.4264 -0.7499
  424TMC3    O1 6387   3.938   2.893   1.537  0.4330 -0.1520  0.1522
  424TMC3    O2 6388   4.251   2.652   1.380 -0.3030  0.5604 -0.0894
  425MPD2     C 6389   3.552   2.610  17.188 -0.0894 -0.4476  0.0437
  425MPD2    C1 6390   3.560   2.517  17.295  0.1739 -0.2702  0.4657
  425MPD2    C2 6391   3.478   2.544  17.407 -0.4484 -0.1434  0.7075
  425MPD2    C3 6392   3.399   2.655  17.420 -0.5383 -0.1599 -0.3524
  425MPD2    C4 6393   3.386   2.743  17.311  0.3956  0.6076  0.5916
  425MPD2    C5 6394   3.462   2.719  17.200  0.2370  0.8792  0.6572
  425MPD2     H 6395   3.483   2.478  17.493 -0.9047  0.1808  0.9779
  425MPD2    H1 6396   3.312   2.821  17.295 -0.6556  0.2598  3.8673
  425MPD2    H2 6397   3.610   2.603  17.097 -2.8320 -1.8546 -1.6137
  425MPD2    H3 6398   3.449   2.794  17.123 -0.0753  1.4215  1.2481
  425MPD2     N 6399   3.322   2.660  17.541  0.1045 -0.2260 -0.4252
  425MPD2    H5 6400   3.341   2.593  17.614  1.6396  0.5165 -0.1277
  425MPD2    N1 6401   3.647   2.405  17.271 -0.0789  0.2281  0.6314
  425MPD2    H7 6402   3.693   2.393  17.181 -2.1502  0.1146 -0.4075
  426TMC3    C1 6403   3.741   2.188  17.325 -1.0723 -0.0399  0.0662
  426TMC3    C2 6404   3.753   2.156  17.199  0.1389 -0.5102  0.1987
  426TMC3    C3 6405   3.805   2.033  17.166  0.3061  0.1056 -0.3842
  426TMC3    C4 6406   3.771   2.095  17.429 -0.6361  0.1798  0.2067
  426TMC3    C5 6407   3.806   1.972  17.394  0.3593  0.2398 -0.0052
  426TMC3    C6 6408   3.836   1.950  17.266 -0.4020  0.1603 -0.5459
  426TMC3     C 6409   3.660   2.307  17.368  0.5121 -1.1137 -0.7177
  426TMC3     O 6410   3.625   2.318  17.486 -0.2246  0.0881  0.1198
  426TMC3     H 6411   3.714   2.226  17.125  0.6181 -0.5846 -0.1237
  426TMC3    H1 6412   3.745   2.126  17.530  0.4555  0.9066  0.2583
  426TMC3    H2 6413   3.864   1.849  17.237  0.8333  0.8228 -1.6225
  426TMC3    C7 6414   3.722   1.866  17.447  0.2263  0.2483 -0.6367
  426TMC3    C8 6415   3.793   1.974  17.032 -0.4671  0.3707  0.0392
  426TMC3    O1 6416   3.733   1.757  17.392  0.4600  0.6949  0.1528
  426TMC3    O2 6417   3.889   1.913  16.988  0.0423  0.2496  0.5139
  427MPD2     C 6418   2.317   0.128  15.174  0.2085  0.5101 -0.5449
  427MPD2    C1 6419   2.266   0.004  15.208 -0.3152 -0.0503  0.1802
  427MPD2    C2 6420   2.138   4.717  15.176  0.1198 -0.4813 -1.1509
  427MPD2    C3 6421   2.057   0.076  15.112  0.5855 -0.5988  0.2090
  427MPD2    C4 6422   2.113   0.196  15.087  0.1166 -0.0842 -0.3381
  427MPD2    C5 6423   2.242   0.220  15.106 -0.6138  0.2867  0.0359
  427MPD2     H 6424   2.085   4.627  15.203 -0.7873  0.3601 -0.0942
  427MPD2    H1 6425   2.049   0.273  15.048 -0.7579  0.1789  1.6276
  427MPD2    H2 6426   2.419   0.160  15.193 -0.6182  2.7306  0.1090
  427MPD2    H3 6427   2.271   0.320  15.078  2.2782 -0.2330  1.1740
  427MPD2     N 6428   1.921   0.056  15.083 -0.3593 -0.1088  0.0361
  427MPD2    H5 6429   1.872   0.132  15.037  1.6854  1.3882  0.3301
  427MPD2    N1 6430   2.336   4.645  15.290  0.3650 -0.2250 -0.0592
  427MPD2    H7 6431   2.280   4.575  15.338  1.4644 -0.0588  1.4515
  428TMC3    C1 6432   2.501   4.594  15.449 -0.2919 -0.3502  0.0394
  428TMC3    C2 6433   2.400   4.533  15.525 -0.7329 -0.0055  0.1085
  428TMC3    C3 6434   2.434   4.508  15.654  0.1777  0.0039 -0.0396
  428TMC3    C4 6435   2.623   4.619  15.504  0.1636  0.1524  0.6988
  428TMC3    C5 6436   2.650   4.590  15.635  0.1837 -0.0323  0.0377
  428TMC3    C6 6437   2.554   4.531  15.713 -0.1300  0.3059  0.2025
  428TMC3     C 6438   2.466   4.660  15.329 -0.5450 -0.1162  0.2432
  428TMC3     O 6439   2.553   4.731  15.277  0.9990  0.0427  0.0164
  428TMC3     H 6440   2.301   4.505  15.489 -0.3716 -2.1899  0.8424
  428TMC3    H1 6441   2.694   4.656  15.431  1.0992  1.3683  2.2275
  428TMC3    H2 6442   2.571   4.525  15.820  2.3596  1.5100 -0.1196
  428TMC3    C7 6443   2.787   4.597  15.686 -0.6413 -0.3056 -0.4368
  428TMC3    C8 6444   2.343   4.414  15.729 -0.4795 -0.6266  0.7668
  428TMC3    O1 6445   2.805   4.571  15.802 -0.3661 -0.0120  0.2043
  428TMC3    O2 6446   2.269   4.343  15.658  0.1412 -0.3322 -0.6851
  429MPD2     C 6447   4.241   0.249  17.413 -0.4857  0.5551 -0.5650
  429MPD2    C1 6448   4.133   0.188  17.361  0.0809 -0.1565  0.2664
  429MPD2    C2 6449   4.096   0.234  17.233 -0.4687 -0.0675 -0.8178
  429MPD2    C3 6450   4.175   0.330  17.164 -0.2718 -0.3067  0.8328
  429MPD2    C4 6451   4.293   0.381  17.222  0.3297  0.1603 -0.6918
  429MPD2    C5 6452   4.320   0.346  17.349 -0.0824 -0.0726 -0.4678
  429MPD2     H 6453   4.018   0.186  17.176 -1.0703  0.1527 -0.1801
  429MPD2    H1 6454   4.352   0.454  17.167  0.8902 -0.6724 -1.2007
  429MPD2    H2 6455   4.275   0.237  17.516  0.4243  0.7192 -0.8459
  429MPD2    H3 6456   4.402   0.391  17.405 -0.4328 -1.7407  1.3625
  429MPD2     N 6457   4.128   0.369  17.041 -0.0821 -0.2024  0.4111
  429MPD2    H5 6458   4.056   0.313  16.995 -1.2794  1.2444  0.5317
  429MPD2    N1 6459   4.056   0.089  17.424  0.1941  0.2651  0.0642
  429MPD2    H7 6460   3.974   0.060  17.370 -0.2545  0.4039  0.6718
  430TMC3    C1 6461   4.127   0.499  16.842 -0.1762  0.3084  0.1306
  430TMC3    C2 6462   4.048   0.604  16.812  0.7335  0.0583 -0.6358
  430TMC3    C3 6463   3.977   0.600  16.694 -0.3025  1.1817  0.7051
  430TMC3    C4 6464   4.133   0.388  16.771 -0.3255 -0.6756 -0.1995
  430TMC3    C5 6465   4.058   0.390  16.656 -0.3818 -0.3514 -0.1633
  430TMC3    C6 6466   3.975   0.494  16.611 -0.0474  0.1018 -0.3010
  430TMC3     C 6467   4.169   0.485  16.981  0.4274  0.2559  0.7649
  430TMC3     O 6468   4.228   0.581  17.027 -0.4175  0.1906 -0.5783
  430TMC3     H 6469   4.050   0.691  16.876  0.1530 -0.0453 -0.4839
  430TMC3    H1 6470   4.183   0.298  16.805 -2.8249 -1.4446  1.4949
  430TMC3    H2 6471   3.925   0.508  16.516 -0.4636  1.0268  0.0568
  430TMC3    C7 6472   4.034   0.254  16.608 -0.2045  0.0572 -0.1641
  430TMC3    C8 6473   3.850   0.673  16.694 -0.3615  0.1697 -0.4668
  430TMC3    O1 6474   4.125   0.178  16.628 -0.5598  0.2517 -0.0449
  430TMC3    O2 6475   3.756   0.627  16.632  0.2806  0.3679 -0.0460
  431MPD2     C 6476   3.929   0.034  12.652  0.0764  0.0018  0.1757
  431MPD2    C1 6477   3.950   0.132  12.564  0.3829  0.0437 -0.3828
  431MPD2    C2 6478   3.957   0.111  12.431 -0.7519  1.2147 -0.8408
  431MPD2    C3 6479   3.938   4.723  12.382 -0.8056  0.2290 -0.3927
  431MPD2    C4 6480   3.927   4.619  12.476  0.5750 -0.7995 -0.2769
  431MPD2    C5 6481   3.920   4.645  12.607 -0.1167  0.9914 -0.1903
  431MPD2     H 6482   3.978   0.192  12.362 -2.4838  1.7167 -0.7568
  431MPD2    H1 6483   3.919   4.515  12.447  2.5074 -1.3272  1.0949
  431MPD2    H2 6484   3.926   0.046  12.760 -0.8910  0.3781  0.1099
  431MPD2    H3 6485   3.901   4.567  12.679  0.0719  1.8134  0.7457
  431MPD2     N 6486   3.949   4.689  12.245  0.3216 -0.2081  0.8769
  431MPD2    H5 6487   3.947   4.590  12.221 -3.9670  0.5066 -1.7831
  431MPD2    N1 6488   3.959   0.266  12.604 -0.4513 -0.1923  0.0054
  431MPD2    H7 6489   3.953   0.328  12.524  1.7547 -0.7251 -0.5822
  432TMC3    C1 6490   3.984   4.705  12.015  0.3356  0.7025 -0.1385
  432TMC3    C2 6491   4.032   0.045  11.916  0.3106 -0.4107 -0.0768
  432TMC3    C3 6492   4.032   4.726  11.791  0.8420  0.5914  0.3918
  432TMC3    C4 6493   3.936   4.580  12.001  0.4866 -0.0858 -0.5343
  432TMC3    C5 6494   3.938   4.536  11.869  0.3736  0.0257 -0.2479
  432TMC3    C6 6495   3.982   4.606  11.764  0.1774 -0.5848  0.2469
  432TMC3     C 6496   3.966   0.036  12.134 -0.7091 -0.7653 -0.0128
  432TMC3     O 6497   3.967   0.156  12.128 -0.0037  0.2566  0.1994
  432TMC3     H 6498   4.076   0.142  11.937  1.0831 -0.8449  0.2960
  432TMC3    H1 6499   3.889   4.522  12.080  0.1201 -0.6429 -1.1490
  432TMC3    H2 6500   3.982   4.572  11.661 -0.5390  0.3705 -0.0730
  432TMC3    C7 6501   3.977   4.394  11.857  0.1898  0.2105 -0.0400
  432TMC3    C8 6502   4.155   0.004  11.720  0.4843  0.4065  0.1079
  432TMC3    O1 6503   4.054   4.363  11.765 -0.1729  0.3184  0.9559
  432TMC3    O2 6504   4.159   4.725  11.600 -0.1905  0.1705 -0.3220
  433MPD2     C 6505   3.055   3.696  11.001  0.0206 -0.8760  0.1430
  433MPD2    C1 6506   3.005   3.582  11.067  0.2719  0.2076  0.3054
  433MPD2    C2 6507   2.948   3.603  11.192 -0.4492  0.0828  0.5461
  433MPD2    C3 6508   2.957   3.726  11.258  0.5268 -0.0648  0.7234
  433MPD2    C4 6509   3.006   3.838  11.189  0.0175 -1.4475 -0.0561
  433MPD2    C5 6510   3.052   3.819  11.061  0.2038 -0.0490  0.6009
  433MPD2     H 6511   2.908   3.527  11.259 -1.3987  0.0073 -0.1058
  433MPD2    H1 6512   3.015   3.937  11.233 -0.2627 -0.3150 -2.5461
  433MPD2    H2 6513   3.099   3.703  10.902  1.0353 -1.9104  0.5201
  433MPD2    H3 6514   3.088   3.912  11.019 -1.4108  0.7372  0.9657
  433MPD2     N 6515   2.900   3.735  11.389  0.1377  0.2158  0.4994
  433MPD2    H5 6516   2.880   3.648  11.437 -2.2513  2.2049  3.1004
  433MPD2    N1 6517   2.981   3.458  11.011  0.0530  0.2057  0.5989
  433MPD2    H7 6518   2.938   3.397  11.080 -0.6581  0.9518  0.8169
  434TMC3    C1 6519   2.987   3.272  10.865 -0.5709  0.2288 -0.3696
  434TMC3    C2 6520   2.983   3.180  10.970 -0.7095  0.0054  0.1106
  434TMC3    C3 6521   2.958   3.048  10.946 -0.0578  0.2784  0.6796
  434TMC3    C4 6522   2.947   3.234  10.740  0.1657  0.6332 -0.1457
  434TMC3    C5 6523   2.928   3.099  10.720  0.1636 -0.2864  0.1310
  434TMC3    C6 6524   2.924   3.008  10.822  0.3482 -0.7007  0.0921
  434TMC3     C 6525   3.023   3.411  10.886  0.4522 -0.2601 -0.3303
  434TMC3     O 6526   3.067   3.476  10.796 -0.6600  0.2279 -0.0473
  434TMC3     H 6527   3.006   3.214  11.071  0.6796 -1.6606  0.3586
  434TMC3    H1 6528   2.954   3.315  10.668  1.7915  0.1440 -0.5223
  434TMC3    H2 6529   2.919   2.902  10.797 -1.5373 -0.5062 -0.3253
  434TMC3    C7 6530   2.877   3.063  10.589  0.2244 -0.4274 -0.0763
  434TMC3    C8 6531   2.915   2.982  11.067 -0.0866  0.1820 -0.7351
  434TMC3    O1 6532   2.907   3.135  10.499 -0.3032  0.2915  0.4400
  434TMC3    O2 6533   2.983   3.012  11.166 -0.4443 -0.5437 -0.3341
  435MPD2     C 6534   0.613   3.419  15.300 -0.2505 -0.0657  0.4245
  435MPD2    C1 6535   0.534   3.424  15.417  0.4570  0.3272 -0.0825
  435MPD2    C2 6536   0.581   3.390  15.542  0.3401 -0.0630  0.5192
  435MPD2    C3 6537   0.705   3.335  15.558 -0.0038 -0.5135  0.1415
  435MPD2    C4 6538   0.775   3.316  15.440 -0.5560 -0.4561 -0.2004
  435MPD2    C5 6539   0.733   3.358  15.316  0.2145 -0.2921  0.7361
  435MPD2     H 6540   0.517   3.400  15.630  1.4738  0.8892  1.2286
  435MPD2    H1 6541   0.869   3.261  15.433 -0.5731 -0.3689 -1.1134
  435MPD2    H2 6542   0.576   3.457  15.206 -1.9923 -2.1422  0.2678
  435MPD2    H3 6543   0.805   3.346  15.236  0.2800 -0.5052  0.8280
  435MPD2     N 6544   0.743   3.288  15.684 -0.0488 -0.3207 -0.0259
  435MPD2    H5 6545   0.668   3.287  15.752 -2.4246  3.9431 -2.6012
  435MPD2    N1 6546   0.401   3.479  15.408 -0.1454  0.4320  0.3123
  435MPD2    H7 6547   0.353   3.495  15.496 -2.0389 -0.9227 -0.4792
  436TMC3    C1 6548   0.055   3.668  15.461 -0.6319  0.4587  0.3783
  436TMC3    C2 6549   0.187   3.647  15.419 -0.1609  0.6660 -0.8306
  436TMC3    C3 6550   0.205   3.567  15.309 -0.4358  0.0416  0.5938
  436TMC3    C4 6551   4.683   3.615  15.383  1.1065  0.8905 -0.2942
  436TMC3    C5 6552   4.716   3.538  15.273  0.0848 -0.1222  0.3888
  436TMC3    C6 6553   0.102   3.509  15.233  0.2518  0.7908 -0.7483
  436TMC3     C 6554   0.021   3.777  15.544 -0.1461  1.0010  0.4509
  436TMC3     O 6555   0.104   3.865  15.564  0.6924 -0.3908 -0.5248
  436TMC3     H 6556   0.266   3.681  15.485  0.5206 -0.4919 -1.0548
  436TMC3    H1 6557   4.580   3.624  15.415  1.0292  1.3219 -0.6808
  436TMC3    H2 6558   0.118   3.435  15.155 -3.4209 -1.4375  0.6127
  436TMC3    C7 6559   4.603   3.469  15.205 -0.5129 -0.1839 -0.1276
  436TMC3    C8 6560   0.334   3.498  15.291 -0.3417 -0.4686 -0.6732
  436TMC3    O1 6561   4.502   3.448  15.268 -0.0170 -1.0516 -0.5657
  436TMC3    O2 6562   0.358   3.447  15.183 -0.0251 -0.2261  0.3039
  437TMC3    C1 6563   3.322   0.693  13.277 -0.0952 -0.5661 -0.4901
  437TMC3    C2 6564   3.193   0.691  13.250  0.8483  0.0360 -0.1840
  437TMC3    C3 6565   3.141   0.777  13.166 -0.4418  0.2740 -0.9187
  437TMC3    C4 6566   3.410   0.779  13.213  0.1571  1.0340  0.1912
  437TMC3    C5 6567   3.358   0.865  13.126 -0.7483  0.5489 -0.1911
  437TMC3    C6 6568   3.223   0.873  13.117 -0.2090  0.2596 -0.2189
  437TMC3     C 6569   3.361   0.573  13.350 -0.8267 -0.3903 -0.0078
  437TMC3     O 6570   3.274   0.500  13.392 -0.0369  0.0216 -0.1348
  437TMC3     H 6571   3.122   0.632  13.307  0.0564  1.3832  0.2168
  437TMC3    H1 6572   3.516   0.784  13.236 -0.0467  0.1485  1.3341
  437TMC3    H2 6573   3.177   0.922  13.031  1.2195 -0.9740 -1.7014
  437TMC3    C7 6574   3.436   0.948  13.035 -0.0357  0.3320 -0.3496
  437TMC3    C8 6575   2.997   0.800  13.142 -0.2427 -0.1099 -0.3760
  437TMC3    O1 6576   3.385   1.048  12.987  0.1584  0.0832  0.0544
  437TMC3    O2 6577   2.970   0.916  13.123 -0.1575  0.7612 -0.2698
  438MPD2     C 6578   1.177   1.285  16.848  0.9498 -0.3465 -0.0850
  438MPD2    C1 6579   1.283   1.218  16.901 -0.2075 -0.0912  0.5365
  438MPD2    C2 6580   1.306   1.218  17.041 -0.4205 -0.0633 -0.7851
  438MPD2    C3 6581   1.232   1.284  17.129  0.8267 -0.1337 -0.6032
  438MPD2    C4 6582   1.134   1.359  17.065 -0.1728  0.0863 -0.1281
  438MPD2    C5 6583   1.110   1.361  16.933 -0.3633 -0.0958  0.4876
  438MPD2     H 6584   1.396   1.168  17.076  0.8082  0.5729 -3.0674
  438MPD2    H1 6585   1.069   1.420  17.127  1.0462  0.8437  0.4034
  438MPD2    H2 6586   1.153   1.295  16.742  0.6042  1.6811  0.1813
  438MPD2    H3 6587   1.028   1.423  16.898 -1.0895 -0.9011  0.7303
  438MPD2     N 6588   1.248   1.289  17.270  0.2646  0.8094 -0.0861
  438MPD2    H5 6589   1.194   1.362  17.316 -0.4245 -0.4057  1.0129
  438MPD2    N1 6590   1.380   1.144  16.823 -0.4417  0.0935 -0.3296
  438MPD2    H7 6591   1.456   1.089  16.864  0.2741  0.6410 -0.9222
  439TMC3    C1 6592   1.488   1.062  16.629  0.0431  0.2112 -0.1946
  439TMC3    C2 6593   1.459   0.972  16.527 -0.1257  0.3878  1.0600
  439TMC3    C3 6594   1.564   0.906  16.469 -0.0375  0.1043 -0.8796
  439TMC3    C4 6595   1.615   1.072  16.682  0.2626  0.9129  0.3509
  439TMC3    C5 6596   1.719   1.002  16.612  0.0371 -0.6943  0.1687
  439TMC3    C6 6597   1.696   0.920  16.508  0.2094  0.3287  1.0278
  439TMC3     C 6598   1.378   1.133  16.684 -0.0939 -0.0381  0.7172
  439TMC3     O 6599   1.283   1.170  16.616  0.2528 -0.7799 -0.1832
  439TMC3     H 6600   1.355   0.961  16.499 -0.5115  0.2909  2.5522
  439TMC3    H1 6601   1.635   1.143  16.762  1.1801  0.7188  0.2956
  439TMC3    H2 6602   1.765   0.840  16.484 -1.7825 -0.8331 -0.8231
  439TMC3    C7 6603   1.852   1.013  16.657  0.0773 -1.0992  0.4970
  439TMC3    C8 6604   1.543   0.815  16.360 -0.7522 -0.2618 -0.1436
  439TMC3    O1 6605   1.873   1.014  16.778 -0.0462 -0.6029 -0.3709
  439TMC3    O2 6606   1.644   0.768  16.310  0.0862  0.0261  0.3402
  440MPD2     C 6607   0.045   1.786  15.116  0.6084 -0.1777  0.2311
  440MPD2    C1 6608   0.114   1.866  15.207 -0.5618  0.1328 -0.5469
  440MPD2    C2 6609   0.251   1.859  15.206 -0.4173 -0.3712  0.5166
  440MPD2    C3 6610   0.326   1.774  15.121 -0.1699  0.4118  0.6982
  440MPD2    C4 6611   0.260   1.696  15.035  0.0415  0.6603 -0.0333
  440MPD2    C5 6612   0.120   1.709  15.031 -0.1618  0.0036 -0.2833
  440MPD2     H 6613   0.304   1.930  15.269 -1.0872  1.8290 -1.4295
  440MPD2    H1 6614   0.302   1.642  14.951  0.0227  0.4865  0.0687
  440MPD2    H2 6615   4.678   1.807  15.101 -0.0414 -2.1828  1.9915
  440MPD2    H3 6616   0.068   1.648  14.958  1.4570  0.1551 -1.5844
  440MPD2     N 6617   0.472   1.776  15.103  0.4925 -0.2538  0.0009
  440MPD2    H5 6618   0.506   1.704  15.040  1.9318 -1.4627  2.1355
  440MPD2    N1 6619   0.049   1.958  15.297 -0.8318 -0.0571  0.4254
  440MPD2    H7 6620   0.110   2.007  15.362  1.1722 -2.3802  0.2633
  441TMC3    C1 6621   0.689   1.853  15.153 -0.7009 -0.0720  0.3402
  441TMC3    C2 6622   0.754   1.959  15.194  0.1666  0.3482  0.1058
  441TMC3    C3 6623   0.850   1.943  15.292  1.1686  0.2166  0.1391
  441TMC3    C4 6624   0.727   1.730  15.197 -0.6590 -0.1542 -0.6382
  441TMC3    C5 6625   0.820   1.719  15.300  0.2189  0.2556  0.1356
  441TMC3    C6 6626   0.890   1.824  15.347  0.1005 -0.6954 -0.6387
  441TMC3     C 6627   0.546   1.874  15.166  0.7676  0.7817  0.0289
  441TMC3     O 6628   0.516   1.955  15.252 -0.1472 -0.1935  0.1033
  441TMC3     H 6629   0.724   2.055  15.154  1.1247 -0.1377 -1.8063
  441TMC3    H1 6630   0.671   1.641  15.168  1.6483 -2.0549  0.7714
  441TMC3    H2 6631   0.953   1.814  15.435  0.2757 -0.8753 -0.7840
  441TMC3    C7 6632   0.809   1.602  15.387 -0.0669  0.0379  0.8286
  441TMC3    C8 6633   0.832   2.057  15.385 -0.3249 -0.6543 -0.6762
  441TMC3    O1 6634   0.709   1.537  15.371 -0.4875  0.0139  0.4108
  441TMC3    O2 6635   0.931   2.102  15.444 -0.0785  0.0002  0.1323
  442MPD2     C 6636   3.603   2.239  16.570 -0.1730  0.3711 -0.1057
  442MPD2    C1 6637   3.505   2.155  16.611 -0.6914 -0.1080  0.7117
  442MPD2    C2 6638   3.457   2.057  16.527 -0.6802  0.3903  0.3789
  442MPD2    C3 6639   3.508   2.036  16.404  0.1520 -0.5685 -0.5134
  442MPD2    C4 6640   3.611   2.121  16.362 -0.4163  0.9437 -0.2095
  442MPD2    C5 6641   3.651   2.225  16.442  0.0037  0.5778 -0.2778
  442MPD2     H 6642   3.384   1.987  16.568 -2.5264  2.0779 -0.0236
  442MPD2    H1 6643   3.649   2.107  16.262 -0.4735  0.1707 -0.1235
  442MPD2    H2 6644   3.659   2.305  16.636 -1.8196  1.3245  0.3695
  442MPD2    H3 6645   3.733   2.290  16.416  0.1892 -0.3376 -1.9858
  442MPD2     N 6646   3.468   1.934  16.315  0.6950  0.0588 -0.0860
  442MPD2    H5 6647   3.527   1.925  16.233  0.9267  0.5860  0.0191
  442MPD2    N1 6648   3.448   2.160  16.740 -0.5058  0.7906 -0.2943
  442MPD2    H7 6649   3.372   2.094  16.757  1.1768 -0.6329  1.5640
  443TMC3    C1 6650   3.389   2.240  16.954 -0.2622 -0.3710  0.5774
  443TMC3    C2 6651   3.369   2.351  17.020  0.6707 -0.2911 -0.4099
  443TMC3    C3 6652   3.255   2.348  17.107  0.6647 -0.1423 -0.2038
  443TMC3    C4 6653   3.300   2.132  16.967 -0.5970  0.1503 -0.7449
  443TMC3    C5 6654   3.201   2.137  17.049  0.3790 -0.1824 -0.8567
  443TMC3    C6 6655   3.179   2.242  17.132 -0.0151 -0.6474  0.1067
  443TMC3     C 6656   3.478   2.252  16.845 -0.8396  0.0914  0.9289
  443TMC3     O 6657   3.584   2.317  16.855  0.3758 -0.6029 -0.4351
  443TMC3     H 6658   3.440   2.433  17.011  1.2966 -0.7090  0.6146
  443TMC3    H1 6659   3.292   2.048  16.898 -2.4567 -0.2554 -0.0364
  443TMC3    H2 6660   3.094   2.245  17.198  0.4824  3.8690  0.5175
  443TMC3    C7 6661   3.116   2.019  17.079  0.5246 -0.6134 -0.2511
  443TMC3    C8 6662   3.213   2.474  17.162 -0.8695  0.4843 -0.0195
  443TMC3    O1 6663   3.099   1.929  16.996 -0.5339 -0.5907  0.2042
  443TMC3    O2 6664   3.195   2.458  17.283  0.2483 -0.9504 -0.1113
  444MPD2     C 6665   3.541   1.664  17.160 -0.0038  0.1158 -0.2230
  444MPD2    C1 6666   3.432   1.599  17.109  0.0535 -0.6646 -0.0158
  444MPD2    C2 6667   3.446   1.515  17.001  0.3290 -0.9285  0.3675
  444MPD2    C3 6668   3.566   1.504  16.935  0.1544  0.2317  0.3144
  444MPD2    C4 6669   3.676   1.572  16.990 -0.0056 -0.0716 -0.0829
  444MPD2    C5 6670   3.658   1.653  17.099  0.0322  0.0223 -0.4536
  444MPD2     H 6671   3.361   1.453  16.973 -0.2114 -0.4103  0.8507
  444MPD2    H1 6672   3.773   1.575  16.943 -1.2079 -0.5919 -2.5782
  444MPD2    H2 6673   3.539   1.727  17.248 -0.2536 -0.0711 -0.0923
  444MPD2    H3 6674   3.733   1.717  17.145 -0.3041  1.8012 -2.3770
  444MPD2     N 6675   3.568   1.418  16.825  0.3556  0.5599  0.1075
  444MPD2    H5 6676   3.483   1.384  16.782 -0.2512  0.1765  1.6075
  444MPD2    N1 6677   3.313   1.579  17.182  0.3148 -0.3581 -0.3556
  444MPD2    H7 6678   3.236   1.525  17.143  0.3507 -1.7118  1.4458
  445TMC3    C1 6679   3.671   1.307  16.640 -0.1760 -0.2512  0.7621
  445TMC3    C2 6680   3.563   1.223  16.630  0.1813  0.3577  0.2937
  445TMC3    C3 6681   3.565   1.119  16.535  0.5770  0.3787  0.2074
  445TMC3    C4 6682   3.791   1.274  16.574 -0.1115 -0.3634 -0.2370
  445TMC3    C5 6683   3.795   1.158  16.501 -0.0725 -0.6174  0.1597
  445TMC3    C6 6684   3.686   1.082  16.474  0.1731 -0.4787 -0.0961
  445TMC3     C 6685   3.683   1.384  16.763  0.2889  0.5214  0.1471
  445TMC3     O 6686   3.803   1.402  16.793  0.3263  0.9755 -0.4569
  445TMC3     H 6687   3.478   1.217  16.696 -0.9572  0.8052 -1.1262
  445TMC3    H1 6688   3.882   1.333  16.585  0.4420 -0.8526 -2.3149
  445TMC3    H2 6689   3.685   0.991  16.415  1.5861 -0.8596  0.4432
  445TMC3    C7 6690   3.931   1.112  16.467 -0.5463  0.0931  0.0441
  445TMC3    C8 6691   3.466   1.013  16.544 -0.3598  0.1995 -0.2124
  445TMC3    O1 6692   4.027   1.182  16.481 -0.0802 -0.4851 -0.1069
  445TMC3    O2 6693   3.502   0.896  16.543 -0.2170 -0.3016  0.2830
  446MPD2     C 6694   2.502   3.020  11.548 -0.0177 -0.0282  0.2842
  446MPD2    C1 6695   2.541   3.009  11.419 -0.8029 -0.1158 -0.7620
  446MPD2    C2 6696   2.674   3.054  11.388  0.2355  0.2438 -0.3632
  446MPD2    C3 6697   2.770   3.084  11.486  0.1687 -0.2630  0.6653
  446MPD2    C4 6698   2.723   3.083  11.619 -0.2662 -0.0982  0.5372
  446MPD2    C5 6699   2.596   3.056  11.647  0.4270  0.2855  0.2014
  446MPD2     H 6700   2.707   3.041  11.286  1.0884 -1.3388  0.1230
  446MPD2    H1 6701   2.777   3.113  11.708  1.3708 -0.4159 -0.3533
  446MPD2    H2 6702   2.400   2.993  11.576 -0.4273 -0.3602 -1.5721
  446MPD2    H3 6703   2.577   3.053  11.754  0.5189  0.0549  0.2118
  446MPD2     N 6704   2.910   3.098  11.454 -0.4400 -0.3895 -0.1698
  446MPD2    H5 6705   2.947   3.111  11.360 -0.4272 -0.2189 -0.1408
  446MPD2    N1 6706   2.456   2.957  11.321  0.6464 -0.0124 -0.3930
  446MPD2    H7 6707   2.485   2.972  11.224  1.2450  4.3367  0.4489
  447TMC3    C1 6708   3.142   3.106  11.511  0.3607 -0.7603  0.1400
  447TMC3    C2 6709   3.162   3.150  11.380  0.1552 -1.2727  0.5964
  447TMC3    C3 6710   3.289   3.165  11.336  0.1054 -0.2539 -0.2642
  447TMC3    C4 6711   3.248   3.074  11.588 -0.2998  0.1601  0.7177
  447TMC3    C5 6712   3.374   3.081  11.539 -1.6788  0.3177  0.4224
  447TMC3    C6 6713   3.401   3.117  11.407 -0.1716 -0.0206 -0.4585
  447TMC3     C 6714   3.007   3.081  11.551 -0.3568  0.6042 -0.0275
  447TMC3     O 6715   2.994   3.038  11.670 -0.1182  0.1177  0.0808
  447TMC3     H 6716   3.083   3.205  11.330  1.8925 -0.3052 -1.0947
  447TMC3    H1 6717   3.232   3.044  11.691  0.8722  0.8933  1.1176
  447TMC3    H2 6718   3.496   3.095  11.359  1.1890  1.5980  1.4502
  447TMC3    C7 6719   3.489   3.031  11.617 -0.0288  0.3698  0.2338
  447TMC3    C8 6720   3.314   3.234  11.207 -0.0337 -0.2243 -0.6772
  447TMC3    O1 6721   3.482   2.939  11.697 -0.3041 -0.2906  0.2070
  447TMC3    O2 6722   3.211   3.270  11.152  0.0476  0.1514  0.4751
  448TMC3    C1 6723   0.908   2.024  16.643  0.4270 -0.3833 -0.3889
  448TMC3    C2 6724   0.961   2.036  16.512  0.7104  0.2753  0.0987
  448TMC3    C3 6725   1.092   2.005  16.500  0.1928 -0.1237 -0.4032
  448TMC3    C4 6726   0.980   1.983  16.754  0.5807 -0.0373 -0.3386
  448TMC3    C5 6727   1.112   1.955  16.734  0.2758 -0.1744 -0.3942
  448TMC3    C6 6728   1.161   1.959  16.608  0.2267  0.4296 -0.1640
  448TMC3     C 6729   0.769   2.055  16.653  0.5790 -0.3120  0.3689
  448TMC3     O 6730   0.704   2.100  16.562 -0.6680  0.4094  0.2889
  448TMC3     H 6731   0.892   2.062  16.432  1.6613  3.1473  0.2152
  448TMC3    H1 6732   0.931   1.978  16.851 -2.5671 -2.6408 -2.0447
  448TMC3    H2 6733   1.259   1.916  16.590  1.5186  1.7368  3.7763
  448TMC3    C7 6734   1.166   1.857  16.818 -0.3367 -1.1901  1.0225
  448TMC3    C8 6735   1.136   1.951  16.369  0.6486  0.0273  0.4512
  448TMC3    O1 6736   1.209   1.756  16.770  0.0119 -0.2665 -0.0672
  448TMC3    O2 6737   1.251   1.967  16.331  0.0848 -0.1036  0.7559
  449MPD2     C 6738   3.000   1.877  14.676 -0.1008 -0.3512 -0.2590
  449MPD2    C1 6739   3.082   1.770  14.636  0.6673  0.0395 -0.2729
  449MPD2    C2 6740   3.162   1.715  14.733  0.0057 -0.4465 -0.2137
  449MPD2    C3 6741   3.150   1.744  14.864  0.7379 -0.4207 -0.1693
  449MPD2    C4 6742   3.066   1.846  14.899 -0.0000 -0.6907  0.5715
  449MPD2    C5 6743   2.997   1.917  14.807  0.0917 -0.5754  0.6535
  449MPD2     H 6744   3.233   1.635  14.718 -0.5698 -0.5328 -2.3891
  449MPD2    H1 6745   3.070   1.883  15.001 -0.7500  0.7868  0.0745
  449MPD2    H2 6746   2.935   1.935  14.611  1.8506  0.0837 -1.8085
  449MPD2    H3 6747   2.946   2.009  14.833 -0.7107 -0.4597 -1.2736
  449MPD2     N 6748   3.235   1.679  14.961  0.2686  0.2628 -0.3196
  449MPD2    H5 6749   3.314   1.626  14.925 -0.8360 -0.0477 -2.2562
  449MPD2    N1 6750   3.094   1.719  14.510 -0.6501 -0.2339  0.6458
  449MPD2    H7 6751   3.165   1.646  14.502 -0.4208  0.0427  0.1216
  450TMC3    C1 6752   3.084   1.674  14.287 -1.1693  0.5556  0.0200
  450TMC3    C2 6753   3.086   1.724  14.156  0.2368 -0.3544  0.6129
  450TMC3    C3 6754   3.143   1.648  14.056 -0.2232 -0.0945  0.6309
  450TMC3    C4 6755   3.141   1.556  14.315  0.3092 -0.2291  0.3871
  450TMC3    C5 6756   3.193   1.487  14.211  0.6127  0.5992  0.0905
  450TMC3    C6 6757   3.208   1.527  14.083 -0.1886 -0.1919  0.0046
  450TMC3     C 6758   3.032   1.756  14.394  0.3153  0.8239 -0.7473
  450TMC3     O 6759   2.974   1.857  14.369  0.0692 -0.2432  0.8439
  450TMC3     H 6760   3.029   1.816  14.148  0.0226 -0.6037 -0.6792
  450TMC3    H1 6761   3.117   1.505  14.408  0.8966 -0.4590  0.4083
  450TMC3    H2 6762   3.261   1.470  14.008  0.9338  1.2233 -0.2900
  450TMC3    C7 6763   3.284   1.377  14.255  0.1678  0.3251  0.5634
  450TMC3    C8 6764   3.197   1.731  13.956 -0.8336 -0.2524 -0.6762
  450TMC3    O1 6765   3.324   1.298  14.169 -0.0673  0.2844  0.0804
  450TMC3    O2 6766   3.192   1.852  13.978 -0.6556  0.1991 -0.2565
  451MPD2     C 6767   0.232   0.144   0.935  0.4866 -0.2840 -0.6392
  451MPD2    C1 6768   0.116   0.141   1.014 -0.1939  0.6006  0.0156
  451MPD2    C2 6769   0.058   0.022   1.056  0.3608 -0.3017 -0.2096
  451MPD2    C3 6770   0.127   4.649   1.022  0.4768 -0.1096  0.4044
  451MPD2    C4 6771   0.255   4.656   0.967 -0.3771 -0.2831  0.0155
  451MPD2    C5 6772   0.305   0.035   0.919  1.1960 -0.0006  0.7800
  451MPD2     H 6773   4.694   0.019   1.089  0.1591 -2.8283 -1.0159
  451MPD2    H1 6774   0.314   4.568   0.944 -0.9324 -0.7179  0.2484
  451MPD2    H2 6775   0.282   0.229   0.890 -0.1985 -0.4304 -1.6828
  451MPD2    H3 6776   0.403   0.048   0.875  1.0076 -0.3082  0.2712
  451MPD2     N 6777   0.067   4.517   1.030 -0.5085 -0.7468 -0.3654
  451MPD2    H5 6778   0.128   4.441   1.002 -1.9019 -2.0077  0.0700
  451MPD2    N1 6779   0.047   0.268   1.030  0.0056 -0.5091 -0.2457
  451MPD2    H7 6780   0.070   0.340   0.963 -1.1773 -0.2310 -0.3562
  452TMC3    C1 6781   4.640   4.357   1.002  0.0839 -0.0103  0.4129
  452TMC3    C2 6782   4.506   4.327   0.986 -0.3340  0.0638  0.1291
  452TMC3    C3 6783   4.487   4.215   0.915  0.3610 -0.4527  0.5797
  452TMC3    C4 6784   0.003   4.281   0.942  0.3431  0.7663  0.7266
  452TMC3    C5 6785   4.712   4.164   0.877 -0.3000 -0.0182 -0.3833
  452TMC3    C6 6786   4.577   4.130   0.866  0.7376 -0.4403 -0.7962
  452TMC3     C 6787   4.673   4.492   1.050  0.0779 -0.5465  0.0975
  452TMC3     O 6788   4.578   4.566   1.068  0.3556 -0.1901  0.0905
  452TMC3     H 6789   4.429   4.397   1.017  0.5506 -0.6622  3.8885
  452TMC3    H1 6790   0.109   4.293   0.958  0.7251 -0.8358 -0.6282
  452TMC3    H2 6791   4.557   4.030   0.829  2.0273 -0.4535 -1.4795
  452TMC3    C7 6792   0.076   4.113   0.790  0.1299 -0.2240  0.6963
  452TMC3    C8 6793   4.351   4.181   0.865 -0.9478  0.3021  0.6730
  452TMC3    O1 6794   0.188   4.151   0.817 -0.3247 -0.3079  0.0416
  452TMC3    O2 6795   4.336   4.140   0.747 -0.4495 -0.3841 -0.0049
  453TMC3    C1 6796   0.150   2.004  11.961  0.0480 -0.6507 -0.0145
  453TMC3    C2 6797   0.070   1.907  12.003 -0.0217 -1.2347  0.1031
  453TMC3    C3 6798   0.024   1.817  11.914  0.6593 -0.5263  0.1706
  453TMC3    C4 6799   0.180   2.018  11.828  0.4631  0.5128 -0.1488
  453TMC3    C5 6800   0.119   1.929  11.741  0.1896  0.8678  0.1244
  453TMC3    C6 6801   0.037   1.831  11.781 -0.4109 -0.7080 -0.0539
  453TMC3     C 6802   0.206   2.089  12.059  0.3135 -0.5260 -0.4990
  453TMC3     O 6803   0.210   2.059  12.178 -0.3741 -0.3511  0.2063
  453TMC3     H 6804   0.053   1.898  12.110 -1.3870 -0.6827 -0.0683
  453TMC3    H1 6805   0.251   2.090  11.790  1.6493  0.0865  1.2724
  453TMC3    H2 6806   4.738   1.771  11.699 -1.3472  0.2189 -0.2942
  453TMC3    C7 6807   0.135   1.944  11.596  0.4768  0.0710 -0.2575
  453TMC3    C8 6808   4.642   1.745  11.961  0.0302 -0.2160 -0.5464
  453TMC3    O1 6809   0.038   1.899  11.527 -0.7615  0.0044  0.5155
  453TMC3    O2 6810   4.571   1.811  12.036  0.1461 -0.9621  0.0062
  454MPD2     C 6811   4.332   1.252  16.190  1.0400 -0.3882 -0.1134
  454MPD2    C1 6812   4.313   1.338  16.086  0.5270 -0.6012 -0.1739
  454MPD2    C2 6813   4.268   1.469  16.112 -0.8910  0.0490  0.2116
  454MPD2    C3 6814   4.242   1.504  16.241  0.2799 -0.3451  0.4017
  454MPD2    C4 6815   4.270   1.415  16.344  0.4030 -0.2629  0.1279
  454MPD2    C5 6816   4.320   1.288  16.316  0.2612 -0.4398  0.1053
  454MPD2     H 6817   4.240   1.541  16.036  0.0920 -1.7749 -1.8705
  454MPD2    H1 6818   4.261   1.436  16.450 -0.7349  1.0918 -0.2353
  454MPD2    H2 6819   4.366   1.152  16.166 -0.3256 -0.8497 -0.0839
  454MPD2    H3 6820   4.344   1.210  16.388 -0.1288  0.0771  0.7999
  454MPD2     N 6821   4.178   1.627  16.276  0.3042  0.1237 -0.1577
  454MPD2    H5 6822   4.150   1.632  16.373  1.6249  1.2354  0.1640
  454MPD2    N1 6823   4.320   1.306  15.947  0.4734  0.5511  0.2607
  454MPD2    H7 6824   4.300   1.383  15.884  0.3656 -0.7038 -1.2256
  455TMC3    C1 6825   3.989   1.739  16.221  0.3612 -1.0206  0.1037
  455TMC3    C2 6826   3.964   1.743  16.353 -0.2970 -0.1253  0.3352
  455TMC3    C3 6827   3.858   1.680  16.406  0.5439  0.5506  0.5439
  455TMC3    C4 6828   3.908   1.662  16.139 -0.6728 -0.8204 -0.9843
  455TMC3    C5 6829   3.794   1.606  16.184 -0.0736  0.2575  0.3072
  455TMC3    C6 6830   3.770   1.618  16.317 -0.8364  0.5947 -0.2497
  455TMC3     C 6831   4.126   1.720  16.189  0.3005 -0.4430  0.1585
  455TMC3     O 6832   4.160   1.746  16.073  0.1714  0.4663 -0.0509
  455TMC3     H 6833   4.026   1.808  16.414 -1.7961  2.2814 -0.7005
  455TMC3    H1 6834   3.948   1.633  16.043  0.4571  0.2790 -0.8587
  455TMC3    H2 6835   3.688   1.564  16.362  0.7114 -0.4010  1.4068
  455TMC3    C7 6836   3.756   1.480  16.139  0.9411 -0.1616  0.1172
  455TMC3    C8 6837   3.811   1.736  16.526 -0.5190 -0.4059 -0.9143
  455TMC3    O1 6838   3.640   1.439  16.157  0.2687  0.7076  0.3114
  455TMC3    O2 6839   3.893   1.786  16.595  0.5328 -0.0059 -0.1581
  456MPD2     C 6840   1.963   0.987  15.762  0.3568  0.0636  0.7726
  456MPD2    C1 6841   2.023   1.099  15.801 -0.1615 -0.0676 -0.1150
  456MPD2    C2 6842   1.969   1.170  15.904 -0.0677 -0.0894 -0.3533
  456MPD2    C3 6843   1.860   1.124  15.980 -0.1643  1.1122 -0.2152
  456MPD2    C4 6844   1.804   1.005  15.945  0.0088  0.5908  0.5179
  456MPD2    C5 6845   1.855   0.941  15.835  0.5235  0.1746  0.7868
  456MPD2     H 6846   2.021   1.256  15.944 -3.1804  1.4387  0.4120
  456MPD2    H1 6847   1.729   0.956  16.007 -1.2945  1.5749 -0.2740
  456MPD2    H2 6848   1.999   0.926  15.680  0.6803  1.0203  0.2180
  456MPD2    H3 6849   1.815   0.842  15.815  1.9086 -0.4209  1.0003
  456MPD2     N 6850   1.807   1.209  16.078  0.4273 -0.6171  0.7552
  456MPD2    H5 6851   1.859   1.291  16.106  1.1777 -1.3603  1.5259
  456MPD2    N1 6852   2.140   1.149  15.746  0.4476 -0.3468  0.0260
  456MPD2    H7 6853   2.196   1.207  15.807  1.5002 -1.4508  0.1010
  457TMC3    C1 6854   1.672   1.281  16.264 -0.0519  0.7711 -0.2991
  457TMC3    C2 6855   1.546   1.325  16.283  0.5724 -0.1107 -0.2135
  457TMC3    C3 6856   1.512   1.393  16.392  0.3760 -0.6372 -0.4392
  457TMC3    C4 6857   1.765   1.299  16.357 -0.8232  0.7455 -0.1209
  457TMC3    C5 6858   1.728   1.367  16.472 -0.0040 -0.2898 -0.3388
  457TMC3    C6 6859   1.595   1.400  16.500 -0.1875 -0.4837 -0.0027
  457TMC3     C 6860   1.694   1.186  16.155 -0.1608  0.2594 -0.0322
  457TMC3     O 6861   1.611   1.099  16.133  0.2591  0.8590 -1.1355
  457TMC3     H 6862   1.474   1.313  16.203  0.0139  0.3251  0.2246
  457TMC3    H1 6863   1.863   1.268  16.326 -1.0506  0.0339 -0.1151
  457TMC3    H2 6864   1.556   1.455  16.585 -0.0524  3.3453 -2.4252
  457TMC3    C7 6865   1.831   1.389  16.580 -0.1092 -1.4724  0.1028
  457TMC3    C8 6866   1.406   1.494  16.385 -0.6189 -0.1993 -0.1032
  457TMC3    O1 6867   1.782   1.417  16.687 -0.2821 -0.0434  0.6929
  457TMC3    O2 6868   1.421   1.588  16.467 -0.6242 -0.2750  0.0040
  458MPD2     C 6869   3.852   1.019  12.739  0.6307  0.3075 -0.6892
  458MPD2    C1 6870   3.887   0.938  12.846  0.2977 -0.6190  0.5468
  458MPD2    C2 6871   3.794   0.899  12.945 -0.2754  0.7893  0.1332
  458MPD2    C3 6872   3.661   0.939  12.928 -0.4656  0.3593 -0.1329
  458MPD2    C4 6873   3.628   1.017  12.816  0.4730  0.3525  0.3274
  458MPD2    C5 6874   3.723   1.066  12.733  1.0978  0.0743  0.5113
  458MPD2     H 6875   3.827   0.840  13.030  0.7865  0.4548 -0.5066
  458MPD2    H1 6876   3.526   1.051  12.802  0.5381  0.1819 -0.5617
  458MPD2    H2 6877   3.929   1.052  12.671  0.1338  0.7108 -1.0572
  458MPD2    H3 6878   3.693   1.126  12.648  0.2115 -0.1250  0.6830
  458MPD2     N 6879   3.565   0.904  13.027  0.0177  0.1689  0.0991
  458MPD2    H5 6880   3.589   0.828  13.089  0.5666 -1.2600 -1.8840
  458MPD2    N1 6881   4.027   0.921  12.862 -0.2181 -0.2738 -0.2203
  458MPD2    H7 6882   4.088   0.971  12.798 -1.4599  0.7077 -0.6357
  459TMC3    C1 6883   4.228   0.865  12.994 -0.4498 -0.1884 -0.7556
  459TMC3    C2 6884   4.291   0.969  12.940 -0.0532 -0.3357 -0.2974
  459TMC3    C3 6885   4.409   1.007  12.995 -0.3924 -0.2500 -0.2603
  459TMC3    C4 6886   4.281   0.794  13.100 -0.9528  0.2045  0.1522
  459TMC3    C5 6887   4.385   0.850  13.161 -0.5139 -0.1777  0.3224
  459TMC3    C6 6888   4.462   0.945  13.104 -0.2450  0.0183 -0.2247
  459TMC3     C 6889   4.088   0.829  12.946 -0.0758 -0.1407  0.1741
  459TMC3     O 6890   4.030   0.746  13.015  0.0592 -0.5241 -0.1633
  459TMC3     H 6891   4.240   1.024  12.862 -1.8777 -0.1971  0.9974
  459TMC3    H1 6892   4.220   0.722  13.153 -0.5711 -0.2491 -0.0224
  459TMC3    H2 6893   4.544   0.988  13.160  1.0294  0.5159 -2.4364
  459TMC3    C7 6894   4.433   0.790  13.283  0.0104 -0.4347  0.2844
  459TMC3    C8 6895   4.505   1.073  12.913  0.3565 -0.2364  0.4297
  459TMC3    O1 6896   4.407   0.670  13.283  0.0460  1.1507 -0.2746
  459TMC3    O2 6897   4.586   1.145  12.969  0.5414  0.1369 -0.0288
  460MPD2     C 6898   3.627   3.356  11.079 -0.1108  0.3865  0.1646
  460MPD2    C1 6899   3.495   3.349  11.079  0.4917 -0.8773 -0.3925
  460MPD2    C2 6900   3.416   3.397  10.980  0.9040  0.0110 -0.0433
  460MPD2    C3 6901   3.475   3.472  10.880 -0.3113 -0.2780  0.2745
  460MPD2    C4 6902   3.611   3.481  10.882  0.0419  0.7155  0.4028
  460MPD2    C5 6903   3.688   3.427  10.982  0.2055  0.2599  0.2103
  460MPD2     H 6904   3.308   3.385  10.976  0.9579  0.1811 -1.8672
  460MPD2    H1 6905   3.664   3.529  10.801 -0.5080  1.0488  0.2480
  460MPD2    H2 6906   3.682   3.321  11.166  0.5710 -1.7823 -1.1600
  460MPD2    H3 6907   3.791   3.456  10.998  0.8387 -1.5382 -0.5888
  460MPD2     N 6908   3.392   3.523  10.782 -0.1719 -0.5343 -0.6412
  460MPD2    H5 6909   3.294   3.513  10.807  0.1320  0.1558  0.8174
  460MPD2    N1 6910   3.443   3.265  11.182 -0.2568 -0.4152  0.3790
  460MPD2    H7 6911   3.510   3.236  11.253  1.3710 -0.4955 -1.1709
  461TMC3    C1 6912   3.316   3.663  10.604  0.2571 -0.4209  0.0334
  461TMC3    C2 6913   3.226   3.572  10.556 -1.1325  0.3130  0.0583
  461TMC3    C3 6914   3.133   3.622  10.470 -0.4930 -0.0082 -0.3343
  461TMC3    C4 6915   3.313   3.800  10.576  0.3446  0.2628 -0.2359
  461TMC3    C5 6916   3.208   3.845  10.498  0.0207  0.4175  0.2337
  461TMC3    C6 6917   3.119   3.753  10.439  0.3591  0.0784  0.6538
  461TMC3     C 6918   3.424   3.618  10.686 -0.0064  0.3029 -0.4096
  461TMC3     O 6919   3.530   3.670  10.651  0.3723 -0.2164 -0.2884
  461TMC3     H 6920   3.234   3.467  10.581  2.5062  0.8650  1.3199
  461TMC3    H1 6921   3.389   3.860  10.624 -0.4071  0.0665  1.2116
  461TMC3    H2 6922   3.029   3.788  10.390  0.5874 -0.9604 -0.5051
  461TMC3    C7 6923   3.165   3.981  10.504  0.2931 -0.8321 -0.3869
  461TMC3    C8 6924   3.043   3.528  10.412 -0.0365  0.2329  0.3993
  461TMC3    O1 6925   3.077   4.004  10.422 -0.1932 -0.2593  0.6384
  461TMC3    O2 6926   3.020   3.429  10.481 -0.0297  0.9086 -0.5885
  462TMC3    C1 6927   3.755   4.525   0.821 -0.2723 -0.0097  0.4984
  462TMC3    C2 6928   3.839   4.604   0.748 -0.9306 -0.1043 -0.1658
  462TMC3    C3 6929   3.873   4.562   0.624 -0.1146 -0.5615 -0.8328
  462TMC3    C4 6930   3.699   4.408   0.775  0.1701  0.5681 -0.3365
  462TMC3    C5 6931   3.723   4.385   0.642 -1.1802  0.6433 -0.4124
  462TMC3    C6 6932   3.808   4.457   0.561  0.4204  0.0642  0.0980
  462TMC3     C 6933   3.709   4.566   0.952 -0.6344 -0.3527 -0.0852
  462TMC3     O 6934   3.778   4.643   1.019 -0.1770 -0.3056  0.2371
  462TMC3     H 6935   3.871   4.697   0.791 -3.2433  0.5842  0.0531
  462TMC3    H1 6936   3.644   4.334   0.833  1.3615 -0.9007 -1.0620
  462TMC3    H2 6937   3.848   4.415   0.470 -1.5861 -0.0247 -0.7508
  462TMC3    C7 6938   3.644   4.277   0.587  0.0163 -0.0688  0.2687
  462TMC3    C8 6939   3.977   4.640   0.554  0.1143  0.1125 -0.1778
  462TMC3    O1 6940   3.607   4.186   0.664 -0.2484 -0.0549  0.2052
  462TMC3    O2 6941   4.006   0.012   0.602  0.0178 -0.0000  0.1499
  463MPD2     C 6942   4.414   3.026   1.139 -0.3280 -0.9058 -0.4240
  463MPD2    C1 6943   4.518   2.937   1.165 -1.0049 -0.0580  0.4491
  463MPD2    C2 6944   4.610   2.894   1.059  0.6680  0.4479 -0.2179
  463MPD2    C3 6945   4.590   2.942   0.931 -0.3723  0.4936  0.0093
  463MPD2    C4 6946   4.490   3.036   0.910 -0.5120  0.0056  0.1022
  463MPD2    C5 6947   4.407   3.069   1.011 -0.2464 -1.3594 -0.3734
  463MPD2     H 6948   4.690   2.823   1.078  1.0689  1.1037  0.5474
  463MPD2    H1 6949   4.470   3.079   0.813  1.8993  1.7554  0.3908
  463MPD2    H2 6950   4.338   3.060   1.209 -1.8032 -2.2566 -1.3836
  463MPD2    H3 6951   4.339   3.149   0.986  0.0955 -0.9033  0.1577
  463MPD2     N 6952   4.655   2.892   0.811 -0.0185 -0.1677 -0.6499
  463MPD2    H5 6953   4.624   2.930   0.722  1.3389  1.0779 -0.6006
  463MPD2    N1 6954   4.532   2.879   1.297  0.6527  0.2773 -0.0849
  463MPD2    H7 6955   4.584   2.792   1.304  1.7597  0.7973 -1.8263
  464TMC3    C1 6956   4.489   2.836   1.525 -0.4180  0.4479  0.0142
  464TMC3    C2 6957   4.446   2.888   1.644  0.4997  0.0612 -0.5161
  464TMC3    C3 6958   4.449   2.797   1.749  0.9456 -0.3130  0.2710
  464TMC3    C4 6959   4.527   2.706   1.504  0.6671 -0.4651  1.0090
  464TMC3    C5 6960   4.543   2.630   1.617 -0.2129  0.2066  0.1386
  464TMC3    C6 6961   4.507   2.676   1.742 -0.1086 -1.6645  0.7828
  464TMC3     C 6962   4.480   2.936   1.409  0.5665 -0.4476 -0.3067
  464TMC3     O 6963   4.423   3.043   1.433  0.0480  0.3434 -0.0151
  464TMC3     H 6964   4.418   2.992   1.661 -0.1316 -0.1117 -0.4890
  464TMC3    H1 6965   4.538   2.659   1.407  0.3104 -0.9348  1.1991
  464TMC3    H2 6966   4.521   2.612   1.828 -1.6260 -1.2153  1.3656
  464TMC3    C7 6967   4.518   2.490   1.612 -0.0946  0.2247  0.2450
  464TMC3    C8 6968   4.307   2.781   1.785  0.4277 -0.0905  0.2344
  464TMC3    O1 6969   4.594   2.428   1.681  0.2483  0.0167  0.3142
  464TMC3    O2 6970   4.232   2.871   1.752  0.3572 -0.0378 -0.7069
  465MPD2     C 6971   0.745   1.446  16.919  0.2830 -0.2974 -0.5582
  465MPD2    C1 6972   0.632   1.507  16.979  0.2543 -0.2524 -0.3791
  465MPD2    C2 6973   0.537   1.571  16.903  0.0612 -0.1279 -0.1938
  465MPD2    C3 6974   0.560   1.592  16.765 -0.9670 -0.2382 -0.1321
  465MPD2    C4 6975   0.664   1.528  16.705 -0.6306  0.6959  0.3465
  465MPD2    C5 6976   0.748   1.452  16.782 -0.3400 -0.1620  0.4884
  465MPD2     H 6977   0.450   1.613  16.952  0.3307 -2.0308  1.8912
  465MPD2    H1 6978   0.675   1.523  16.597 -0.7306  0.2771  0.3558
  465MPD2    H2 6979   0.823   1.389  16.968  1.8729  1.9662 -0.4666
  465MPD2    H3 6980   0.829   1.395  16.739  0.3299 -0.0731  1.6129
  465MPD2     N 6981   0.457   1.668  16.700 -0.1325  0.0829  0.2282
  465MPD2    H5 6982   0.380   1.707  16.753  0.7398  1.8318  0.2075
  465MPD2    N1 6983   0.612   1.498  17.114  0.7603  0.0146  0.1719
  465MPD2    H7 6984   0.524   1.538  17.144  1.6117  1.0890  1.2284
  466TMC3    C1 6985   0.171   1.906  16.637 -0.6313 -0.1800  0.1793
  466TMC3    C2 6986   0.217   2.024  16.578 -0.2065  0.5781  0.3245
  466TMC3    C3 6987   0.326   2.010  16.499  0.0405  0.1574  0.0569
  466TMC3    C4 6988   0.232   1.786  16.623 -0.0761 -0.4744  0.1415
  466TMC3    C5 6989   0.341   1.782  16.537 -0.2117  0.1858  0.3145
  466TMC3    C6 6990   0.390   1.894  16.475 -0.2731  0.5643 -0.4429
  466TMC3     C 6991   0.092   1.919  16.757  0.0062  0.5237 -0.1017
  466TMC3     O 6992   0.118   1.832  16.841  0.4967 -0.0101 -0.3464
  466TMC3     H 6993   0.163   2.116  16.594 -0.6032  0.3841  0.1078
  466TMC3    H1 6994   0.195   1.695  16.669  0.9058 -0.3300  1.2193
  466TMC3    H2 6995   0.477   1.892  16.409 -0.5400 -1.3779 -0.7381
  466TMC3    C7 6996   0.449   1.689  16.565 -0.6032  0.5216  0.2402
  466TMC3    C8 6997   0.383   2.130  16.433  0.3854 -0.2151  0.4957
  466TMC3    O1 6998   0.501   1.648  16.462  0.2632 -0.1464 -0.0420
  466TMC3    O2 6999   0.447   2.110  16.329 -0.4754  0.2151  0.1779
  467TMC3    C1 7000   1.947   0.166  13.969 -0.4085 -0.1867 -0.8448
  467TMC3    C2 7001   1.961   0.198  14.099  0.5762  0.0546 -0.0733
  467TMC3    C3 7002   1.851   0.235  14.167  0.5462 -0.2130  0.1555
  467TMC3    C4 7003   1.824   0.171  13.900  0.0665 -0.1075  0.1454
  467TMC3    C5 7004   1.717   0.196  13.978  0.2766  0.2397  0.1206
  467TMC3    C6 7005   1.728   0.238  14.110  0.3181 -0.3744  0.0697
  467TMC3     C 7006   2.060   0.183  13.884 -0.1612 -0.6241  0.3825
  467TMC3     O 7007   2.139   0.271  13.918  0.6702  0.4141  0.6666
  467TMC3     H 7008   2.059   0.209  14.144 -0.2473 -0.1921  1.7972
  467TMC3    H1 7009   1.813   0.144  13.796  1.5674 -2.6329  0.6210
  467TMC3    H2 7010   1.640   0.271  14.164 -0.5673  0.0105 -1.6237
  467TMC3    C7 7011   1.597   0.224  13.912 -0.4501 -1.1139  0.6087
  467TMC3    C8 7012   1.870   0.334  14.273  0.0140 -0.5772 -0.0399
  467TMC3    O1 7013   1.598   0.250  13.793  0.1307 -0.5681 -0.7700
  467TMC3    O2 7014   1.769   0.407  14.298 -0.1206 -0.1682  0.7343
  468MPD2     C 7015   4.498   3.316  10.594  0.2235 -0.6474 -0.1301
  468MPD2    C1 7016   4.635   3.295  10.604 -0.4369  0.7139  0.1931
  468MPD2    C2 7017   4.685   3.169  10.622 -0.1788 -0.3947  0.3405
  468MPD2    C3 7018   4.604   3.066  10.642  0.0626  0.1231  0.3939
  468MPD2    C4 7019   4.467   3.082  10.629  0.1747 -0.2030  0.2632
  468MPD2    C5 7020   4.417   3.207  10.600  0.7211  1.0065  0.6179
  468MPD2     H 7021   0.054   3.166  10.631 -0.4326 -0.4914  3.2278
  468MPD2    H1 7022   4.395   3.001  10.638  0.5098 -0.5824 -0.5287
  468MPD2    H2 7023   4.445   3.408  10.572 -0.9987 -1.7597 -1.8940
  468MPD2    H3 7024   4.309   3.211  10.591  0.7015 -0.7720  0.0301
  468MPD2     N 7025   4.655   2.935  10.672 -0.2378 -0.0927 -0.7838
  468MPD2    H5 7026   4.586   2.866  10.700 -0.7626  0.8417  0.2385
  468MPD2    N1 7027   4.734   3.391  10.570 -0.3377 -0.3229  0.2323
  468MPD2    H7 7028   0.088   3.367  10.604 -0.5400  0.2107  1.1440
  469TMC3    C1 7029   0.070   3.590  10.458  0.4951  0.0345 -0.3852
  469TMC3    C2 7030   0.190   3.534  10.431 -0.1766  0.0315 -0.3185
  469TMC3    C3 7031   0.285   3.620  10.380 -0.0107 -0.2683  0.3396
  469TMC3    C4 7032   0.041   3.719  10.418 -0.1533 -0.4871 -0.2698
  469TMC3    C5 7033   0.139   3.781  10.345  0.2879  0.2370 -0.5467
  469TMC3    C6 7034   0.263   3.743  10.332 -0.1783 -0.5965  0.2616
  469TMC3     C 7035   4.700   3.510  10.509 -0.5596 -0.2468 -0.2908
  469TMC3     O 7036   4.587   3.549  10.484 -0.0434  0.0071  0.1338
  469TMC3     H 7037   0.208   3.430  10.456 -0.9941  0.5208  2.2604
  469TMC3    H1 7038   4.678   3.754  10.431  0.0627 -0.2200  0.7044
  469TMC3    H2 7039   0.343   3.807  10.297 -1.9052  1.7782  0.6606
  469TMC3    C7 7040   0.118   3.917  10.313  0.1232  0.6573 -0.0105
  469TMC3    C8 7041   0.422   3.605  10.435  0.3277 -0.1750 -0.4674
  469TMC3    O1 7042   0.145   3.968  10.205  0.4111  0.1009  0.2988
  469TMC3    O2 7043   0.514   3.660  10.383  0.1099  0.7144  0.3345
  470TMC3    C1 7044   3.204   4.292   0.401  0.6157 -0.7588 -0.2486
  470TMC3    C2 7045   3.290   4.395   0.436 -0.9112 -0.3812 -0.0752
  470TMC3    C3 7046   3.335   4.391   0.563 -0.5438  0.5256 -0.2193
  470TMC3    C4 7047   3.162   4.196   0.491  0.3413 -0.0766 -0.7314
  470TMC3    C5 7048   3.202   4.208   0.611 -0.0921 -0.3591 -0.0119
  470TMC3    C6 7049   3.286   4.307   0.655 -0.0197 -0.3264 -0.0136
  470TMC3     C 7050   3.199   4.257   0.257 -0.4472  0.1352  0.0584
  470TMC3     O 7051   3.263   4.324   0.181 -0.3426 -0.2844 -0.6013
  470TMC3     H 7052   3.334   4.453   0.357  2.8933 -1.5652  1.1405
  470TMC3    H1 7053   3.105   4.112   0.456  0.8369  0.3333 -2.5483
  470TMC3    H2 7054   3.309   4.318   0.761 -2.9593  0.7894  0.4918
  470TMC3    C7 7055   3.108   4.141   0.703  0.1245  0.2679 -0.2753
  470TMC3    C8 7056   3.403   4.505   0.618 -0.1275 -0.0327 -0.2685
  470TMC3    O1 7057   2.999   4.100   0.657  0.7583 -0.3974 -0.4416
  470TMC3    O2 7058   3.413   4.517   0.739  0.1284 -0.9001  0.0557
  471MPD2     C 7059   3.579   1.037  16.928  1.0267  0.0329 -0.6454
  471MPD2    C1 7060   3.544   0.918  16.876  0.4454  0.2605  0.6560
  471MPD2    C2 7061   3.634   0.833  16.827  0.2037  0.1755 -0.0116
  471MPD2    C3 7062   3.767   0.875  16.821 -0.0632 -0.3298 -0.2448
  471MPD2    C4 7063   3.801   0.996  16.874  0.5443 -0.0581 -0.0920
  471MPD2    C5 7064   3.712   1.074  16.934  0.9986  0.1365 -0.6482
  471MPD2     H 7065   3.600   0.736  16.794  1.4042  0.3649 -1.8355
  471MPD2    H1 7066   3.904   1.028  16.858  0.3791 -0.6729 -2.3600
  471MPD2    H2 7067   3.506   1.106  16.970 -0.0983 -0.4962 -1.7456
  471MPD2    H3 7068   3.751   1.169  16.970 -4.0368  1.6077  0.9775
  471MPD2     N 7069   3.864   0.792  16.767  0.1598  0.1449 -0.1449
  471MPD2    H5 7070   3.956   0.833  16.779 -0.1475  1.4250 -2.2633
  471MPD2    N1 7071   3.408   0.875  16.889  0.9494 -0.3258 -0.4295
  471MPD2    H7 7072   3.388   0.779  16.860  2.1210 -1.1430  1.5265
  472TMC3    C1 7073   3.187   0.855  16.970 -0.2108 -0.4843 -0.7507
  472TMC3    C2 7074   3.064   0.876  16.918  0.2212  0.2550  0.4213
  472TMC3    C3 7075   2.982   0.765  16.926 -0.8030  0.1758  0.0390
  472TMC3    C4 7076   3.228   0.750  17.047 -0.7715 -0.0824 -0.5997
  472TMC3    C5 7077   3.127   0.651  17.063 -0.0745 -0.9649 -0.1432
  472TMC3    C6 7078   3.007   0.657  17.005  0.0285  0.6414 -0.2126
  472TMC3     C 7079   3.302   0.948  16.942  0.5166  0.5759 -0.1822
  472TMC3     O 7080   3.286   1.070  16.956 -0.7110  0.1476  0.3151
  472TMC3     H 7081   3.036   0.955  16.850  1.3960  1.0364  0.8410
  472TMC3    H1 7082   3.323   0.752  17.099 -1.0776 -2.7085  0.0454
  472TMC3    H2 7083   2.924   0.590  17.025  0.1536  0.8162  0.8907
  472TMC3    C7 7084   3.188   0.521  17.079  0.8355 -0.5172  0.1113
  472TMC3    C8 7085   2.866   0.748  16.835 -1.2271  0.1948  0.1237
  472TMC3    O1 7086   3.309   0.517  17.101 -0.6007  0.8980 -0.4570
  472TMC3    O2 7087   2.820   0.849  16.787 -0.2106  0.0531 -0.3451
  473MPD2     C 7088   3.091   2.523  14.166  0.3544 -0.1572  0.6273
  473MPD2    C1 7089   3.086   2.631  14.078 -0.3345  0.1968 -0.3620
  473MPD2    C2 7090   3.119   2.758  14.120 -0.1064 -0.1115 -0.0806
  473MPD2    C3 7091   3.148   2.785  14.253 -0.7657 -0.3598 -0.1375
  473MPD2    C4 7092   3.148   2.682  14.336  0.1970  0.5092 -0.1917
  473MPD2    C5 7093   3.123   2.555  14.296 -0.1863 -0.0552  1.0257
  473MPD2     H 7094   3.126   2.825  14.035  1.8483  1.1057  1.0425
  473MPD2    H1 7095   3.171   2.695  14.442 -0.4261 -0.1612  0.0242
  473MPD2    H2 7096   3.060   2.423  14.137 -1.3333 -0.4203  3.2772
  473MPD2    H3 7097   3.126   2.474  14.369 -3.6936  0.5665  1.8595
  473MPD2     N 7098   3.197   2.916  14.282 -0.5370 -0.4647 -0.0748
  473MPD2    H5 7099   3.239   2.934  14.372 -0.6021 -0.5145 -0.0344
  473MPD2    N1 7100   3.046   2.618  13.941 -0.0140  0.4977  0.4019
  473MPD2    H7 7101   3.022   2.707  13.897  0.3635  0.2147 -0.3915
  474TMC3    C1 7102   3.216   3.149  14.279  0.5731  0.8497 -0.5028
  474TMC3    C2 7103   3.131   3.260  14.271  0.5738  0.0319  0.4717
  474TMC3    C3 7104   3.161   3.371  14.348 -0.4665  0.3245 -0.5549
  474TMC3    C4 7105   3.327   3.146  14.361 -0.0292  0.3584 -0.7260
  474TMC3    C5 7106   3.344   3.269  14.429 -0.7783  0.3326 -0.1074
  474TMC3    C6 7107   3.264   3.379  14.429 -0.3221  0.5712 -0.7608
  474TMC3     C 7108   3.165   3.030  14.217  0.1205  0.2618 -0.3228
  474TMC3     O 7109   3.096   3.044  14.114 -0.2902  0.3906  0.0905
  474TMC3     H 7110   3.037   3.253  14.218  1.7367 -0.7028 -1.4596
  474TMC3    H1 7111   3.403   3.069  14.365  0.2170  0.5862 -1.0085
  474TMC3    H2 7112   3.285   3.466  14.489 -2.1900  0.9540 -0.6599
  474TMC3    C7 7113   3.477   3.279  14.491 -0.4286  0.0346  0.0821
  474TMC3    C8 7114   3.060   3.477  14.341 -0.5790 -0.3665 -0.4146
  474TMC3    O1 7115   3.563   3.199  14.452 -0.0088 -0.1251  0.3752
  474TMC3    O2 7116   2.949   3.443  14.303 -0.4136 -0.1531 -0.6127
  475MPD2     C 7117   0.402   1.150  11.365  0.3339 -0.8528  0.6154
  475MPD2    C1 7118   0.478   1.198  11.261 -0.8211 -0.2277 -0.1318
  475MPD2    C2 7119   0.417   1.244  11.142 -0.2334  0.3547  0.2206
  475MPD2    C3 7120   0.281   1.233  11.122  0.4396 -0.3025  0.4501
  475MPD2    C4 7121   0.201   1.194  11.227  0.9731  0.4121  0.4457
  475MPD2    C5 7122   0.263   1.151  11.341  0.1733  0.1980  0.5018
  475MPD2     H 7123   0.474   1.287  11.061 -1.3362 -0.4598 -0.9914
  475MPD2    H1 7124   0.093   1.202  11.226  1.0610  1.5099 -0.3372
  475MPD2    H2 7125   0.446   1.129  11.462  1.8771  0.6209  0.2481
  475MPD2    H3 7126   0.204   1.128  11.430  1.9525 -0.3741  1.5324
  475MPD2     N 7127   0.223   1.263  10.992 -0.4887 -0.6332  0.0930
  475MPD2    H5 7128   0.289   1.305  10.927 -2.0334 -0.0889 -1.1183
  475MPD2    N1 7129   0.622   1.200  11.279  0.0667  0.7032 -0.2323
  475MPD2    H7 7130   0.660   1.183  11.371  2.0318 -0.6802 -1.3112
  476TMC3    C1 7131   0.841   1.260  11.235  1.3860  0.0972  0.6381
  476TMC3    C2 7132   0.942   1.264  11.137 -1.2385  0.3811 -0.6803
  476TMC3    C3 7133   1.060   1.335  11.155 -0.3341 -0.6201 -0.2493
  476TMC3    C4 7134   0.863   1.318  11.353  0.4967 -0.4417  0.0202
  476TMC3    C5 7135   0.984   1.368  11.381  0.0135  0.4070  0.5441
  476TMC3    C6 7136   1.078   1.391  11.282  0.3488 -0.2322  0.0585
  476TMC3     C 7137   0.711   1.236  11.181  0.3896 -0.4764  0.4998
  476TMC3     O 7138   0.695   1.244  11.054  0.7423  0.1341 -0.1769
  476TMC3     H 7139   0.948   1.193  11.055  2.4367 -0.5364  0.4163
  476TMC3    H1 7140   0.787   1.328  11.429  0.7835 -1.5087  0.4383
  476TMC3    H2 7141   1.179   1.424  11.304  0.6696 -0.9693 -0.3139
  476TMC3    C7 7142   0.991   1.442  11.508  0.0719  0.3086  0.3563
  476TMC3    C8 7143   1.123   1.412  11.043  0.2177 -0.3997  0.4913
  476TMC3    O1 7144   0.930   1.387  11.597  0.1251 -0.1997 -0.0287
  476TMC3    O2 7145   1.194   1.514  11.068 -0.2847 -0.7571  0.7169
  477MPD2     C 7146   3.383   2.298  11.697  0.4459  0.0460 -0.5693
  477MPD2    C1 7147   3.362   2.364  11.821 -0.0833  0.2328  0.4984
  477MPD2    C2 7148   3.451   2.362  11.930 -0.4263  0.4284  0.0460
  477MPD2    C3 7149   3.564   2.283  11.912  0.0694 -0.0861  0.4668
  477MPD2    C4 7150   3.580   2.213  11.793  0.1086  0.4668 -0.0570
  477MPD2    C5 7151   3.491   2.226  11.687 -0.3880  0.8650 -1.2309
  477MPD2     H 7152   3.433   2.413  12.024 -1.2727 -0.2262  0.2407
  477MPD2    H1 7153   3.659   2.139  11.782  1.1429  1.8603 -2.0990
  477MPD2    H2 7154   3.311   2.313  11.617 -1.5375  0.9549  1.3582
  477MPD2    H3 7155   3.492   2.166  11.596 -3.9686  0.6753 -1.1548
  477MPD2     N 7156   3.662   2.254  12.015 -0.2499  0.3241 -0.2717
  477MPD2    H5 7157   3.747   2.203  11.993  0.4437  0.8251  1.2600
  477MPD2    N1 7158   3.240   2.432  11.826  0.7580  0.2816  1.1371
  477MPD2    H7 7159   3.186   2.436  11.741  2.6901 -1.0195 -0.1532
  478TMC3    C1 7160   3.069   2.583  11.894  0.5690  0.2132  1.1440
  478TMC3    C2 7161   3.052   2.693  11.971 -0.4759  0.5676  0.2355
  478TMC3    C3 7162   2.959   2.781  11.917 -0.2398  0.4026  0.6752
  478TMC3    C4 7163   3.016   2.570  11.767 -0.5975 -0.4081 -0.3219
  478TMC3    C5 7164   2.940   2.673  11.716  0.9490  0.2343  0.2271
  478TMC3    C6 7165   2.902   2.779  11.794  0.2272  0.3257 -0.4011
  478TMC3     C 7166   3.189   2.515  11.928 -0.5155  0.3168  0.1750
  478TMC3     O 7167   3.223   2.516  12.043  0.0211  0.0946  0.1050
  478TMC3     H 7168   3.098   2.699  12.069 -0.3937 -1.3520  0.3150
  478TMC3    H1 7169   3.028   2.483  11.703  0.4232  0.1137 -0.8432
  478TMC3    H2 7170   2.836   2.850  11.745  0.8823  0.9714 -0.3520
  478TMC3    C7 7171   2.861   2.634  11.598 -0.7827 -0.4711  0.4354
  478TMC3    C8 7172   2.924   2.890  12.009  0.8568  0.4756 -0.1318
  478TMC3    O1 7173   2.797   2.524  11.604 -0.3991  0.1090  0.1190
  478TMC3    O2 7174   2.950   2.884  12.129 -0.3251 -0.2904  0.2547
  479MPD2     C 7175   3.080   4.700  15.499  0.1372 -0.5246 -0.2489
  479MPD2    C1 7176   3.007   4.671  15.607  0.2344 -0.2485  0.1103
  479MPD2    C2 7177   3.060   4.697  15.733 -0.4191  0.2904 -0.4098
  479MPD2    C3 7178   3.184   0.028  15.738  0.1309  0.2815 -0.4198
  479MPD2    C4 7179   3.257   0.046  15.628  0.7105 -0.1456  0.0224
  479MPD2    C5 7180   3.205   0.010  15.510  1.0239 -0.2314  0.7144
  479MPD2     H 7181   3.007   4.673  15.824  0.6979  1.0652  0.4385
  479MPD2    H1 7182   3.347   0.106  15.618 -0.4426  1.5617 -0.0905
  479MPD2    H2 7183   3.039   4.686  15.400  1.7581  0.1207 -1.0078
  479MPD2    H3 7184   3.261   0.048  15.425  2.6471 -2.3537  0.8237
  479MPD2     N 7185   3.225   0.086  15.858 -0.3937  0.1569 -0.2110
  479MPD2    H5 7186   3.290   0.164  15.860  2.3715 -2.1223 -0.0774
  479MPD2    N1 7187   2.879   4.615  15.584 -0.2289 -0.3729 -0.6082
  479MPD2    H7 7188   2.844   4.613  15.489  1.6358 -0.9625 -1.2754
  480TMC3    C1 7189   2.928   0.113  16.196 -0.0983 -0.3506  0.2334
  480TMC3    C2 7190   2.843   0.183  16.116 -0.9666  0.0394 -0.4672
  480TMC3    C3 7191   2.891   0.243  16.002  0.3154 -0.0590 -0.3136
  480TMC3    C4 7192   3.062   0.113  16.163  0.3510  0.1475  1.0620
  480TMC3    C5 7193   3.106   0.158  16.043 -0.4500  0.4173  0.2483
  480TMC3    C6 7194   3.018   0.227  15.964 -0.4596 -0.1916 -0.0550
  480TMC3     C 7195   2.883   4.736  16.262 -0.6326  0.9363 -0.2101
  480TMC3     O 7196   2.772   4.688  16.233 -0.1810 -1.0327  0.0563
  480TMC3     H 7197   2.740   0.157  16.138 -1.2602  1.1341 -0.5871
  480TMC3    H1 7198   3.129   0.043  16.212 -0.3742 -0.6760  0.8906
  480TMC3    H2 7199   3.053   0.280  15.877 -0.0915  1.4177  1.0661
  480TMC3    C7 7200   3.166   0.051  15.977 -0.1519 -0.3553 -0.1638
  480TMC3    C8 7201   2.791   0.237  15.900  0.6587  0.0938  0.1475
  480TMC3    O1 7202   3.143   4.676  16.021  1.0479 -0.2386  0.5468
  480TMC3    O2 7203   2.677   0.212  15.932  0.4037 -0.0385  0.2467
  481MPD2     C 7204   4.683   4.147  14.022 -0.1719 -0.7177 -0.3426
  481MPD2    C1 7205   4.548   4.161  14.068  0.3317  0.4578 -0.7170
  481MPD2    C2 7206   4.531   4.159  14.202  0.3098 -0.7341  0.3986
  481MPD2    C3 7207   4.633   4.130  14.290  0.8651 -0.2275  0.6480
  481MPD2    C4 7208   0.019   4.111  14.234  0.0554  0.4736 -0.5203
  481MPD2    C5 7209   0.043   4.107  14.104  0.2875  0.3590 -0.2278
  481MPD2     H 7210   4.434   4.175  14.248 -0.2192 -2.7714  0.0083
  481MPD2    H1 7211   0.109   4.102  14.295  0.0359  3.8373  0.0005
  481MPD2    H2 7212   4.704   4.148  13.916  2.3723  0.8738  0.1757
  481MPD2    H3 7213   0.143   4.079  14.071  0.5712  1.8231 -0.6069
  481MPD2     N 7214   4.617   4.119  14.426  0.6324  0.1447 -0.0330
  481MPD2    H5 7215   4.705   4.093  14.471  0.5636  0.3292  0.2115
  481MPD2    N1 7216   4.446   4.196  13.971 -0.2941 -0.0714 -0.3783
  481MPD2    H7 7217   4.484   4.211  13.878 -0.5288  1.5935 -0.2016
  482TMC3    C1 7218   4.227   4.256  13.883 -0.3521  0.6767 -0.0005
  482TMC3    C2 7219   4.094   4.232  13.890 -0.2894 -0.2514  0.2309
  482TMC3    C3 7220   4.021   4.237  13.775  0.2253 -0.3876  0.5809
  482TMC3    C4 7221   4.270   4.305  13.760 -0.4114 -0.0837  0.0233
  482TMC3    C5 7222   4.198   4.298  13.643  0.4631  0.2061  0.0820
  482TMC3    C6 7223   4.066   4.255  13.652  0.5211  0.3664  0.9078
  482TMC3     C 7224   4.313   4.204  13.992  0.2460  0.2869  0.2462
  482TMC3     O 7225   4.263   4.191  14.103 -0.7537 -0.0220  0.0626
  482TMC3     H 7226   4.045   4.175  13.968 -4.2822  0.5842 -1.6551
  482TMC3    H1 7227   4.370   4.342  13.743  0.1672 -1.8872 -0.5810
  482TMC3    H2 7228   3.994   4.257  13.571 -0.0738  2.1453  1.4674
  482TMC3    C7 7229   4.273   4.265  13.525  0.0706 -0.0522 -0.1193
  482TMC3    C8 7230   3.894   4.163  13.773 -0.0169  0.2839 -0.1927
  482TMC3    O1 7231   4.393   4.264  13.539  0.0097  0.3698  0.3832
  482TMC3    O2 7232   3.880   4.069  13.696  0.6883  0.2658 -0.4205
  483TMC3    C1 7233   2.330   3.147   1.021 -0.3029  0.0454 -0.6407
  483TMC3    C2 7234   2.373   3.275   1.005  0.0803 -0.2116 -0.4450
  483TMC3    C3 7235   2.468   3.319   1.093 -0.1972 -0.7031  0.5774
  483TMC3    C4 7236   2.385   3.052   1.108  0.4678  0.4921  0.4297
  483TMC3    C5 7237   2.476   3.105   1.193 -0.5526  0.4056 -0.2383
  483TMC3    C6 7238   2.520   3.237   1.192 -0.3400  0.3211 -0.0777
  483TMC3     C 7239   2.261   3.086   0.909  0.5978  0.4586  0.1394
  483TMC3     O 7240   2.176   3.159   0.864 -0.5838 -0.5700 -1.4655
  483TMC3     H 7241   2.340   3.336   0.921 -1.7000 -1.2303 -0.4833
  483TMC3    H1 7242   2.365   2.946   1.115 -0.2355  0.4761 -1.7306
  483TMC3    H2 7243   2.604   3.272   1.251  0.5688 -1.5883 -0.2202
  483TMC3    C7 7244   2.550   3.013   1.266 -0.2987  0.3094 -0.0565
  483TMC3    C8 7245   2.557   3.407   1.022  0.1639  0.2157 -0.5551
  483TMC3    O1 7246   2.580   2.903   1.220  0.8395  0.3091  0.6908
  483TMC3    O2 7247   2.562   3.389   0.901  0.3220 -0.2854 -0.0327
  484MPD2     C 7248   4.514   1.049  12.546  0.4456 -0.1327  0.1344
  484MPD2    C1 7249   4.563   1.094  12.669  0.2253 -0.3588 -0.8201
  484MPD2    C2 7250   4.646   1.205  12.675  0.1067  0.3016 -0.6511
  484MPD2    C3 7251   4.686   1.266  12.560 -0.3564 -1.1813  0.6157
  484MPD2    C4 7252   4.645   1.217  12.437 -0.4684  0.1126  0.0677
  484MPD2    C5 7253   4.553   1.116  12.432  0.5623 -1.0788 -0.3245
  484MPD2     H 7254   4.681   1.240  12.771 -3.2793  0.0753  0.6676
  484MPD2    H1 7255   4.683   1.257  12.344  0.6078 -0.5351  0.2286
  484MPD2    H2 7256   4.441   0.970  12.541  0.1546  0.2198 -1.2173
  484MPD2    H3 7257   4.509   1.074  12.342 -0.0453  0.4846 -0.7455
  484MPD2     N 7258   0.025   1.387  12.551  0.1334  0.2526  0.0128
  484MPD2    H5 7259   0.045   1.418  12.456  0.2148  1.7549  0.5125
  484MPD2    N1 7260   4.498   1.034  12.779 -0.1001  0.7675 -0.1447
  484MPD2    H7 7261   4.431   0.959  12.762  1.4641 -0.4803 -0.7536
  485TMC3    C1 7262   0.171   1.544  12.621  0.3684  0.0192  0.0714
  485TMC3    C2 7263   0.284   1.549  12.699  0.0189  0.1977 -0.5353
  485TMC3    C3 7264   0.394   1.620  12.650 -0.2582 -0.6267 -0.9342
  485TMC3    C4 7265   0.162   1.624  12.508  0.1919  0.6597  0.4141
  485TMC3    C5 7266   0.273   1.702  12.472  0.3326 -0.2629  0.0916
  485TMC3    C6 7267   0.388   1.705  12.542  0.0390 -0.1090  0.6173
  485TMC3     C 7268   0.061   1.452  12.660  0.3215  0.6825 -0.0675
  485TMC3     O 7269   0.040   1.437  12.779 -0.3672  0.5681 -0.0640
  485TMC3     H 7270   0.300   1.466  12.767 -0.2135 -0.7747 -1.6695
  485TMC3    H1 7271   0.082   1.629  12.436  1.2659  1.1040 -0.7512
  485TMC3    H2 7272   0.482   1.745  12.507 -0.6590  2.3088  1.5049
  485TMC3    C7 7273   0.290   1.713  12.333  0.4976  0.8011 -0.0480
  485TMC3    C8 7274   0.510   1.537  12.625  0.3137 -0.1169  0.6684
  485TMC3    O1 7275   0.201   1.761  12.264 -0.1593  0.1698  0.3785
  485TMC3    O2 7276   0.552   1.530  12.511  0.1662  0.1915  0.1519
  486MPD2     C 7277   1.920   4.665  13.310 -0.3654 -0.4651 -0.1274
  486MPD2    C1 7278   1.904   4.647  13.171 -0.4379 -0.1907 -0.2601
  486MPD2    C2 7279   1.860   0.017  13.101 -0.4206 -0.5360  0.2745
  486MPD2    C3 7280   1.822   0.137  13.164 -0.8380 -0.2304  0.2784
  486MPD2    C4 7281   1.824   0.148  13.305 -0.3200  0.1484  0.2073
  486MPD2    C5 7282   1.875   0.045  13.374  0.5894  0.4003 -0.2738
  486MPD2     H 7283   1.851   0.005  12.993 -1.3664 -1.9827  0.5033
  486MPD2    H1 7284   1.806   0.238  13.363  0.4663  1.0464 -0.9414
  486MPD2    H2 7285   1.956   4.584  13.372 -1.3401 -0.8615 -0.0817
  486MPD2    H3 7286   1.889   0.049  13.482  0.6185 -0.2879 -0.2477
  486MPD2     N 7287   1.804   0.247  13.083  0.4702 -0.3073  0.1790
  486MPD2    H5 7288   1.810   0.235  12.982 -1.0208 -1.8462  0.2714
  486MPD2    N1 7289   1.936   4.524  13.110  0.5715 -0.5284 -0.1558
  486MPD2    H7 7290   1.976   4.454  13.172  1.3104  0.0123 -0.0165
  487TMC3    C1 7291   1.926   4.341  12.957 -0.0713  0.7627  0.0915
  487TMC3    C2 7292   1.825   4.281  12.889 -0.0800 -0.2472 -0.5326
  487TMC3    C3 7293   1.820   4.142  12.896  0.1456  0.2421 -0.5707
  487TMC3    C4 7294   2.010   4.266  13.036 -0.3077  0.2276  0.3874
  487TMC3    C5 7295   1.995   4.133  13.035 -1.2526 -0.2354  0.6539
  487TMC3    C6 7296   1.899   4.065  12.970  0.0388  0.3871 -0.5067
  487TMC3     C 7297   1.901   4.484  12.981  0.1584 -0.8552 -0.2307
  487TMC3     O 7298   1.832   4.539  12.899  0.4952 -0.4247 -0.0820
  487TMC3     H 7299   1.750   4.335  12.832  0.5642  1.3394  0.1360
  487TMC3    H1 7300   2.091   4.316  13.088 -0.8090  1.0478  0.3797
  487TMC3    H2 7301   1.919   3.963  12.943  3.5604 -0.0102  3.5410
  487TMC3    C7 7302   2.018   4.080  13.170 -0.2544 -0.7293 -0.0733
  487TMC3    C8 7303   1.680   4.089  12.893  0.3283  0.2598 -0.1484
  487TMC3    O1 7304   2.098   4.128  13.248 -0.1942 -0.1439 -0.0835
  487TMC3    O2 7305   1.587   4.166  12.916  0.4432  0.2357  0.1623
  488MPD2     C 7306   2.826   1.728  16.309  0.2897 -0.5226  0.3120
  488MPD2    C1 7307   2.888   1.776  16.420 -0.0176 -0.0335 -0.2907
  488MPD2    C2 7308   2.873   1.697  16.539  0.7903 -0.7876  0.1917
  488MPD2    C3 7309   2.822   1.566  16.540 -0.2533 -0.3707  0.7419
  488MPD2    C4 7310   2.765   1.524  16.425 -0.6532 -0.0173 -0.3768
  488MPD2    C5 7311   2.767   1.605  16.315 -0.3976  0.0524  0.9025
  488MPD2     H 7312   2.915   1.736  16.631  1.1458  0.8293 -0.6543
  488MPD2    H1 7313   2.725   1.424  16.416 -0.7254 -0.0755  0.5779
  488MPD2    H2 7314   2.827   1.783  16.216  1.5331  0.5108  0.9391
  488MPD2    H3 7315   2.720   1.567  16.225 -0.5460 -0.4697  1.2015
  488MPD2     N 7316   2.812   1.485  16.657 -0.0611  0.2248  0.4608
  488MPD2    H5 7317   2.854   1.529  16.739  1.2557 -0.4351  0.1291
  488MPD2    N1 7318   2.951   1.906  16.424  0.0001  0.3764 -0.1036
  488MPD2    H7 7319   3.006   1.922  16.508  3.1611  1.4610 -2.4173
  489TMC3    C1 7320   2.743   1.338  16.825  0.8414  0.2778 -0.5912
  489TMC3    C2 7321   2.830   1.412  16.902 -0.4704 -0.3406 -0.0526
  489TMC3    C3 7322   2.807   1.433  17.035 -0.8531 -0.1292 -0.1412
  489TMC3    C4 7323   2.625   1.301  16.883 -0.1147  0.6436 -0.0302
  489TMC3    C5 7324   2.618   1.307  17.022 -0.7078 -0.1488  0.1889
  489TMC3    C6 7325   2.706   1.371  17.095  0.3170 -0.5887  0.6947
  489TMC3     C 7326   2.736   1.372  16.679  0.8126 -0.4818  0.3215
  489TMC3     O 7327   2.673   1.302  16.600 -0.1328 -0.5886 -0.7384
  489TMC3     H 7328   2.925   1.449  16.865 -0.6631 -2.4048 -2.6108
  489TMC3    H1 7329   2.547   1.263  16.817  0.4261 -0.1173 -0.2262
  489TMC3    H2 7330   2.699   1.364  17.203 -2.2017  1.3829  0.6628
  489TMC3    C7 7331   2.539   1.208  17.098  0.1929 -0.1253  0.0885
  489TMC3    C8 7332   2.898   1.531  17.094  0.1006 -0.3354  0.4762
  489TMC3    O1 7333   2.573   1.191  17.213  0.1307 -0.0909 -0.2509
  489TMC3    O2 7334   3.003   1.558  17.039 -0.1358 -0.7895 -0.5285
  490MPD2     C 7335   3.366   1.180  17.275 -0.4153  1.2296  0.5821
  490MPD2    C1 7336   3.364   1.157  17.411 -0.1996 -0.2887  0.5139
  490MPD2    C2 7337   3.461   1.212  17.494  0.0754  0.3320  0.0852
  490MPD2    C3 7338   3.560   1.287  17.443  0.0925  0.1489  0.0324
  490MPD2    C4 7339   3.546   1.329  17.312 -0.4367 -0.3740 -0.1935
  490MPD2    C5 7340   3.450   1.271  17.232  0.1598 -0.5023 -0.6557
  490MPD2     H 7341   3.469   1.193  17.600 -1.0813 -2.0739 -0.2611
  490MPD2    H1 7342   3.614   1.400  17.265  0.1195 -1.4306 -0.9951
  490MPD2    H2 7343   3.299   1.141  17.199  2.8078 -3.9800  0.4229
  490MPD2    H3 7344   3.455   1.299  17.128 -1.6026 -0.5685 -0.7570
  490MPD2     N 7345   3.659   1.345  17.526 -0.0485  0.3636 -0.9443
  490MPD2    H5 7346   3.715   1.416  17.480  0.4999  1.1605  0.9403
  490MPD2    N1 7347   3.279   1.063  17.468 -0.1956 -0.4863 -0.0698
  490MPD2    H7 7348   3.265   1.062  17.568  0.2833  1.9886  0.0283
  491TMC3    C1 7349   3.125   0.887  17.470  0.1616 -0.5283  0.2566
  491TMC3    C2 7350   3.123   0.886  17.606 -0.3276  0.4339 -0.1207
  491TMC3    C3 7351   3.052   0.785  17.668  0.7728  0.0178  0.2265
  491TMC3    C4 7352   3.053   0.794  17.398  0.8398  0.1696  0.7402
  491TMC3    C5 7353   2.992   0.693  17.464  0.2212 -0.2494  0.6699
  491TMC3    C6 7354   3.002   0.681  17.602  1.0802 -0.0151  0.5187
  491TMC3     C 7355   3.215   0.970  17.392  0.0589  0.4047 -0.2230
  491TMC3     O 7356   3.242   0.928  17.284 -0.6035 -0.6032 -0.5106
  491TMC3     H 7357   3.176   0.964  17.660 -0.1527 -1.3072  2.2354
  491TMC3    H1 7358   3.058   0.795  17.290 -3.8231  0.7639  0.5148
  491TMC3    H2 7359   2.945   0.606  17.656  3.7850 -2.1899  0.3703
  491TMC3    C7 7360   2.928   0.593  17.385 -0.5641  0.2107  0.0916
  491TMC3    C8 7361   3.016   0.793   0.057  0.2562 -0.5556 -0.2620
  491TMC3    O1 7362   2.886   0.620  17.271  0.5429  0.0396  0.1131
  491TMC3    O2 7363   2.919   0.725   0.096  0.2961  0.4356 -0.2568
  492MPD2     C 7364   2.780   1.865  11.561  0.0671  0.2745  0.0887
  492MPD2    C1 7365   2.695   1.774  11.499 -0.3102  0.3801 -0.2823
  492MPD2    C2 7366   2.641   1.665  11.569  0.0673 -0.6868 -0.2129
  492MPD2    C3 7367   2.681   1.646  11.708  0.8176 -0.1048  0.0887
  492MPD2    C4 7368   2.776   1.735  11.762  1.0373  0.5593 -0.0247
  492MPD2    C5 7369   2.817   1.845  11.688  0.5683 -0.9787 -0.4437
  492MPD2     H 7370   2.569   1.602  11.517  1.6309 -2.5244 -0.1186
  492MPD2    H1 7371   2.822   1.727  11.860  2.3087 -2.9373 -0.8849
  492MPD2    H2 7372   2.814   1.952  11.505  0.1598 -0.9080 -1.7015
  492MPD2    H3 7373   2.878   1.923  11.731  1.0866 -1.5918 -0.0577
  492MPD2     N 7374   2.630   1.537  11.786 -0.1028 -0.5522 -0.2956
  492MPD2    H5 7375   2.667   1.538  11.880 -0.5443 -0.0032 -0.1241
  492MPD2    N1 7376   2.676   1.796  11.361  0.3662 -0.3976  0.0441
  492MPD2    H7 7377   2.741   1.863  11.322 -0.0525  1.6091  2.8022
  493TMC3    C1 7378   2.630   1.747  11.137 -0.4505  0.6603  0.7366
  493TMC3    C2 7379   2.684   1.868  11.103 -0.0129 -0.4616 -0.1363
  493TMC3    C3 7380   2.661   1.907  10.971 -0.3513 -0.0062  0.2919
  493TMC3    C4 7381   2.565   1.656  11.048  0.1531  0.3551  0.3834
  493TMC3    C5 7382   2.550   1.697  10.918  0.3275 -0.1180 -0.1500
  493TMC3    C6 7383   2.593   1.824  10.879 -0.5392 -0.1590  0.2032
  493TMC3     C 7384   2.613   1.714  11.276 -0.5036  0.3431 -0.1657
  493TMC3     O 7385   2.543   1.618  11.294 -0.2185  0.1052  0.1455
  493TMC3     H 7386   2.740   1.942  11.160 -0.6002  0.6950 -1.0591
  493TMC3    H1 7387   2.534   1.555  11.072 -1.0214  1.1560  2.3316
  493TMC3    H2 7388   2.569   1.861  10.780 -2.0549 -1.4301  0.1040
  493TMC3    C7 7389   2.418   1.663  10.872 -0.0585 -0.4864 -0.3718
  493TMC3    C8 7390   2.704   2.037  10.924 -0.2796 -0.4204  0.1031
  493TMC3    O1 7391   2.394   1.669  10.750  0.5716 -0.2026 -0.2941
  493TMC3    O2 7392   2.686   2.123  11.010  0.2322 -0.1397 -0.0553
  494TMC3    C1 7393   4.065   2.628   0.615  0.5810 -0.4790 -0.3534
  494TMC3    C2 7394   4.089   2.497   0.604 -0.3093  0.7155 -0.7812
  494TMC3    C3 7395   4.171   2.452   0.502 -0.9253  0.3350 -0.5093
  494TMC3    C4 7396   4.120   2.719   0.530 -0.1770  0.1261 -0.2870
  494TMC3    C5 7397   4.204   2.674   0.433 -0.1015  0.0368  0.4622
  494TMC3    C6 7398   4.222   2.542   0.414  0.4601 -0.5331 -0.3030
  494TMC3     C 7399   3.959   2.670   0.705  0.1730  0.1684 -0.0233
  494TMC3     O 7400   3.942   2.586   0.797 -0.4672 -0.1748 -0.4052
  494TMC3     H 7401   4.028   2.426   0.659  1.2410  0.6211  0.8112
  494TMC3    H1 7402   4.097   2.825   0.536 -0.8449 -0.1555  2.2292
  494TMC3    H2 7403   4.276   2.516   0.324  0.2868 -1.6638 -0.0786
  494TMC3    C7 7404   4.257   2.770   0.341 -0.5540 -0.3926 -0.4521
  494TMC3    C8 7405   4.235   2.319   0.505  0.1340  0.8365 -0.9155
  494TMC3    O1 7406   4.359   2.731   0.287  0.1183 -0.0361 -0.3032
  494TMC3    O2 7407   4.175   2.231   0.557 -0.3346  0.2161  0.3009
  495TMC3    C1 7408   3.173   0.098  14.984  0.2593 -0.2717  0.3110
  495TMC3    C2 7409   3.131   0.178  14.882 -0.3354 -0.1358 -0.3240
  495TMC3    C3 7410   3.025   0.260  14.906 -0.4187  0.3774 -0.4566
  495TMC3    C4 7411   3.133   0.121  15.116 -0.0795 -0.1114 -0.5039
  495TMC3    C5 7412   3.053   0.229  15.142 -0.0078 -0.1205 -0.2502
  495TMC3    C6 7413   2.988   0.292  15.033  0.9111  0.3752  0.3509
  495TMC3     C 7414   3.152   4.696  14.952 -0.5727 -0.2547 -0.1730
  495TMC3     O 7415   3.071   4.630  15.014 -0.3699 -0.3614 -0.3960
  495TMC3     H 7416   3.161   0.165  14.778  1.5456  0.7599  0.1000
  495TMC3    H1 7417   3.173   0.055  15.192 -3.4874  0.3964  1.7483
  495TMC3    H2 7418   2.937   0.386  15.051 -1.0717 -1.2089  2.9185
  495TMC3    C7 7419   3.004   0.246  15.276 -0.0569 -0.0151 -0.5516
  495TMC3    C8 7420   2.911   0.229  14.823  0.5648  0.1825  0.3245
  495TMC3    O1 7421   3.088   0.248  15.364  0.3131 -0.1117  0.1181
  495TMC3    O2 7422   2.810   0.300  14.829 -0.3169  0.7140  0.8680
  496MPD2     C 7423   4.558   0.557  15.505  0.8238  0.2019  0.0046
  496MPD2    C1 7424   4.592   0.438  15.564  0.2256 -0.3216  1.5231
  496MPD2    C2 7425   4.498   0.386  15.648 -0.7621 -0.3846 -0.2086
  496MPD2    C3 7426   4.370   0.433  15.657  0.1302  0.3418 -0.0780
  496MPD2    C4 7427   4.338   0.547  15.579 -0.0975  0.6730  0.0657
  496MPD2    C5 7428   4.431   0.611  15.505 -0.5150  0.3301  0.2159
  496MPD2     H 7429   4.521   0.291  15.695  0.4733 -0.6298 -1.3412
  496MPD2    H1 7430   4.237   0.586  15.575 -1.4732 -2.7295  1.5447
  496MPD2    H2 7431   4.631   0.615  15.449 -1.3444  1.8571 -1.0874
  496MPD2    H3 7432   4.408   0.701  15.448 -0.8135 -0.2966 -0.6451
  496MPD2     N 7433   4.264   0.355  15.707  0.2621 -0.7677 -0.0779
  496MPD2    H5 7434   4.169   0.389  15.700 -0.3848 -3.0815 -2.2124
  496MPD2    N1 7435   4.716   0.379  15.526 -0.4093  0.4633 -0.5083
  496MPD2    H7 7436   0.029   0.431  15.455  0.7170 -0.9798 -0.7404
  497TMC3    C1 7437   4.145   0.185  15.812  0.2853  0.3497  0.3464
  497TMC3    C2 7438   4.088   0.146  15.696  0.2735  0.4075  0.3852
  497TMC3    C3 7439   4.049   0.014  15.682 -0.0203  0.1204  0.4082
  497TMC3    C4 7440   4.164   0.087  15.906 -0.7381  0.0003  0.6636
  497TMC3    C5 7441   4.124   4.697  15.891  0.4989 -0.3438  0.7853
  497TMC3    C6 7442   4.066   4.658  15.778  0.3425 -0.6167 -0.2786
  497TMC3     C 7443   4.269   0.256  15.794 -0.3013 -0.5466  0.6318
  497TMC3     O 7444   4.359   0.206  15.858  0.3941  0.2937  0.5078
  497TMC3     H 7445   4.056   0.221  15.625 -1.9550 -0.1862  0.7517
  497TMC3    H1 7446   4.203   0.105  16.005 -1.9428  2.2264  0.7287
  497TMC3    H2 7447   4.046   4.552  15.763 -1.2040 -0.4534  0.6393
  497TMC3    C7 7448   4.205   4.603  15.956  0.5219 -0.1243  0.1001
  497TMC3    C8 7449   4.090   4.700  15.554 -0.0949 -0.0921 -0.2096
  497TMC3    O1 7450   4.170   4.485  15.958 -0.1899  0.7356 -0.1084
  497TMC3    O2 7451   4.067   4.578  15.543  0.3010 -0.1761  0.1028
  498MPD2     C 7452   0.431   1.346   9.652  0.2371  0.0240  0.1015
  498MPD2    C1 7453   0.424   1.438   9.754  0.7308  0.1746 -0.4093
  498MPD2    C2 7454   0.334   1.412   9.859 -0.2542  0.5883  0.0059
  498MPD2    C3 7455   0.252   1.308   9.859  0.3167  0.6273 -0.3503
  498MPD2    C4 7456   0.255   1.218   9.752  0.1802  0.4380  0.2895
  498MPD2    C5 7457   0.348   1.234   9.650 -0.4203 -0.0270 -0.6829
  498MPD2     H 7458   0.315   1.475   9.945  0.0876 -0.3283  0.7591
  498MPD2    H1 7459   0.189   1.132   9.751 -0.1075  0.6760 -1.9364
  498MPD2    H2 7460   0.498   1.367   9.569  1.0164 -2.2202  0.1665
  498MPD2    H3 7461   0.364   1.155   9.577  2.3245  0.0515 -0.1696
  498MPD2     N 7462   0.157   1.291   9.968  0.0659  0.0554 -0.5754
  498MPD2    H5 7463   0.174   1.350  10.049 -0.8282  0.5714 -0.7641
  498MPD2    N1 7464   0.500   1.556   9.753  0.8043  0.1927 -0.5125
  498MPD2    H7 7465   0.480   1.612   9.836  0.3146 -1.4081  0.4665
  499TMC3    C1 7466   0.690   1.698   9.746  0.1900 -0.0532  0.1099
  499TMC3    C2 7467   0.826   1.707   9.726 -1.0312 -0.1353  0.2281
  499TMC3    C3 7468   0.882   1.830   9.751  0.1107  0.6482  0.4862
  499TMC3    C4 7469   0.614   1.808   9.777 -0.7355  0.5020  0.4029
  499TMC3    C5 7470   0.676   1.925   9.814  0.2350 -0.3620 -0.3539
  499TMC3    C6 7471   0.811   1.932   9.801 -0.0858 -0.1483 -0.0752
  499TMC3     C 7472   0.618   1.587   9.684  0.7900  0.2062  0.2555
  499TMC3     O 7473   0.689   1.514   9.613  0.4726 -0.0345 -0.4595
  499TMC3     H 7474   0.882   1.619   9.697 -1.5476  0.0339 -1.2608
  499TMC3    H1 7475   0.508   1.802   9.755 -0.1538 -0.2140 -2.3395
  499TMC3    H2 7476   0.858   2.028   9.819  0.8672 -0.9752  1.7366
  499TMC3    C7 7477   0.599   2.046   9.836 -0.5993 -0.5058 -0.7935
  499TMC3    C8 7478   1.026   1.837   9.777  0.0228  0.0590 -0.0524
  499TMC3    O1 7479   0.660   2.150   9.812 -0.3857 -0.1098  0.0381
  499TMC3    O2 7480   1.073   1.946   9.763  0.2617  0.4753 -0.6123
  500MPD2     C 7481   1.997   1.992  10.307  0.0083 -0.1029 -0.7969
  500MPD2    C1 7482   1.945   2.088  10.399  0.0816  0.9917 -0.2096
  500MPD2    C2 7483   1.809   2.113  10.395 -0.0744  0.4341 -0.5041
  500MPD2    C3 7484   1.721   2.044  10.307  0.0123  0.4975 -0.1572
  500MPD2    C4 7485   1.776   1.973  10.206 -0.3630  0.2487  0.7120
  500MPD2    C5 7486   1.910   1.947  10.208 -0.3581 -0.2976 -0.0687
  500MPD2     H 7487   1.776   2.192  10.462 -0.1963 -0.1676  0.1522
  500MPD2    H1 7488   1.721   1.937  10.119 -0.0491  1.2861  0.0886
  500MPD2    H2 7489   2.101   1.962  10.307 -0.3140 -1.2327  0.1145
  500MPD2    H3 7490   1.960   1.892  10.128 -0.1151  0.4857 -0.4492
  500MPD2     N 7491   1.586   2.066  10.297 -0.2377 -0.0501 -0.1953
  500MPD2    H5 7492   1.541   2.010  10.225  0.2767  0.8275 -1.1789
  500MPD2    N1 7493   2.022   2.170  10.490  0.6126 -0.2589  0.2123
  500MPD2    H7 7494   1.978   2.227  10.562  0.8778  1.5085 -1.0184
  501TMC3    C1 7495   2.205   2.308  10.529 -0.3629  0.6192 -0.2014
  501TMC3    C2 7496   2.295   2.398  10.474  0.0212 -0.4308 -0.3877
  501TMC3    C3 7497   2.346   2.489  10.566  0.6315 -0.4072  0.1723
  501TMC3    C4 7498   2.172   2.315  10.655 -0.0907  0.2603  0.7419
  501TMC3    C5 7499   2.202   2.417  10.732  0.1812 -0.3346 -0.3408
  501TMC3    C6 7500   2.291   2.502  10.689  0.1822 -0.0687 -0.9639
  501TMC3     C 7501   2.156   2.191  10.462 -0.4934  0.0523  0.2230
  501TMC3     O 7502   2.224   2.145  10.370 -0.0144 -0.0674  0.0115
  501TMC3     H 7503   2.334   2.384  10.374  0.4940 -1.1891 -0.1004
  501TMC3    H1 7504   2.125   2.227  10.698  2.4171 -1.5939 -0.3117
  501TMC3    H2 7505   2.333   2.580  10.751  1.1686 -1.8806  0.6544
  501TMC3    C7 7506   2.181   2.411  10.880  0.5422 -0.3364 -0.4523
  501TMC3    C8 7507   2.478   2.547  10.548 -0.1293  0.5954 -0.0699
  501TMC3    O1 7508   2.258   2.481  10.947  0.8230  0.1547  0.4553
  501TMC3    O2 7509   2.536   2.559  10.654 -0.0591  0.5683  0.7763
  502TMC3    C1 7510   2.217   0.898  15.220  0.3284 -0.2496 -0.7550
  502TMC3    C2 7511   2.204   1.031  15.226 -1.1110  0.4075 -0.0311
  502TMC3    C3 7512   2.090   1.098  15.187  0.1925 -0.6893  0.1922
  502TMC3    C4 7513   2.102   0.827  15.187  0.0651 -0.0973  0.2589
  502TMC3    C5 7514   1.989   0.888  15.141 -0.3320  0.4859  0.4491
  502TMC3    C6 7515   1.975   1.026  15.139 -0.8308  0.0676 -0.4529
  502TMC3     C 7516   2.283   0.858  15.344  0.5365 -0.3005  0.3366
  502TMC3     O 7517   2.404   0.890  15.348  0.5961  0.3053  0.3210
  502TMC3     H 7518   2.288   1.093  15.258 -1.8268  0.4647  1.7244
  502TMC3    H1 7519   2.107   0.719  15.187 -1.9148 -0.1879  0.1085
  502TMC3    H2 7520   1.910   1.080  15.070 -0.2371 -2.0748 -2.7048
  502TMC3    C7 7521   1.883   0.838  15.232  0.1809  0.4378  0.4402
  502TMC3    C8 7522   2.084   1.243  15.177  0.4561 -0.1268 -0.5718
  502TMC3    O1 7523   1.913   0.740  15.301 -0.2025 -0.6799 -0.3245
  502TMC3    O2 7524   2.058   1.299  15.068 -0.5851 -0.0490 -0.6057
  503MPD2     C 7525   4.359   1.885  16.933 -0.2823  0.1519 -0.2509
  503MPD2    C1 7526   4.351   1.876  17.074 -0.2254 -0.1066 -0.3509
  503MPD2    C2 7527   4.422   1.783  17.141  0.0271  0.3629  0.0455
  503MPD2    C3 7528   4.493   1.681  17.076 -0.1210 -0.0115  0.1560
  503MPD2    C4 7529   4.493   1.691  16.943  0.3269 -1.2153 -0.4642
  503MPD2    C5 7530   4.435   1.791  16.866  0.1668 -0.3900 -0.4840
  503MPD2     H 7531   4.418   1.794  17.248 -0.5597 -0.3930  0.1068
  503MPD2    H1 7532   4.535   1.614  16.879  0.5969 -0.6366 -0.9885
  503MPD2    H2 7533   4.313   1.961  16.872  0.7138  1.1956  0.2876
  503MPD2    H3 7534   4.436   1.797  16.758  1.2813 -0.9795 -0.5096
  503MPD2     N 7535   4.554   1.572  17.149  0.0094 -0.6422 -0.3173
  503MPD2    H5 7536   4.568   1.592  17.247 -2.8391 -1.1274  0.1724
  503MPD2    N1 7537   4.273   1.963  17.155  0.1216  0.4554  0.9178
  503MPD2    H7 7538   4.281   1.947  17.255  0.7754 -0.0687  0.7828
  504TMC3    C1 7539   4.677   1.386  17.194 -0.4003 -0.3192 -0.2365
  504TMC3    C2 7540   4.604   1.346  17.304  0.5544  0.6181 -0.5420
  504TMC3    C3 7541   4.656   1.253  17.386 -0.8918 -0.7418 -0.0840
  504TMC3    C4 7542   0.059   1.326  17.167 -1.4092 -0.1417  0.0103
  504TMC3    C5 7543   0.103   1.224  17.250 -0.3136  0.6530 -0.6597
  504TMC3    C6 7544   0.027   1.181  17.358 -0.1018  0.7345  0.9669
  504TMC3     C 7545   4.619   1.467  17.092  0.3100 -0.6242 -0.3454
  504TMC3     O 7546   4.644   1.433  16.972 -0.1023 -0.0497 -0.2416
  504TMC3     H 7547   4.504   1.387  17.316  0.4533  0.2805 -0.2257
  504TMC3    H1 7548   0.120   1.366  17.086  0.2709 -2.0252  0.3476
  504TMC3    H2 7549   0.057   1.093  17.415 -0.8133 -0.1556 -0.0342
  504TMC3    C7 7550   0.238   1.173  17.230 -0.4827 -0.3366  0.6086
  504TMC3    C8 7551   4.571   1.210  17.498  0.4723  1.2216  0.8479
  504TMC3    O1 7552   0.274   1.195  17.117 -0.4815  0.1304 -0.3440
  504TMC3    O2 7553   4.449   1.222  17.480  0.0586  0.3718 -0.0005
  505MPD2     C 7554   4.223   0.744  11.120 -0.9351 -0.2460  0.8864
  505MPD2    C1 7555   4.292   0.644  11.054 -0.0569  0.7887  0.5085
  505MPD2    C2 7556   4.426   0.628  11.081 -0.1075  0.1741 -0.3112
  505MPD2    C3 7557   4.495   0.716  11.161  0.0319  0.3120 -0.1237
  505MPD2    C4 7558   4.427   0.808  11.234  0.2418  0.5617  0.2061
  505MPD2    C5 7559   4.297   0.826  11.208 -0.0471  1.0060  0.2793
  505MPD2     H 7560   4.482   0.540  11.050 -0.3839  0.3537 -1.2916
  505MPD2    H1 7561   4.475   0.873  11.306 -0.7379  1.7736 -0.2317
  505MPD2    H2 7562   4.117   0.765  11.115 -0.6026  1.1649 -0.2529
  505MPD2    H3 7563   4.249   0.894  11.277  2.5647  0.0869  2.9526
  505MPD2     N 7564   4.639   0.686  11.166  0.5405 -0.4870 -0.0573
  505MPD2    H5 7565   4.674   0.599  11.127 -0.6434 -0.8160 -0.3829
  505MPD2    N1 7566   4.217   0.563  10.964 -0.3598  0.5414 -0.0073
  505MPD2    H7 7567   4.123   0.596  10.942 -0.2967  0.0205 -1.0371
  506TMC3    C1 7568   4.180   0.385  10.817 -0.6940  0.4434 -0.1794
  506TMC3    C2 7569   4.123   0.437  10.703 -0.2441  0.1539  0.3826
  506TMC3    C3 7570   4.107   0.363  10.588 -0.7837 -0.5632 -0.3549
  506TMC3    C4 7571   4.223   0.255  10.807  0.5194  0.2747 -0.1718
  506TMC3    C5 7572   4.222   0.191  10.689 -0.3820  0.0479  0.5635
  506TMC3    C6 7573   4.151   0.238  10.577 -0.3049  0.4340 -0.2243
  506TMC3     C 7574   4.274   0.461  10.897 -0.5206 -0.3950 -0.3609
  506TMC3     O 7575   4.384   0.411  10.905 -0.1007  0.1015  0.6344
  506TMC3     H 7576   4.100   0.542  10.691  0.3175  0.3083  0.6350
  506TMC3    H1 7577   4.261   0.206  10.896 -0.6350  2.0432  1.2902
  506TMC3    H2 7578   4.148   0.190  10.480 -0.6607 -0.8524  0.4271
  506TMC3    C7 7579   4.355   0.139  10.656 -0.2015 -0.4974 -0.2299
  506TMC3    C8 7580   4.107   0.432  10.458  0.3613 -0.0503 -0.1165
  506TMC3    O1 7581   4.373   0.091  10.546 -0.0419 -0.0221 -0.0967
  506TMC3    O2 7582   4.075   0.370  10.355  0.4388  0.6525 -0.5550
  507TMC3    C1 7583   0.467   1.236  15.193  0.8037  0.4158 -0.8457
  507TMC3    C2 7584   0.397   1.198  15.082  1.0454  0.4666  0.3006
  507TMC3    C3 7585   0.464   1.179  14.961 -0.3070  0.5424  0.2483
  507TMC3    C4 7586   0.597   1.279  15.183 -0.5860  0.3743 -0.3026
  507TMC3    C5 7587   0.659   1.253  15.065  0.8731 -0.2942 -0.2768
  507TMC3    C6 7588   0.598   1.204  14.954  0.0641  0.0658  0.4310
  507TMC3     C 7589   0.392   1.284  15.304  0.2957 -0.8137  0.2587
  507TMC3     O 7590   0.282   1.230  15.326 -0.0229  0.1440 -0.3584
  507TMC3     H 7591   0.290   1.190  15.093  0.9159  0.0432 -1.4498
  507TMC3    H1 7592   0.656   1.303  15.272 -0.3254  1.0974 -0.6715
  507TMC3    H2 7593   0.658   1.175  14.868  1.2977  0.3864  1.1803
  507TMC3    C7 7594   0.753   1.364  15.030  0.4074  0.0386  0.3604
  507TMC3    C8 7595   0.399   1.259  14.851 -0.0293 -0.0483 -0.6678
  507TMC3    O1 7596   0.825   1.408  15.117  0.2204  0.1991  0.1896
  507TMC3    O2 7597   0.478   1.310  14.775 -0.6177 -0.1587  0.1809
  508MPD2     C 7598   1.124   3.787  16.354  0.0513 -0.8111 -0.1267
  508MPD2    C1 7599   1.256   3.780  16.350  0.0307  0.6603  0.5884
  508MPD2    C2 7600   1.318   3.781  16.226 -0.3077 -0.3056 -0.0367
  508MPD2    C3 7601   1.244   3.772  16.112  0.9781  0.1161  0.4332
  508MPD2    C4 7602   1.110   3.779  16.118  0.2643  0.2060  0.7622
  508MPD2    C5 7603   1.049   3.797  16.240  0.3597  0.1401  0.4012
  508MPD2     H 7604   1.426   3.777  16.220 -0.1875  0.5139  1.6912
  508MPD2    H1 7605   1.045   3.774  16.031  1.0926 -0.4715  0.1862
  508MPD2    H2 7606   1.071   3.786  16.449 -1.4232  0.0737 -0.9384
  508MPD2    H3 7607   0.941   3.792  16.240  0.2253  2.9355  2.5326
  508MPD2     N 7608   1.313   3.768  15.986  0.4434  0.1429  0.2334
  508MPD2    H5 7609   1.414   3.768  15.991  0.4508  0.0956  0.1006
  508MPD2    N1 7610   1.322   3.777  16.475  0.0416  0.9789 -0.2643
  508MPD2    H7 7611   1.261   3.791  16.555  2.7899  0.5996  1.8722
  509TMC3    C1 7612   1.362   3.903  15.536 -0.0956  0.2061  0.2809
  509TMC3    C2 7613   1.453   3.999  15.574 -0.5774 -0.1421 -0.2887
  509TMC3    C3 7614   1.496   3.997  15.706  0.0487 -0.7059  0.0483
  509TMC3    C4 7615   1.315   3.811  15.629  0.6679 -0.1284 -0.7589
  509TMC3    C5 7616   1.355   3.821  15.757 -0.6104 -0.9489  0.2801
  509TMC3    C6 7617   1.440   3.917  15.795 -0.4292 -0.0718 -0.1089
  509TMC3     C 7618   1.308   3.909  15.401  0.3150 -0.5099 -0.1057
  509TMC3     O 7619   1.217   3.837  15.372 -0.3312 -0.2841 -0.2660
  509TMC3     H 7620   1.517   4.050  15.502 -0.1084 -3.0172 -1.8935
  509TMC3    H1 7621   1.239   3.749  15.581 -0.0023  0.2298 -0.1606
  509TMC3    H2 7622   1.460   3.951  15.896  1.5328  1.6045 -1.0529
  509TMC3    C7 7623   1.260   3.770  15.857 -0.2830 -0.0216 -0.2550
  509TMC3    C8 7624   1.615   4.074  15.740 -0.2142  0.0400 -0.1992
  509TMC3    O1 7625   1.154   3.720  15.820  0.0410 -0.0054 -0.2552
  509TMC3    O2 7626   1.653   4.037  15.851 -0.4477 -0.3646 -0.1143
  510MPD2     C 7627   4.308   0.536  14.808 -0.0577  0.6036  0.4624
  510MPD2    C1 7628   4.352   0.404  14.811  0.2855  0.1616  0.3139
  510MPD2    C2 7629   4.460   0.367  14.738  0.3592  0.0682 -0.9553
  510MPD2    C3 7630   4.532   0.458  14.672 -0.6243  0.3886 -0.8054
  510MPD2    C4 7631   4.493   0.592  14.671 -0.3155  0.0018 -0.9407
  510MPD2    C5 7632   4.377   0.620  14.728 -0.3909 -0.5362 -0.4486
  510MPD2     H 7633   4.489   0.263  14.731  0.0054  0.0081 -1.5701
  510MPD2    H1 7634   4.539   0.672  14.614 -2.1647  0.8177 -1.3177
  510MPD2    H2 7635   4.220   0.572  14.860 -0.2796 -0.4862  0.8502
  510MPD2    H3 7636   4.340   0.720  14.709 -0.1752 -0.0262  1.8487
  510MPD2     N 7637   4.655   0.420  14.617 -0.2485  0.2009  0.2299
  510MPD2    H5 7638   4.677   0.321  14.621  1.1084  0.4752 -0.4624
  510MPD2    N1 7639   4.263   0.314  14.873 -0.1195 -0.2675  0.8798
  510MPD2    H7 7640   4.172   0.348  14.903 -0.7412 -1.7580  0.6900
  511TMC3    C1 7641   4.204   0.121  14.994 -0.6263  0.0891 -0.0037
  511TMC3    C2 7642   4.115   0.195  15.070 -0.5119  0.4939  0.0228
  511TMC3    C3 7643   4.008   0.134  15.128  0.4794 -0.1644 -0.1624
  511TMC3    C4 7644   4.196   4.728  14.984 -0.3811 -0.3353 -0.1229
  511TMC3    C5 7645   4.080   4.669  15.031 -0.1277  0.0562 -0.1956
  511TMC3    C6 7646   3.984   0.001  15.102  0.0552 -0.2143 -0.1697
  511TMC3     C 7647   4.300   0.186  14.903  0.5092 -0.6058 -0.0286
  511TMC3     O 7648   4.398   0.122  14.877  0.1741 -0.4432 -0.7687
  511TMC3     H 7649   4.133   0.301  15.085  1.5399  0.3971 -1.9356
  511TMC3    H1 7650   4.268   4.678  14.921 -0.3239 -0.8672  0.3661
  511TMC3    H2 7651   3.885   4.700  15.119  0.7487 -2.4185 -1.2543
  511TMC3    C7 7652   4.048   4.537  14.982  0.5103  0.1327 -0.6468
  511TMC3    C8 7653   3.917   0.200  15.214 -0.0248 -0.2313  0.6564
  511TMC3    O1 7654   4.130   4.491  14.905 -0.5206  0.4964 -0.1701
  511TMC3    O2 7655   3.933   0.319  15.214  0.0633  0.1375 -0.0538
  512TMC3    C1 7656   2.658   4.570  13.986 -0.2419 -0.2812  0.0316
  512TMC3    C2 7657   2.795   4.574  14.011  0.3496 -0.4211 -0.3967
  512TMC3    C3 7658   2.874   4.612  13.908  0.8148 -0.2252  0.9616
  512TMC3    C4 7659   2.595   4.598  13.866  0.3617  0.1571 -0.2945
  512TMC3    C5 7660   2.683   4.642  13.770  0.4025 -0.5973  0.2903
  512TMC3    C6 7661   2.821   4.652  13.789 -0.0842 -0.1404  0.3789
  512TMC3     C 7662   2.576   4.535  14.109  0.7174 -0.2415 -0.2180
  512TMC3     O 7663   2.644   4.515  14.208 -0.3288  0.1844 -0.1730
  512TMC3     H 7664   2.845   4.558  14.106 -2.3417 -2.5983  0.6772
  512TMC3    H1 7665   2.488   4.605  13.850  0.1255 -0.8695  0.9273
  512TMC3    H2 7666   2.879   4.685  13.703  0.0180  0.0996  0.5382
  512TMC3    C7 7667   2.637   4.657  13.633 -0.8891  0.7561 -1.0033
  512TMC3    C8 7668   3.013   4.583  13.919 -0.4810 -0.5269 -0.3201
  512TMC3    O1 7669   2.542   0.001  13.641  0.5869 -0.6390  0.2244
  512TMC3    O2 7670   3.046   4.484  13.982 -0.0040  0.4545 -0.4008
  513MPD2     C 7671   0.550   0.440  13.425  0.1058 -0.4498  0.3565
  513MPD2    C1 7672   0.521   0.307  13.417 -0.7046  0.3065 -0.5286
  513MPD2    C2 7673   0.620   0.215  13.435 -0.0974  0.1817 -0.2414
  513MPD2    C3 7674   0.750   0.255  13.444  0.3009  0.5172 -0.4850
  513MPD2    C4 7675   0.788   0.386  13.443  1.0214  0.0353  0.5957
  513MPD2    C5 7676   0.684   0.475  13.429 -0.0828 -0.0565  0.1437
  513MPD2     H 7677   0.599   0.109  13.432  2.8041 -0.3753 -1.2202
  513MPD2    H1 7678   0.890   0.425  13.441  0.3399  1.8449  1.3571
  513MPD2    H2 7679   0.478   0.519  13.408 -0.0787 -1.0310 -1.5564
  513MPD2    H3 7680   0.710   0.579  13.410  0.5414 -0.1328  0.5692
  513MPD2     N 7681   0.844   0.156  13.452 -0.8850  0.3810 -0.3304
  513MPD2    H5 7682   0.817   0.058  13.442 -2.7620  0.6636  2.0784
  513MPD2    N1 7683   0.384   0.268  13.393 -0.0942 -0.2817  0.1227
  513MPD2    H7 7684   0.316   0.342  13.380  0.3226  0.2393  0.9367
  514TMC3    C1 7685   0.198   0.143  13.360  0.5016 -0.4403 -0.3651
  514TMC3    C2 7686   0.185   0.219  13.246 -0.0984  0.0238 -0.7140
  514TMC3    C3 7687   0.157   0.151  13.124 -0.5650 -0.3883 -0.0156
  514TMC3    C4 7688   0.158   0.008  13.350  0.4598 -0.1650  0.4846
  514TMC3    C5 7689   0.115   4.692  13.234 -0.0619  0.4434 -0.1749
  514TMC3    C6 7690   0.114   0.024  13.118 -0.5480 -0.1378 -0.3211
  514TMC3     C 7691   0.330   0.143  13.406  0.2872 -0.2256 -0.4914
  514TMC3     O 7692   0.380   0.037  13.435 -0.1393 -0.4504  0.1256
  514TMC3     H 7693   0.209   0.325  13.252 -0.6513 -0.0115  2.3112
  514TMC3    H1 7694   0.180   4.692  13.442 -0.2446 -2.2214 -0.5702
  514TMC3    H2 7695   0.085   4.711  13.027  0.6408  0.6092 -1.1180
  514TMC3    C7 7696   0.166   4.564  13.221  0.1091  0.0185  0.0033
  514TMC3    C8 7697   0.101   0.239  13.021  0.6929  0.0914  0.7740
  514TMC3    O1 7698   0.119   4.485  13.139 -0.1990 -0.3614 -0.2953
  514TMC3    O2 7699   0.084   0.353  13.050  0.0376 -0.3641 -0.2849
  515MPD2     C 7700   3.097   2.141  15.403  0.4345 -0.3345 -0.0420
  515MPD2    C1 7701   3.116   2.046  15.305 -0.3814 -1.0475 -0.3269
  515MPD2    C2 7702   3.248   2.006  15.283 -0.0104 -0.2128  0.2571
  515MPD2    C3 7703   3.357   2.072  15.333  0.1069  0.0221  0.4352
  515MPD2    C4 7704   3.334   2.168  15.431  0.1784 -1.0351  0.5446
  515MPD2    C5 7705   3.209   2.201  15.466 -0.3213  0.1712  0.1416
  515MPD2     H 7706   3.257   1.944  15.194 -2.0373  0.9326 -0.7506
  515MPD2    H1 7707   3.412   2.225  15.482  1.0213 -1.3458 -0.3850
  515MPD2    H2 7708   2.998   2.170  15.435  0.5821 -0.0546  0.1575
  515MPD2    H3 7709   3.192   2.278  15.540  0.6025 -0.1111  0.6567
  515MPD2     N 7710   3.487   2.044  15.297  0.2341 -0.0646  0.6741
  515MPD2    H5 7711   3.557   2.105  15.337 -1.1626  2.2058 -0.3547
  515MPD2    N1 7712   3.010   1.976  15.242  0.1227 -0.2363 -0.3304
  515MPD2    H7 7713   3.037   1.890  15.196  0.7662  0.2274 -0.8198
  516TMC3    C1 7714   2.794   1.910  15.194  1.1239 -0.1711  0.0473
  516TMC3    C2 7715   2.749   1.922  15.065 -0.1981  0.2642  0.0304
  516TMC3    C3 7716   2.726   1.809  15.001  0.0141  0.5663 -0.6148
  516TMC3    C4 7717   2.837   1.788  15.242  0.7507  0.2474 -0.3807
  516TMC3    C5 7718   2.811   1.672  15.171 -0.0421  0.3213  0.3576
  516TMC3    C6 7719   2.751   1.683  15.045 -0.0190 -0.2136 -0.4544
  516TMC3     C 7720   2.875   2.017  15.245  0.7699  0.5546 -0.3118
  516TMC3     O 7721   2.826   2.128  15.266 -0.3442 -0.1766 -0.1076
  516TMC3     H 7722   2.747   2.016  15.011 -2.4876  0.7184  0.8927
  516TMC3    H1 7723   2.878   1.784  15.342  1.1480 -1.6795 -0.6165
  516TMC3    H2 7724   2.708   1.596  14.997 -0.7715 -0.5638  0.8416
  516TMC3    C7 7725   2.850   1.546  15.226  0.0500 -0.1588  0.0112
  516TMC3    C8 7726   2.665   1.817  14.870  0.5438  0.5806  0.5971
  516TMC3    O1 7727   2.900   1.545  15.341  0.8010 -0.5411  0.3539
  516TMC3    O2 7728   2.605   1.924  14.848  0.0804 -0.1207  0.2208
  517MPD2     C 7729   2.805   2.944   0.401  0.6380  0.5483  0.0752
  517MPD2    C1 7730   2.914   2.972   0.320 -0.2989  0.4238 -0.0746
  517MPD2    C2 7731   2.987   3.088   0.332  0.4836  0.1436 -0.1768
  517MPD2    C3 7732   2.935   3.180   0.414 -0.1945 -0.0814 -0.7667
  517MPD2    C4 7733   2.827   3.153   0.489  0.0668 -1.2303  0.7396
  517MPD2    C5 7734   2.760   3.034   0.487 -0.1167  0.2300  0.0985
  517MPD2     H 7735   3.079   3.101   0.277  1.0679  1.5494  1.1586
  517MPD2    H1 7736   2.793   3.220   0.567 -0.7304 -0.8978  0.1193
  517MPD2    H2 7737   2.751   2.851   0.390 -0.3382  1.0257  0.8914
  517MPD2    H3 7738   2.692   3.011   0.568  0.3319  0.4677  0.5453
  517MPD2     N 7739   2.988   3.308   0.441  0.1632  0.5892  0.1336
  517MPD2    H5 7740   2.942   3.360   0.515 -0.7870 -0.8189  0.5251
  517MPD2    N1 7741   2.975   2.882   0.228 -0.0299 -0.1620 -0.1826
  517MPD2    H7 7742   3.055   2.919   0.177 -0.9820  0.9162 -0.9040
  518TMC3    C1 7743   3.021   2.680   0.105  0.1392  0.5352  1.0010
  518TMC3    C2 7744   3.025   2.539   0.107 -0.0406 -0.1054  0.1341
  518TMC3    C3 7745   3.077   2.475  17.750 -0.4496 -0.0317 -0.5460
  518TMC3    C4 7746   3.084   2.748   0.011 -0.0071 -0.8719 -0.3092
  518TMC3    C5 7747   3.127   2.680  17.655 -0.2978  0.3178 -0.0790
  518TMC3    C6 7748   3.133   2.541  17.646 -0.2179  0.0359  0.0819
  518TMC3     C 7749   2.941   2.749   0.205 -0.0115  0.3260 -0.2623
  518TMC3     O 7750   2.873   2.678   0.279 -0.2684 -0.0366 -0.1402
  518TMC3     H 7751   2.966   2.492   0.185  1.0315 -0.9727  0.4200
  518TMC3    H1 7752   3.082   2.856   0.017  0.7510 -0.8486 -0.4258
  518TMC3    H2 7753   3.152   2.490  17.552  2.2255 -0.1139  0.6423
  518TMC3    C7 7754   3.209   2.738  17.552 -0.5376 -0.1359  0.7808
  518TMC3    C8 7755   3.080   2.332  17.745 -1.0367  0.1688 -0.3282
  518TMC3    O1 7756   3.182   2.851  17.515 -0.8540 -0.3369 -0.6728
  518TMC3    O2 7757   3.137   2.288  17.647 -0.5563 -0.0896 -0.1932
  519MPD2     C 7758   0.088   1.688  14.074  0.6742  0.1638 -0.3976
  519MPD2    C1 7759   4.705   1.636  14.030  0.0152  0.0367 -0.1102
  519MPD2    C2 7760   4.681   1.500  14.027 -0.0739 -0.2430 -0.3413
  519MPD2    C3 7761   0.036   1.417  14.083  0.2061 -0.1191 -0.2385
  519MPD2    C4 7762   0.160   1.470  14.131 -0.5070  0.3859  0.0628
  519MPD2    C5 7763   0.172   1.609  14.142 -0.3087  0.3585  0.5623
  519MPD2     H 7764   4.592   1.459  13.981  1.5071 -1.3423 -2.4276
  519MPD2    H1 7765   0.232   1.409  14.184  0.4058 -0.7901 -2.5332
  519MPD2    H2 7766   0.097   1.795  14.069 -1.0470  0.4028  1.4266
  519MPD2    H3 7767   0.262   1.650  14.189  0.7000 -0.9574 -0.2439
  519MPD2     N 7768   0.009   1.278  14.094  0.2589 -0.5802  0.3599
  519MPD2    H5 7769   0.085   1.222  14.132 -0.1565  0.1444  2.2358
  519MPD2    N1 7770   4.598   1.727  13.987 -1.0618  0.0956 -0.0510
  519MPD2    H7 7771   4.626   1.815  13.945 -1.3184 -0.0340 -0.4900
  520TMC3    C1 7772   4.637   1.066  14.057 -0.2118  0.0646 -0.1740
  520TMC3    C2 7773   4.513   1.015  14.049  0.3508  0.2051  0.2190
  520TMC3    C3 7774   4.513   0.878  14.075  0.4176 -0.6211 -0.3612
  520TMC3    C4 7775   0.018   1.002  14.061  0.1541 -0.9336  0.5387
  520TMC3    C5 7776   0.011   0.875  14.099 -0.1254 -0.1807  1.0290
  520TMC3    C6 7777   4.628   0.813  14.113  0.3827 -0.3381 -0.0914
  520TMC3     C 7778   4.637   1.211  14.045  0.2406  0.5160 -0.4069
  520TMC3     O 7779   4.533   1.259  13.999 -0.0547  0.7987 -0.3318
  520TMC3     H 7780   4.419   1.069  14.042 -0.3385 -0.5867  3.0777
  520TMC3    H1 7781   0.111   1.059  14.057 -0.0169 -0.8273 -1.9099
  520TMC3    H2 7782   4.618   0.711  14.149  2.9431 -0.0738  1.4229
  520TMC3    C7 7783   0.130   0.792  14.093 -0.5651  0.1846  0.3801
  520TMC3    C8 7784   4.392   0.815  14.124  0.4261 -0.3020 -1.0183
  520TMC3    O1 7785   0.145   0.693  14.157 -0.3868 -0.0901 -0.0819
  520TMC3    O2 7786   4.401   0.737  14.218  0.3983  0.0840 -0.2953
  521MPD2     C 7787   0.196   4.542  17.626 -0.3844  0.6158 -0.7514
  521MPD2    C1 7788   0.244   4.417  17.597  0.6094  0.0904 -0.7975
  521MPD2    C2 7789   0.351   4.410  17.503 -0.1226  0.0164 -0.4911
  521MPD2    C3 7790   0.403   4.519  17.445  0.0272 -0.2482  0.3089
  521MPD2    C4 7791   0.352   4.646  17.483  0.6813  0.6605 -0.7582
  521MPD2    C5 7792   0.253   4.654  17.578  0.0937 -0.4527  0.0300
  521MPD2     H 7793   0.398   4.313  17.489  1.3974  0.4346  1.7590
  521MPD2    H1 7794   0.397   4.736  17.443  1.4424  0.3697 -0.5626
  521MPD2    H2 7795   0.124   4.556  17.706 -0.3617 -1.6496 -0.3354
  521MPD2    H3 7796   0.210   0.007  17.617 -1.3347 -1.8648  1.7287
  521MPD2     N 7797   0.508   4.514  17.353  0.2352 -0.3532 -0.0095
  521MPD2    H5 7798   0.569   4.432  17.357 -2.0427 -1.9796  1.5638
  521MPD2    N1 7799   0.178   4.291  17.639 -0.5485 -0.2996  0.2139
  521MPD2    H7 7800   0.213   4.204  17.598 -0.6070  0.0325 -0.5417
  522TMC3    C1 7801   0.678   4.586  17.199  0.1901 -0.1796 -0.7312
  522TMC3    C2 7802   0.773   4.505  17.250 -0.6891  0.6692  0.1927
  522TMC3    C3 7803   0.882   4.478  17.176 -0.3780  0.6189 -0.6562
  522TMC3    C4 7804   0.691   4.644  17.074 -0.3672  1.2641 -0.4687
  522TMC3    C5 7805   0.805   4.616  17.001 -0.3264  0.4045  0.0667
  522TMC3    C6 7806   0.907   4.543  17.055 -0.3590 -0.1640 -0.3520
  522TMC3     C 7807   0.546   4.614  17.265 -0.2955  0.3577 -0.2624
  522TMC3     O 7808   0.483   4.711  17.222  0.6287  0.2340  0.0272
  522TMC3     H 7809   0.766   4.458  17.348 -0.9667  3.1157  1.3533
  522TMC3    H1 7810   0.612   4.698  17.025 -0.7049 -0.4640 -1.8415
  522TMC3    H2 7811   0.985   4.518  16.983 -1.3485 -0.2616 -1.4061
  522TMC3    C7 7812   0.822   4.661  16.862  0.2190  0.0622  0.2311
  522TMC3    C8 7813   0.993   4.401  17.238 -0.4948  0.0434  0.7787
  522TMC3    O1 7814   0.937   4.672  16.826  0.4677 -0.2503 -0.0246
  522TMC3    O2 7815   1.009   4.418  17.360  0.4084  0.1168  0.3798
  523MPD2     C 7816   3.277   4.268  10.686  0.1975  0.3775 -0.3701
  523MPD2    C1 7817   3.213   4.207  10.588  0.4750  0.1037  0.2849
  523MPD2    C2 7818   3.121   4.275  10.513 -0.0449  0.2020  0.1713
  523MPD2    C3 7819   3.103   4.410  10.543  0.5910  0.6077 -0.2550
  523MPD2    C4 7820   3.181   4.471  10.635 -0.0584  0.4494 -0.3717
  523MPD2    C5 7821   3.268   4.400  10.712 -0.5202  0.3688  0.1195
  523MPD2     H 7822   3.071   4.225  10.431  0.5227 -0.1152  0.0193
  523MPD2    H1 7823   3.186   4.579  10.641 -0.2280  0.5289 -1.6657
  523MPD2    H2 7824   3.337   4.210  10.755  0.4505 -0.6407 -1.4448
  523MPD2    H3 7825   3.334   4.453  10.780 -0.7774 -0.8236  1.3035
  523MPD2     N 7826   3.017   4.497  10.473 -0.0940 -0.3766  0.2236
  523MPD2    H5 7827   3.028   4.596  10.491 -3.9083 -0.1726  1.4603
  523MPD2    N1 7828   3.226   4.068  10.590 -0.4714  0.3697 -0.0903
  523MPD2    H7 7829   3.295   4.037  10.658 -0.7593  0.0042  0.0318
  524TMC3    C1 7830   2.832   4.553  10.336  0.2553  0.5899  0.3275
  524TMC3    C2 7831   2.783   4.525  10.212 -0.4758 -0.1168  0.3255
  524TMC3    C3 7832   2.702   4.617  10.151  0.5610  0.0863 -0.1696
  524TMC3    C4 7833   2.795   4.663  10.407 -0.5673  0.6031 -0.1040
  524TMC3    C5 7834   2.691   0.001  10.352  0.4237  0.4826 -0.4419
  524TMC3    C6 7835   2.647   4.725  10.221  0.0820 -0.3583  0.9081
  524TMC3     C 7836   2.926   4.455  10.381  0.6544  0.3263  0.0250
  524TMC3     O 7837   2.906   4.347  10.328  0.1081  0.5193  0.2425
  524TMC3     H 7838   2.834   4.452  10.150 -1.0611  0.3750 -0.7267
  524TMC3    H1 7839   2.844   4.685  10.501  0.4741  1.8469 -0.9431
  524TMC3    H2 7840   2.576   0.055  10.176 -0.2166 -1.3215 -0.1181
  524TMC3    C7 7841   2.668   0.133  10.414 -0.0387  0.0980 -0.0793
  524TMC3    C8 7842   2.646   4.574  10.022 -0.5882  0.5238  0.0754
  524TMC3    O1 7843   2.702   0.141  10.532  0.3995  0.0169 -0.5679
  524TMC3    O2 7844   2.671   4.461   9.989 -0.5895  0.1362 -0.1265
  525MPD2     C 7845   1.013   0.993  14.527 -0.3091 -0.5834  0.1352
  525MPD2    C1 7846   1.134   1.049  14.574 -0.5150 -0.1353  0.1791
  525MPD2    C2 7847   1.191   1.158  14.519  0.3361  0.2353 -0.5351
  525MPD2    C3 7848   1.125   1.233  14.426  0.2198 -0.3895  0.4333
  525MPD2    C4 7849   0.998   1.194  14.387  0.4379  0.3063 -0.4554
  525MPD2    C5 7850   0.946   1.074  14.432  0.7327  0.1804 -0.3252
  525MPD2     H 7851   1.293   1.181  14.550  0.6823 -0.7565 -0.9443
  525MPD2    H1 7852   0.954   1.256  14.310  2.2700 -0.3122 -2.0183
  525MPD2    H2 7853   0.961   0.902  14.555  1.1138 -1.2247  0.6814
  525MPD2    H3 7854   0.848   1.047  14.396 -0.4254  0.6966  2.4971
  525MPD2     N 7855   1.177   1.362  14.388  0.7841 -0.0995  0.1747
  525MPD2    H5 7856   1.106   1.429  14.357  0.1070 -1.1715 -0.5749
  525MPD2    N1 7857   1.198   0.988  14.682  0.0993 -0.1229 -0.2227
  525MPD2    H7 7858   1.285   1.034  14.710 -1.2118  2.0793  0.2378
  526TMC3    C1 7859   1.249   0.838  14.852  0.2112  0.1569  0.0784
  526TMC3    C2 7860   1.192   0.784  14.972 -0.4198  0.4679 -0.0036
  526TMC3    C3 7861   1.282   0.750  15.067 -0.3590  0.5353  0.2743
  526TMC3    C4 7862   1.383   0.839  14.826  0.4278  0.2820 -0.7212
  526TMC3    C5 7863   1.460   0.803  14.927  0.3079 -0.4605  0.2310
  526TMC3    C6 7864   1.420   0.766  15.053 -0.6193 -0.1993  0.5054
  526TMC3     C 7865   1.156   0.875  14.752  1.3500 -0.0110 -0.0575
  526TMC3     O 7866   1.048   0.815  14.757  0.0949  0.5364  0.0638
  526TMC3     H 7867   1.087   0.772  14.997 -0.9293 -0.4940 -2.6101
  526TMC3    H1 7868   1.426   0.854  14.728 -1.7693 -0.8493 -1.8521
  526TMC3    H2 7869   1.489   0.743  15.134 -2.2732  3.0294  2.7908
  526TMC3    C7 7870   1.599   0.835  14.903  0.5392 -0.4856  0.2396
  526TMC3    C8 7871   1.232   0.787  15.201 -0.5019  0.0336 -0.1251
  526TMC3    O1 7872   1.627   0.944  14.849  0.9039 -0.2855  0.2242
  526TMC3    O2 7873   1.287   0.875  15.261  0.4660  0.4088  0.3299
  527MPD2     C 7874   3.491   3.149   1.652  0.3725 -0.3672 -0.1953
  527MPD2    C1 7875   3.520   3.225   1.542 -0.2851 -0.2857  0.7730
  527MPD2    C2 7876   3.642   3.212   1.475 -0.7272 -0.1724  0.2419
  527MPD2    C3 7877   3.716   3.100   1.504  0.0256  0.3224  0.2654
  527MPD2    C4 7878   3.675   3.016   1.604 -0.5369 -0.0689  0.6953
  527MPD2    C5 7879   3.569   3.046   1.691  0.2626 -0.4104 -0.0096
  527MPD2     H 7880   3.669   3.278   1.393 -0.5518  0.4138  0.7740
  527MPD2    H1 7881   3.740   2.933   1.631 -0.5084  0.0936  1.1421
  527MPD2    H2 7882   3.406   3.160   1.718  1.5419  0.5782  1.1396
  527MPD2    H3 7883   3.536   2.980   1.770  0.6920 -0.6590 -0.0424
  527MPD2     N 7884   3.835   3.078   1.432  0.3119 -0.0062 -0.0097
  527MPD2    H5 7885   3.844   3.130   1.345  1.4720 -1.7524 -0.9244
  527MPD2    N1 7886   3.436   3.330   1.488 -0.1687 -0.1273  0.1390
  527MPD2    H7 7887   3.464   3.366   1.397  2.2198 -0.6894  0.6321
  528TMC3    C1 7888   3.287   3.504   1.486  0.2305  0.2772 -0.4990
  528TMC3    C2 7889   3.267   3.497   1.353  0.0577  0.6683 -0.2098
  528TMC3    C3 7890   3.236   3.619   1.292  0.5559  0.0432  0.3206
  528TMC3    C4 7891   3.270   3.621   1.559  0.0121  1.2049 -0.4873
  528TMC3    C5 7892   3.242   3.737   1.498  0.1999  0.3770 -0.0199
  528TMC3    C6 7893   3.209   3.737   1.364  0.5182 -0.2604 -0.2314
  528TMC3     C 7894   3.325   3.380   1.548 -0.8684 -0.0868 -0.1535
  528TMC3     O 7895   3.292   3.371   1.665  0.0157  0.1603  0.2237
  528TMC3     H 7896   3.279   3.406   1.295 -0.0416  0.1254  0.6183
  528TMC3    H1 7897   3.296   3.609   1.663 -2.8681  0.4553  0.1550
  528TMC3    H2 7898   3.185   3.832   1.319 -2.6459 -1.4637 -1.0747
  528TMC3    C7 7899   3.202   3.857   1.565  1.3201  0.3343  0.5450
  528TMC3    C8 7900   3.260   3.639   1.148 -0.4299 -0.3694  0.6673
  528TMC3    O1 7901   3.111   3.920   1.516  0.0373  0.2872 -0.6642
  528TMC3    O2 7902   3.279   3.750   1.100 -0.3186  0.7612  0.1730
  529MPD2     C 7903   1.866   2.344   0.519  0.2462 -0.7730  1.0053
  529MPD2    C1 7904   1.863   2.211   0.471  0.0284  0.0034 -0.6605
  529MPD2    C2 7905   1.784   2.184   0.361 -0.0457 -0.3036  0.4313
  529MPD2    C3 7906   1.705   2.280   0.303  0.5196 -0.3936  0.4660
  529MPD2    C4 7907   1.715   2.411   0.349  0.0742  0.1348 -0.0094
  529MPD2    C5 7908   1.789   2.439   0.459 -0.1125 -0.0874  0.2381
  529MPD2     H 7909   1.769   2.079   0.340  2.3813 -0.1249 -2.1117
  529MPD2    H1 7910   1.655   2.491   0.306  1.7910  0.3580 -1.9724
  529MPD2    H2 7911   1.927   2.372   0.604  1.4064  1.2241 -0.4999
  529MPD2    H3 7912   1.786   2.538   0.504 -3.7416  0.1328 -0.4914
  529MPD2     N 7913   1.609   2.257   0.196  0.0478 -0.0505 -0.4403
  529MPD2    H5 7914   1.569   2.337   0.148  0.1506  1.4489  1.9515
  529MPD2    N1 7915   1.900   2.088   0.536 -0.0951  0.3039  0.5165
  529MPD2    H7 7916   1.882   1.998   0.493 -3.1339  1.4522 -0.5996
  530TMC3    C1 7917   1.997   1.950   0.717 -0.0489  0.4709  0.5809
  530TMC3    C2 7918   2.090   1.940   0.817 -0.0765 -0.4907  0.9998
  530TMC3    C3 7919   2.133   1.817   0.859  0.1643  0.1318  0.2184
  530TMC3    C4 7920   1.947   1.829   0.661 -0.4917 -0.3017  0.3528
  530TMC3    C5 7921   1.985   1.712   0.715 -0.6833  0.2433 -0.0138
  530TMC3    C6 7922   2.082   1.701   0.813 -0.6869 -0.5003  0.4378
  530TMC3     C 7923   1.956   2.087   0.666 -0.4179 -0.1380  0.7134
  530TMC3     O 7924   2.002   2.180   0.726 -0.2877  0.0108  0.0288
  530TMC3     H 7925   2.125   2.031   0.864  2.2039 -0.5853 -0.4950
  530TMC3    H1 7926   1.881   1.832   0.575 -3.0149 -1.2296  2.2698
  530TMC3    H2 7927   2.114   1.604   0.849 -0.1696 -0.6145 -0.3255
  530TMC3    C7 7928   1.894   1.598   0.683  0.2986  0.1030  0.4114
  530TMC3    C8 7929   2.167   1.823   1.002  0.7205 -0.7407  0.4373
  530TMC3    O1 7930   1.818   1.603   0.584  0.1090  0.6300  0.0793
  530TMC3    O2 7931   2.102   1.902   1.068  0.5063  0.5213 -0.0889
  531MPD2     C 7932   0.600   4.304  13.201 -0.2161  0.3967 -1.0064
  531MPD2    C1 7933   0.620   4.404  13.296 -0.5064 -1.2446 -0.6065
  531MPD2    C2 7934   0.511   4.484  13.328  0.2539 -0.2897 -0.3039
  531MPD2    C3 7935   0.392   4.459  13.259  0.5411  0.7567 -0.2488
  531MPD2    C4 7936   0.370   4.357  13.174  0.1518 -0.1332  1.2715
  531MPD2    C5 7937   0.479   4.272  13.151  0.5314  0.3675 -0.1772
  531MPD2     H 7938   0.496   4.567  13.396 -0.9641  0.1165 -1.0745
  531MPD2    H1 7939   0.274   4.340  13.126 -0.2369  2.9317  0.9627
  531MPD2    H2 7940   0.681   4.239  13.170 -1.6358 -1.7534 -0.2842
  531MPD2    H3 7941   0.465   4.195  13.076 -0.0744 -0.0135  0.3240
  531MPD2     N 7942   0.297   4.560  13.273  0.2499 -0.0938 -0.6308
  531MPD2    H5 7943   0.331   4.638  13.328 -1.6002  1.5291 -1.7296
  531MPD2    N1 7944   0.751   4.421  13.350 -0.2005 -0.2611 -0.5913
  531MPD2    H7 7945   0.822   4.355  13.322 -1.0844 -1.5344  0.1540
  532TMC3    C1 7946   0.924   4.553  13.461  0.3736  0.0050 -0.5519
  532TMC3    C2 7947   0.939   4.674  13.525  0.2163  0.1909 -0.3096
  532TMC3    C3 7948   1.034   0.030  13.490 -0.0772 -0.1184  0.1667
  532TMC3    C4 7949   1.008   4.538  13.354  0.1576  0.3020 -0.1547
  532TMC3    C5 7950   1.109   4.627  13.328 -0.0333 -0.4526  0.1226
  532TMC3    C6 7951   1.132   0.004  13.399 -0.3233 -0.6426 -0.2169
  532TMC3     C 7952   0.783   4.523  13.441 -0.0897 -0.3855  0.1938
  532TMC3     O 7953   0.711   4.615  13.486  0.3501  0.0072 -0.4728
  532TMC3     H 7954   0.889   4.683  13.621 -1.0498 -2.4478 -0.7131
  532TMC3    H1 7955   0.982   4.463  13.281 -1.9538  1.1148 -0.2463
  532TMC3    H2 7956   1.196   0.078  13.353  0.2673 -0.8364  0.3055
  532TMC3    C7 7957   1.180   4.608  13.202  0.4798  0.1073 -0.8494
  532TMC3    C8 7958   0.979   0.168  13.468  0.4194 -0.1393 -0.5572
  532TMC3    O1 7959   1.196   4.707  13.131  0.7181  0.0382  0.0332
  532TMC3    O2 7960   1.066   0.252  13.447  0.2454 -0.6141 -0.4748
  533TMC3    C1 7961   1.323   1.546  14.395 -0.2624 -0.7618  0.2503
  533TMC3    C2 7962   1.450   1.587  14.404 -0.2130  0.3317  0.3394
  533TMC3    C3 7963   1.471   1.711  14.453 -0.1238 -0.2294  0.0473
  533TMC3    C4 7964   1.218   1.631  14.434 -0.5699 -0.0687  0.0028
  533TMC3    C5 7965   1.249   1.742  14.500 -0.3462 -0.5726 -0.2984
  533TMC3    C6 7966   1.374   1.790  14.494  0.0247 -0.7074 -0.6957
  533TMC3     C 7967   1.305   1.405  14.409  0.6935 -0.2019 -0.0134
  533TMC3     O 7968   1.401   1.328  14.417 -0.0847 -0.6615  0.6301
  533TMC3     H 7969   1.531   1.519  14.382  0.8138  1.2449  1.3016
  533TMC3    H1 7970   1.114   1.599  14.440 -1.0365  1.0682 -2.0532
  533TMC3    H2 7971   1.399   1.882  14.545  1.5894 -1.1332 -0.6892
  533TMC3    C7 7972   1.213   1.721  14.636 -0.2493  0.3936  0.0201
  533TMC3    C8 7973   1.604   1.750  14.499 -0.0136 -0.7086 -0.1081
  533TMC3    O1 7974   1.181   1.604  14.667 -0.0110  0.4928  0.0094
  533TMC3    O2 7975   1.617   1.843  14.576 -1.0201 -0.4601 -0.1371
  534MPD2     C 7976   4.349   2.260   1.714  0.3232 -0.0879  0.2715
  534MPD2    C1 7977   4.301   2.366   1.644  0.3242  0.6271 -0.2761
  534MPD2    C2 7978   4.170   2.372   1.598 -0.0828 -0.4273 -0.3634
  534MPD2    C3 7979   4.071   2.280   1.639  0.4677 -0.3889 -0.0581
  534MPD2    C4 7980   4.122   2.184   1.729  0.0259  0.7852 -0.0891
  534MPD2    C5 7981   4.259   2.164   1.749  0.5337 -0.3226  0.7656
  534MPD2     H 7982   4.134   2.454   1.537 -1.4025 -0.7355 -0.0013
  534MPD2    H1 7983   4.052   2.116   1.776  0.2389  1.6561  1.4563
  534MPD2    H2 7984   4.452   2.241   1.740  0.1081 -1.2876  0.2780
  534MPD2    H3 7985   4.292   2.079   1.808 -0.3566 -0.6796  0.7384
  534MPD2     N 7986   3.941   2.276   1.597 -0.3959  0.4408 -0.0451
  534MPD2    H5 7987   3.924   2.342   1.522 -4.5618 -0.8963 -0.3027
  534MPD2    N1 7988   4.387   2.471   1.588  0.1246  0.2424 -0.7917
  534MPD2    H7 7989   4.337   2.542   1.535  1.3727  2.0913  0.5099
  535TMC3    C1 7990   3.719   2.219   1.574 -0.3435  0.0299  0.8416
  535TMC3    C2 7991   3.610   2.168   1.635 -0.3032  0.4276  0.6380
  535TMC3    C3 7992   3.486   2.192   1.586 -0.1420  0.1735  0.5943
  535TMC3    C4 7993   3.708   2.300   1.468 -1.1810  0.1595 -0.1630
  535TMC3    C5 7994   3.581   2.326   1.417  0.5813  0.8075 -0.2594
  535TMC3    C6 7995   3.465   2.277   1.477 -1.1688  0.2325 -0.3713
  535TMC3     C 7996   3.845   2.194   1.644  0.0797  0.0672  0.1524
  535TMC3     O 7997   3.848   2.120   1.746  0.2902  0.1566 -0.1896
  535TMC3     H 7998   3.625   2.101   1.719  0.0872 -1.7011 -1.1183
  535TMC3    H1 7999   3.795   2.345   1.422  0.8075  0.5732  3.9774
  535TMC3    H2 8000   3.368   2.288   1.430 -1.4811  1.1798  0.4856
  535TMC3    C7 8001   3.571   2.417   1.307 -0.6713  0.6084  0.6548
  535TMC3    C8 8002   3.376   2.099   1.608 -0.8608 -0.5441 -0.4941
  535TMC3    O1 8003   3.674   2.447   1.246 -0.7484  0.4112  0.0335
  535TMC3    O2 8004   3.304   2.077   1.512 -0.2265  0.3079  0.3557
  536MPD2     C 8005   2.277   0.574  16.593  0.2554  0.3002 -0.0638
  536MPD2    C1 8006   2.272   0.440  16.578 -0.0183  0.1494  0.4918
  536MPD2    C2 8007   2.207   0.389  16.472 -0.4182 -0.2821  0.0848
  536MPD2    C3 8008   2.167   0.481  16.376 -0.0828  0.7586  0.6294
  536MPD2    C4 8009   2.183   0.614  16.382  0.6605  0.5236 -0.0103
  536MPD2    C5 8010   2.232   0.660  16.498  0.2104 -0.9757 -0.1814
  536MPD2     H 8011   2.190   0.285  16.448  3.0849 -0.8280 -0.0431
  536MPD2    H1 8012   2.149   0.687  16.310  0.6705  1.9728  1.4673
  536MPD2    H2 8013   2.330   0.619  16.676 -0.5257  1.5256 -0.2214
  536MPD2    H3 8014   2.233   0.764  16.527 -1.2356 -1.2778  1.0123
  536MPD2     N 8015   2.107   0.439  16.256 -0.3272  0.3280  0.1778
  536MPD2    H5 8016   2.048   0.510  16.214 -1.5000 -0.6237  0.1772
  536MPD2    N1 8017   2.336   0.362  16.675  0.0668 -0.2195 -0.3271
  536MPD2    H7 8018   2.360   0.412  16.760 -0.0007 -0.5416 -0.1162
  537TMC3    C1 8019   2.371   0.167  16.811 -0.5221 -0.4620  0.4951
  537TMC3    C2 8020   2.462   0.239  16.889  0.5877  0.1334  0.2626
  537TMC3    C3 8021   2.493   0.198  17.017 -0.7927  0.1409  0.2969
  537TMC3    C4 8022   2.318   0.053  16.867  0.1819 -0.5759  0.6642
  537TMC3    C5 8023   2.348   0.011  16.996  0.1775 -0.1225 -0.0956
  537TMC3    C6 8024   2.429   0.092  17.077 -0.0831  0.5773 -0.1178
  537TMC3     C 8025   2.318   0.220  16.687  0.1397  0.0538  0.1906
  537TMC3     O 8026   2.261   0.143  16.609  0.4683  0.2020  0.1242
  537TMC3     H 8027   2.507   0.329  16.849  0.1345  0.2191 -0.0489
  537TMC3    H1 8028   2.249   0.001  16.801 -0.5829 -1.8957  2.5132
  537TMC3    H2 8029   2.417   0.084  17.185 -2.6056  1.0124 -0.3892
  537TMC3    C7 8030   2.281   4.638  17.057  0.0539 -0.6059  0.0411
  537TMC3    C8 8031   2.597   0.266  17.091 -0.5268 -0.2529  0.1557
  537TMC3    O1 8032   2.160   4.638  17.024  0.1101 -0.0925  0.1085
  537TMC3    O2 8033   2.625   0.380  17.057  0.0335 -0.3472  0.2989
  538TMC3    C1 8034   3.498   3.736  11.197  0.0949  0.8412  0.2127
  538TMC3    C2 8035   3.626   3.723  11.151 -0.6469 -0.2301 -0.2851
  538TMC3    C3 8036   3.661   3.794  11.039 -0.1320 -0.7275 -0.1113
  538TMC3    C4 8037   3.407   3.814  11.129  0.4068 -0.5968 -0.0347
  538TMC3    C5 8038   3.454   3.884  11.020  0.4667  0.3934  0.1812
  538TMC3    C6 8039   3.581   3.881  10.972 -0.1147  0.3306 -0.1279
  538TMC3     C 8040   3.458   3.663  11.313  0.4205 -0.1395  0.5164
  538TMC3     O 8041   3.507   3.550  11.321 -1.0929  0.4560  0.0967
  538TMC3     H 8042   3.688   3.660  11.214 -0.2273 -0.3271 -0.8023
  538TMC3    H1 8043   3.302   3.824  11.153  0.8231 -0.1159  1.6463
  538TMC3    H2 8044   3.606   3.925  10.876 -1.0899  0.1034 -0.4885
  538TMC3    C7 8045   3.369   3.990  10.963 -0.0386 -0.1064  1.2818
  538TMC3    C8 8046   3.808   3.795  11.014  1.0548  0.2281  0.2510
  538TMC3    O1 8047   3.284   3.948  10.882  0.1809 -0.0752 -0.0520
  538TMC3    O2 8048   3.862   3.689  11.043 -0.4386  0.0066 -0.5482
  539MPD2     C 8049   2.807   3.130  12.140  0.1420 -0.0145 -0.0034
  539MPD2    C1 8050   2.844   3.125  12.003  0.4651 -0.0799 -0.2120
  539MPD2    C2 8051   2.834   3.244  11.927 -0.4896 -0.3756  0.1709
  539MPD2    C3 8052   2.786   3.358  11.981  0.2723  0.1110  0.2043
  539MPD2    C4 8053   2.757   3.364  12.115  0.2689  0.1349  0.3298
  539MPD2    C5 8054   2.777   3.251  12.195  0.5441  0.1490  0.2757
  539MPD2     H 8055   2.863   3.233  11.823 -0.0565 -2.5061  0.5166
  539MPD2    H1 8056   2.728   3.455  12.166  0.8069  0.4336  0.1052
  539MPD2    H2 8057   2.811   3.049  12.212 -1.1762  0.6214  0.7871
  539MPD2    H3 8058   2.760   3.254  12.301 -0.9781 -2.0951  0.0815
  539MPD2     N 8059   2.779   3.485  11.912 -0.1541  0.1759 -0.8643
  539MPD2    H5 8060   2.748   3.560  11.973  2.3885 -0.7798  1.5809
  539MPD2    N1 8061   2.886   3.000  11.941 -0.3561  0.1003 -0.4161
  539MPD2    H7 8062   2.903   3.006  11.842  0.2317  2.4890 -0.1652
  540TMC3    C1 8063   2.803   3.645  11.745  1.0029 -1.0943  0.5568
  540TMC3    C2 8064   2.865   3.686  11.628  0.5571  0.2618 -0.5746
  540TMC3    C3 8065   2.849   3.823  11.596  1.0157  0.1262  0.1653
  540TMC3    C4 8066   2.715   3.727  11.809  0.7295 -0.3930 -0.0141
  540TMC3    C5 8067   2.705   3.856  11.776  0.6394  0.2279  0.0188
  540TMC3    C6 8068   2.770   3.908  11.664  0.9345 -0.4601  0.4411
  540TMC3     C 8069   2.807   3.509  11.780 -0.0696 -0.1905 -0.0029
  540TMC3     O 8070   2.855   3.432  11.701 -0.2080 -0.3229  0.2319
  540TMC3     H 8071   2.954   3.629  11.603 -1.3502 -3.5991  1.3305
  540TMC3    H1 8072   2.653   3.688  11.889 -1.7929  0.4133 -1.5586
  540TMC3    H2 8073   2.756   4.010  11.629  1.5503 -0.8336 -0.8938
  540TMC3    C7 8074   2.600   3.929  11.843 -1.1325  0.3591  0.2473
  540TMC3    C8 8075   2.879   3.853  11.458  0.1258 -0.5784 -0.0727
  540TMC3    O1 8076   2.529   3.860  11.909  0.2313 -0.1842 -0.5063
  540TMC3    O2 8077   2.887   3.969  11.419 -0.2352 -0.1041  0.3597
  541MPD2     C 8078   1.447   4.540  13.685 -1.1963 -0.4921 -0.0767
  541MPD2    C1 8079   1.424   4.460  13.576  0.0064  0.0851  0.3525
  541MPD2    C2 8080   1.452   4.510  13.450  1.0531  0.6985 -0.9224
  541MPD2    C3 8081   1.488   4.643  13.423  0.8561  0.7118  0.1231
  541MPD2    C4 8082   1.497   4.724  13.539  0.3661 -0.4668  0.0300
  541MPD2    C5 8083   1.481   4.670  13.668  0.2156 -0.3722  0.7273
  541MPD2     H 8084   1.450   4.447  13.362  0.1486  0.9628 -1.0825
  541MPD2    H1 8085   1.514   0.090  13.518  0.7043 -0.5647 -0.1688
  541MPD2    H2 8086   1.431   4.509  13.788  0.4470  1.6060  0.8127
  541MPD2    H3 8087   1.490   4.739  13.751  0.5967  1.4907 -0.8536
  541MPD2     N 8088   1.505   4.709  13.301  0.1397  0.3183 -0.1992
  541MPD2    H5 8089   1.514   0.071  13.302  2.8777  0.0430  0.8728
  541MPD2    N1 8090   1.363   4.331  13.602 -0.5474  0.9547 -0.3383
  541MPD2    H7 8091   1.359   4.299  13.698 -0.4687 -0.1401 -0.7010
  542TMC3    C1 8092   1.518   4.731  13.060 -1.0234 -0.2404 -0.6839
  542TMC3    C2 8093   1.571   4.690  12.941  0.4626 -0.0521 -0.3815
  542TMC3    C3 8094   1.525   0.008  12.826 -0.3449 -0.5178 -0.9148
  542TMC3    C4 8095   1.439   0.102  13.070  0.2032 -0.0968  0.4477
  542TMC3    C5 8096   1.403   0.153  12.949 -0.6135 -0.0002  0.2907
  542TMC3    C6 8097   1.432   0.105  12.826  0.1229 -0.2109  0.5157
  542TMC3     C 8098   1.522   4.644  13.176 -0.3091 -0.5337  0.4892
  542TMC3     O 8099   1.559   4.529  13.163 -0.3288 -0.1396 -0.3197
  542TMC3     H 8100   1.634   4.601  12.946 -0.5420 -0.7794 -0.7592
  542TMC3    H1 8101   1.384   0.132  13.159  3.4433  1.6000  1.8754
  542TMC3    H2 8102   1.392   0.151  12.736  0.9070 -1.8106 -0.6553
  542TMC3    C7 8103   1.299   0.255  12.956  0.7650 -0.1005  0.4714
  542TMC3    C8 8104   1.576   4.721  12.695 -0.0481 -0.3213 -0.1502
  542TMC3    O1 8105   1.320   0.342  13.043  0.1991  0.5230 -0.7341
  542TMC3    O2 8106   1.511   0.025  12.602 -0.1112 -0.5831 -0.3377
  543TMC3    C1 8107   1.358   1.263  17.483 -0.3821 -0.0302 -0.1859
  543TMC3    C2 8108   1.329   1.171  17.587  1.1813 -0.8519  0.0070
  543TMC3    C3 8109   1.262   1.227  17.693 -0.7490  0.6109  0.3672
  543TMC3    C4 8110   1.332   1.398  17.486  0.2482 -0.2144 -0.6209
  543TMC3    C5 8111   1.257   1.442  17.594 -0.3325  0.0095  0.2843
  543TMC3    C6 8112   1.222   1.361  17.698  0.3731 -0.4264  0.7507
  543TMC3     C 8113   1.337   1.213  17.348  0.4589  0.2690  0.0537
  543TMC3     O 8114   1.378   1.100  17.320  0.0828 -0.0549  0.0450
  543TMC3     H 8115   1.335   1.065  17.568 -0.8768 -0.6733 -1.6067
  543TMC3    H1 8116   1.361   1.460  17.402  0.9686 -0.6988 -0.7240
  543TMC3    H2 8117   1.164   1.395   0.030 -0.0646  0.1663  0.2155
  543TMC3    C7 8118   1.162   1.538  17.553 -0.0872  0.7446 -0.3707
  543TMC3    C8 8119   1.267   1.154   0.064  0.5139 -0.1533  0.0833
  543TMC3    O1 8120   1.156   1.549  17.429 -0.4894 -0.2601 -0.0570
  543TMC3    O2 8121   1.222   1.208   0.166 -0.3359  0.1937  0.4603
  544MPD2     C 8122   1.451   0.754   0.341 -0.1592  0.0593 -0.9006
  544MPD2    C1 8123   1.454   0.722   0.205  0.0956 -0.1118 -0.3008
  544MPD2    C2 8124   1.409   0.816   0.117 -0.1803  0.2518 -0.0819
  544MPD2    C3 8125   1.366   0.943   0.153 -0.6813 -0.9464  0.0186
  544MPD2    C4 8126   1.366   0.974   0.291  0.3831  0.1751 -0.7010
  544MPD2    C5 8127   1.409   0.880   0.386 -0.7282  0.6706 -0.0511
  544MPD2     H 8128   1.405   0.790   0.012  2.3247 -0.5780  0.0268
  544MPD2    H1 8129   1.339   1.072   0.326 -3.0991 -1.3453  0.8103
  544MPD2    H2 8130   1.499   0.689   0.414 -1.7252 -0.4999 -0.3889
  544MPD2    H3 8131   1.415   0.905   0.491 -0.0179 -0.0642  0.0866
  544MPD2     N 8132   1.331   1.039   0.052 -0.0835  0.1918 -0.8537
  544MPD2    H5 8133   1.336   1.010  17.707  0.6907 -2.4652 -0.0222
  544MPD2    N1 8134   1.508   0.598   0.173  0.4246  0.0414 -0.1166
  544MPD2    H7 8135   1.538   0.539   0.250 -1.9858 -0.3758  0.4813
  545TMC3    C1 8136   1.533   0.389   0.084  0.2801 -0.3441 -0.3224
  545TMC3    C2 8137   1.594   0.312  17.736 -0.7656 -0.5603  0.4030
  545TMC3    C3 8138   1.652   0.198   0.012 -1.0876  0.0521 -0.1267
  545TMC3    C4 8139   1.549   0.349   0.211 -0.2937 -0.2288  0.0061
  545TMC3    C5 8140   1.611   0.233   0.238 -0.1186 -0.5066 -0.0691
  545TMC3    C6 8141   1.675   0.164   0.146  0.3384  0.8090 -0.2410
  545TMC3     C 8142   1.520   0.535   0.058 -0.2508 -0.5514  0.3758
  545TMC3     O 8143   1.531   0.573  17.697 -0.2503  0.6730 -0.0398
  545TMC3     H 8144   1.593   0.347  17.634  3.5841 -1.8000 -0.0837
  545TMC3    H1 8145   1.500   0.391   0.297 -2.4189 -0.3044 -1.1704
  545TMC3    H2 8146   1.717   0.065   0.159 -0.8582  0.7813  3.2584
  545TMC3    C7 8147   1.641   0.195   0.376  0.1643 -0.6887 -0.5164
  545TMC3    C8 8148   1.682   0.096  17.660 -0.6161  0.4560  0.0670
  545TMC3    O1 8149   1.562   0.228   0.461  0.6038 -0.1640 -0.0943
  545TMC3    O2 8150   1.749   0.003  17.697  0.3545  0.2228 -0.5116
  546MPD2     C 8151   2.689   0.889  17.536 -0.3008  0.4935  0.5156
  546MPD2    C1 8152   2.715   0.935  17.407  0.6327  0.0155  0.1396
  546MPD2    C2 8153   2.800   1.052  17.391 -0.1476  0.5126  0.2981
  546MPD2    C3 8154   2.859   1.101  17.506  0.5061  0.6537 -0.3520
  546MPD2    C4 8155   2.834   1.044  17.630 -0.2838  0.0054  0.0227
  546MPD2    C5 8156   2.749   0.938  17.645  0.4637 -0.3398 -0.3480
  546MPD2     H 8157   2.811   1.089  17.289 -0.0962 -1.6171 -0.4705
  546MPD2    H1 8158   2.880   1.096  17.713 -0.3802  2.6850 -1.6149
  546MPD2    H2 8159   2.614   0.814  17.558  0.5677 -0.2372  0.9827
  546MPD2    H3 8160   2.729   0.907  17.747 -1.9160 -0.1893 -0.7726
  546MPD2     N 8161   2.946   1.212  17.510 -0.0374  0.3714  0.0873
  546MPD2    H5 8162   2.974   1.253  17.598  0.6817 -0.9035  0.4524
  546MPD2    N1 8163   2.644   0.865  17.300 -0.3025 -0.6635 -0.3699
  546MPD2    H7 8164   2.576   0.792  17.320 -2.1092  1.3291  0.7239
  547TMC3    C1 8165   2.597   0.784  17.089  0.5522  1.0533  0.1477
  547TMC3    C2 8166   2.532   0.831  16.983 -0.0563  0.1541 -0.4970
  547TMC3    C3 8167   2.420   0.764  16.942  0.2097 -0.2588 -0.3512
  547TMC3    C4 8168   2.548   0.674  17.162  0.7184  0.4751  0.0070
  547TMC3    C5 8169   2.439   0.613  17.119 -0.0080 -0.4181 -0.1142
  547TMC3    C6 8170   2.380   0.649  17.005 -0.1569 -0.1976 -0.1353
  547TMC3     C 8171   2.662   0.887  17.167  0.5237 -0.2867 -0.4316
  547TMC3     O 8172   2.734   0.966  17.109 -0.3181  0.2327 -0.1235
  547TMC3     H 8173   2.539   0.932  16.943 -0.7117  0.8969  1.2656
  547TMC3    H1 8174   2.604   0.630  17.244  1.5017 -1.0052 -1.3259
  547TMC3    H2 8175   2.288   0.598  16.978  0.6651 -0.8462 -1.7017
  547TMC3    C7 8176   2.374   0.528  17.222  0.1575 -0.8132  0.1807
  547TMC3    C8 8177   2.315   0.833  16.865 -0.5286 -0.2624  0.6028
  547TMC3    O1 8178   2.418   0.536  17.338 -0.1808 -0.8224 -0.0758
  547TMC3    O2 8179   2.204   0.778  16.865 -0.5350 -0.1304 -0.1636
  548MPD2     C 8180   1.822   1.870  12.783 -0.1797 -0.4120  0.2371
  548MPD2    C1 8181   1.792   1.762  12.862 -0.0848  0.0129 -0.4963
  548MPD2    C2 8182   1.892   1.671  12.892  0.4260 -0.8189  0.7804
  548MPD2    C3 8183   2.022   1.689  12.837  0.4393 -0.4038  0.2288
  548MPD2    C4 8184   2.048   1.805  12.760  0.1965 -0.8801 -0.3551
  548MPD2    C5 8185   1.941   1.888  12.729 -0.0188  0.4954  0.1841
  548MPD2     H 8186   1.878   1.577  12.945 -3.5459  0.4933  2.0482
  548MPD2    H1 8187   2.139   1.822  12.705 -0.1074 -0.5711 -0.7570
  548MPD2    H2 8188   1.748   1.945  12.757 -0.5233 -0.6729  0.4786
  548MPD2    H3 8189   1.952   1.964  12.653  2.9979 -0.6655 -0.5350
  548MPD2     N 8190   2.118   1.582  12.851  0.4170 -0.2571  0.3148
  548MPD2    H5 8191   2.083   1.495  12.889  1.2272  0.2900  2.3050
  548MPD2    N1 8192   1.657   1.755  12.918 -0.7031 -0.4759  0.0449
  548MPD2    H7 8193   1.585   1.815  12.878 -1.9535 -1.1430  1.2898
  549TMC3    C1 8194   1.474   1.647  13.030 -0.2473 -0.3958 -0.3817
  549TMC3    C2 8195   1.389   1.736  12.977  0.2540  0.3986  0.0091
  549TMC3    C3 8196   1.258   1.697  12.958  0.4937 -0.6484  0.0896
  549TMC3    C4 8197   1.452   1.510  13.054 -0.2301 -0.7500 -0.4112
  549TMC3    C5 8198   1.320   1.480  13.040 -0.2044 -0.1801 -0.2806
  549TMC3    C6 8199   1.220   1.569  13.004  0.2995  0.1553  0.1547
  549TMC3     C 8200   1.618   1.674  13.020  0.1640  0.2467  0.1721
  549TMC3     O 8201   1.686   1.614  13.101  0.0842  0.2394  0.3830
  549TMC3     H 8202   1.429   1.835  12.958  0.0665  0.7073  1.2173
  549TMC3    H1 8203   1.531   1.437  13.065  0.4422  0.5520  3.5359
  549TMC3    H2 8204   1.115   1.545  12.998  0.2580  1.2604 -3.6758
  549TMC3    C7 8205   1.278   1.341  13.017 -0.2898  0.1158 -0.4920
  549TMC3    C8 8206   1.177   1.788  12.886 -0.0583 -0.0552 -0.2559
  549TMC3    O1 8207   1.154   1.319  13.020  0.3542 -0.4721 -0.1588
  549TMC3    O2 8208   1.207   1.904  12.873  0.4101 -0.1376 -0.1844
  550TMC3    C1 8209   0.870   4.247  12.793 -0.2048 -0.1638  0.9041
  550TMC3    C2 8210   0.905   4.345  12.884  0.1810  0.4940  0.3053
  550TMC3    C3 8211   0.969   4.452  12.840 -0.0239  0.4608  0.1792
  550TMC3    C4 8212   0.912   4.248  12.661  0.0764  0.1892 -0.2139
  550TMC3    C5 8213   0.977   4.361  12.620 -0.1422  0.0401  0.8316
  550TMC3    C6 8214   0.997   4.460  12.705  0.6533  0.1887  0.8647
  550TMC3     C 8215   0.732   4.215  12.807  0.2494 -0.6966  0.5618
  550TMC3     O 8216   0.690   4.203  12.921  0.0006  0.0176  0.1931
  550TMC3     H 8217   0.867   4.334  12.985 -2.3642 -0.0481 -0.7041
  550TMC3    H1 8218   0.898   4.161  12.597 -1.8026 -1.1594  2.0147
  550TMC3    H2 8219   1.051   4.548  12.672  0.4494  0.1913  0.5342
  550TMC3    C7 8220   0.909   4.409  12.502  0.5606  0.1229  0.0549
  550TMC3    C8 8221   0.941   4.586  12.900 -0.1721  0.3552  0.1969
  550TMC3    O1 8222   0.820   4.334  12.464 -0.5016  0.2497 -0.1936
  550TMC3    O2 8223   0.979   4.676  12.829 -0.0528  0.2337 -0.6084
  551TMC3    C1 8224   3.219   2.225  13.397 -0.1943 -0.0555  0.2993
  551TMC3    C2 8225   3.307   2.120  13.392 -0.8795  0.3737 -0.1145
  551TMC3    C3 8226   3.399   2.101  13.481  0.2500  0.6642 -0.5424
  551TMC3    C4 8227   3.227   2.319  13.496 -0.3640 -0.0261  0.1728
  551TMC3    C5 8228   3.309   2.289  13.601  0.0063 -0.2189 -0.2906
  551TMC3    C6 8229   3.398   2.183  13.592 -0.3926 -0.0745  0.2822
  551TMC3     C 8230   3.128   2.248  13.283 -0.3575 -0.0612 -0.0455
  551TMC3     O 8231   3.106   2.152  13.217 -0.7453  0.1634 -0.5697
  551TMC3     H 8232   3.312   2.056  13.304  1.5764  0.7110 -0.2315
  551TMC3    H1 8233   3.156   2.399  13.515 -2.8168 -2.0109 -0.7381
  551TMC3    H2 8234   3.450   2.147  13.680 -3.3132  0.3077  2.1948
  551TMC3    C7 8235   3.346   2.378  13.712  0.0520 -0.3015 -0.4844
  551TMC3    C8 8236   3.526   2.121  13.409 -0.3243  0.0608 -0.4443
  551TMC3    O1 8237   3.387   2.322  13.812 -0.1556  0.1083  0.3720
  551TMC3    O2 8238   3.547   2.054  13.308  0.3961 -0.1804  0.0671
  552MPD2     C 8239   1.087   4.346  13.815 -0.5983 -0.3917  0.1955
  552MPD2    C1 8240   1.032   4.221  13.858  0.1171  0.5581  0.0165
  552MPD2    C2 8241   1.072   4.177  13.979  0.4273 -0.0868  0.1257
  552MPD2    C3 8242   1.157   4.249  14.057  0.7935 -0.1324 -0.5660
  552MPD2    C4 8243   1.219   4.368  14.011 -0.2528 -0.1135 -0.2070
  552MPD2    C5 8244   1.176   4.413  13.886  0.0470  0.3248 -0.5698
  552MPD2     H 8245   1.035   4.082  14.018  2.0673 -0.0121  1.8736
  552MPD2    H1 8246   1.300   4.425  14.055 -0.1457 -0.5673  0.1830
  552MPD2    H2 8247   1.058   4.395  13.723  0.0826  0.9559  0.6943
  552MPD2    H3 8248   1.211   4.513  13.861  0.9005  0.4352  1.0600
  552MPD2     N 8249   1.194   4.209  14.192  0.0998 -0.4526 -0.2979
  552MPD2    H5 8250   1.262   4.273  14.231  0.0482 -1.0818  0.8065
  552MPD2    N1 8251   0.946   4.132  13.787  0.2477  0.7856  0.0592
  552MPD2    H7 8252   0.930   4.042  13.832  0.8474  0.6882  0.0882
  553TMC3    C1 8253   0.802   4.062  13.621  0.1202 -0.0268  0.0422
  553TMC3    C2 8254   0.780   4.065  13.484 -0.2752 -0.0460  0.7864
  553TMC3    C3 8255   0.696   3.967  13.433  0.3118  0.4382 -0.3152
  553TMC3    C4 8256   0.740   3.974  13.702  0.7506  0.2809  0.1955
  553TMC3    C5 8257   0.654   3.881  13.653  0.4915  0.2108 -0.3260
  553TMC3    C6 8258   0.622   3.879  13.517  0.2672  0.2971  0.5986
  553TMC3     C 8259   0.897   4.162  13.663  0.2602 -0.5908 -0.0799
  553TMC3     O 8260   0.922   4.265  13.600  0.2677 -0.7466 -0.0461
  553TMC3     H 8261   0.841   4.130  13.421 -0.7938 -0.9046 -0.6122
  553TMC3    H1 8262   0.745   3.995  13.808  0.8017 -0.5847  0.3658
  553TMC3    H2 8263   0.578   3.790  13.474  0.8060 -1.1234  3.0033
  553TMC3    C7 8264   0.606   3.775  13.734  0.8346  0.5525  1.0740
  553TMC3    C8 8265   0.682   3.957  13.291  0.2659 -0.3839  0.7187
  553TMC3    O1 8266   0.500   3.722  13.698 -0.1357  0.3761 -0.2502
  553TMC3    O2 8267   0.764   4.020  13.223  0.2355 -0.1125  0.5930
  554TMC3    C1 8268   2.092   3.869  11.796  0.2619 -0.0679 -0.3036
  554TMC3    C2 8269   1.998   3.804  11.722 -1.2564  0.5632  0.4100
  554TMC3    C3 8270   1.957   3.866  11.604 -0.1935 -0.2192  0.7082
  554TMC3    C4 8271   2.128   3.995  11.775  0.3517  0.1223 -0.6904
  554TMC3    C5 8272   2.072   4.060  11.666  0.1028 -0.0724 -0.5036
  554TMC3    C6 8273   1.992   3.998  11.574  0.0029 -0.2960 -0.0116
  554TMC3     C 8274   2.137   3.814  11.916  1.1362  0.0806 -0.0009
  554TMC3     O 8275   2.174   3.892  11.999  0.3953  0.0892 -0.0383
  554TMC3     H 8276   1.995   3.697  11.732 -1.0508  0.4580 -0.6127
  554TMC3    H1 8277   2.201   4.052  11.832 -1.5772  2.6551 -0.7390
  554TMC3    H2 8278   1.972   4.053  11.483  1.5036  2.0800  1.1038
  554TMC3    C7 8279   2.169   4.126  11.580  0.3670 -0.1692 -0.2782
  554TMC3    C8 8280   1.927   3.773  11.495  0.3995 -0.5150 -0.0691
  554TMC3    O1 8281   2.242   4.049  11.517  0.2775 -0.2077  0.1137
  554TMC3    O2 8282   1.990   3.798  11.392  0.0441  0.9607  0.4540
  555TMC3    C1 8283   1.322   2.896  14.929  0.3402 -0.3942 -0.4250
  555TMC3    C2 8284   1.247   2.980  15.007  0.5283 -0.1122 -0.3362
  555TMC3    C3 8285   1.242   2.969  15.144 -0.0849  0.2243  0.6631
  555TMC3    C4 8286   1.395   2.798  14.991  0.0620  0.4988  0.0368
  555TMC3    C5 8287   1.376   2.775  15.123  0.0508 -0.3842 -0.2568
  555TMC3    C6 8288   1.299   2.860  15.207  0.1486  0.4144 -0.2723
  555TMC3     C 8289   1.378   2.971  14.814  0.5419  0.3707  0.8303
  555TMC3     O 8290   1.503   2.973  14.806  0.3218 -0.0759 -0.0186
  555TMC3     H 8291   1.192   3.068  14.977  1.1391 -0.0153 -1.1711
  555TMC3    H1 8292   1.452   2.728  14.931  1.9740  0.8579  1.4326
  555TMC3    H2 8293   1.292   2.840  15.313  0.1402 -0.6529 -0.4731
  555TMC3    C7 8294   1.421   2.646  15.182  0.1123  0.6588 -0.3008
  555TMC3    C8 8295   1.244   3.101  15.214  0.1781  0.5429  0.3342
  555TMC3    O1 8296   1.356   2.613  15.282  0.6749  0.1352  0.4699
  555TMC3    O2 8297   1.205   3.198  15.149  0.1837  0.3098  0.1690
  556MPD2     C 8298   3.790   0.310  10.747 -0.3365 -0.6253  0.1144
  556MPD2    C1 8299   3.854   0.211  10.818 -0.4158 -0.0609 -0.4130
  556MPD2    C2 8300   3.896   0.097  10.761 -0.2672  0.2569  0.7382
  556MPD2    C3 8301   3.872   0.075  10.630  0.3745  0.2900  0.5138
  556MPD2    C4 8302   3.812   0.175  10.555 -0.8913  0.1956 -0.2623
  556MPD2    C5 8303   3.782   0.299  10.614 -0.6309 -0.0270 -0.5050
  556MPD2     H 8304   3.958   0.021  10.809 -1.3913 -1.1556 -0.0429
  556MPD2    H1 8305   3.805   0.163  10.447 -0.6225  0.2046 -0.2815
  556MPD2    H2 8306   3.738   0.399  10.782 -0.5173  0.9952 -4.2139
  556MPD2    H3 8307   3.739   0.379  10.554 -0.1943  0.9504  0.4686
  556MPD2     N 8308   3.919   4.693  10.571  0.3080  0.3238 -0.4338
  556MPD2    H5 8309   3.954   4.620  10.633  0.2718 -0.0331 -0.8295
  556MPD2    N1 8310   3.875   0.220  10.959 -0.2504 -0.2026 -0.3698
  556MPD2    H7 8311   3.910   0.138  11.008  0.4287  0.6556  0.5723
  557TMC3    C1 8312   3.966   4.526  10.397  0.2550  0.2770 -0.3005
  557TMC3    C2 8313   3.918   4.474  10.281 -0.1372  0.7029 -0.1072
  557TMC3    C3 8314   3.956   4.342  10.261  0.0474 -1.0208 -0.1134
  557TMC3    C4 8315   4.039   4.454  10.486  0.2962  0.2494 -0.4097
  557TMC3    C5 8316   4.056   4.323  10.472  0.1589  0.2797  0.2681
  557TMC3    C6 8317   4.021   4.259  10.352 -0.8385  0.1204  0.0949
  557TMC3     C 8318   3.897   4.651  10.437 -0.3721 -0.1602  0.3559
  557TMC3     O 8319   3.830   4.706  10.349 -0.5475  0.3566 -0.0358
  557TMC3     H 8320   3.854   4.530  10.213  0.1752  1.2648  0.0585
  557TMC3    H1 8321   4.078   4.493  10.580 -1.2206  1.5808 -0.3121
  557TMC3    H2 8322   4.012   4.152  10.341  0.6777  0.2546 -2.3111
  557TMC3    C7 8323   4.034   4.258  10.603 -0.4413 -0.5676 -0.2176
  557TMC3    C8 8324   3.863   4.269  10.174  0.0941 -0.0742  0.0742
  557TMC3    O1 8325   3.963   4.317  10.683  0.7138  0.1612  0.1642
  557TMC3    O2 8326   3.746   4.300  10.170  0.1443 -0.1241 -0.3649
  558TMC3    C1 8327   1.380   2.142  10.355 -0.0837 -0.2308  0.0518
  558TMC3    C2 8328   1.289   2.139  10.460  0.4241  0.1900 -0.3550
  558TMC3    C3 8329   1.165   2.171  10.423 -0.1761 -0.0704  0.1801
  558TMC3    C4 8330   1.359   2.195  10.232 -0.6098  0.8313 -0.2261
  558TMC3    C5 8331   1.236   2.253  10.214 -0.4140 -0.9419  0.2501
  558TMC3    C6 8332   1.137   2.232  10.306 -0.1741  0.1424 -0.3717
  558TMC3     C 8333   1.510   2.136  10.387 -0.1286 -0.0207  0.2515
  558TMC3     O 8334   1.543   2.169  10.498 -0.4144  0.1571 -0.0744
  558TMC3     H 8335   1.311   2.077  10.546  2.8585  1.5046 -0.0225
  558TMC3    H1 8336   1.437   2.201  10.157 -1.9054 -2.1794 -1.8111
  558TMC3    H2 8337   1.050   2.297  10.312  0.1407  0.5514 -0.2997
  558TMC3    C7 8338   1.241   2.377  10.138  0.2214 -0.6100  0.0409
  558TMC3    C8 8339   1.061   2.175  10.520  0.2683  0.6328  0.2229
  558TMC3    O1 8340   1.354   2.415  10.105  0.4347  0.2493 -0.6236
  558TMC3    O2 8341   0.944   2.161  10.486 -0.0394 -0.7559 -0.2782
  559MPD2     C 8342   1.776   3.129  10.564  0.5544  0.0605  0.5237
  559MPD2    C1 8343   1.704   3.044  10.649 -0.0780  0.5510 -0.5162
  559MPD2    C2 8344   1.774   2.999  10.762 -0.4289 -0.3105  0.6234
  559MPD2    C3 8345   1.897   3.042  10.793  0.7082  0.0765  0.2034
  559MPD2    C4 8346   1.966   3.127  10.709 -0.1914  0.4486  0.3231
  559MPD2    C5 8347   1.900   3.163  10.591  0.0733 -0.2915  0.6580
  559MPD2     H 8348   1.728   2.919  10.819 -0.1632 -0.9551 -0.0664
  559MPD2    H1 8349   2.070   3.155  10.723 -0.3499  0.7806  0.8271
  559MPD2    H2 8350   1.736   3.153  10.466  2.2138  3.6899  0.7297
  559MPD2    H3 8351   1.943   3.234  10.522  1.1112 -0.9476  0.6355
  559MPD2     N 8352   1.960   2.990  10.911 -0.7165  0.0299 -1.3751
  559MPD2    H5 8353   1.901   2.926  10.962  0.2800 -1.3085 -1.9046
  559MPD2    N1 8354   1.578   3.002  10.609  0.2665  0.1718 -0.9536
  559MPD2    H7 8355   1.531   3.054  10.535 -1.7355  0.8681  0.8273
  560TMC3    C1 8356   2.121   2.931  11.075  0.1656 -0.0124  0.6461
  560TMC3    C2 8357   2.029   2.837  11.118  0.0503  0.5523 -0.8166
  560TMC3    C3 8358   2.069   2.728  11.198 -0.2710  0.1972  0.3326
  560TMC3    C4 8359   2.246   2.942  11.142  0.1408  0.3349  0.7421
  560TMC3    C5 8360   2.275   2.839  11.234  0.7943 -0.2403  0.5948
  560TMC3    C6 8361   2.195   2.729  11.253  0.4294 -0.0412 -0.1609
  560TMC3     C 8362   2.087   3.016  10.960 -0.2980  0.4277  0.5862
  560TMC3     O 8363   2.176   3.079  10.902  0.4215  0.1077  0.4609
  560TMC3     H 8364   1.926   2.824  11.087  0.3362 -2.6223 -0.4436
  560TMC3    H1 8365   2.314   3.023  11.118  0.8024 -0.1789  0.8721
  560TMC3    H2 8366   2.224   2.641  11.311 -2.4031 -1.2592 -0.5848
  560TMC3    C7 8367   2.347   2.877  11.353 -0.5990  0.1160 -0.2495
  560TMC3    C8 8368   1.970   2.629  11.245  0.0312  0.7508 -0.2411
  560TMC3    O1 8369   2.342   2.806  11.457 -0.2961  0.3740 -0.2600
  560TMC3    O2 8370   1.868   2.620  11.183 -0.2290 -0.1320  0.0456
  561TMC3    C1 8371   4.322   1.905  11.261 -0.0664 -0.0102 -0.4635
  561TMC3    C2 8372   4.341   1.824  11.375 -0.4969 -0.7223  0.0035
  561TMC3    C3 8373   4.351   1.879  11.499 -0.4668 -0.0355 -0.2662
  561TMC3    C4 8374   4.321   2.042  11.278 -0.4573  0.2160  0.7187
  561TMC3    C5 8375   4.332   2.094  11.411  1.0325  0.1712  0.4442
  561TMC3    C6 8376   4.339   2.011  11.519 -0.2723 -0.4165 -0.3859
  561TMC3     C 8377   4.295   1.841  11.129 -0.1784  0.0777 -0.0842
  561TMC3     O 8378   4.210   1.898  11.070  0.2494  0.0335  0.0257
  561TMC3     H 8379   4.345   1.717  11.359 -1.9328 -0.8623  0.6114
  561TMC3    H1 8380   4.287   2.095  11.190 -1.0370 -0.1582  0.7177
  561TMC3    H2 8381   4.368   2.055  11.615  2.0960 -2.0147 -0.3613
  561TMC3    C7 8382   4.341   2.232  11.433  0.6132  0.2019  0.2680
  561TMC3    C8 8383   4.320   1.796  11.614 -0.1226  0.1483  0.8502
  561TMC3    O1 8384   4.315   2.284  11.547 -0.2243  0.2615  0.0297
  561TMC3    O2 8385   4.369   1.680  11.615  0.4080  0.4342  0.2169
  562TMC3    C1 8386   1.231   3.379  16.193 -0.1163  0.2783 -0.1845
  562TMC3    C2 8387   1.104   3.429  16.171  0.9930 -0.3916 -0.1914
  562TMC3    C3 8388   1.066   3.452  16.040  0.0649  0.3184  0.5850
  562TMC3    C4 8389   1.320   3.359  16.088  0.4787  1.3253  0.7125
  562TMC3    C5 8390   1.275   3.390  15.965 -0.1023  0.1844  0.4132
  562TMC3    C6 8391   1.151   3.441  15.943 -0.1136  0.1357  0.1615
  562TMC3     C 8392   1.262   3.347  16.329  0.6204 -0.3060 -0.2383
  562TMC3     O 8393   1.172   3.323  16.409 -0.5862  0.1498  0.3901
  562TMC3     H 8394   1.034   3.431  16.253  2.7910 -1.1143  1.3538
  562TMC3    H1 8395   1.421   3.324  16.106 -0.5594 -1.4524  1.1501
  562TMC3    H2 8396   1.126   3.451  15.838  1.6400  0.3010 -0.2517
  562TMC3    C7 8397   1.284   3.281  15.870  0.3231 -0.2773  0.0771
  562TMC3    C8 8398   0.934   3.501  16.022  0.3942  0.1719  0.2498
  562TMC3    O1 8399   1.225   3.288  15.761  0.5305 -0.5085  0.3252
  562TMC3    O2 8400   0.861   3.474  16.116  0.9680  0.2725 -0.2707
  563MPD2     C 8401   3.378   4.484  15.845 -0.0402 -0.1430 -0.6646
  563MPD2    C1 8402   3.444   4.465  15.960  1.1697  0.4073 -0.6258
  563MPD2    C2 8403   3.580   4.430  15.951 -0.0834 -0.7468  0.3887
  563MPD2    C3 8404   3.646   4.412  15.833  0.0318  0.5224 -0.6009
  563MPD2    C4 8405   3.575   4.445  15.716 -1.1976 -0.0122 -0.5158
  563MPD2    C5 8406   3.443   4.485  15.724  0.0966  0.4682  0.1096
  563MPD2     H 8407   3.635   4.401  16.040  0.2433 -2.0033 -0.2292
  563MPD2    H1 8408   3.617   4.428  15.617 -0.8293  2.2145 -0.7300
  563MPD2    H2 8409   3.273   4.510  15.846  0.0408  0.1468 -0.1875
  563MPD2    H3 8410   3.389   4.522  15.638 -0.8332  1.1169  0.9689
  563MPD2     N 8411   3.777   4.369  15.844 -0.6973 -0.0949  0.7409
  563MPD2    H5 8412   3.809   4.368  15.940 -0.8247  1.2361  0.8029
  563MPD2    N1 8413   3.381   4.455  16.085 -0.3208  0.2843  0.0876
  563MPD2    H7 8414   3.280   4.444  16.088 -0.0784 -1.7655  0.6714
  564TMC3    C1 8415   3.376   4.382  16.310  0.1958 -0.4184 -0.0948
  564TMC3    C2 8416   3.240   4.362  16.303  0.0879 -0.0235 -0.6176
  564TMC3    C3 8417   3.189   4.248  16.358 -0.2443 -0.3966 -0.1410
  564TMC3    C4 8418   3.454   4.292  16.374 -0.5651 -0.5283  0.6795
  564TMC3    C5 8419   3.402   4.185  16.429 -0.0041  0.7509 -0.4195
  564TMC3    C6 8420   3.264   4.154  16.419  0.3821  1.3883 -0.2458
  564TMC3     C 8421   3.449   4.449  16.207  0.6005  0.1209 -0.3650
  564TMC3     O 8422   3.563   4.490  16.231  0.1444  0.9151 -0.5283
  564TMC3     H 8423   3.189   4.439  16.245 -0.0923 -1.4378 -2.3478
  564TMC3    H1 8424   3.561   4.304  16.381 -0.3760 -2.0924  0.4760
  564TMC3    H2 8425   3.213   4.077  16.476  1.2053 -0.2313 -1.7118
  564TMC3    C7 8426   3.482   4.065  16.411  0.3497 -0.0277  0.4179
  564TMC3    C8 8427   3.056   4.209  16.324 -0.2802  0.3224  0.6873
  564TMC3    O1 8428   3.600   4.077  16.437  0.3610  0.0622  0.1051
  564TMC3    O2 8429   3.005   4.136  16.410 -0.0069  0.4224 -0.3110
  565TMC3    C1 8430   3.339   1.413  10.824  0.3081  0.2141  0.8899
  565TMC3    C2 8431   3.334   1.414  10.959  0.0104  0.2305 -0.4011
  565TMC3    C3 8432   3.242   1.340  11.027  0.7955  1.1422  0.3539
  565TMC3    C4 8433   3.237   1.358  10.753 -0.4481  0.3355  0.2065
  565TMC3    C5 8434   3.142   1.276  10.818  0.2139  0.5960  0.1350
  565TMC3    C6 8435   3.132   1.281  10.956 -0.3512 -0.3673 -0.7087
  565TMC3     C 8436   3.439   1.496  10.762  0.0037 -0.1778  0.5854
  565TMC3     O 8437   3.396   1.570  10.675  0.1096 -0.5403 -0.2842
  565TMC3     H 8438   3.390   1.486  11.019  0.1015 -2.0774  2.2790
  565TMC3    H1 8439   3.247   1.368  10.645  0.1101 -1.4923  0.0850
  565TMC3    H2 8440   3.066   1.211  11.006  1.2762 -1.0177  0.5136
  565TMC3    C7 8441   3.036   1.218  10.741  0.3468  0.6680 -0.8823
  565TMC3    C8 8442   3.253   1.326  11.171 -1.1294  0.6256  0.0373
  565TMC3    O1 8443   2.979   1.120  10.786 -0.0296  0.2701 -0.7878
  565TMC3    O2 8444   3.359   1.372  11.217  0.1503 -0.3378  0.3130
  566MPD2     C 8445   0.834   2.725  14.328 -0.3321 -0.2899 -0.1115
  566MPD2    C1 8446   0.937   2.753  14.239  0.6529 -0.5196 -0.9145
  566MPD2    C2 8447   0.917   2.765  14.108  0.1877  0.1096  0.1495
  566MPD2    C3 8448   0.789   2.736  14.058  0.7588  0.5701 -0.7012
  566MPD2    C4 8449   0.685   2.706  14.148 -0.3383 -0.7771  0.1535
  566MPD2    C5 8450   0.709   2.705  14.287 -0.8613 -0.0450  0.1704
  566MPD2     H 8451   0.998   2.798  14.044  0.0425  2.0408  0.9568
  566MPD2    H1 8452   0.585   2.699  14.107 -0.3808 -0.3325  0.1818
  566MPD2    H2 8453   0.853   2.700  14.432  1.3533 -0.7193 -0.5285
  566MPD2    H3 8454   0.631   2.692  14.361  0.3366 -2.3312  1.0740
  566MPD2     N 8455   0.759   2.743  13.922  0.1027  0.4676 -0.1946
  566MPD2    H5 8456   0.660   2.735  13.898 -0.4388  0.0090  2.1520
  566MPD2    N1 8457   1.062   2.771  14.302  0.3381  0.3712 -0.3395
  566MPD2    H7 8458   1.063   2.780  14.403 -2.2247 -1.6682 -0.1341
  567TMC3    C1 8459   1.285   2.830  14.331 -0.2438  0.1670  0.9026
  567TMC3    C2 8460   1.391   2.898  14.283  0.0816 -0.2994 -0.6196
  567TMC3    C3 8461   1.511   2.893  14.362  0.4622  0.3369 -0.0115
  567TMC3    C4 8462   1.304   2.743  14.440 -0.2200  0.8799 -0.0316
  567TMC3    C5 8463   1.422   2.746  14.507 -0.5447  0.7953 -0.8395
  567TMC3    C6 8464   1.524   2.830  14.480  0.3888 -0.0154 -0.3450
  567TMC3     C 8465   1.187   2.789  14.233  0.2584  0.2885  0.0992
  567TMC3     O 8466   1.221   2.779  14.114  0.3312 -0.3130 -0.3756
  567TMC3     H 8467   1.384   2.948  14.188  0.8633  1.4618  0.2524
  567TMC3    H1 8468   1.220   2.677  14.454 -0.2547  1.1190  0.8600
  567TMC3    H2 8469   1.615   2.816  14.537  0.5315  0.1720 -0.5296
  567TMC3    C7 8470   1.443   2.657  14.622  0.4478 -0.6711 -0.3612
  567TMC3    C8 8471   1.630   2.932  14.287 -0.3681  0.5588 -0.4941
  567TMC3    O1 8472   1.557   2.641  14.661  0.2627 -0.5641 -0.1757
  567TMC3    O2 8473   1.623   2.934  14.165 -0.0783 -0.6003  0.3763
  568MPD2     C 8474   3.555   2.830  16.254  0.3640  0.5364  0.4128
  568MPD2    C1 8475   3.607   2.947  16.306 -0.4485 -0.2684 -0.2885
  568MPD2    C2 8476   3.519   3.053  16.329  0.1976  0.3534 -0.7724
  568MPD2    C3 8477   3.377   3.040  16.317 -0.8554 -0.5887  0.0782
  568MPD2    C4 8478   3.329   2.912  16.278  0.3991 -0.1247  0.5611
  568MPD2    C5 8479   3.419   2.819  16.240  0.0796 -0.4122 -0.0602
  568MPD2     H 8480   3.557   3.148  16.365  0.0260 -0.4139  1.4150
  568MPD2    H1 8481   3.226   2.881  16.273 -0.4270  2.7422 -0.0536
  568MPD2    H2 8482   3.622   2.752  16.220 -0.4075 -1.2715  2.9573
  568MPD2    H3 8483   3.380   2.725  16.203 -0.7762  0.6000 -1.7333
  568MPD2     N 8484   3.296   3.141  16.364 -0.6635  0.5106  0.4450
  568MPD2    H5 8485   3.342   3.226  16.395 -1.3861  1.3162 -0.6996
  568MPD2    N1 8486   3.743   2.953  16.343  0.0501  0.0681  0.1802
  568MPD2    H7 8487   3.788   2.863  16.355  0.4291  0.3233  0.6377
  569TMC3    C1 8488   3.111   3.283  16.389 -0.0142 -0.0134 -0.1963
  569TMC3    C2 8489   3.190   3.332  16.495 -0.2526 -0.3017 -0.1927
  569TMC3    C3 8490   3.232   3.459  16.493 -0.3094 -0.5650 -0.2615
  569TMC3    C4 8491   3.069   3.365  16.290  0.1950  0.7700  0.9202
  569TMC3    C5 8492   3.098   3.501  16.301 -0.1126 -0.2048  0.4533
  569TMC3    C6 8493   3.178   3.551  16.400 -0.0134 -0.2466 -0.1264
  569TMC3     C 8494   3.155   3.152  16.350 -0.6580 -0.0371  0.9698
  569TMC3     O 8495   3.078   3.071  16.292 -0.4937 -0.4041  0.0925
  569TMC3     H 8496   3.232   3.269  16.573  1.0552 -0.4298 -0.9980
  569TMC3    H1 8497   2.999   3.333  16.214  1.6758  0.9937 -0.5373
  569TMC3    H2 8498   3.211   3.653  16.388 -0.5273 -0.0763 -0.0933
  569TMC3    C7 8499   3.056   3.586  16.183  0.7616  0.6334 -0.6636
  569TMC3    C8 8500   3.377   3.457  16.495  0.2541  0.0544  0.2259
  569TMC3    O1 8501   2.998   3.530  16.090  0.4422  0.2771  0.0854
  569TMC3    O2 8502   3.426   3.346  16.498 -0.6907  0.0311  0.0743
  570TMC3    C1 8503   3.073   2.086  16.348 -0.3090 -0.6482 -0.3418
  570TMC3    C2 8504   3.158   2.135  16.251  0.5429  0.3737 -0.5421
  570TMC3    C3 8505   3.255   2.229  16.288 -0.2789  0.1045 -0.4439
  570TMC3    C4 8506   3.064   2.143  16.469  0.1602  0.3993 -0.5482
  570TMC3    C5 8507   3.151   2.240  16.496 -0.3903  0.1007 -0.4258
  570TMC3    C6 8508   3.249   2.287  16.411 -0.6224  0.0326 -0.4036
  570TMC3     C 8509   2.977   1.982  16.314 -0.4921 -0.0785  0.3435
  570TMC3     O 8510   2.971   1.941  16.199 -0.0718 -0.3333 -0.1933
  570TMC3     H 8511   3.181   2.087  16.156 -1.2161 -1.6810  0.0718
  570TMC3    H1 8512   2.987   2.119  16.540 -0.4463  0.5345 -1.1623
  570TMC3    H2 8513   3.315   2.366  16.446  1.5780 -2.2593  0.6733
  570TMC3    C7 8514   3.135   2.311  16.622  0.4666  0.4179 -0.3914
  570TMC3    C8 8515   3.332   2.286  16.177  0.2004 -0.2035 -0.0244
  570TMC3    O1 8516   3.097   2.255  16.724 -0.0901  0.1314  0.0152
  570TMC3    O2 8517   3.301   2.260  16.060 -0.0278  0.2547 -0.0362
  571MPD2     C 8518   1.353   3.896  17.741 -0.4984 -0.3284  0.5156
  571MPD2    C1 8519   1.253   3.983  17.706  0.2618 -0.4852  0.8514
  571MPD2    C2 8520   1.225   4.087   0.043 -0.2625  0.4430 -0.0868
  571MPD2    C3 8521   1.301   4.105   0.157 -0.1343 -0.2528  0.2564
  571MPD2    C4 8522   1.400   4.010   0.188  0.4363  0.0163  0.0527
  571MPD2    C5 8523   1.420   3.903   0.108  0.4661  0.0758  0.7508
  571MPD2     H 8524   1.156   4.166   0.016  0.3502  0.6041 -1.1578
  571MPD2    H1 8525   1.468   4.024   0.272 -0.8693  0.9266  0.9560
  571MPD2    H2 8526   1.386   3.817  17.674  1.2119  0.8094  0.0175
  571MPD2    H3 8527   1.494   3.830   0.139  0.5570  1.1164  2.9742
  571MPD2     N 8528   1.274   4.213   0.245 -0.7413  0.4489 -0.3851
  571MPD2    H5 8529   1.227   4.293   0.204 -0.6511  0.5373 -0.3157
  571MPD2    N1 8530   1.181   3.955  17.590 -0.3769  0.5204  0.4952
  571MPD2    H7 8531   1.214   3.873  17.539  0.5542 -0.5571  2.8121
  572TMC3    C1 8532   1.254   4.336   0.441 -0.0119  0.5094 -0.1476
  572TMC3    C2 8533   1.244   4.323   0.576  0.3912  0.4932 -0.2613
  572TMC3    C3 8534   1.212   4.439   0.641 -0.0671  0.0745  0.5635
  572TMC3    C4 8535   1.227   4.452   0.374  0.8784 -0.0023 -0.9313
  572TMC3    C5 8536   1.204   4.571   0.446 -0.1346 -0.1410  0.3396
  572TMC3    C6 8537   1.190   4.562   0.581  0.2812 -0.3132 -0.4377
  572TMC3     C 8538   1.310   4.218   0.377 -0.2750  0.3327  0.3696
  572TMC3     O 8539   1.356   4.129   0.450  0.0053  0.4314 -0.6327
  572TMC3     H 8540   1.246   4.229   0.630  2.2556  0.2130 -0.8173
  572TMC3    H1 8541   1.261   4.476   0.274  0.3281  0.6807 -0.9535
  572TMC3    H2 8542   1.157   4.650   0.635 -2.1927 -0.9869 -0.8534
  572TMC3    C7 8543   1.161   4.688   0.373  0.4314  0.4354  0.7792
  572TMC3    C8 8544   1.134   4.420   0.767 -0.7872  0.3508 -0.5490
  572TMC3    O1 8545   1.095   4.672   0.274 -0.2781  0.0547  0.8506
  572TMC3    O2 8546   1.135   4.515   0.842  0.1049 -0.3476  0.3697
  573MPD2     C 8547   2.061   4.400   0.612  0.0849 -0.3364  0.3821
  573MPD2    C1 8548   2.180   4.436   0.667 -0.1199  0.0166  0.9839
  573MPD2    C2 8549   2.296   4.425   0.588 -0.0702 -0.4478  0.5697
  573MPD2    C3 8550   2.278   4.409   0.453 -0.3122  0.0576  0.2412
  573MPD2    C4 8551   2.161   4.365   0.400  0.2349  0.2953  0.3815
  573MPD2    C5 8552   2.057   4.365   0.483  0.1899  0.1138 -0.2063
  573MPD2     H 8553   2.395   4.449   0.623 -0.5380  1.1543  0.7716
  573MPD2    H1 8554   2.145   4.332   0.299  0.0841 -2.9007  1.4644
  573MPD2    H2 8555   1.967   4.388   0.665 -0.5779 -0.2708 -0.7817
  573MPD2    H3 8556   1.968   4.320   0.441  1.5542 -1.2606 -1.6274
  573MPD2     N 8557   2.381   4.423   0.363  0.2508 -0.5308  0.9948
  573MPD2    H5 8558   2.367   4.376   0.274  1.8658 -0.8949  0.9412
  573MPD2    N1 8559   2.184   4.473   0.809 -0.0322 -0.2892 -0.2815
  573MPD2    H7 8560   2.093   4.486   0.851 -1.3484 -0.7013 -2.9750
  574TMC3    C1 8561   2.514   4.615   0.442  0.2906 -0.5088 -0.5033
  574TMC3    C2 8562   2.405   4.684   0.481 -0.3146  0.0824 -0.2537
  574TMC3    C3 8563   2.418   0.034   0.588 -0.2368  0.2342  0.4660
  574TMC3    C4 8564   2.636   4.643   0.498  0.6386 -1.0960  0.0691
  574TMC3    C5 8565   2.647   4.732   0.605  0.1127  0.5055  0.2474
  574TMC3    C6 8566   2.537   0.070   0.640  0.2332 -0.5609  0.7251
  574TMC3     C 8567   2.504   4.490   0.364 -0.3238 -0.2174 -0.7378
  574TMC3     O 8568   2.590   4.465   0.280 -0.2645  0.2141 -0.0066
  574TMC3     H 8569   2.311   4.677   0.427 -1.0776 -1.7244  1.2870
  574TMC3    H1 8570   2.709   4.563   0.500  1.2324 -0.5809 -0.8885
  574TMC3    H2 8571   2.547   0.147   0.716 -1.0414 -1.2321  1.5651
  574TMC3    C7 8572   2.776   0.061   0.628 -0.6911 -0.3292 -0.0427
  574TMC3    C8 8573   2.298   0.089   0.653  0.1062 -0.4494 -0.1418
  574TMC3    O1 8574   2.802   0.118   0.736  0.1854  0.5341 -0.6006
  574TMC3    O2 8575   2.306   0.102   0.775  0.0110  0.0697  0.4304
  575TMC3    C1 8576   3.478   1.299  12.063  0.0617  0.0807  0.2939
  575TMC3    C2 8577   3.611   1.257  12.073  0.2811  0.8507 -0.2267
  575TMC3    C3 8578   3.674   1.225  11.952 -0.6216  0.8102  0.3137
  575TMC3    C4 8579   3.419   1.304  11.946 -0.3920 -0.3547  0.6119
  575TMC3    C5 8580   3.482   1.285  11.831 -0.9460 -0.6333 -0.4837
  575TMC3    C6 8581   3.614   1.249  11.828 -0.1898  0.0713  0.3652
  575TMC3     C 8582   3.396   1.301  12.183 -0.2843  1.3735  0.9509
  575TMC3     O 8583   3.279   1.273  12.167  0.1354 -0.1430  0.4536
  575TMC3     H 8584   3.654   1.223  12.166 -0.4666 -1.5720 -0.7520
  575TMC3    H1 8585   3.318   1.343  11.947 -0.5520 -0.7756  0.7835
  575TMC3    H2 8586   3.661   1.234  11.732  2.2108 -0.0992  1.5507
  575TMC3    C7 8587   3.416   1.280  11.701  0.4146  0.1804 -0.1860
  575TMC3    C8 8588   3.816   1.215  11.961  0.6223  0.4486  1.1639
  575TMC3    O1 8589   3.484   1.287  11.604 -0.0052  0.4614  0.4557
  575TMC3    O2 8590   3.865   1.172  12.065 -0.0911 -0.2451 -0.0868
  576MPD2     C 8591   3.619   2.109  12.847  0.1489  0.1874 -0.3162
  576MPD2    C1 8592   3.600   2.218  12.761 -0.1521  0.4058  0.5124
  576MPD2    C2 8593   3.528   2.323  12.812 -0.1173  0.3860 -0.4408
  576MPD2    C3 8594   3.477   2.326  12.944 -0.5572  0.1974  0.5658
  576MPD2    C4 8595   3.500   2.219  13.026  0.3236 -0.1016  0.1317
  576MPD2    C5 8596   3.565   2.107  12.978  0.1449 -0.1867  0.8744
  576MPD2     H 8597   3.516   2.414  12.753 -0.9139 -0.6166 -1.8285
  576MPD2    H1 8598   3.470   2.208  13.129  2.1758  1.9693  0.8819
  576MPD2    H2 8599   3.665   2.018  12.810 -1.8489 -1.0160  0.1366
  576MPD2    H3 8600   3.571   2.024  13.048 -0.4885 -2.5135 -1.8468
  576MPD2     N 8601   3.437   2.453  12.994  0.4497  0.1860  0.3844
  576MPD2    H5 8602   3.457   2.531  12.933 -1.6646 -0.7635 -1.5647
  576MPD2    N1 8603   3.652   2.219  12.625 -0.0910  0.1684  0.0718
  576MPD2    H7 8604   3.613   2.290  12.564  1.8068  1.0619 -0.1087
  577TMC3    C1 8605   3.773   2.135  12.447  0.6100  0.3455 -0.5777
  577TMC3    C2 8606   3.832   2.019  12.400  0.2384 -0.2237 -0.7572
  577TMC3    C3 8607   3.842   2.006  12.263  0.4338 -0.6888  0.1388
  577TMC3    C4 8608   3.719   2.226  12.363  0.2787  0.3416  0.4807
  577TMC3    C5 8609   3.732   2.205  12.231  0.4441 -0.1049 -0.0288
  577TMC3    C6 8610   3.792   2.095  12.180 -0.0079  0.3726 -0.2085
  577TMC3     C 8611   3.763   2.145  12.594  0.0100 -0.9310  0.0724
  577TMC3     O 8612   3.844   2.095  12.668 -0.2775 -0.3719  0.2782
  577TMC3     H 8613   3.871   1.945  12.470 -1.9585  2.1867  3.0133
  577TMC3    H1 8614   3.674   2.315  12.406  0.4924 -0.3663  2.1705
  577TMC3    H2 8615   3.782   2.064  12.076 -0.1914 -0.1472 -0.0336
  577TMC3    C7 8616   3.634   2.275  12.148  0.6267  0.1801  0.4473
  577TMC3    C8 8617   3.937   1.906  12.214 -0.6715  0.0647  0.3672
  577TMC3    O1 8618   3.531   2.326  12.193  0.0855  0.4713  0.0419
  577TMC3    O2 8619   3.974   1.825  12.295 -0.3164  0.2000 -0.5762
  578MPD2     C 8620   2.258   2.223   1.264 -0.4721  0.2859  0.0723
  578MPD2    C1 8621   2.328   2.145   1.183  1.0989  0.0320  1.1636
  578MPD2    C2 8622   2.389   2.036   1.233  0.7090  0.0160  0.8026
  578MPD2    C3 8623   2.390   2.006   1.369 -0.6540  0.1492  0.0811
  578MPD2    C4 8624   2.325   2.088   1.450 -0.6791  1.6086  0.7821
  578MPD2    C5 8625   2.260   2.197   1.395  0.8467  0.5147  0.7327
  578MPD2     H 8626   2.440   1.962   1.172  0.7119 -0.2909  1.1786
  578MPD2    H1 8627   2.321   2.088   1.558 -0.6239  0.7392  0.7888
  578MPD2    H2 8628   2.204   2.313   1.237  0.6499  0.2608 -2.2622
  578MPD2    H3 8629   2.211   2.270   1.459 -1.5823 -0.8312  0.4282
  578MPD2     N 8630   2.463   1.889   1.402  0.3797  0.0617  0.6746
  578MPD2    H5 8631   2.506   1.829   1.332 -0.2895 -0.8588  1.0496
  578MPD2    N1 8632   2.332   2.177   1.040  0.2696  0.0759  0.9072
  578MPD2    H7 8633   2.286   2.265   1.018  1.7240  0.7849  0.7098
  579TMC3    C1 8634   2.569   1.727   1.530 -0.0315 -0.7795 -0.6266
  579TMC3    C2 8635   2.648   1.731   1.642 -0.1106  0.3139 -0.3358
  579TMC3    C3 8636   2.770   1.672   1.636  0.3812 -0.6393  0.2314
  579TMC3    C4 8637   2.619   1.678   1.417 -0.0492 -0.1444 -0.8173
  579TMC3    C5 8638   2.736   1.621   1.418  0.2240 -0.0369 -0.2257
  579TMC3    C6 8639   2.818   1.620   1.525  0.2623 -0.2803  0.1147
  579TMC3     C 8640   2.471   1.841   1.526  0.1494  0.1658 -0.4301
  579TMC3     O 8641   2.433   1.883   1.637  0.4455 -0.2630 -0.3297
  579TMC3     H 8642   2.615   1.784   1.730 -0.3798  1.2905 -1.0194
  579TMC3    H1 8643   2.557   1.666   1.329 -0.6649 -1.6623 -0.1818
  579TMC3    H2 8644   2.905   1.555   1.530  0.9666  0.6118 -0.6093
  579TMC3    C7 8645   2.770   1.535   1.303 -0.0713 -0.4990  0.1860
  579TMC3    C8 8646   2.863   1.720   1.734  0.4904  0.9932  0.2738
  579TMC3    O1 8647   2.862   1.460   1.329 -0.0928 -0.1883  0.1138
  579TMC3    O2 8648   2.814   1.753   1.841  0.1277 -0.0862 -0.8754
  580TMC3    C1 8649   1.178   1.447  12.542  0.7945  0.1846 -0.2740
  580TMC3    C2 8650   1.272   1.493  12.628 -0.2913 -0.1867  0.5955
  580TMC3    C3 8651   1.351   1.401  12.693  0.7796 -0.3021  0.1688
  580TMC3    C4 8652   1.165   1.321  12.513  0.2450 -0.1675  0.9063
  580TMC3    C5 8653   1.254   1.236  12.572 -0.2735 -0.0203 -0.9978
  580TMC3    C6 8654   1.347   1.274  12.668 -0.5776  0.2075 -0.1654
  580TMC3     C 8655   1.157   1.545  12.437 -0.1458  1.0045 -0.7561
  580TMC3     O 8656   1.247   1.625  12.429  0.6786 -0.8274 -0.0071
  580TMC3     H 8657   1.291   1.598  12.643  1.0352 -0.1722 -1.1902
  580TMC3    H1 8658   1.114   1.297  12.421  1.1484  1.6205 -0.0529
  580TMC3    H2 8659   1.415   1.205  12.717  0.5903  0.7495 -1.0218
  580TMC3    C7 8660   1.252   1.103  12.522  0.5204  0.2273  0.5871
  580TMC3    C8 8661   1.489   1.442  12.685 -0.7243 -0.2296  0.1583
  580TMC3    O1 8662   1.167   1.079  12.435 -0.1232 -0.3538  0.1099
  580TMC3    O2 8663   1.569   1.390  12.763  0.2129  0.4890 -0.3978
  581MPD2     C 8664   4.729   1.400  15.271 -0.2679 -0.1547 -0.0755
  581MPD2    C1 8665   4.698   1.290  15.190 -0.2806  0.2296  0.0853
  581MPD2    C2 8666   4.590   1.291  15.105  0.5335 -0.2000  0.3294
  581MPD2    C3 8667   4.528   1.414  15.083 -0.0896 -0.1327  0.0240
  581MPD2    C4 8668   4.567   1.522  15.161 -0.3260 -0.6359  0.4054
  581MPD2    C5 8669   4.662   1.520  15.257  0.4233 -0.0498  0.8990
  581MPD2     H 8670   4.571   1.205  15.041  1.1640  0.4270 -0.6896
  581MPD2    H1 8671   4.521   1.619  15.142 -0.8877 -0.9914 -0.0569
  581MPD2    H2 8672   0.081   1.404  15.331  1.5214 -3.4507 -2.5965
  581MPD2    H3 8673   4.678   1.614  15.308 -0.4826 -0.1812  1.4284
  581MPD2     N 8674   4.427   1.457  14.990  0.1062  0.0304  0.2770
  581MPD2    H5 8675   4.411   1.557  14.987  0.1667  0.0688  1.1821
  581MPD2    N1 8676   0.042   1.177  15.201  0.0930 -0.0860  0.7073
  581MPD2    H7 8677   0.119   1.181  15.266 -0.0711  1.1402  0.8313
  582TMC3    C1 8678   0.100   0.957  15.228 -0.1288  0.7187  0.4754
  582TMC3    C2 8679   0.111   0.974  15.360 -0.2906  0.2096  0.0294
  582TMC3    C3 8680   0.151   0.872  15.436 -0.0372 -0.9226  0.4210
  582TMC3    C4 8681   0.120   0.836  15.168  0.0321 -0.4207  0.6363
  582TMC3    C5 8682   0.155   0.727  15.239  0.2678  0.1155 -0.5477
  582TMC3    C6 8683   0.172   0.746  15.382 -1.0573 -0.2495  0.8101
  582TMC3     C 8684   0.014   1.049  15.162  0.1695  0.4633  0.2970
  582TMC3     O 8685   4.678   0.990  15.090 -0.1008 -0.4382  0.1288
  582TMC3     H 8686   0.081   1.064  15.411  1.2000  0.5079  0.3912
  582TMC3    H1 8687   0.105   0.840  15.060  3.0586 -1.0093  0.2089
  582TMC3    H2 8688   0.180   0.659  15.447  0.6157 -1.1251 -0.5627
  582TMC3    C7 8689   0.053   0.624  15.219  1.1829 -0.0229  0.7264
  582TMC3    C8 8690   0.186   0.896  15.571  0.2492  0.4980 -0.4195
  582TMC3    O1 8691   0.058   0.518  15.284  0.0268  0.1372  0.3464
  582TMC3    O2 8692   0.130   0.985  15.631 -0.2571 -0.6122 -0.2337
  583MPD2     C 8693   4.594   2.609  16.701 -0.2531  0.2909 -0.1145
  583MPD2    C1 8694   4.569   2.738  16.679 -0.0109  0.2623  0.3589
  583MPD2    C2 8695   4.531   2.818  16.780  0.6301 -0.0569  0.4037
  583MPD2    C3 8696   4.534   2.759  16.906 -0.1358 -0.0851 -0.1804
  583MPD2    C4 8697   4.562   2.626  16.936  0.4992  0.0070  0.4741
  583MPD2    C5 8698   4.578   2.551  16.823 -0.0134  0.0374 -0.0183
  583MPD2     H 8699   4.487   2.915  16.761 -1.6713 -1.3530 -0.8200
  583MPD2    H1 8700   4.550   2.573  17.030 -1.5920  1.0740  0.8182
  583MPD2    H2 8701   4.615   2.551  16.612  0.4907 -0.2096  0.3777
  583MPD2    H3 8702   4.577   2.443  16.831  1.2559 -0.0425 -1.0016
  583MPD2     N 8703   4.495   2.847  17.012  0.0163  0.0200  0.1997
  583MPD2    H5 8704   4.473   2.942  16.986  0.0924 -0.2623 -0.9089
  583MPD2    N1 8705   4.570   2.800  16.555 -0.1482  0.1783  0.1383
  583MPD2    H7 8706   4.526   2.890  16.539 -1.1387 -0.5990 -1.5688
  584TMC3    C1 8707   4.425   2.915  17.237 -0.2727  0.3457  0.0149
  584TMC3    C2 8708   4.397   3.038  17.180 -0.3398 -0.4182  0.1586
  584TMC3    C3 8709   4.408   3.143  17.266  0.5887 -0.0060 -0.1528
  584TMC3    C4 8710   4.442   2.894  17.370  0.4856  0.6167 -0.4013
  584TMC3    C5 8711   4.443   2.995  17.451  0.2185 -0.8407 -0.2735
  584TMC3    C6 8712   4.431   3.124  17.403 -0.1610 -0.4025 -0.5432
  584TMC3     C 8713   4.474   2.806  17.147 -0.4010 -0.4453  0.1850
  584TMC3     O 8714   4.484   2.700  17.207 -0.1137 -0.2705 -0.2768
  584TMC3     H 8715   4.393   3.059  17.074 -2.9878 -0.1865  0.3083
  584TMC3    H1 8716   4.478   2.803  17.417 -2.7431  0.0987  1.1041
  584TMC3    H2 8717   4.457   3.211  17.462 -0.9639 -0.0451 -0.7138
  584TMC3    C7 8718   4.434   2.977  17.593  0.3253 -0.3155 -0.4112
  584TMC3    C8 8719   4.456   3.266  17.207  0.0633  0.0796 -0.2863
  584TMC3    O1 8720   4.482   2.886  17.655 -0.0661  0.1506 -0.5663
  584TMC3    O2 8721   4.511   3.263  17.103 -0.6380 -0.3374 -0.7511
  585MPD2     C 8722   3.547   1.897   0.580 -0.3387  0.4448  0.1158
  585MPD2    C1 8723   3.604   1.974   0.477 -0.5746  0.6591 -0.0536
  585MPD2    C2 8724   3.673   1.909   0.377 -0.2751 -0.1710  0.2130
  585MPD2    C3 8725   3.677   1.767   0.378 -0.4470  0.0378  0.0660
  585MPD2    C4 8726   3.618   1.695   0.477  0.0125 -0.6616 -0.5235
  585MPD2    C5 8727   3.553   1.762   0.579  0.5857  0.5271  0.1945
  585MPD2     H 8728   3.711   1.965   0.292  1.0380  0.6047  1.3078
  585MPD2    H1 8729   3.622   1.587   0.467  0.8719 -0.4615 -2.3737
  585MPD2    H2 8730   3.487   1.943   0.658 -0.7857  0.7824 -0.4224
  585MPD2    H3 8731   3.512   1.701   0.658  1.6433  1.9012  1.8056
  585MPD2     N 8732   3.742   1.684   0.274  0.2517  0.2452 -0.1835
  585MPD2    H5 8733   3.725   1.584   0.281 -0.0075  0.6674  5.3330
  585MPD2    N1 8734   3.599   2.112   0.474 -0.0620  0.4112 -0.1622
  585MPD2    H7 8735   3.645   2.152   0.392 -0.1179  0.1681 -0.3100
  586TMC3    C1 8736   3.826   1.639   0.067  0.5645  0.7429  0.3163
  586TMC3    C2 8737   3.923   1.679  17.731 -0.1663  0.1452  0.0093
  586TMC3    C3 8738   3.952   1.589  17.633  0.3557  0.6510  0.2174
  586TMC3    C4 8739   3.748   1.526   0.055  0.0432 -0.2698  0.1741
  586TMC3    C5 8740   3.778   1.445  17.699  0.2721  0.3778 -0.3652
  586TMC3    C6 8741   3.881   1.475  17.616 -0.3652 -0.0477 -0.1566
  586TMC3     C 8742   3.800   1.737   0.165 -0.0738  0.3346  0.2858
  586TMC3     O 8743   3.842   1.853   0.157  0.0299  0.4823 -0.1575
  586TMC3     H 8744   3.975   1.773  17.735  0.4769 -0.1784 -0.8665
  586TMC3    H1 8745   3.667   1.505   0.123 -2.4927 -1.5587 -3.2070
  586TMC3    H2 8746   3.902   1.415  17.528 -0.5307 -0.4635  0.0873
  586TMC3    C7 8747   3.668   1.354  17.665 -0.3190 -0.1325  0.4547
  586TMC3    C8 8748   4.036   1.636  17.524 -0.2280 -0.2594 -0.6407
  586TMC3    O1 8749   3.600   1.310   0.003 -0.1197 -0.8913  0.0639
  586TMC3    O2 8750   4.047   1.758  17.514  0.2991  0.9154 -0.0130
  587TMC3    C1 8751   1.249   0.195  16.319  0.4495  0.3413  0.1171
  587TMC3    C2 8752   1.304   0.285  16.405  0.3345  0.2574 -0.0344
  587TMC3    C3 8753   1.428   0.258  16.469 -0.4454  0.0119 -0.2683
  587TMC3    C4 8754   1.317   0.078  16.292 -0.2287  0.5261  0.2059
  587TMC3    C5 8755   1.443   0.056  16.353  0.1737 -0.0889 -0.4992
  587TMC3    C6 8756   1.501   0.140  16.447  0.4325  0.1979 -0.2499
  587TMC3     C 8757   1.119   0.222  16.266  1.0212  0.4100  0.2799
  587TMC3     O 8758   1.047   0.289  16.341  0.0350  0.0524  0.0865
  587TMC3     H 8759   1.232   0.357  16.443  0.7110  0.4582  0.2971
  587TMC3    H1 8760   1.276   0.004  16.224 -1.7091 -0.5896  2.2874
  587TMC3    H2 8761   1.603   0.120  16.480  0.5434  1.1261 -0.0438
  587TMC3    C7 8762   1.512   4.659  16.352  0.4513  0.0188  0.4892
  587TMC3    C8 8763   1.474   0.334  16.580  0.4587  0.3278 -0.3555
  587TMC3    O1 8764   1.632   4.660  16.349  0.4260 -0.1118 -0.5154
  587TMC3    O2 8765   1.563   0.290  16.652 -0.0902 -0.1215  0.0494
  588TMC3    C1 8766   3.520   3.254   9.797  0.8747 -0.2264  0.1583
  588TMC3    C2 8767   3.504   3.129   9.751  0.4212  0.0008  0.2864
  588TMC3    C3 8768   3.624   3.056   9.746  0.5666  0.4707  0.2696
  588TMC3    C4 8769   3.642   3.310   9.830  0.1761  0.0580  0.5489
  588TMC3    C5 8770   3.756   3.235   9.809 -0.8786 -0.4317 -0.3055
  588TMC3    C6 8771   3.747   3.109   9.775  0.0061  0.3918 -0.2480
  588TMC3     C 8772   3.407   3.337   9.818 -0.2387 -0.3471  0.6369
  588TMC3     O 8773   3.294   3.323   9.773  0.2580  0.1369 -0.3084
  588TMC3     H 8774   3.404   3.086   9.748  0.2628  0.4459 -0.6564
  588TMC3    H1 8775   3.660   3.416   9.841  1.1315 -0.2437  1.8688
  588TMC3    H2 8776   3.834   3.044   9.772  0.8318  1.3873  2.4175
  588TMC3    C7 8777   3.880   3.284   9.869  0.4305 -0.2850  0.7616
  588TMC3    C8 8778   3.609   2.914   9.734  0.1883 -0.1157  0.2682
  588TMC3    O1 8779   3.983   3.261   9.807 -0.2694  0.4535  0.1829
  588TMC3    O2 8780   3.702   2.848   9.694 -0.2346 -0.2696 -0.1769
  589TMC3    C1 8781   3.223   0.468   1.081 -0.0537 -1.2041 -0.1015
  589TMC3    C2 8782   3.316   0.550   1.130 -0.8794  0.1608 -0.2176
  589TMC3    C3 8783   3.450   0.536   1.089  0.7876  1.0119  0.2016
  589TMC3    C4 8784   3.252   0.384   0.978  0.0592  0.2788 -0.2330
  589TMC3    C5 8785   3.386   0.375   0.931 -0.7057  0.2832 -0.3955
  589TMC3    C6 8786   3.487   0.438   0.994  0.0529 -0.9485 -0.6188
  589TMC3     C 8787   3.084   0.476   1.117  0.0696  0.3201  0.3027
  589TMC3     O 8788   2.998   0.459   1.031 -0.0613  0.1271 -0.0547
  589TMC3     H 8789   3.285   0.625   1.202 -1.0249  1.5799 -1.7508
  589TMC3    H1 8790   3.181   0.320   0.927  1.2444  1.1091 -2.9132
  589TMC3    H2 8791   3.585   0.392   0.990  0.4161 -0.3966  1.5712
  589TMC3    C7 8792   3.401   0.250   0.857 -1.0258  0.2090  0.2039
  589TMC3    C8 8793   3.547   0.617   1.163 -0.0495  0.0181 -0.2546
  589TMC3    O1 8794   3.328   0.153   0.865  0.6743  0.1695 -0.2142
  589TMC3    O2 8795   3.511   0.705   1.238 -0.3783 -0.1199 -0.8270
  590MPD2     C 8796   2.053   3.712  17.025 -0.3057 -0.1213  0.2224
  590MPD2    C1 8797   2.022   3.790  16.910  0.6812 -0.4189  0.4743
  590MPD2    C2 8798   2.126   3.842  16.832  0.5096  0.3297 -0.0762
  590MPD2    C3 8799   2.256   3.808  16.861 -0.1548 -0.3200 -0.3582
  590MPD2    C4 8800   2.285   3.733  16.974  0.1677  0.0091  0.2396
  590MPD2    C5 8801   2.185   3.683  17.052  0.1315  0.4602  0.1005
  590MPD2     H 8802   2.106   3.903  16.745  0.7626 -1.7012 -1.5570
  590MPD2    H1 8803   2.385   3.701  17.000  0.1161 -0.3959 -0.0709
  590MPD2    H2 8804   1.974   3.679  17.091  1.6285  0.3502  2.7904
  590MPD2    H3 8805   2.200   3.618  17.137  0.3010  0.7600  0.3029
  590MPD2     N 8806   2.349   3.854  16.763 -0.3544  0.3935  0.0127
  590MPD2    H5 8807   2.315   3.905  16.682  1.1423 -0.9522 -1.4623
  590MPD2    N1 8808   1.885   3.820  16.885  0.0482 -0.3750  0.1378
  590MPD2    H7 8809   1.821   3.808  16.963 -2.1618  1.3592 -1.4272
  591TMC3    C1 8810   2.542   3.888  16.644  0.0807 -0.3046  0.1567
  591TMC3    C2 8811   2.585   3.815  16.543  0.0171  0.6783 -0.2920
  591TMC3    C3 8812   2.655   3.893  16.450 -0.0398  0.6145  0.7428
  591TMC3    C4 8813   2.541   4.028  16.651 -0.2781 -0.4105 -0.0474
  591TMC3    C5 8814   2.607   4.098  16.553 -0.1933  0.3833 -0.0964
  591TMC3    C6 8815   2.679   4.024  16.455 -0.2804  0.5589 -0.1768
  591TMC3     C 8816   2.484   3.822  16.762 -0.4186  0.5661 -0.3144
  591TMC3     O 8817   2.553   3.738  16.827  0.1668  0.4491  0.8282
  591TMC3     H 8818   2.558   3.710  16.533  0.6779  0.4456  0.2922
  591TMC3    H1 8819   2.485   4.076  16.730  1.4980  2.6055 -0.6033
  591TMC3    H2 8820   2.757   4.070  16.396 -0.5836  0.7073 -0.4658
  591TMC3    C7 8821   2.672   4.219  16.607 -0.2038  0.9782 -0.7221
  591TMC3    C8 8822   2.709   3.826  16.334 -0.5631 -0.0836  0.4697
  591TMC3    O1 8823   2.674   4.216  16.727 -0.1466  0.3639  0.0832
  591TMC3    O2 8824   2.765   3.719  16.352 -0.4004 -0.5648  0.6850
  592MPD2     C 8825   2.015   1.376  11.934  0.0814  0.6451 -0.3240
  592MPD2    C1 8826   2.045   1.337  12.064  0.5074 -0.7562 -0.4477
  592MPD2    C2 8827   2.000   1.212  12.106 -0.7476 -0.7111 -0.3079
  592MPD2    C3 8828   1.928   1.129  12.027 -0.3731 -0.4949  0.3590
  592MPD2    C4 8829   1.901   1.174  11.899 -0.1614  0.0884  0.2405
  592MPD2    C5 8830   1.949   1.292  11.846  0.4223  0.7110 -0.0248
  592MPD2     H 8831   2.023   1.174  12.205  1.6553  2.2314  0.2801
  592MPD2    H1 8832   1.852   1.105  11.832 -0.6602 -0.2734  0.9804
  592MPD2    H2 8833   2.047   1.470  11.892 -2.0513  0.9415 -1.2858
  592MPD2    H3 8834   1.920   1.334  11.750 -0.6659  0.5591  0.2289
  592MPD2     N 8835   1.888   1.007  12.080 -0.2197 -0.1341 -0.2915
  592MPD2    H5 8836   1.900   0.991  12.180  0.1857  0.6640 -0.2116
  592MPD2    N1 8837   2.117   1.428  12.141  0.3574  0.0719 -0.2815
  592MPD2    H7 8838   2.160   1.509  12.097  1.9684 -0.1935  0.7850
  593TMC3    C1 8839   2.241   1.522  12.315 -0.2451 -0.8277 -0.4436
  593TMC3    C2 8840   2.327   1.498  12.415 -0.3572 -0.4793 -0.1768
  593TMC3    C3 8841   2.443   1.576  12.411  0.3711 -0.5801 -0.5722
  593TMC3    C4 8842   2.259   1.627  12.225 -0.2266  0.3144 -0.0079
  593TMC3    C5 8843   2.368   1.705  12.236 -0.6119 -0.4671  0.2582
  593TMC3    C6 8844   2.465   1.684  12.328  0.9372 -0.0945 -0.0753
  593TMC3     C 8845   2.156   1.410  12.272 -0.3828  0.2104  1.2707
  593TMC3     O 8846   2.144   1.315  12.348 -0.1025  0.1289 -0.3267
  593TMC3     H 8847   2.321   1.402  12.465 -0.1678 -0.2099  0.3638
  593TMC3    H1 8848   2.186   1.665  12.154 -1.2840 -3.2802 -0.8676
  593TMC3    H2 8849   2.554   1.742  12.345  0.6411  0.8921 -1.8818
  593TMC3    C7 8850   2.403   1.806  12.138  0.3933 -0.2926  0.1952
  593TMC3    C8 8851   2.554   1.518  12.490  0.4071 -0.0023 -0.0937
  593TMC3    O1 8852   2.307   1.840  12.068  0.1170  0.2279 -0.2216
  593TMC3    O2 8853   2.526   1.442  12.577  1.3122 -0.2219  0.2464
  594MPD2     C 8854   1.711   4.195  14.889 -0.3297 -0.0023  0.0828
  594MPD2    C1 8855   1.671   4.246  14.774 -0.6226 -0.4242  0.4060
  594MPD2    C2 8856   1.729   4.368  14.729 -0.2538  0.0168 -0.3409
  594MPD2    C3 8857   1.836   4.422  14.797  0.3902  0.1037 -0.2719
  594MPD2    C4 8858   1.892   4.353  14.897 -0.1558  0.4753 -0.1637
  594MPD2    C5 8859   1.820   4.246  14.951 -0.4442 -0.4919  0.3678
  594MPD2     H 8860   1.682   4.427  14.651  1.1841  1.0668 -0.4025
  594MPD2    H1 8861   1.978   4.389  14.951 -0.6266 -1.4805  1.8918
  594MPD2    H2 8862   1.673   4.102  14.931 -3.0636  0.6326 -0.9845
  594MPD2    H3 8863   1.859   4.201  15.041 -1.2532 -1.3430  0.2941
  594MPD2     N 8864   1.898   4.544  14.748  0.0608 -0.0495 -0.1700
  594MPD2    H5 8865   1.850   4.599  14.677 -0.4633  0.5095  0.6166
  594MPD2    N1 8866   1.555   4.186  14.716 -0.3444  0.4649  0.1336
  594MPD2    H7 8867   1.533   4.095  14.756  2.3342 -0.4000 -0.4043
  595TMC3    C1 8868   2.252   0.116  14.700  0.7618  0.0828 -0.1545
  595TMC3    C2 8869   2.207   4.730  14.695 -0.7119  0.7448  0.9510
  595TMC3    C3 8870   2.071   4.712  14.716  0.0858  0.3474  0.1044
  595TMC3    C4 8871   2.176   0.226  14.733 -0.4130  0.6490  1.1198
  595TMC3    C5 8872   2.049   0.204  14.753  0.3204 -0.4400  0.2098
  595TMC3    C6 8873   1.987   0.082  14.734 -0.5898  0.1901  0.3744
  595TMC3     C 8874   2.394   0.140  14.692  0.6291 -0.1035  0.1869
  595TMC3     O 8875   2.441   0.228  14.766  0.2027 -0.6944 -0.2294
  595TMC3     H 8876   2.274   4.649  14.667 -2.1036 -1.3071  3.5404
  595TMC3    H1 8877   2.218   0.322  14.762 -0.0722  0.5856  0.8341
  595TMC3    H2 8878   1.882   0.059  14.749  0.4531 -3.7776  1.3878
  595TMC3    C7 8879   1.958   0.319  14.786  0.4053  0.2031  0.1989
  595TMC3    C8 8880   2.023   4.586  14.781 -0.2737 -0.4435 -0.8044
  595TMC3    O1 8881   1.845   0.283  14.789 -0.3234 -0.1356 -0.0709
  595TMC3    O2 8882   2.107   4.536  14.848  0.4613 -0.4353 -0.1458
  596MPD2     C 8883   0.550   2.648  16.862 -0.9187  0.2786 -0.1483
  596MPD2    C1 8884   0.587   2.769  16.803  0.4357 -0.5413  1.3813
  596MPD2    C2 8885   0.646   2.762  16.675 -0.5631 -0.0748  0.4761
  596MPD2    C3 8886   0.660   2.642  16.606  0.8888 -0.5305 -0.9203
  596MPD2    C4 8887   0.629   2.527  16.678  0.2345 -0.6247  0.6710
  596MPD2    C5 8888   0.573   2.529  16.800 -0.4388  0.5850  0.8152
  596MPD2     H 8889   0.676   2.858  16.635  0.0763  0.5151  2.3657
  596MPD2    H1 8890   0.645   2.429  16.635 -1.2438 -1.4393  1.9885
  596MPD2    H2 8891   0.494   2.655  16.954  1.1208 -2.0159  1.2611
  596MPD2    H3 8892   0.543   2.438  16.850 -1.1030  1.2232  1.5714
  596MPD2     N 8893   0.680   2.627  16.467 -0.5347  0.2423 -0.1829
  596MPD2    H5 8894   0.682   2.539  16.417  1.8073  0.1279  0.1076
  596MPD2    N1 8895   0.559   2.891  16.863  0.2763 -0.2035  0.3998
  596MPD2    H7 8896   0.578   2.973  16.806  0.3963 -1.1979 -0.9872
  597TMC3    C1 8897   0.492   3.042  17.031 -0.8020 -0.5357  0.1632
  597TMC3    C2 8898   0.458   3.136  16.929 -0.1276  0.0567 -0.0973
  597TMC3    C3 8899   0.383   3.240  16.962  0.3788 -0.4108 -0.0868
  597TMC3    C4 8900   0.456   3.064  17.166 -0.0393 -0.5053  0.5360
  597TMC3    C5 8901   0.382   3.177  17.193 -0.0032  0.0145 -0.2013
  597TMC3    C6 8902   0.333   3.255  17.090  0.1538 -0.0305  0.1413
  597TMC3     C 8903   0.520   2.906  16.994  0.0395 -0.6333  0.3207
  597TMC3     O 8904   0.518   2.823  17.084 -0.0140 -0.6341  0.0281
  597TMC3     H 8905   0.465   3.118  16.822  2.3042  0.8535 -0.0531
  597TMC3    H1 8906   0.494   3.006  17.249  0.1478  1.5416  1.8648
  597TMC3    H2 8907   0.255   3.326  17.115 -0.4926 -0.6116 -0.2099
  597TMC3    C7 8908   0.324   3.177  17.327 -0.2653  0.7070  0.7540
  597TMC3    C8 8909   0.343   3.341  16.859 -0.7404 -0.6968  0.0904
  597TMC3    O1 8910   0.350   3.092  17.411  0.2135  0.1870  0.0864
  597TMC3    O2 8911   0.384   3.320  16.744  0.3615  0.0499  0.1517
  598TMC3    C1 8912   3.325   4.012  15.378  0.2993 -0.2168  1.1833
  598TMC3    C2 8913   3.219   3.952  15.321 -0.4646  0.3489 -0.8729
  598TMC3    C3 8914   3.219   3.907  15.187  0.7625 -0.2274  0.0224
  598TMC3    C4 8915   3.438   4.024  15.304  0.1813 -0.1315 -0.1759
  598TMC3    C5 8916   3.437   3.975  15.173 -0.1905  0.2623 -0.3689
  598TMC3    C6 8917   3.326   3.922  15.113  0.0623 -1.2045 -1.0149
  598TMC3     C 8918   3.315   4.034  15.519 -0.0179  0.3050  0.4215
  598TMC3     O 8919   3.203   4.029  15.562  0.1119 -0.7078  0.0396
  598TMC3     H 8920   3.130   3.932  15.380  1.0695 -0.2182  1.2723
  598TMC3    H1 8921   3.521   4.071  15.355 -0.9263  0.1278  1.3782
  598TMC3    H2 8922   3.325   3.904  15.006 -0.7707 -2.3772 -0.8131
  598TMC3    C7 8923   3.550   4.006  15.085  0.0461 -0.5178 -0.0256
  598TMC3    C8 8924   3.098   3.843  15.135 -0.0171  0.4677 -0.0766
  598TMC3    O1 8925   3.550   3.945  14.979  0.4988 -0.0999 -0.5549
  598TMC3    O2 8926   2.993   3.888  15.178  0.0935 -0.0579  0.2657
  599MPD2     C 8927   3.960   1.684  15.665 -0.6996 -0.5266 -0.0085
  599MPD2    C1 8928   3.895   1.569  15.707  0.0287  0.9140 -0.3927
  599MPD2    C2 8929   3.768   1.572  15.769  0.2439  0.4787  0.3883
  599MPD2    C3 8930   3.718   1.690  15.825  0.4702  0.2474 -1.2105
  599MPD2    C4 8931   3.793   1.806  15.797 -0.5100  0.0516 -0.6327
  599MPD2    C5 8932   3.906   1.802  15.713 -0.7178  0.0354  0.2112
  599MPD2     H 8933   3.704   1.486  15.786 -0.0257  0.1593 -2.3186
  599MPD2    H1 8934   3.763   1.902  15.837  2.8363 -0.0374  2.1216
  599MPD2    H2 8935   4.051   1.682  15.606 -0.3076 -0.9984  0.6074
  599MPD2    H3 8936   3.962   1.890  15.685 -1.8107  0.7256  0.1625
  599MPD2     N 8937   3.610   1.705  15.910 -0.8264 -0.0955 -1.0539
  599MPD2    H5 8938   3.595   1.801  15.939  0.3434  0.5157 -2.4593
  599MPD2    N1 8939   3.963   1.452  15.677  0.0556 -0.0680  0.5368
  599MPD2    H7 8940   4.061   1.447  15.650 -0.0317  0.2521  0.1584
  600TMC3    C1 8941   3.411   1.660  16.023 -0.7204 -0.7511  0.3405
  600TMC3    C2 8942   3.294   1.589  16.018  0.4121  0.9729 -0.2060
  600TMC3    C3 8943   3.216   1.589  16.130 -0.3561 -0.0780 -0.0125
  600TMC3    C4 8944   3.455   1.727  16.135  0.4554  0.3875 -0.3774
  600TMC3    C5 8945   3.369   1.734  16.242  0.8587  0.2443  0.3400
  600TMC3    C6 8946   3.246   1.665  16.242 -0.0460 -0.1444  0.4113
  600TMC3     C 8947   3.509   1.612  15.934 -0.4165 -0.3996 -0.0321
  600TMC3     O 8948   3.499   1.504  15.883  0.2734  0.3543  0.3746
  600TMC3     H 8949   3.277   1.530  15.929  2.9954  0.2874 -0.2324
  600TMC3    H1 8950   3.561   1.745  16.153  0.3407 -0.2309  0.9084
  600TMC3    H2 8951   3.184   1.664  16.331 -1.0226  0.0229 -0.2610
  600TMC3    C7 8952   3.378   1.833  16.341  0.3966  0.0394  0.5795
  600TMC3    C8 8953   3.137   1.475  16.166 -0.1820  0.0007  0.2138
  600TMC3    O1 8954   3.294   1.829  16.426 -0.0516 -0.0822  0.1184
  600TMC3    O2 8955   3.154   1.434  16.278  0.0329 -0.6493  0.5525
  601MPD2     C 8956   1.198   0.458   0.304 -0.2314 -0.1246 -0.0174
  601MPD2    C1 8957   1.143   0.362   0.225  0.1118  0.2074  0.3894
  601MPD2    C2 8958   1.148   0.230   0.263  0.3785 -0.3744  0.0132
  601MPD2    C3 8959   1.206   0.198   0.385 -0.0345  0.4506  0.5125
  601MPD2    C4 8960   1.259   0.294   0.459  0.1375  0.7543 -0.4940
  601MPD2    C5 8961   1.253   0.427   0.426 -0.0622 -0.4017  0.4289
  601MPD2     H 8962   1.098   0.153   0.205  1.1731 -0.7008 -0.2410
  601MPD2    H1 8963   1.317   0.273   0.548  1.1276 -0.9407 -1.5448
  601MPD2    H2 8964   1.193   0.563   0.276 -1.0436  0.1074  0.9942
  601MPD2    H3 8965   1.294   0.508   0.485 -1.6986  1.2931 -0.7659
  601MPD2     N 8966   1.203   0.067   0.436  0.0750  0.2504 -0.0299
  601MPD2    H5 8967   1.246   0.044   0.525  1.1978 -0.7683 -0.8410
  601MPD2    N1 8968   1.079   0.393   0.102  0.1526 -0.3705 -0.5819
  601MPD2    H7 8969   1.059   0.316   0.039 -0.8159 -0.4470 -0.1853
  602TMC3    C1 8970   0.967   0.505  17.685 -0.4138 -0.5848  0.8542
  602TMC3    C2 8971   0.832   0.536  17.681 -0.0309 -0.5813  0.3757
  602TMC3    C3 8972   0.771   0.521  17.558 -0.2152 -0.7419  0.6807
  602TMC3    C4 8973   1.046   0.473  17.580  0.2636  0.0492  0.1902
  602TMC3    C5 8974   0.981   0.479  17.459 -0.6716  0.3855 -0.5065
  602TMC3    C6 8975   0.846   0.505  17.447  0.1015  0.0674 -0.4015
  602TMC3     C 8976   1.027   0.518   0.060 -0.6448  0.2478 -0.3897
  602TMC3     O 8977   1.021   0.620   0.125 -0.3632  0.2973  0.0388
  602TMC3     H 8978   0.778   0.583   0.010  1.2637 -0.8869  1.4062
  602TMC3    H1 8979   1.151   0.450  17.592  0.2364 -0.6185 -0.9233
  602TMC3    H2 8980   0.799   0.479  17.352  2.8521 -1.5846 -1.2901
  602TMC3    C7 8981   1.055   0.440  17.339 -0.7384  0.2441 -0.7271
  602TMC3    C8 8982   0.645   0.589  17.541  0.1376  0.4579 -0.3353
  602TMC3    O1 8983   1.145   0.356  17.354  0.0885  0.2562  0.2242
  602TMC3    O2 8984   0.553   0.591  17.625 -0.3969 -0.0111 -0.0605
  603TMC3    C1 8985   3.154   0.954  11.331 -0.2680 -0.1716  0.1535
  603TMC3    C2 8986   3.230   0.883  11.422 -1.0504  0.4757  0.2178
  603TMC3    C3 8987   3.161   0.823  11.526  0.1249  0.1370  0.0053
  603TMC3    C4 8988   3.013   0.960  11.337 -0.4922  0.2481 -0.1231
  603TMC3    C5 8989   2.953   0.899  11.441 -0.3013  0.4486 -0.2859
  603TMC3    C6 8990   3.023   0.837  11.537  0.5458  0.0611 -0.0547
  603TMC3     C 8991   3.204   0.994  11.203  0.2999 -0.7883  0.5298
  603TMC3     O 8992   3.113   1.020  11.123  0.1807 -0.1955  0.1342
  603TMC3     H 8993   3.339   0.876  11.419 -1.0884  0.0068 -0.1988
  603TMC3    H1 8994   2.945   0.988  11.256 -0.7677  1.7414  0.6216
  603TMC3    H2 8995   2.971   0.823  11.631  0.9432  1.7045  0.4210
  603TMC3    C7 8996   2.818   0.945  11.478  0.2463 -0.2996  0.5805
  603TMC3    C8 8997   3.243   0.763  11.632 -0.3552 -0.1310 -0.4032
  603TMC3    O1 8998   2.795   0.965  11.596 -0.2476 -0.9329  0.2591
  603TMC3    O2 8999   3.185   0.680  11.699  0.4849 -0.5270 -0.7844
  604MPD2     C 9000   4.534   3.903  15.977 -0.2319 -0.5849 -0.2986
  604MPD2    C1 9001   4.448   3.824  15.903  0.2456 -0.1179 -0.0800
  604MPD2    C2 9002   4.484   3.783  15.778 -0.5234  0.0818 -0.3747
  604MPD2    C3 9003   4.610   3.817  15.730  0.0317  0.1209 -0.1897
  604MPD2    C4 9004   4.685   3.913  15.795  0.0535  0.0092  0.0118
  604MPD2    C5 9005   4.649   3.956  15.919  1.2281  0.1472 -0.4753
  604MPD2     H 9006   4.428   3.718  15.712  1.1093 -1.0273 -0.6609
  604MPD2    H1 9007   0.041   3.950  15.758 -0.0886  0.3594 -0.0089
  604MPD2    H2 9008   4.508   3.923  16.081  2.5821  1.4360  0.0180
  604MPD2    H3 9009   4.711   4.021  15.980 -1.5752  2.0838  0.3417
  604MPD2     N 9010   4.641   3.754  15.608 -0.5533 -0.1580  0.2055
  604MPD2    H5 9011   4.600   3.661  15.602 -2.3014  0.6128 -0.0705
  604MPD2    N1 9012   4.344   3.768  15.976  0.3841 -0.3643 -0.1830
  604MPD2    H7 9013   4.332   3.792  16.074  2.1279  1.1392 -0.3420
  605TMC3    C1 9014   4.199   3.625  16.051 -0.2839  0.1189  0.3131
  605TMC3    C2 9015   4.283   3.636  16.156 -0.7974  0.4823  0.4811
  605TMC3    C3 9016   4.251   3.712  16.266 -0.3401  0.0869 -0.1220
  605TMC3    C4 9017   4.074   3.689  16.061  0.2059 -0.0129 -0.3985
  605TMC3    C5 9018   4.038   3.755  16.179 -0.0790  0.1574  0.3013
  605TMC3    C6 9019   4.130   3.776  16.282  0.8061 -0.4667  0.2659
  605TMC3     C 9020   4.264   3.667  15.935  0.0935 -0.1061 -0.5750
  605TMC3     O 9021   4.277   3.591  15.837 -0.3498 -0.2163  0.5805
  605TMC3     H 9022   4.384   3.601  16.142 -1.2032 -0.1918 -0.7409
  605TMC3    H1 9023   4.015   3.694  15.970 -2.0433  0.5907  1.1154
  605TMC3    H2 9024   4.103   3.831  16.371 -0.9769  0.0697 -0.6168
  605TMC3    C7 9025   3.906   3.805  16.204  0.5126  0.1296 -0.0710
  605TMC3    C8 9026   4.367   3.786  16.317 -0.4907  0.1219  0.0042
  605TMC3    O1 9027   3.895   3.906  16.271  0.0068 -0.9217 -0.1468
  605TMC3    O2 9028   4.471   3.778  16.255 -0.1062 -0.5541  0.1285
  606TMC3    C1 9029   0.937   2.769  16.980  0.2933  0.4636 -0.6939
  606TMC3    C2 9030   0.971   2.815  17.108  0.6633  0.6514  0.3947
  606TMC3    C3 9031   0.937   2.749  17.220 -0.3437  0.1182  0.1142
  606TMC3    C4 9032   0.872   2.644  16.962  0.0540  0.0195 -0.2114
  606TMC3    C5 9033   0.839   2.581  17.077 -0.2896 -0.3090  0.6302
  606TMC3    C6 9034   0.874   2.630  17.199  0.0027  0.3376 -0.4439
  606TMC3     C 9035   0.964   2.847  16.866  0.3430  0.2344 -0.7514
  606TMC3     O 9036   0.983   2.965  16.890  0.2689 -0.1337  0.4802
  606TMC3     H 9037   0.994   2.921  17.113  0.9420  0.4887  2.5361
  606TMC3    H1 9038   0.839   2.611  16.864  0.7460 -1.3335  0.0118
  606TMC3    H2 9039   0.863   2.566  17.286  2.2119  0.4148 -0.0944
  606TMC3    C7 9040   0.806   2.442  17.070 -0.8469  0.3324 -0.0428
  606TMC3    C8 9041   1.009   2.762  17.343 -0.1900 -0.5644 -0.0935
  606TMC3    O1 9042   0.847   2.388  16.970  0.8839  0.4688  0.2779
  606TMC3    O2 9043   0.956   2.721  17.445  0.0289  0.3458 -0.3794
  607MPD2     C 9044   2.140   0.806  11.817  0.0105 -0.5867 -0.1967
  607MPD2    C1 9045   2.200   0.866  11.929  0.4854 -0.3482  0.0812
  607MPD2    C2 9046   2.218   0.792  12.047 -0.0602  0.5782 -0.1344
  607MPD2    C3 9047   2.187   0.659  12.054 -1.0575 -0.2743 -0.9595
  607MPD2    C4 9048   2.131   0.599  11.944 -0.0592  0.7493 -0.1532
  607MPD2    C5 9049   2.102   0.675  11.832 -0.0619 -0.5603 -0.2126
  607MPD2     H 9050   2.279   0.831  12.127 -0.5090  0.3775  0.3024
  607MPD2    H1 9051   2.103   0.496  11.962 -1.6760  1.7265  2.8995
  607MPD2    H2 9052   2.124   0.854  11.721 -1.6499 -2.6279 -0.9620
  607MPD2    H3 9053   2.046   0.624  11.754  1.1216  0.9286 -2.0228
  607MPD2     N 9054   2.215   0.588  12.172 -0.5719 -0.2514  0.4918
  607MPD2    H5 9055   2.252   0.644  12.249  3.9104  0.3794 -2.1659
  607MPD2    N1 9056   2.248   0.997  11.938  0.4324 -0.0059  0.3720
  607MPD2    H7 9057   2.307   1.009  12.019  2.2364 -0.5394 -0.8764
  608TMC3    C1 9058   2.301   1.217  11.914 -0.2690 -0.0229  0.0591
  608TMC3    C2 9059   2.334   1.220  12.047 -0.6087 -0.4678  0.2055
  608TMC3    C3 9060   2.448   1.293  12.081 -0.0106  0.2170  0.8144
  608TMC3    C4 9061   2.376   1.288  11.820  0.6629  0.2958 -0.5254
  608TMC3    C5 9062   2.489   1.360  11.854 -0.1175  0.2864  0.4787
  608TMC3    C6 9063   2.520   1.366  11.986  0.1726  0.3152  0.3575
  608TMC3     C 9064   2.236   1.101  11.857  0.1555 -0.4548  0.2546
  608TMC3     O 9065   2.188   1.110  11.743 -0.0036  0.4263 -0.2337
  608TMC3     H 9066   2.287   1.170  12.131  1.4220 -0.1849  1.5075
  608TMC3    H1 9067   2.358   1.280  11.714 -0.5792 -0.7114 -0.2437
  608TMC3    H2 9068   2.614   1.414  12.009 -0.4008  1.2183  0.8086
  608TMC3    C7 9069   2.531   1.450  11.747  0.1068 -0.4501  0.5839
  608TMC3    C8 9070   2.521   1.268  12.205  0.0688  0.2426  0.0341
  608TMC3    O1 9071   2.471   1.446  11.640 -0.3333 -0.1615  0.3849
  608TMC3    O2 9072   2.610   1.347  12.232 -0.3022 -0.2472  0.6806
  609TMC3    C1 9073   1.494   0.180   9.378  0.5823 -0.2269 -0.1597
  609TMC3    C2 9074   1.504   0.247   9.259 -0.2103  0.1587  0.0849
  609TMC3    C3 9075   1.606   0.211   9.173  0.2849 -0.0112 -0.7369
  609TMC3    C4 9076   1.567   0.072   9.407 -0.3437  1.5135  0.5104
  609TMC3    C5 9077   1.654   0.031   9.310 -0.4101  0.2775  0.6823
  609TMC3    C6 9078   1.678   0.102   9.196  0.0981  0.1794 -0.0750
  609TMC3     C 9079   1.385   0.199   9.473 -0.0410  0.3181 -0.0627
  609TMC3     O 9080   1.342   0.098   9.528 -0.5366 -0.4446 -0.7884
  609TMC3     H 9081   1.413   0.303   9.237 -0.0400  0.6684  0.6898
  609TMC3    H1 9082   1.556   0.025   9.504  1.1231 -2.1373 -1.1008
  609TMC3    H2 9083   1.748   0.065   9.123  0.0951  0.9651 -0.4821
  609TMC3    C7 9084   1.749   4.669   9.347 -0.7168 -0.3974 -0.1772
  609TMC3    C8 9085   1.627   0.287   9.046  0.2002 -0.2763 -0.1870
  609TMC3    O1 9086   1.868   4.705   9.363  0.4166 -0.1449  1.0817
  609TMC3    O2 9087   1.707   0.239   8.964 -0.4479  0.4908  0.2709
  610TMC3    C1 9088   2.889   4.672  12.480 -0.4566  0.0482 -0.6070
  610TMC3    C2 9089   2.927   0.062  12.513  0.5501 -0.0016  0.5358
  610TMC3    C3 9090   3.049   0.076  12.559 -0.1125  0.0523  0.6474
  610TMC3    C4 9091   2.970   4.559  12.493 -0.4887  0.3041  0.1518
  610TMC3    C5 9092   3.097   4.583  12.529 -0.6616 -0.3726 -0.4671
  610TMC3    C6 9093   3.136   4.712  12.563 -0.8666 -0.3832  1.2339
  610TMC3     C 9094   2.752   4.642  12.443  0.1130  0.2222  0.1556
  610TMC3     O 9095   2.723   4.535  12.395  0.8889  0.5490 -0.4804
  610TMC3     H 9096   2.870   0.145  12.475  1.2848  0.7122  0.9894
  610TMC3    H1 9097   2.929   4.459  12.497 -2.4387  1.1271  0.7550
  610TMC3    H2 9098   3.232   4.736  12.607  0.5890  0.1820 -2.2655
  610TMC3    C7 9099   3.192   4.474  12.530  0.4923 -0.2274 -0.0237
  610TMC3    C8 9100   3.097   0.202  12.613  0.2976  0.0711  0.2607
  610TMC3    O1 9101   3.300   4.502  12.572 -0.2229 -0.0498 -0.5870
  610TMC3    O2 9102   3.220   0.215  12.636 -0.2226 -0.2923 -0.4346
  611MPD2     C 9103   1.644   0.956  10.943 -0.0737 -0.2908  0.0542
  611MPD2    C1 9104   1.690   0.934  10.814 -1.0299  0.1832  0.5502
  611MPD2    C2 9105   1.809   0.997  10.790  0.3994 -0.1314  0.3620
  611MPD2    C3 9106   1.874   1.081  10.883 -0.4933  0.0864 -0.5510
  611MPD2    C4 9107   1.819   1.099  11.009 -0.4291 -0.6570  0.4861
  611MPD2    C5 9108   1.698   1.041  11.041 -0.9364  0.5069 -0.6998
  611MPD2     H 9109   1.859   0.983  10.694  0.7535 -1.2747  0.7065
  611MPD2    H1 9110   1.863   1.158  11.089  0.1515 -2.3091  1.3842
  611MPD2    H2 9111   1.556   0.910  10.987 -0.4152 -1.5688 -1.9823
  611MPD2    H3 9112   1.641   1.058  11.132 -0.2678  0.8866 -0.3484
  611MPD2     N 9113   1.995   1.152  10.859  0.0202  0.0713 -0.0258
  611MPD2    H5 9114   2.030   1.201  10.940 -0.1039 -1.2852  0.8543
  611MPD2    N1 9115   1.621   0.847  10.731 -0.0933  0.2937  0.2239
  611MPD2    H7 9116   1.529   0.811  10.752  1.9353 -3.2574  3.1230
  612TMC3    C1 9117   2.195   1.209  10.755  0.7011 -0.1681 -0.6596
  612TMC3    C2 9118   2.260   1.177  10.869 -0.3642  0.3275  0.0933
  612TMC3    C3 9119   2.391   1.205  10.867  0.0416 -0.3169 -0.1032
  612TMC3    C4 9120   2.256   1.270  10.651 -0.7900 -0.1235  0.0129
  612TMC3    C5 9121   2.383   1.312  10.670 -0.9940  0.9377 -0.0066
  612TMC3    C6 9122   2.460   1.277  10.771  0.1882  0.4084 -0.0645
  612TMC3     C 9123   2.064   1.158  10.736  0.1475  0.6591  0.1534
  612TMC3     O 9124   2.033   1.121  10.627  0.0083  0.3629  0.6547
  612TMC3     H 9125   2.216   1.110  10.942  0.1104 -1.5678 -1.3676
  612TMC3    H1 9126   2.198   1.287  10.560  0.9617 -0.0032 -1.0758
  612TMC3    H2 9127   2.559   1.315  10.791  0.5556 -0.0112 -1.0581
  612TMC3    C7 9128   2.447   1.400  10.575 -0.3594  0.2481  0.0049
  612TMC3    C8 9129   2.480   1.177  10.980 -0.0586 -0.5167 -0.4765
  612TMC3    O1 9130   2.408   1.388  10.462 -0.3953  0.1018 -0.2335
  612TMC3    O2 9131   2.601   1.184  10.965 -0.1032  0.0184 -0.7265
  613MPD2     C 9132   1.827   3.082  16.549 -0.2211 -0.1237 -0.2408
  613MPD2    C1 9133   1.768   3.074  16.427  1.3922  0.6918 -0.2027
  613MPD2    C2 9134   1.688   2.973  16.388 -0.5188  0.5234 -0.1882
  613MPD2    C3 9135   1.683   2.865  16.475 -0.2535  0.4776 -0.3011
  613MPD2    C4 9136   1.756   2.857  16.588 -0.6642  0.9180 -0.3052
  613MPD2    C5 9137   1.818   2.973  16.632 -0.1018 -0.0635  0.2972
  613MPD2     H 9138   1.638   2.967  16.293 -0.3573  0.1001 -0.2434
  613MPD2    H1 9139   1.764   2.773  16.657 -0.0670 -0.3761 -1.9549
  613MPD2    H2 9140   1.887   3.168  16.574 -0.4733  0.0434 -0.2142
  613MPD2    H3 9141   1.871   2.976  16.727 -2.4570  0.3455  1.5975
  613MPD2     N 9142   1.618   2.750  16.447 -0.4902 -0.8751 -0.0342
  613MPD2    H5 9143   1.631   2.683  16.522 -1.4323  0.2331  1.1193
  613MPD2    N1 9144   1.805   3.172  16.333 -0.0443 -0.0444 -0.0737
  613MPD2    H7 9145   1.883   3.230  16.361  0.2411 -0.0222 -0.9097
  614TMC3    C1 9146   1.811   3.248  16.115 -0.0657  0.2525  0.8665
  614TMC3    C2 9147   1.910   3.165  16.071  0.3175 -0.7413  0.1680
  614TMC3    C3 9148   1.905   3.108  15.948 -0.0020  0.0163  0.3337
  614TMC3    C4 9149   1.729   3.297  16.018 -0.4284  0.2537  0.3620
  614TMC3    C5 9150   1.734   3.248  15.889  0.3491 -0.3445 -0.7401
  614TMC3    C6 9151   1.809   3.143  15.851 -0.1505  0.0158 -0.3603
  614TMC3     C 9152   1.729   3.206  16.228  0.0908 -0.0800 -0.2185
  614TMC3     O 9153   1.616   3.177  16.198 -0.1764  0.0448 -0.6160
  614TMC3     H 9154   1.974   3.121  16.147 -0.4280  1.2949  1.9645
  614TMC3    H1 9155   1.654   3.372  16.042 -0.9545 -0.0650 -0.2539
  614TMC3    H2 9156   1.823   3.105  15.750 -0.8974 -1.5704  0.1531
  614TMC3    C7 9157   1.655   3.316  15.784  0.7433 -0.3731  0.2634
  614TMC3    C8 9158   1.930   2.963  15.960 -0.5624 -0.2938  0.4905
  614TMC3    O1 9159   1.626   3.434  15.807  0.5024  0.2248  0.3305
  614TMC3    O2 9160   1.974   2.920  16.066 -0.1351 -0.3134 -0.7947
  615MPD2     C 9161   1.424   4.252  16.050  0.2163  0.9905 -0.7647
  615MPD2    C1 9162   1.426   4.309  15.928 -0.1711 -0.2435  0.7545
  615MPD2    C2 9163   1.327   4.274  15.840  0.5610 -0.0417  0.1461
  615MPD2    C3 9164   1.232   4.177  15.862 -0.2970  0.1138  0.0509
  615MPD2    C4 9165   1.225   4.115  15.984  0.1474 -0.0425  0.0526
  615MPD2    C5 9166   1.320   4.163  16.081  0.6228  0.0047  0.0461
  615MPD2     H 9167   1.336   4.316  15.741 -4.3194 -0.1102 -0.3127
  615MPD2    H1 9168   1.147   4.044  16.006  1.4942 -2.2050 -2.1326
  615MPD2    H2 9169   1.498   4.270  16.126 -1.3180  2.4265  0.3818
  615MPD2    H3 9170   1.328   4.135  16.186  0.8372 -1.7712 -0.4349
  615MPD2     N 9171   1.134   4.135  15.762 -0.1766  0.1575 -0.3867
  615MPD2    H5 9172   1.064   4.069  15.795  0.4448  0.1073  0.8164
  615MPD2    N1 9173   1.517   4.416  15.892 -0.2765  0.6380  0.2738
  615MPD2    H7 9174   1.502   4.457  15.800  0.1376  1.7017  0.6873
  616TMC3    C1 9175   1.668   4.595  15.901  0.4473 -0.1656 -0.5908
  616TMC3    C2 9176   1.798   4.632  15.932  0.1554  0.4177  0.0637
  616TMC3    C3 9177   1.844   0.012  15.887  0.5083  0.1718 -0.3012
  616TMC3    C4 9178   1.588   4.679  15.829 -0.0017 -0.1432  0.1336
  616TMC3    C5 9179   1.637   0.056  15.776 -0.3699 -0.2224  0.2189
  616TMC3    C6 9180   1.767   0.095  15.809  0.0928  0.3373  0.2580
  616TMC3     C 9181   1.617   4.476  15.962  0.0738 -0.4680  0.4667
  616TMC3     O 9182   1.688   4.423  16.047 -0.2081 -0.2711  0.6421
  616TMC3     H 9183   1.863   4.562  15.982 -0.2334 -1.6833 -2.3687
  616TMC3    H1 9184   1.481   4.664  15.834 -0.3917  2.2126 -1.2186
  616TMC3    H2 9185   1.815   0.186  15.775 -0.7182  0.8440  0.4517
  616TMC3    C7 9186   1.539   0.164  15.762 -0.7580  0.2718  0.4505
  616TMC3    C8 9187   1.988   0.045  15.894  0.0149  0.3653 -0.1732
  616TMC3    O1 9188   1.541   0.242  15.858 -0.5762  0.0451  0.4066
  616TMC3    O2 9189   2.031   0.145  15.834 -0.0371  0.1135  0.0156
  617MPD2     C 9190   4.189   2.574  13.257 -0.4741  0.2416 -0.4428
  617MPD2    C1 9191   4.287   2.499  13.312 -0.3729 -0.0301 -0.1810
  617MPD2    C2 9192   4.272   2.425  13.427 -0.5336 -0.0260  0.8193
  617MPD2    C3 9193   4.138   2.413  13.472  0.2421 -0.1969  0.0912
  617MPD2    C4 9194   4.036   2.477  13.409 -0.9082 -0.3911  0.1039
  617MPD2    C5 9195   4.058   2.563  13.311  0.0002  0.3231 -0.1397
  617MPD2     H 9196   4.359   2.380  13.472 -1.8400 -0.1585  3.1967
  617MPD2    H1 9197   3.933   2.460  13.439 -1.3226  1.2783 -0.3773
  617MPD2    H2 9198   4.209   2.650  13.182 -0.3003  0.1471 -0.4910
  617MPD2    H3 9199   3.984   2.624  13.260  0.4824 -1.6129 -3.1780
  617MPD2     N 9200   4.109   2.329  13.583 -0.8837  0.3739  0.5971
  617MPD2    H5 9201   4.010   2.314  13.598 -1.2464 -1.5644 -3.6724
  617MPD2    N1 9202   4.408   2.501  13.245 -0.2938 -0.3960  0.0579
  617MPD2    H7 9203   4.404   2.546  13.155  0.2019  1.4229  0.9486
  618TMC3    C1 9204   4.610   2.456  13.169 -0.0351  0.4055 -0.1416
  618TMC3    C2 9205   0.007   2.446  13.195 -0.2926  0.1264  0.6292
  618TMC3    C3 9206   0.083   2.393  13.094  0.3249 -0.4851  0.0052
  618TMC3    C4 9207   4.553   2.405  13.052  0.0920 -0.7545  0.3483
  618TMC3    C5 9208   4.639   2.359  12.958 -0.9078  0.3822  0.0898
  618TMC3    C6 9209   0.030   2.355  12.972 -0.3627 -0.5003 -1.1727
  618TMC3     C 9210   4.526   2.450  13.283 -0.5810 -0.0147  0.6377
  618TMC3     O 9211   4.572   2.408  13.389 -0.5970 -0.0890  0.3636
  618TMC3     H 9212   0.042   2.475  13.293 -1.1044 -0.2535  1.0397
  618TMC3    H1 9213   4.447   2.380  13.043 -0.4641  1.2066  1.4317
  618TMC3    H2 9214   0.086   2.322  12.885  0.7317 -0.2207 -0.5658
  618TMC3    C7 9215   4.591   2.242  12.897  0.5344 -0.4754 -0.5584
  618TMC3    C8 9216   0.182   2.300  13.149  0.4540 -0.2472 -0.5694
  618TMC3    O1 9217   4.641   2.138  12.935  0.4028 -0.8937  0.0469
  618TMC3    O2 9218   0.240   2.350  13.243 -0.0798  0.0071  0.6759
  619MPD2     C 9219   0.796   3.525  13.424  0.0622 -0.1874 -0.0346
  619MPD2    C1 9220   0.729   3.563  13.310  0.3884 -0.2368 -0.2107
  619MPD2    C2 9221   0.588   3.536  13.313  1.1292 -0.5522 -0.2451
  619MPD2    C3 9222   0.526   3.485  13.424 -0.3685  0.2543  1.0526
  619MPD2    C4 9223   0.602   3.448  13.530  0.4952  0.3350 -0.3355
  619MPD2    C5 9224   0.736   3.473  13.541  0.1578 -0.0461  0.2105
  619MPD2     H 9225   0.528   3.562  13.227 -0.3850 -1.6778  0.4863
  619MPD2    H1 9226   0.540   3.414  13.612 -1.4091  0.7687 -1.6071
  619MPD2    H2 9227   0.904   3.533  13.428 -0.1210  2.3659 -0.7092
  619MPD2    H3 9228   0.790   3.448  13.631  0.4846 -2.5041 -0.6683
  619MPD2     N 9229   0.384   3.455  13.430  0.1349 -0.5179 -0.2834
  619MPD2    H5 9230   0.344   3.412  13.513 -0.9129 -1.1111 -1.0885
  619MPD2    N1 9231   0.791   3.629  13.200  0.1197 -0.3683  0.4381
  619MPD2    H7 9232   0.728   3.670  13.132  1.4577  2.7915  1.1266
  620TMC3    C1 9233   0.955   3.715  13.060  0.3250  0.4435 -0.3308
  620TMC3    C2 9234   0.864   3.716  12.958  0.2402  0.1995 -0.5071
  620TMC3    C3 9235   0.878   3.814  12.858  0.6099  0.0228 -0.0469
  620TMC3    C4 9236   1.071   3.791  13.056  0.1191 -0.3703 -0.4077
  620TMC3    C5 9237   1.089   3.879  12.948  0.0742 -0.7884 -0.2287
  620TMC3    C6 9238   0.995   3.894  12.845  0.5542  0.3251 -0.0783
  620TMC3     C 9239   0.923   3.652  13.188  0.2439 -0.1868  0.5250
  620TMC3     O 9240   1.018   3.617  13.256  0.4822 -0.2899  0.4549
  620TMC3     H 9241   0.774   3.657  12.956  0.8616 -0.7007 -1.9577
  620TMC3    H1 9242   1.138   3.800  13.141 -0.3253 -0.8531 -0.0055
  620TMC3    H2 9243   1.015   3.966  12.767  2.6499 -0.6917 -0.4858
  620TMC3    C7 9244   1.146   4.002  12.987  0.0313  0.5521 -0.8890
  620TMC3    C8 9245   0.774   3.834  12.753 -0.5488 -0.1273  0.4241
  620TMC3    O1 9246   1.142   4.026  13.106  0.3495 -0.4331 -0.0989
  620TMC3    O2 9247   0.823   3.876  12.654 -0.1991 -0.0386  0.3644
  621MPD2     C 9248   1.293   4.031   9.674  0.1748  0.0714  0.0445
  621MPD2    C1 9249   1.220   4.144   9.651  0.2919 -0.4614  0.4501
  621MPD2    C2 9250   1.272   4.265   9.682  0.3826 -0.3314 -0.6114
  621MPD2    C3 9251   1.396   4.270   9.729 -0.6867  0.2994 -0.2715
  621MPD2    C4 9252   1.474   4.162   9.755 -0.8187  0.5714  0.6943
  621MPD2    C5 9253   1.416   4.040   9.732 -0.4292 -0.0796 -0.5764
  621MPD2     H 9254   1.224   4.356   9.646  2.0251  0.9077  0.3019
  621MPD2    H1 9255   1.575   4.164   9.792 -1.0086  0.1677  1.2422
  621MPD2    H2 9256   1.266   3.930   9.647  1.2221 -0.2865  0.3573
  621MPD2    H3 9257   1.483   3.954   9.740 -0.0637  0.2373 -0.2084
  621MPD2     N 9258   1.441   4.402   9.750  0.7346  0.6984 -0.3147
  621MPD2    H5 9259   1.369   4.473   9.739  0.2737  0.2586 -0.1243
  621MPD2    N1 9260   1.088   4.150   9.591  0.0305 -0.2977 -0.4225
  621MPD2    H7 9261   1.055   4.246   9.585  0.5571 -0.1217 -0.5412
  622TMC3    C1 9262   0.903   4.097   9.456  0.0576  0.3422  0.2783
  622TMC3    C2 9263   0.861   4.229   9.462  0.7193 -0.2634 -0.1278
  622TMC3    C3 9264   0.745   4.256   9.392  0.1874  0.0490 -0.5547
  622TMC3    C4 9265   0.836   3.997   9.387  0.6714 -0.1688  0.2858
  622TMC3    C5 9266   0.719   4.034   9.322  0.7503 -0.2856 -0.3836
  622TMC3    C6 9267   0.670   4.160   9.326 -0.0505 -0.3808  1.3018
  622TMC3     C 9268   1.026   4.050   9.520  0.0943 -0.1418 -1.0948
  622TMC3     O 9269   1.054   3.932   9.522 -0.0147 -0.4271  0.5322
  622TMC3     H 9270   0.903   4.312   9.517  0.2482  1.0307 -1.7012
  622TMC3    H1 9271   0.879   3.898   9.377 -0.9245 -1.0937  2.5097
  622TMC3    H2 9272   0.587   4.191   9.264  0.6586 -0.2406  0.4247
  622TMC3    C7 9273   0.636   3.943   9.249  0.5016 -0.0777 -0.2574
  622TMC3    C8 9274   0.687   4.392   9.400  0.2023 -0.4373 -0.1296
  622TMC3    O1 9275   0.547   3.993   9.181 -0.0641 -0.4490  0.5244
  622TMC3    O2 9276   0.761   4.488   9.421 -0.3616 -0.5202 -0.0881
  623MPD2     C 9277   4.481   4.540  15.674  0.2176  0.0449 -0.2303
  623MPD2    C1 9278   4.478   4.411  15.721  0.0092  0.4424  0.1490
  623MPD2    C2 9279   4.574   4.362  15.806  0.0112 -0.5074  0.2158
  623MPD2    C3 9280   4.674   4.444  15.845  0.2388  0.6951  0.1336
  623MPD2    C4 9281   4.687   4.571  15.790  0.0245 -0.1125 -0.5186
  623MPD2    C5 9282   4.592   4.615  15.705  0.4945 -0.6905 -0.5688
  623MPD2     H 9283   4.573   4.260  15.844  0.2552 -0.2781  0.8335
  623MPD2    H1 9284   0.028   4.633  15.829  0.1903 -0.0612 -0.9402
  623MPD2    H2 9285   4.398   4.569  15.611  0.5869  1.6984  0.0445
  623MPD2    H3 9286   4.605   4.715  15.666 -1.2567 -0.0426  0.4982
  623MPD2     N 9287   0.022   4.398  15.950  0.1818  0.3240  0.2558
  623MPD2    H5 9288   4.726   4.325  16.011  1.1302  1.0876  1.7098
  623MPD2    N1 9289   4.355   4.341  15.695  0.1735 -0.1904  0.2968
  623MPD2    H7 9290   4.278   4.390  15.649  0.7215 -0.9926 -1.4553
  624TMC3    C1 9291   0.265   4.404  16.336 -0.0325 -0.5610  0.2899
  624TMC3    C2 9292   0.215   4.283  16.370  1.0320 -0.1375 -0.6381
  624TMC3    C3 9293   0.140   4.222  16.278 -0.3632 -0.5891  0.4690
  624TMC3    C4 9294   0.252   4.464  16.211 -0.1201 -0.3223  0.0165
  624TMC3    C5 9295   0.191   4.389  16.119 -0.0642 -0.7701 -1.4938
  624TMC3    C6 9296   0.133   4.273  16.149 -1.0068 -0.8679  0.2101
  624TMC3     C 9297   0.346   4.473  16.439 -0.7534  0.0457 -0.1749
  624TMC3     O 9298   0.324   4.453  16.554  0.3051  0.2360 -0.2581
  624TMC3     H 9299   0.225   4.248  16.472  0.3657  1.3568 -0.0663
  624TMC3    H1 9300   0.305   4.556  16.188 -2.8801  1.2729  0.1127
  624TMC3    H2 9301   0.084   4.211  16.075 -1.7705  0.0559 -0.0454
  624TMC3    C7 9302   0.133   4.464  16.007 -0.2412 -0.0688  0.0735
  624TMC3    C8 9303   0.029   4.145  16.314  0.2810  0.1142 -0.3837
  624TMC3    O1 9304   0.199   4.557  15.967  0.2033  0.1890  0.4232
  624TMC3    O2 9305   4.689   4.127  16.222 -0.1916 -0.5713  0.0704
  625MPD2     C 9306   0.542   0.579   0.750 -0.2785  0.5768 -0.0708
  625MPD2    C1 9307   0.536   0.710   0.797 -0.3390  0.4028  0.2050
  625MPD2    C2 9308   0.634   0.762   0.885  0.5881 -0.0765 -0.3431
  625MPD2    C3 9309   0.736   0.676   0.918 -0.1693  0.4692  0.2614
  625MPD2    C4 9310   0.742   0.542   0.875 -0.7687  0.3228  0.3973
  625MPD2    C5 9311   0.650   0.498   0.780  0.1376 -0.7068 -0.4308
  625MPD2     H 9312   0.633   0.863   0.925 -1.6308 -0.3989  0.3982
  625MPD2    H1 9313   0.824   0.475   0.898  0.5724  1.1892 -1.9453
  625MPD2    H2 9314   0.480   0.540   0.670 -0.7142 -0.3590  0.7185
  625MPD2    H3 9315   0.665   0.402   0.731  2.0110  0.5890 -2.4329
  625MPD2     N 9316   0.838   0.740   0.995  0.4418 -0.1260  0.0595
  625MPD2    H5 9317   0.858   0.839   0.983  2.4753 -0.2947  2.0593
  625MPD2    N1 9318   0.437   0.803   0.751  0.0122 -0.3494  0.3805
  625MPD2    H7 9319   0.407   0.884   0.805  2.6185  1.8913 -1.4725
  626TMC3    C1 9320   0.282   0.900   0.617 -0.6399 -0.5648 -0.1646
  626TMC3    C2 9321   0.229   0.922   0.489  0.1345 -0.0868  0.1856
  626TMC3    C3 9322   0.110   0.992   0.478  0.1469 -0.6256 -0.5063
  626TMC3    C4 9323   0.200   0.939   0.725 -0.6113  0.2702 -0.2586
  626TMC3    C5 9324   0.083   1.006   0.710  0.3068  0.1353 -0.3445
  626TMC3    C6 9325   0.031   1.031   0.585 -0.1935  0.0371  0.3141
  626TMC3     C 9326   0.379   0.797   0.632  0.1516  0.1962  0.0886
  626TMC3     O 9327   0.405   0.731   0.531  0.0939 -0.0332 -0.4717
  626TMC3     H 9328   0.268   0.870   0.402 -0.8773  1.1963 -1.0298
  626TMC3    H1 9329   0.235   0.914   0.825 -1.0230 -1.4605 -0.5384
  626TMC3    H2 9330   4.686   1.098   0.574 -2.2057 -2.6484 -0.8162
  626TMC3    C7 9331   0.028   1.057   0.831  0.0747 -0.1432  0.1933
  626TMC3    C8 9332   0.070   1.008   0.340  0.2264 -0.6795  0.8363
  626TMC3    O1 9333   0.087   1.028   0.935  0.3651 -0.0363  0.1640
  626TMC3    O2 9334   0.163   1.013   0.265  0.1004  0.4050 -0.1938
  627MPD2     C 9335   3.896   1.256  14.365 -0.2776  0.3187  0.1491
  627MPD2    C1 9336   3.985   1.194  14.446 -0.1166  0.0630 -0.1256
  627MPD2    C2 9337   3.950   1.066  14.489 -0.8273  0.3325 -0.0617
  627MPD2    C3 9338   3.835   1.003  14.455  0.4107 -0.5172 -0.7077
  627MPD2    C4 9339   3.754   1.065  14.357  0.2832  0.5039 -0.0164
  627MPD2    C5 9340   3.779   1.196  14.324  0.5893 -0.0425  0.2435
  627MPD2     H 9341   4.015   1.026  14.566  1.3448 -0.3008 -2.2074
  627MPD2    H1 9342   3.660   1.017  14.332  1.8983 -2.3573 -0.4899
  627MPD2    H2 9343   3.917   1.359  14.338 -0.8806  0.0301 -1.4260
  627MPD2    H3 9344   3.703   1.254  14.272  1.1577  0.0639 -0.4771
  627MPD2     N 9345   3.814   0.882  14.522  0.9925 -0.4316  0.3624
  627MPD2    H5 9346   3.886   0.856  14.588 -0.3312 -0.7598  1.6894
  627MPD2    N1 9347   4.097   1.260  14.500  0.5523 -0.0851  0.8134
  627MPD2    H7 9348   4.147   1.208  14.572  0.1035  0.7793  1.7392
  628TMC3    C1 9349   4.229   1.452  14.561  0.1862 -0.0983  0.0423
  628TMC3    C2 9350   4.244   1.402  14.693 -0.0924  0.2519 -0.4678
  628TMC3    C3 9351   4.325   1.468  14.783  0.5583 -0.3829  0.0963
  628TMC3    C4 9352   4.294   1.564  14.511  0.3468  0.3479 -0.0014
  628TMC3    C5 9353   4.365   1.634  14.611  0.3136 -0.6135 -0.0851
  628TMC3    C6 9354   4.382   1.588  14.741  0.4323 -0.6110  0.0970
  628TMC3     C 9355   4.144   1.384  14.459 -0.7030 -0.0231  0.0289
  628TMC3     O 9356   4.124   1.438  14.351  0.4179  0.2481 -0.2736
  628TMC3     H 9357   4.198   1.308  14.721  0.9126 -0.8892 -2.6771
  628TMC3    H1 9358   4.282   1.594  14.408 -2.7101 -2.1109 -0.3223
  628TMC3    H2 9359   4.462   1.630  14.801  0.7796 -0.8248 -0.2130
  628TMC3    C7 9360   4.422   1.762  14.577 -0.1951  0.2225  0.1578
  628TMC3    C8 9361   4.390   1.381  14.885 -0.3666  0.4528 -0.5054
  628TMC3    O1 9362   4.492   1.808  14.666 -0.2526  0.2777  0.8254
  628TMC3    O2 9363   4.375   1.259  14.884  0.5382 -0.4809  0.5628
  629MPD2     C 9364   2.466   4.717  16.004  0.4632 -0.4049  0.2128
  629MPD2    C1 9365   2.395   4.669  16.112 -0.3796  0.2561 -0.8964
  629MPD2    C2 9366   2.260   4.667  16.106  0.1051 -0.2338  0.5202
  629MPD2    C3 9367   2.195   4.712  15.992 -0.3358  0.3418 -0.0384
  629MPD2    C4 9368   2.274   0.001  15.883 -0.1371  0.8146  0.0072
  629MPD2    C5 9369   2.407   0.006  15.882  0.4922 -0.7268  0.6623
  629MPD2     H 9370   2.201   4.635  16.191  1.2790  0.3056  1.5319
  629MPD2    H1 9371   2.221   0.016  15.790  0.0810  1.4332 -0.0162
  629MPD2    H2 9372   2.574   4.726  16.003  0.4613 -0.6436 -1.9162
  629MPD2    H3 9373   2.464   0.044  15.798  0.6328  1.6412  1.8394
  629MPD2     N 9374   2.056   4.716  15.993  0.3101 -0.1589 -0.5237
  629MPD2    H5 9375   2.011   4.670  16.071  0.4813  0.6568  0.0543
  629MPD2    N1 9376   2.466   4.648  16.230  0.2076 -0.0695 -0.0012
  629MPD2    H7 9377   2.566   4.665  16.222  0.2964 -1.5198 -2.1277
  630TMC3    C1 9378   2.497   4.611  16.463 -0.5204 -0.4244 -0.4962
  630TMC3    C2 9379   2.590   4.718  16.481 -0.4321 -0.4301  0.8075
  630TMC3    C3 9380   2.642   0.001  16.606 -0.7484  0.1765  0.1674
  630TMC3    C4 9381   2.463   4.539  16.575  0.2322  0.1471  0.2812
  630TMC3    C5 9382   2.521   4.565  16.690  0.3405 -0.4308 -0.4823
  630TMC3    C6 9383   2.614   4.658  16.710 -0.2672 -0.3124  0.2871
  630TMC3     C 9384   2.414   4.592  16.347  0.3464 -0.1443  0.0295
  630TMC3     O 9385   2.318   4.521  16.361 -0.2326  0.1042 -0.8540
  630TMC3     H 9386   2.616   0.048  16.402  0.0669  0.3018  1.6068
  630TMC3    H1 9387   2.419   4.441  16.570  0.3475  0.1384 -0.5840
  630TMC3    H2 9388   2.643   4.675  16.813 -0.1999 -0.5551  0.3077
  630TMC3    C7 9389   2.481   4.485  16.808  0.8623 -0.1382  0.5162
  630TMC3    C8 9390   2.676   0.138  16.648 -0.2317  0.2346 -0.5716
  630TMC3    O1 9391   2.563   4.467  16.899 -0.1865  0.1468  0.0846
  630TMC3    O2 9392   2.732   0.143  16.757 -0.4943 -0.2006 -0.2504
  631MPD2     C 9393   0.209   4.359  15.637 -0.3076  0.0437  0.5635
  631MPD2    C1 9394   0.290   4.429  15.556  0.5491  0.0271  0.0412
  631MPD2    C2 9395   0.411   4.374  15.523 -0.0793  0.4405 -0.4102
  631MPD2    C3 9396   0.458   4.265  15.583 -0.1731  0.4125  0.7594
  631MPD2    C4 9397   0.374   4.193  15.663  0.0677 -0.5682 -0.0328
  631MPD2    C5 9398   0.250   4.236  15.689  0.6013 -0.9632  0.0063
  631MPD2     H 9399   0.487   4.427  15.467 -0.0775  1.8709  0.9358
  631MPD2    H1 9400   0.404   4.095  15.698  0.4705  0.1475  1.6271
  631MPD2    H2 9401   0.107   4.395  15.644 -0.5883 -0.6821  0.2423
  631MPD2    H3 9402   0.178   4.191  15.756 -1.1191  0.2599 -1.0121
  631MPD2     N 9403   0.588   4.217  15.548  0.2278  0.0055  0.0019
  631MPD2    H5 9404   0.637   4.271  15.478  0.0896 -0.6462 -0.6013
  631MPD2    N1 9405   0.243   4.554  15.496 -0.6001  0.0052 -0.4175
  631MPD2    H7 9406   0.152   4.585  15.528 -0.5617 -2.0257  1.6235
  632TMC3    C1 9407   0.242   0.027  15.396  0.2348 -0.9261 -0.2249
  632TMC3    C2 9408   0.158   0.077  15.500  0.0889 -0.0300  0.0900
  632TMC3    C3 9409   0.152   0.213  15.504 -0.0775  0.0135  0.2996
  632TMC3    C4 9410   0.309   0.098  15.306 -0.4215  0.3065 -0.2911
  632TMC3    C5 9411   0.298   0.237  15.315 -0.4377  0.5247  0.0004
  632TMC3    C6 9412   0.222   0.292  15.413 -1.0602  0.0607 -0.3417
  632TMC3     C 9413   0.314   4.643  15.415 -0.4897 -0.5460 -0.3390
  632TMC3     O 9414   0.428   4.630  15.375 -0.8773  0.2130  0.4257
  632TMC3     H 9415   0.099   0.008  15.560  0.6077 -0.3139  0.2720
  632TMC3    H1 9416   0.354   0.052  15.218 -0.8426 -0.3606 -0.1466
  632TMC3    H2 9417   0.209   0.399  15.420 -0.3728  0.2125 -1.4121
  632TMC3    C7 9418   0.379   0.328  15.234  0.5304  0.2059  0.0566
  632TMC3    C8 9419   0.038   0.267  15.574  0.2071  0.2477  0.1910
  632TMC3    O1 9420   0.392   0.438  15.285 -0.3484 -0.1937  0.3369
  632TMC3    O2 9421   0.013   0.201  15.677  0.3052 -0.0307  0.4392
  633MPD2     C 9422   0.057   2.852  17.384 -0.2963  0.6980  0.1615
  633MPD2    C1 9423   0.063   2.767  17.277  0.1649 -0.3464 -0.5742
  633MPD2    C2 9424   0.076   2.632  17.298 -0.1757  0.4269 -0.2074
  633MPD2    C3 9425   0.100   2.582  17.421  0.2836  0.0907  0.1355
  633MPD2    C4 9426   0.110   2.667  17.532  0.5645 -0.6874  0.0761
  633MPD2    C5 9427   0.073   2.800  17.509  0.6238 -0.3846  0.8430
  633MPD2     H 9428   0.090   2.563  17.215 -1.7992 -0.3991  0.2091
  633MPD2    H1 9429   0.140   2.643  17.634 -0.6251 -0.3667  0.5017
  633MPD2    H2 9430   0.032   2.957  17.375 -1.8575  0.5219  2.3244
  633MPD2    H3 9431   0.064   2.864  17.595  1.0764 -0.5668  1.0251
  633MPD2     N 9432   0.108   2.439  17.424  0.6483  0.2638 -0.7046
  633MPD2    H5 9433   0.066   2.391  17.345 -2.1431  1.6673 -0.0974
  633MPD2    N1 9434   0.061   2.817  17.141  0.2330 -0.1732 -0.2629
  633MPD2    H7 9435   0.063   2.746  17.068 -0.0584 -2.8406  2.3401
  634TMC3    C1 9436   0.119   2.948  16.954  0.0345 -0.2604 -0.4894
  634TMC3    C2 9437   0.176   2.834  16.903  0.8576  0.1312 -0.1412
  634TMC3    C3 9438   0.197   2.834  16.765 -0.4924 -0.1071  0.2368
  634TMC3    C4 9439   0.086   3.060  16.881 -0.6716  0.0135 -0.2805
  634TMC3    C5 9440   0.109   3.053  16.747 -0.3358  0.0192 -0.0282
  634TMC3    C6 9441   0.173   2.944  16.686 -0.1077 -0.4221 -0.4138
  634TMC3     C 9442   0.066   2.941  17.095 -0.7711 -0.5967 -0.0915
  634TMC3     O 9443   0.054   3.044  17.162  0.5300 -0.4541  0.2039
  634TMC3     H 9444   0.197   2.742  16.956 -0.8826  1.1007  2.1888
  634TMC3    H1 9445   0.006   3.120  16.923  0.2573  0.0546  1.4562
  634TMC3    H2 9446   0.178   2.945  16.578  0.4580 -0.1935 -0.3858
  634TMC3    C7 9447   0.042   3.147  16.654  0.1577  0.3843  0.5207
  634TMC3    C8 9448   0.225   2.700  16.709 -0.2142  0.0077 -0.2321
  634TMC3    O1 9449   0.011   3.102  16.546  0.2828 -0.1104  0.5248
  634TMC3    O2 9450   0.211   2.601  16.783 -0.7504  0.4788 -0.0082
  635TMC3    C1 9451   1.024   3.993  17.409  0.4162  0.0237  0.4153
  635TMC3    C2 9452   1.096   3.911  17.334 -0.3197  0.6804 -0.2808
  635TMC3    C3 9453   1.045   3.882  17.206  0.3187 -0.2904  0.2302
  635TMC3    C4 9454   0.915   4.060  17.367 -0.5031  0.0798  0.0744
  635TMC3    C5 9455   0.869   4.034  17.243 -0.1886 -0.5526 -0.0838
  635TMC3    C6 9456   0.933   3.944  17.159 -0.2994  0.1844  0.4031
  635TMC3     C 9457   1.082   4.036  17.537 -0.1060 -0.3939  0.0738
  635TMC3     O 9458   1.025   4.127  17.593  0.7194  0.1496  1.2384
  635TMC3     H 9459   1.184   3.856  17.365 -0.7628  1.2111  1.9460
  635TMC3    H1 9460   0.875   4.140  17.429 -0.1320  0.8106 -0.6403
  635TMC3    H2 9461   0.886   3.928  17.062  0.8113 -1.2488  0.1074
  635TMC3    C7 9462   0.771   4.125  17.196 -0.1023  0.4152  0.3002
  635TMC3    C8 9463   1.124   3.801  17.116  0.3825 -0.5212  0.5198
  635TMC3    O1 9464   0.704   4.165  17.291  0.4557 -0.2999 -0.1483
  635TMC3    O2 9465   1.219   3.740  17.166  0.0268 -0.9085  0.2489
  636MPD2     C 9466   1.306   3.011  15.743  0.4871 -0.1786  0.2364
  636MPD2    C1 9467   1.331   3.039  15.877  0.2567 -0.3200  0.2929
  636MPD2    C2 9468   1.372   2.936  15.966 -0.1974  0.2306 -0.3307
  636MPD2    C3 9469   1.366   2.807  15.918  0.4134  0.1990 -0.0872
  636MPD2    C4 9470   1.329   2.774  15.783  0.4035 -0.1028  0.6262
  636MPD2    C5 9471   1.297   2.880  15.703  0.6710 -0.4462 -0.0880
  636MPD2     H 9472   1.406   2.957  16.066  1.3097  0.3843 -0.8806
  636MPD2    H1 9473   1.311   2.674  15.745 -1.3136 -0.2336  1.7999
  636MPD2    H2 9474   1.271   3.087  15.673 -2.1690 -0.2393  1.4798
  636MPD2    H3 9475   1.270   2.861  15.600  0.7278  4.2751 -0.9477
  636MPD2     N 9476   1.383   2.709  16.018 -0.0012 -0.0661  0.1670
  636MPD2    H5 9477   1.403   2.743  16.111  0.0674 -1.0860  0.5278
  636MPD2    N1 9478   1.323   3.164  15.934  0.6283  0.5393  0.0096
  636MPD2    H7 9479   1.343   3.167  16.034  1.2694  0.6674 -0.1198
  637TMC3    C1 9480   1.437   2.503  16.112 -0.0895 -0.1966  0.0810
  637TMC3    C2 9481   1.420   2.581  16.219  0.0274  0.0215  0.6241
  637TMC3    C3 9482   1.516   2.585  16.307  0.1743 -0.0778  0.3469
  637TMC3    C4 9483   1.558   2.438  16.086  0.2693  0.5436 -0.0258
  637TMC3    C5 9484   1.661   2.446  16.173  0.6791  0.3534 -0.4454
  637TMC3    C6 9485   1.637   2.520  16.288  0.0662  0.3902  0.6045
  637TMC3     C 9486   1.392   2.576  15.993  0.1329 -0.3066  0.2784
  637TMC3     O 9487   1.385   2.512  15.888 -0.0791  0.1667 -0.4770
  637TMC3     H 9488   1.323   2.623  16.245 -0.1844  0.8564 -1.5585
  637TMC3    H1 9489   1.563   2.372  16.000 -2.0290  0.2678  0.0384
  637TMC3    H2 9490   1.719   2.515  16.358 -1.1606  2.3421  2.1736
  637TMC3    C7 9491   1.794   2.490  16.118  0.7053  0.5630  0.2600
  637TMC3    C8 9492   1.531   2.722  16.339 -0.6245  0.5128 -0.2201
  637TMC3    O1 9493   1.872   2.560  16.187 -0.0623  0.0370  0.0818
  637TMC3    O2 9494   1.477   2.803  16.264  0.1918  0.5863  0.1782
  638MPD2     C 9495   1.247   1.932  14.937  0.9474  0.3894 -0.4074
  638MPD2    C1 9496   1.235   1.815  14.866 -0.4432 -0.6908  0.5686
  638MPD2    C2 9497   1.232   1.700  14.937 -0.0784  0.2598 -0.6033
  638MPD2    C3 9498   1.220   1.697  15.072  0.1375  0.3476 -0.1551
  638MPD2    C4 9499   1.233   1.811  15.144 -0.2901 -0.0100  0.1408
  638MPD2    C5 9500   1.243   1.927  15.072  0.3901 -0.3869  0.0178
  638MPD2     H 9501   1.234   1.598  14.899  0.8469  0.9266 -2.3497
  638MPD2    H1 9502   1.238   1.808  15.252 -2.2959  0.1235  0.2322
  638MPD2    H2 9503   1.262   2.031  14.895  1.3143  0.3932 -0.2660
  638MPD2    H3 9504   1.252   2.023  15.122 -2.4914  0.8215 -1.7331
  638MPD2     N 9505   1.198   1.570  15.133 -0.0071  1.1031 -0.9398
  638MPD2    H5 9506   1.181   1.492  15.070  1.3403  0.5731 -0.6476
  638MPD2    N1 9507   1.239   1.828  14.721  0.2466 -0.4889 -0.0039
  638MPD2    H7 9508   1.250   1.919  14.677  0.0982 -1.3372 -1.7989
  639TMC3    C1 9509   1.177   1.396  15.293  0.0714  0.3702  0.8909
  639TMC3    C2 9510   1.095   1.320  15.209 -0.4594  0.7322 -0.5763
  639TMC3    C3 9511   1.045   1.206  15.254  0.1985  0.1996  0.1163
  639TMC3    C4 9512   1.228   1.347  15.411  0.2569 -0.5514 -0.3884
  639TMC3    C5 9513   1.181   1.228  15.450 -0.1519  1.0584 -0.7039
  639TMC3    C6 9514   1.083   1.158  15.383 -0.2525 -0.6515 -0.6154
  639TMC3     C 9515   1.205   1.538  15.269 -1.1041  0.0867  0.7774
  639TMC3     O 9516   1.239   1.606  15.362 -0.1331 -0.2794 -0.3148
  639TMC3     H 9517   1.061   1.358  15.114  1.5085  0.6096 -1.3193
  639TMC3    H1 9518   1.309   1.403  15.456  0.7551 -2.0884  0.6172
  639TMC3    H2 9519   1.079   1.054  15.415 -0.2676 -0.6438 -0.5920
  639TMC3    C7 9520   1.283   1.143  15.496  0.4935 -0.5382  0.1760
  639TMC3    C8 9521   0.986   1.119  15.162 -0.0594  1.0970  0.4790
  639TMC3    O1 9522   1.252   1.077  15.599 -0.4363 -0.7117 -0.1100
  639TMC3    O2 9523   1.019   1.116  15.046 -0.1230  0.0431 -0.8973
  640MPD2     C 9524   1.898   0.912  10.271 -0.0876 -0.3711 -0.4365
  640MPD2    C1 9525   1.825   0.878  10.160 -0.7883  0.5993  0.3625
  640MPD2    C2 9526   1.691   0.913  10.143 -0.2861 -0.0006 -0.2707
  640MPD2    C3 9527   1.623   0.983  10.244  0.1053 -0.3087 -0.3049
  640MPD2    C4 9528   1.700   1.022  10.355  0.8951  0.0335  0.0058
  640MPD2    C5 9529   1.826   0.977  10.372  0.2624  0.1927  0.0215
  640MPD2     H 9530   1.638   0.884  10.052 -3.7338 -0.1853  1.8158
  640MPD2    H1 9531   1.660   1.086  10.432  1.4894  0.8974 -0.4094
  640MPD2    H2 9532   2.002   0.887  10.287  0.6395  0.9827 -3.1097
  640MPD2    H3 9533   1.877   1.002  10.464 -1.2756 -1.8877  1.4487
  640MPD2     N 9534   1.496   1.044  10.229 -0.4158  1.0227  0.0089
  640MPD2    H5 9535   1.465   1.084  10.316 -0.7774  0.0954  0.3041
  640MPD2    N1 9536   1.893   0.808  10.063 -0.1356 -0.8312 -0.4099
  640MPD2    H7 9537   1.986   0.783  10.095 -0.1753 -0.2321  0.1555
  641TMC3    C1 9538   1.955   0.714   9.865 -0.8535 -0.4689  0.2767
  641TMC3    C2 9539   2.037   0.624   9.928 -0.3423  0.7425 -0.0806
  641TMC3    C3 9540   2.138   0.564   9.854  0.7510 -0.3905  0.6942
  641TMC3    C4 9541   1.980   0.747   9.734  0.9655 -0.3566 -0.0314
  641TMC3    C5 9542   2.076   0.680   9.662 -0.3212  0.3524 -0.4120
  641TMC3    C6 9543   2.164   0.595   9.725 -0.4143  0.2425 -0.1258
  641TMC3     C 9544   1.848   0.777   9.937  0.4404  0.0435 -0.1265
  641TMC3     O 9545   1.747   0.809   9.875  0.1399 -0.0905  0.0017
  641TMC3     H 9546   2.002   0.577  10.019  1.0047  2.3708  1.2834
  641TMC3    H1 9547   1.914   0.818   9.687  1.3211  0.2404  0.3771
  641TMC3    H2 9548   2.250   0.558   9.671  0.6326  1.3338  0.8056
  641TMC3    C7 9549   2.076   0.690   9.518 -0.2363 -0.3076  0.1456
  641TMC3    C8 9550   2.190   0.437   9.899  0.2053 -0.6434 -0.1299
  641TMC3    O1 9551   2.055   0.804   9.477 -0.2625 -0.3129 -0.6365
  641TMC3    O2 9552   2.234   0.368   9.810  0.2971 -0.5974 -0.1727
  642TMC3    C1 9553   2.314   1.460  12.832 -0.4960 -0.4734  0.3615
  642TMC3    C2 9554   2.438   1.448  12.887 -0.1959  0.1520  0.8254
  642TMC3    C3 9555   2.502   1.324  12.886 -0.0480 -0.8168  0.7864
  642TMC3    C4 9556   2.254   1.356  12.760 -0.6542 -0.5317  0.8046
  642TMC3    C5 9557   2.315   1.234  12.772  0.0559 -0.1986 -0.9022
  642TMC3    C6 9558   2.434   1.211  12.837 -0.4448  0.9721  0.3297
  642TMC3     C 9559   2.255   1.591  12.829  0.1083  0.1441  0.3463
  642TMC3     O 9560   2.322   1.687  12.800  0.3069 -0.0436  0.6036
  642TMC3     H 9561   2.476   1.541  12.929  1.9000 -0.2675 -0.1217
  642TMC3    H1 9562   2.149   1.368  12.732 -0.6546 -1.9005  0.2234
  642TMC3    H2 9563   2.485   1.117  12.854  0.0933  1.0726 -0.7624
  642TMC3    C7 9564   2.241   1.126  12.724 -0.2537  0.5694  0.3685
  642TMC3    C8 9565   2.626   1.301  12.962  0.6840  0.3701  0.7160
  642TMC3    O1 9566   2.161   1.156  12.639 -0.1663 -0.2756  0.5039
  642TMC3    O2 9567   2.675   1.185  12.957 -0.6551  0.2270 -0.0381
  643TMC3    C1 9568   1.999   0.458   0.232 -0.1601 -0.6359  0.8360
  643TMC3    C2 9569   1.947   0.582   0.211 -0.0565 -0.3868 -0.1578
  643TMC3    C3 9570   1.891   0.601   0.091 -0.4358  0.0073 -0.5602
  643TMC3    C4 9571   1.994   0.355   0.139  0.2686 -0.0738 -0.7866
  643TMC3    C5 9572   1.933   0.382   0.023 -0.4380  0.7710 -0.1781
  643TMC3    C6 9573   1.883   0.499   0.005 -0.9358 -0.3103 -0.0104
  643TMC3     C 9574   2.062   0.446   0.357  0.3449 -0.5199  0.1850
  643TMC3     O 9575   1.995   0.489   0.452 -0.3289 -0.3995 -0.3181
  643TMC3     H 9576   1.968   0.658   0.284 -1.2576 -2.0592  1.9376
  643TMC3    H1 9577   2.022   0.255   0.172 -0.1104  0.0574 -0.0615
  643TMC3    H2 9578   1.838   0.521  17.662 -1.1735 -0.6386  0.0245
  643TMC3    C7 9579   1.976   0.297  17.670  0.3625  0.2370 -0.3509
  643TMC3    C8 9580   1.898   0.733   0.035 -0.4413 -0.0052 -0.1209
  643TMC3    O1 9581   2.016   0.186  17.693  0.2696  0.3367  0.4902
  643TMC3    O2 9582   1.984   0.805   0.062  0.7347  0.2126 -0.6436
  644MPD2     C 9583   2.105   1.145  10.163  0.4587  0.4729 -0.3207
  644MPD2    C1 9584   2.121   1.098  10.031  0.1458  0.5390  0.1137
  644MPD2    C2 9585   2.015   1.112   9.946 -0.6343  0.8309 -0.1458
  644MPD2    C3 9586   1.895   1.166   9.982 -0.2478  0.3387 -0.3822
  644MPD2    C4 9587   1.880   1.217  10.115 -0.3294  0.2145  0.2944
  644MPD2    C5 9588   1.984   1.204  10.211 -0.6779 -0.1542 -0.1937
  644MPD2     H 9589   2.023   1.077   9.844  0.5682  1.1002 -0.1345
  644MPD2    H1 9590   1.784   1.255  10.147 -0.5610 -0.1873  0.0790
  644MPD2    H2 9591   2.181   1.130  10.240  0.0814 -0.7866 -0.2048
  644MPD2    H3 9592   1.967   1.227  10.315 -2.0597  3.3156 -1.2036
  644MPD2     N 9593   1.795   1.168   9.888  0.6889 -0.7635  0.2687
  644MPD2    H5 9594   1.822   1.118   9.804 -2.6837 -0.7819 -0.8255
  644MPD2    N1 9595   2.240   1.039   9.989 -0.2614  0.2198 -0.1780
  644MPD2    H7 9596   2.307   1.018  10.063  2.4249  0.7934 -2.4363
  645TMC3    C1 9597   1.577   1.175   9.802 -0.3686  0.2236 -0.0306
  645TMC3    C2 9598   1.465   1.250   9.774  0.6791  0.2454  0.3778
  645TMC3    C3 9599   1.375   1.191   9.688  0.2655 -0.2498 -0.9211
  645TMC3    C4 9600   1.603   1.054   9.749  0.1230  0.8506 -0.1646
  645TMC3    C5 9601   1.511   1.001   9.665  0.0800  0.0478 -0.5358
  645TMC3    C6 9602   1.404   1.080   9.627  0.6286 -0.3796 -0.1436
  645TMC3     C 9603   1.672   1.225   9.902 -0.3476 -0.7196  0.6166
  645TMC3     O 9604   1.644   1.328   9.960 -0.3850 -0.3654  0.3048
  645TMC3     H 9605   1.452   1.349   9.818 -2.4557  0.2070 -0.4766
  645TMC3    H1 9606   1.697   1.002   9.767 -0.9121 -0.6074  1.0840
  645TMC3    H2 9607   1.354   1.052   9.536  1.3525  0.1685 -0.7106
  645TMC3    C7 9608   1.550   0.894   9.571 -0.7650  0.8252 -0.2201
  645TMC3    C8 9609   1.281   1.273   9.614  0.0233 -0.2456  0.1414
  645TMC3    O1 9610   1.500   0.896   9.461 -0.0519  0.4203  0.2082
  645TMC3    O2 9611   1.207   1.212   9.539 -0.0678 -0.2637 -0.3270
  646MPD2     C 9612   1.582   0.434  14.673 -0.4440  0.4396  0.3865
  646MPD2    C1 9613   1.498   0.337  14.727 -0.2959 -0.8405  0.4612
  646MPD2    C2 9614   1.357   0.365  14.719  0.0425 -0.4369  0.4961
  646MPD2    C3 9615   1.311   0.482  14.656 -0.6670  0.5821 -0.4535
  646MPD2    C4 9616   1.402   0.569  14.600 -0.5373  0.2324 -0.2282
  646MPD2    C5 9617   1.536   0.549  14.611 -0.0222 -0.1925  0.2195
  646MPD2     H 9618   1.282   0.288  14.735 -0.4033  0.2463  1.6708
  646MPD2    H1 9619   1.372   0.658  14.548 -0.8458  0.5833  0.5549
  646MPD2    H2 9620   1.685   0.420  14.703  0.0985 -0.6053 -1.9445
  646MPD2    H3 9621   1.611   0.615  14.570 -0.3357  0.3907  0.5824
  646MPD2     N 9622   1.171   0.495  14.636 -0.1105 -0.1135 -0.0918
  646MPD2    H5 9623   1.107   0.436  14.688 -0.8064  1.0625  0.3849
  646MPD2    N1 9624   1.560   0.220  14.784  0.2414 -0.0628 -0.5661
  646MPD2    H7 9625   1.661   0.226  14.796 -0.0918  1.8864  1.3400
  647TMC3    C1 9626   1.557   0.001  14.899  0.1306 -0.3802  0.2193
  647TMC3    C2 9627   1.474   4.643  14.946  0.1217 -0.9034  0.4844
  647TMC3    C3 9628   1.517   4.570  15.055  0.4404 -0.3470  0.0952
  647TMC3    C4 9629   1.677   0.033  14.961  0.2415  0.3067 -1.1667
  647TMC3    C5 9630   1.715   4.690  15.066 -0.0455  0.2954  0.0175
  647TMC3    C6 9631   1.639   4.585  15.107 -0.3832 -0.0802  0.2047
  647TMC3     C 9632   1.485   0.105  14.819  0.8322  0.5007 -1.0410
  647TMC3     O 9633   1.373   0.080  14.782  0.6757  0.2018  0.1249
  647TMC3     H 9634   1.371   4.647  14.913  0.1169 -1.1214  0.4684
  647TMC3    H1 9635   1.736   0.123  14.942  0.3204  0.4596 -0.1845
  647TMC3    H2 9636   1.678   4.519  15.184 -2.3011  0.6015  1.7688
  647TMC3    C7 9637   1.843   4.695  15.134  0.0003  0.6132  0.0507
  647TMC3    C8 9638   1.425   4.473  15.113  1.1848 -0.0705 -0.4241
  647TMC3    O1 9639   1.871   4.619  15.230 -0.0154  0.4831 -0.2656
  647TMC3    O2 9640   1.434   4.462  15.234  0.0210  0.5232 -0.1759
  648TMC3    C1 9641   0.684   2.684  16.238  0.3898 -0.8695 -0.6799
  648TMC3    C2 9642   0.748   2.567  16.214  0.3501 -0.0166  0.0500
  648TMC3    C3 9643   0.758   2.535  16.086  0.5720 -0.3491  0.1046
  648TMC3    C4 9644   0.628   2.761  16.144  0.1468 -0.3537  0.8618
  648TMC3    C5 9645   0.636   2.722  16.014 -1.5273 -0.3237 -0.1001
  648TMC3    C6 9646   0.709   2.612  15.979 -0.3901 -0.4181 -0.1832
  648TMC3     C 9647   0.662   2.728  16.373 -0.7194  0.0841  0.5013
  648TMC3     O 9648   0.615   2.837  16.397  0.2422  0.3405 -0.1298
  648TMC3     H 9649   0.812   2.515  16.284  2.2944 -0.2233 -1.8922
  648TMC3    H1 9650   0.568   2.843  16.181 -1.1936  0.1498 -2.3780
  648TMC3    H2 9651   0.719   2.577  15.877  1.2113 -1.0017  0.1792
  648TMC3    C7 9652   0.601   2.817  15.910 -0.0896  0.3218 -0.0064
  648TMC3    C8 9653   0.811   2.401  16.053 -0.5999  0.1409  0.7527
  648TMC3    O1 9654   0.654   2.796  15.802 -0.4568 -0.1738  0.4129
  648TMC3    O2 9655   0.924   2.372  16.098 -0.0102  0.1580 -0.0669
  649TMC3    C1 9656   3.376   3.902  12.914 -0.3258  0.4075 -0.1156
  649TMC3    C2 9657   3.410   3.837  12.797 -0.2189  0.2045  0.0505
  649TMC3    C3 9658   3.481   3.718  12.806  0.4627  0.3898  0.1626
  649TMC3    C4 9659   3.418   3.850  13.035  0.7035  0.1656 -0.6242
  649TMC3    C5 9660   3.483   3.725  13.032  0.4629  0.1331  0.3888
  649TMC3    C6 9661   3.512   3.655  12.921  0.6260 -0.2863  0.7458
  649TMC3     C 9662   3.296   4.021  12.925  0.3153 -0.0396 -0.4010
  649TMC3     O 9663   3.310   4.099  13.015 -0.3537 -0.1758  0.3692
  649TMC3     H 9664   3.358   3.874  12.709 -2.7195 -0.8630  1.0698
  649TMC3    H1 9665   3.377   3.881  13.131 -1.6176  0.5137 -1.7252
  649TMC3    H2 9666   3.544   3.552  12.934  2.1857  0.2515  1.1867
  649TMC3    C7 9667   3.497   3.657  13.158 -0.0568 -0.7664 -0.2297
  649TMC3    C8 9668   3.570   3.710  12.686  0.1787  0.2780 -0.0501
  649TMC3    O1 9669   3.412   3.661  13.247 -0.3922  0.4182 -0.1013
  649TMC3    O2 9670   3.527   3.775  12.589  0.1081 -0.2640  0.0490
  650TMC3    C1 9671   1.766   0.480  13.027 -0.0756 -0.5014  0.2385
  650TMC3    C2 9672   1.754   0.605  13.073 -0.2285 -0.4698  0.5005
  650TMC3    C3 9673   1.764   0.712  12.989 -0.1383 -0.7124  0.8640
  650TMC3    C4 9674   1.776   0.453  12.895 -0.4997 -0.3818 -0.0469
  650TMC3    C5 9675   1.786   0.559  12.805  0.2324 -1.0251 -0.3439
  650TMC3    C6 9676   1.786   0.692  12.853 -0.3172  0.2975 -0.0517
  650TMC3     C 9677   1.764   0.369  13.127 -0.0959  0.0167  0.1709
  650TMC3     O 9678   1.726   0.406  13.237  0.2744 -0.3352  0.0242
  650TMC3     H 9679   1.729   0.633  13.175 -2.8566  1.8823 -0.7865
  650TMC3    H1 9680   1.792   0.351  12.864  0.6587  0.2842 -1.6693
  650TMC3    H2 9681   1.820   0.776  12.794 -1.7452  1.6592  1.0528
  650TMC3    C7 9682   1.697   0.548  12.696  0.5231  0.0214  0.1153
  650TMC3    C8 9683   1.673   0.820  13.019 -0.0428  0.3210  0.2865
  650TMC3    O1 9684   1.651   0.439  12.665  0.7881  0.4721  0.5514
  650TMC3    O2 9685   1.728   0.918  13.063 -0.1623  0.5001 -0.9490
  651MPD2     C 9686   0.618   2.451  10.594  0.0480  0.5753 -0.0012
  651MPD2    C1 9687   0.583   2.579  10.634 -0.1166 -0.2110 -1.0104
  651MPD2    C2 9688   0.679   2.673  10.627  0.0901 -0.0292 -0.4600
  651MPD2    C3 9689   0.814   2.647  10.613 -0.7903  0.0459 -0.1276
  651MPD2    C4 9690   0.845   2.518  10.578 -0.2448  0.6028  0.1020
  651MPD2    C5 9691   0.749   2.424  10.569  0.7925 -0.4367  0.3666
  651MPD2     H 9692   0.654   2.777  10.640  0.8448 -0.2453  2.6704
  651MPD2    H1 9693   0.950   2.493  10.572 -0.7621 -1.0650 -1.8541
  651MPD2    H2 9694   0.555   2.362  10.597 -0.1318  0.7588  1.8306
  651MPD2    H3 9695   0.779   2.320  10.562  0.1295 -0.5901 -0.1764
  651MPD2     N 9696   0.915   2.749  10.636  0.0004 -0.2850  0.1491
  651MPD2    H5 9697   0.883   2.840  10.665 -0.4855 -0.1816 -0.6939
  651MPD2    N1 9698   0.447   2.613  10.659  0.0893 -0.5180 -0.0582
  651MPD2    H7 9699   0.425   2.707  10.691  1.1494 -0.0113 -0.7870
  652TMC3    C1 9700   1.352   2.935  10.653 -0.3276 -0.5639  0.5090
  652TMC3    C2 9701   1.263   2.829  10.664  0.6727  0.0456 -0.0246
  652TMC3    C3 9702   1.131   2.845  10.637  1.2190 -0.3028  0.5602
  652TMC3    C4 9703   1.308   3.062  10.621 -0.0611  0.0384 -0.6865
  652TMC3    C5 9704   1.175   3.075  10.597 -0.3147  0.6388  0.1637
  652TMC3    C6 9705   1.089   2.969  10.607  0.7927 -0.3656 -0.4205
  652TMC3     C 9706   1.490   2.917  10.683 -0.1346  0.1928  0.0276
  652TMC3     O 9707   1.518   2.826  10.763  0.2848 -0.0359 -0.1088
  652TMC3     H 9708   1.296   2.732  10.698  0.8286  0.1114  0.0134
  652TMC3    H1 9709   1.377   3.146  10.627 -0.7602  0.5022  1.0348
  652TMC3    H2 9710   0.983   2.989  10.591  0.8603 -0.6294 -1.1759
  652TMC3    C7 9711   1.112   3.200  10.573  0.1692  0.3974 -0.3983
  652TMC3    C8 9712   1.051   2.727  10.618 -0.6184 -0.2215  0.1202
  652TMC3    O1 9713   0.995   3.199  10.536 -0.7735 -0.2174  0.6888
  652TMC3    O2 9714   1.114   2.624  10.599  0.7026  0.5478 -0.1649
  653MPD2     C 9715   4.684   2.504   0.058 -0.2639 -0.3342  0.1112
  653MPD2    C1 9716   4.597   2.600   0.018  0.1911 -0.2835 -0.2614
  653MPD2    C2 9717   4.513   2.576  17.657  0.7983  0.1760  0.0732
  653MPD2    C3 9718   4.511   2.451  17.598 -0.2235  0.0872  0.2410
  653MPD2    C4 9719   4.587   2.352  17.654 -0.2526 -0.0184  0.2878
  653MPD2    C5 9720   4.674   2.385  17.751 -0.0365 -0.6578  0.3344
  653MPD2     H 9721   4.445   2.658  17.634 -2.6968 -2.8387 -0.3031
  653MPD2    H1 9722   4.585   2.248  17.624 -1.0203  0.6168 -1.8651
  653MPD2    H2 9723   0.026   2.513   0.131  1.6436  1.3765 -2.2235
  653MPD2    H3 9724   0.002   2.307   0.034  1.7585  0.6446 -0.1583
  653MPD2     N 9725   4.420   2.430  17.492 -0.5211 -0.0856  0.1517
  653MPD2    H5 9726   4.345   2.494  17.469 -0.8651 -0.6989 -0.4340
  653MPD2    N1 9727   4.595   2.726   0.076 -0.0836 -0.2809 -0.1315
  653MPD2    H7 9728   4.544   2.801   0.031 -0.5974 -1.0219 -0.7718
  654TMC3    C1 9729   4.301   2.297  17.332 -0.1823  0.1726 -0.5109
  654TMC3    C2 9730   4.264   2.402  17.258 -0.4221 -0.2026 -0.6482
  654TMC3    C3 9731   4.168   2.388  17.162 -0.0656  0.7398  0.6522
  654TMC3    C4 9732   4.256   2.174  17.298 -0.0736  0.0170 -0.2251
  654TMC3    C5 9733   4.160   2.156  17.201  0.3561  0.7083 -0.7006
  654TMC3    C6 9734   4.110   2.270  17.137 -0.2742  0.3366 -0.3849
  654TMC3     C 9735   4.407   2.309  17.428 -0.0713  0.1162  0.1159
  654TMC3     O 9736   4.474   2.209  17.430 -0.3977  0.0855 -0.2821
  654TMC3     H 9737   4.309   2.498  17.279  0.5688 -0.4657 -1.5717
  654TMC3    H1 9738   4.283   2.090  17.361 -3.1237 -1.9223 -1.4952
  654TMC3    H2 9739   4.018   2.260  17.080 -1.9350  0.6979  2.2559
  654TMC3    C7 9740   4.210   2.072  17.099  0.1187 -0.5587  0.0915
  654TMC3    C8 9741   4.176   2.481  17.050  0.5287  0.0623  1.0648
  654TMC3    O1 9742   4.179   2.113  16.989  0.1283  0.2114 -0.1035
  654TMC3    O2 9743   4.198   2.605  17.059 -0.0429 -0.1311 -0.5858
  655MPD2     C 9744   1.065   2.607  15.851 -0.4363 -0.5104 -0.2342
  655MPD2    C1 9745   1.004   2.708  15.782 -0.2452 -0.1255  0.0167
  655MPD2    C2 9746   0.955   2.672  15.656  0.0564  0.3896  0.0047
  655MPD2    C3 9747   0.967   2.545  15.605 -0.0495  0.4941  1.0056
  655MPD2    C4 9748   1.036   2.452  15.665  0.0040  0.2523  0.1040
  655MPD2    C5 9749   1.078   2.482  15.794 -0.4125 -0.1326  0.5678
  655MPD2     H 9750   0.904   2.752  15.604  0.4751  0.9487  0.4638
  655MPD2    H1 9751   1.038   2.348  15.635  0.9378  0.5920 -0.9939
  655MPD2    H2 9752   1.100   2.610  15.953 -0.5019  2.4059 -0.2979
  655MPD2    H3 9753   1.129   2.409  15.856  0.6795 -0.8506 -1.1683
  655MPD2     N 9754   0.923   2.520  15.474  0.1161 -0.3684 -0.0091
  655MPD2    H5 9755   0.956   2.432  15.436  0.9822  0.5744 -1.4312
  655MPD2    N1 9756   0.979   2.840  15.826  0.6479 -0.4724 -0.0141
  655MPD2    H7 9757   0.933   2.906  15.764  0.1240 -1.6489 -0.8798
  656TMC3    C1 9758   0.979   3.023  15.977  0.6234 -0.9162 -0.4249
  656TMC3    C2 9759   0.896   3.050  16.079 -0.6714 -0.0435 -0.3572
  656TMC3    C3 9760   0.811   3.158  16.065  0.1202  0.0721  0.8989
  656TMC3    C4 9761   0.988   3.098  15.866 -0.2143  0.2826 -0.1310
  656TMC3    C5 9762   0.883   3.189  15.848  0.1688  0.5371 -0.2202
  656TMC3    C6 9763   0.803   3.232  15.948 -0.9151  0.1479  0.5684
  656TMC3     C 9764   1.018   2.888  15.953 -0.3998 -0.1304  0.6653
  656TMC3     O 9765   1.045   2.819  16.051 -0.2134  0.1021 -0.3748
  656TMC3     H 9766   0.892   2.983  16.165 -0.4933 -0.0195 -0.3295
  656TMC3    H1 9767   1.054   3.069  15.784  0.1430 -2.1712  1.0109
  656TMC3    H2 9768   0.739   3.319  15.936  0.0613  0.3818 -3.0267
  656TMC3    C7 9769   0.870   3.243  15.715  0.0230  0.2910  0.2059
  656TMC3    C8 9770   0.699   3.166  16.162  0.6080 -0.5060  0.9203
  656TMC3    O1 9771   0.961   3.216  15.642 -0.6414 -0.0228  0.2734
  656TMC3    O2 9772   0.668   3.064  16.219 -0.3875  0.7083 -0.1672
  657TMC3    C1 9773   4.610   2.094  15.399 -0.4401 -0.5405  0.1003
  657TMC3    C2 9774   4.672   2.083  15.522 -0.6477  0.9425 -0.3536
  657TMC3    C3 9775   4.612   2.155  15.619 -0.0562 -0.0419 -0.4515
  657TMC3    C4 9776   4.498   2.175  15.370 -0.4734 -0.7369  0.0723
  657TMC3    C5 9777   4.451   2.244  15.477  1.0975 -0.2277 -0.6692
  657TMC3    C6 9778   4.504   2.237  15.600  0.2065  0.0568  0.4476
  657TMC3     C 9779   4.657   2.010  15.284 -0.6281  0.3126  0.5675
  657TMC3     O 9780   4.582   1.998  15.192  0.9829  0.2715 -0.5253
  657TMC3     H 9781   0.025   2.033  15.549 -2.3562 -0.7999  2.2805
  657TMC3    H1 9782   4.457   2.177  15.270  1.0264 -2.0082 -0.5727
  657TMC3    H2 9783   4.452   2.292  15.678  1.1472  2.3352 -0.5373
  657TMC3    C7 9784   4.329   2.326  15.445  0.4390 -0.5212  0.8696
  657TMC3    C8 9785   4.657   2.152  15.757  0.1435 -0.0808 -0.7400
  657TMC3    O1 9786   4.268   2.303  15.344 -0.2588  0.4998 -0.5089
  657TMC3    O2 9787   4.588   2.224  15.837  0.4751  0.0932 -0.2164
  658MPD2     C 9788   1.304   2.327  14.986  0.3231 -0.3568 -0.3765
  658MPD2    C1 9789   1.198   2.387  14.942  0.1659  0.0241 -0.9407
  658MPD2    C2 9790   1.209   2.471  14.828 -0.4418  0.4811  0.8022
  658MPD2    C3 9791   1.329   2.499  14.768 -0.4941 -0.0984  0.2553
  658MPD2    C4 9792   1.437   2.437  14.824  0.3831 -0.1326  0.5564
  658MPD2    C5 9793   1.426   2.354  14.925  0.5029  0.4643  0.0140
  658MPD2     H 9794   1.120   2.521  14.793 -0.9247 -1.0670 -0.2383
  658MPD2    H1 9795   1.536   2.450  14.783 -0.0093  0.2695 -0.2523
  658MPD2    H2 9796   1.296   2.251  15.063  0.5303  0.6285  0.6214
  658MPD2    H3 9797   1.520   2.303  14.945  0.7690  0.4897 -1.1948
  658MPD2     N 9798   1.331   2.593  14.662 -0.1975  0.4388 -0.2567
  658MPD2    H5 9799   1.241   2.619  14.623 -0.4618  0.5565  0.4276
  658MPD2    N1 9800   1.085   2.379  15.021 -0.7669  0.4573  0.4211
  658MPD2    H7 9801   1.099   2.341  15.115  1.4018 -0.9880 -0.4734
  659TMC3    C1 9802   0.868   2.427  15.087 -0.8021  0.6742  0.7109
  659TMC3    C2 9803   0.896   2.492  15.198 -0.1189  0.7664 -0.0436
  659TMC3    C3 9804   0.788   2.522  15.280  0.2500  0.1080 -0.3018
  659TMC3    C4 9805   0.738   2.404  15.051  0.0479 -0.6137 -0.4788
  659TMC3    C5 9806   0.633   2.444  15.132 -0.0171 -0.3141 -0.2255
  659TMC3    C6 9807   0.655   2.503  15.252  0.3733  0.5083 -0.2720
  659TMC3     C 9808   0.959   2.425  14.980  0.4048 -0.1015  1.0837
  659TMC3     O 9809   0.919   2.441  14.862 -0.6133  0.5489  0.3048
  659TMC3     H 9810   0.998   2.500  15.232 -0.1851 -4.0781  1.2896
  659TMC3    H1 9811   0.712   2.364  14.954 -1.1291  0.3201 -0.5435
  659TMC3    H2 9812   0.579   2.525  15.326  2.2446  2.1028  1.1869
  659TMC3    C7 9813   0.492   2.417  15.103 -0.1994  0.4475 -0.2030
  659TMC3    C8 9814   0.820   2.589  15.408  0.4633 -0.6042 -1.0724
  659TMC3    O1 9815   0.419   2.504  15.153 -0.1853  0.5836  0.1170
  659TMC3    O2 9816   0.744   2.671  15.450 -0.0053  0.3970  0.2981
  660MPD2     C 9817   3.880   1.444  12.549  0.2870  0.3128  0.2950
  660MPD2    C1 9818   3.811   1.538  12.614 -0.9950  0.2546 -0.2719
  660MPD2    C2 9819   3.795   1.524  12.754  0.0467 -0.0088  0.0900
  660MPD2    C3 9820   3.851   1.417  12.824 -0.4348  0.5637 -0.1185
  660MPD2    C4 9821   3.926   1.329  12.751  0.3507 -0.0918  0.7656
  660MPD2    C5 9822   3.945   1.343  12.615  0.0744 -0.2180  0.8596
  660MPD2     H 9823   3.724   1.590  12.803 -1.0450  0.2054 -1.7641
  660MPD2    H1 9824   3.968   1.243  12.802  3.2475  0.3007 -0.9347
  660MPD2    H2 9825   3.895   1.456  12.442 -3.7410  0.8456 -0.2271
  660MPD2    H3 9826   4.012   1.272  12.568 -1.3133 -0.7763 -0.2734
  660MPD2     N 9827   3.807   1.373  12.951  0.4497 -0.6300 -0.3943
  660MPD2    H5 9828   3.838   1.281  12.981  1.3244 -0.6926 -1.4589
  660MPD2    N1 9829   3.743   1.643  12.537 -0.3469 -0.0249  0.2392
  660MPD2    H7 9830   3.737   1.624  12.438 -0.0511  0.6478  0.0978
  661TMC3    C1 9831   3.584   1.808  12.495  0.3792  0.5530 -0.9381
  661TMC3    C2 9832   3.580   1.772  12.360 -0.0174  0.5595 -0.1527
  661TMC3    C3 9833   3.467   1.749  12.300  0.9774 -0.1901  0.0291
  661TMC3    C4 9834   3.465   1.830  12.563 -0.6689  0.1268 -0.5782
  661TMC3    C5 9835   3.352   1.794  12.493 -0.2156 -0.4738  0.4877
  661TMC3    C6 9836   3.349   1.756  12.359 -0.9144  0.2304  0.0979
  661TMC3     C 9837   3.664   1.742  12.592  0.3988 -0.2512 -0.3127
  661TMC3     O 9838   3.666   1.785  12.706  0.5813  0.6066  0.0707
  661TMC3     H 9839   3.671   1.747  12.307 -1.7354 -0.7010 -2.4822
  661TMC3    H1 9840   3.458   1.847  12.670  2.6920 -0.2875 -0.2894
  661TMC3    H2 9841   3.258   1.723  12.311  0.0567 -0.4049 -1.3199
  661TMC3    C7 9842   3.251   1.730  12.579 -0.8587 -0.2720  0.4820
  661TMC3    C8 9843   3.485   1.725  12.156 -0.6328 -0.1824  0.1232
  661TMC3    O1 9844   3.291   1.700  12.690  0.1384  0.2750 -0.3394
  661TMC3    O2 9845   3.591   1.768  12.108 -0.7068 -0.2629 -0.0464
  662MPD2     C 9846   4.169   1.544  17.047  0.7541 -0.0661  0.4256
  662MPD2    C1 9847   4.228   1.442  17.123 -0.2769 -0.0021 -0.6268
  662MPD2    C2 9848   4.201   1.445  17.265 -1.0360 -0.3366 -0.4957
  662MPD2    C3 9849   4.129   1.547  17.322  0.1668 -0.4405  0.5393
  662MPD2    C4 9850   4.079   1.647  17.241  0.0947  0.7773  0.3819
  662MPD2    C5 9851   4.099   1.644  17.107  0.6817 -0.2530  0.1069
  662MPD2     H 9852   4.243   1.365  17.325  2.3944  1.7418 -0.1516
  662MPD2    H1 9853   4.034   1.740  17.274  0.4851  0.9477  0.4345
  662MPD2    H2 9854   4.166   1.558  16.939 -1.3351  1.3378  0.6638
  662MPD2    H3 9855   4.061   1.717  17.037  0.1280  0.4553  1.1485
  662MPD2     N 9856   4.091   1.535  17.457 -0.0451  0.2995 -0.2655
  662MPD2    H5 9857   4.102   1.448  17.507 -0.0634  0.8971  0.7682
  662MPD2    N1 9858   4.306   1.334  17.067  0.3992 -0.0773  0.0307
  662MPD2    H7 9859   4.349   1.268  17.130  1.4354  0.8452  0.2867
  663TMC3    C1 9860   4.408   1.194  16.903  0.5046  0.1883 -0.5980
  663TMC3    C2 9861   4.485   1.145  17.007  0.6073  0.5816  0.0223
  663TMC3    C3 9862   4.597   1.076  16.973  0.3053  0.2924 -0.2440
  663TMC3    C4 9863   4.423   1.168  16.770  0.5162  0.4531  0.2245
  663TMC3    C5 9864   4.526   1.085  16.740 -0.3880 -0.3539  0.1931
  663TMC3    C6 9865   4.610   1.042  16.842 -0.4086  0.3554  0.2310
  663TMC3     C 9866   4.329   1.313  16.933  0.9269 -0.1255 -0.0752
  663TMC3     O 9867   4.279   1.374  16.836  0.2369  0.3096  0.0112
  663TMC3     H 9868   4.506   1.201  17.097  0.8902  0.7051 -0.1215
  663TMC3    H1 9869   4.358   1.215  16.697  1.0253  0.1554 -0.4275
  663TMC3    H2 9870   4.707   1.005  16.814 -0.5566 -1.0657  1.5826
  663TMC3    C7 9871   4.474   0.972  16.660 -0.2635 -0.2492  0.6014
  663TMC3    C8 9872   4.631   0.958  17.058 -0.0008  0.1469  0.2300
  663TMC3    O1 9873   4.386   0.998  16.580 -0.0311 -0.4834 -0.2049
  663TMC3    O2 9874   4.715   0.887  17.007  0.6298 -0.2873  0.8432
  664MPD2     C 9875   2.198   3.677  17.670  0.4836 -0.9828 -0.3584
  664MPD2    C1 9876   2.262   3.799  17.660 -0.1241  0.2352 -0.0339
  664MPD2    C2 9877   2.258   3.889   0.012  0.5569 -0.8860  0.1313
  664MPD2    C3 9878   2.199   3.847   0.129  0.0677 -0.4855 -0.2569
  664MPD2    C4 9879   2.130   3.727   0.143  0.4707 -0.4433  0.3404
  664MPD2    C5 9880   2.128   3.644   0.034  0.0366  0.5159 -0.0593
  664MPD2     H 9881   2.310   3.984   0.009 -0.7586 -0.0352  4.4373
  664MPD2    H1 9882   2.089   3.693   0.238  0.4290 -0.8615  0.1706
  664MPD2    H2 9883   2.201   3.614  17.582  0.9372  0.6320 -1.5120
  664MPD2    H3 9884   2.071   3.552   0.040  1.8419 -0.7225 -2.0499
  664MPD2     N 9885   2.221   3.943   0.230 -0.3892 -0.3073  0.3098
  664MPD2    H5 9886   2.283   4.019   0.206 -1.0015 -0.0853 -0.5634
  664MPD2    N1 9887   2.331   3.835  17.551  0.3066 -0.4560 -0.4013
  664MPD2    H7 9888   2.378   3.925  17.547  1.5118 -1.0294  1.2338
  665TMC3    C1 9889   2.239   4.021   0.460  0.3701 -0.4301 -0.3527
  665TMC3    C2 9890   2.167   4.031   0.578  0.1545  0.1010  0.2527
  665TMC3    C3 9891   2.245   4.056   0.686  0.2418  0.2053 -0.5352
  665TMC3    C4 9892   2.373   4.033   0.449 -0.6396 -0.5358  0.5994
  665TMC3    C5 9893   2.439   4.076   0.559  0.0780 -0.2293 -0.2103
  665TMC3    C6 9894   2.380   4.089   0.679  0.1856 -0.1063  0.1869
  665TMC3     C 9895   2.171   3.932   0.358 -0.2398 -0.5526  0.0680
  665TMC3     O 9896   2.068   3.873   0.393 -0.3031  0.0638  0.3034
  665TMC3     H 9897   2.062   4.002   0.581  0.7065 -1.7920  1.1301
  665TMC3    H1 9898   2.420   4.010   0.354 -1.0078 -2.1987  0.8198
  665TMC3    H2 9899   2.445   4.118   0.761 -2.0862  2.8720  0.9523
  665TMC3    C7 9900   2.575   4.134   0.546  0.1277  0.3516  0.1134
  665TMC3    C8 9901   2.185   4.105   0.811 -0.1549  0.1840 -0.4272
  665TMC3    O1 9902   2.629   4.106   0.438  0.2455 -0.4414 -0.0887
  665TMC3    O2 9903   2.269   4.123   0.897  0.1789 -0.5016  0.0406
  666TMC3    C1 9904   1.583   4.588   9.773 -0.1296 -0.5927 -0.1990
  666TMC3    C2 9905   1.714   4.618   9.778  0.1028  0.3169  0.4638
  666TMC3    C3 9906   1.753   0.009   9.808 -0.3574  0.4778 -0.1764
  666TMC3    C4 9907   1.487   4.677   9.809  1.0685  0.7160  0.3383
  666TMC3    C5 9908   1.530   0.065   9.853  0.7778 -0.9647  0.3391
  666TMC3    C6 9909   1.662   0.103   9.843  0.8354  0.2874  0.3491
  666TMC3     C 9910   1.563   4.446   9.794  0.7523 -0.5772 -0.5993
  666TMC3     O 9911   1.643   4.396   9.871 -0.1788  0.7006  0.1268
  666TMC3     H 9912   1.796   4.556   9.747 -0.3525 -0.6916  1.2896
  666TMC3    H1 9913   1.380   4.661   9.820  0.6896  3.5637  0.9503
  666TMC3    H2 9914   1.705   0.198   9.873  1.3845  0.0934  0.1936
  666TMC3    C7 9915   1.436   0.158   9.919  0.1845 -0.7104 -0.2279
  666TMC3    C8 9916   1.845   4.726   9.927 -0.5183 -0.9060 -0.4708
  666TMC3    O1 9917   1.328   0.113   9.953 -0.5798 -0.5272 -0.2757
  666TMC3    O2 9918   1.895   0.082   9.985  0.1075  0.3911 -0.2067
  667MPD2     C 9919   3.066   3.987  14.702 -0.5218  0.2007 -0.6780
  667MPD2    C1 9920   2.989   4.012  14.816  0.4853 -0.8732  0.0933
  667MPD2    C2 9921   2.861   3.960  14.835  0.1633  0.8748 -0.2259
  667MPD2    C3 9922   2.811   3.886  14.734 -0.4908  0.7036 -0.2370
  667MPD2    C4 9923   2.893   3.850  14.630  0.3670 -0.5649 -0.0752
  667MPD2    C5 9924   3.018   3.898  14.609 -0.2662  0.9465 -0.8979
  667MPD2     H 9925   2.798   3.983  14.920 -0.2631  0.5445 -0.4525
  667MPD2    H1 9926   2.851   3.793  14.548 -0.6718 -0.2268  0.2188
  667MPD2    H2 9927   3.165   4.030  14.690  0.1417 -1.2825 -0.6098
  667MPD2    H3 9928   3.085   3.875  14.527 -1.8379 -3.0672 -1.0824
  667MPD2     N 9929   2.676   3.833  14.735 -0.2683  0.2091 -0.0004
  667MPD2    H5 9930   2.650   3.778  14.654 -0.4790 -0.6166  0.6329
  667MPD2    N1 9931   3.031   4.108  14.913 -0.3261  0.1905 -0.2198
  667MPD2    H7 9932   2.968   4.134  14.988  1.5378  0.9892  1.0929
  668TMC3    C1 9933   3.148   4.264  15.039 -0.1025 -0.7166  0.1056
  668TMC3    C2 9934   3.249   4.353  15.038  0.2090 -0.9236 -0.7590
  668TMC3    C3 9935   3.290   4.406  15.154 -0.2243 -0.0240 -0.4567
  668TMC3    C4 9936   3.070   4.235  15.148  0.2179  0.3678 -0.3806
  668TMC3    C5 9937   3.120   4.287  15.266 -0.4582 -0.5937  0.0990
  668TMC3    C6 9938   3.226   4.374  15.268  0.7327  0.1167 -0.1643
  668TMC3     C 9939   3.146   4.179  14.922  0.0009  0.3682 -0.5969
  668TMC3     O 9940   3.251   4.166  14.858  0.0615 -0.9474 -0.1505
  668TMC3     H 9941   3.307   4.369  14.948  1.5562 -0.3743  0.2113
  668TMC3    H1 9942   2.988   4.164  15.149  0.9122 -0.4333 -0.9342
  668TMC3    H2 9943   3.257   4.421  15.361  1.2931  1.1082 -0.8576
  668TMC3    C7 9944   3.041   4.281  15.383  0.0731 -0.3251 -1.0362
  668TMC3    C8 9945   3.372   4.525  15.163  0.2241  0.2329  0.1833
  668TMC3    O1 9946   3.094   4.310  15.490  0.0878  0.3623 -0.2083
  668TMC3    O2 9947   3.383   4.575  15.275 -0.2829 -0.3453 -0.1304
  669TMC3    C1 9948   1.233   3.966  14.598  0.3593 -0.2235  0.4360
  669TMC3    C2 9949   1.176   3.985  14.474  0.4124  0.3458  0.2106
  669TMC3    C3 9950   1.230   4.073  14.392 -0.7819  0.3204 -0.1324
  669TMC3    C4 9951   1.345   4.040  14.640  0.3352 -0.0768 -0.2496
  669TMC3    C5 9952   1.390   4.136  14.555  0.3400 -0.0634 -0.6948
  669TMC3    C6 9953   1.334   4.158  14.435 -0.3327 -0.3394  0.2443
  669TMC3     C 9954   1.184   3.857  14.676 -0.1453 -0.0733  0.4094
  669TMC3     O 9955   1.073   3.812  14.642  0.1377 -0.2940 -0.1449
  669TMC3     H 9956   1.089   3.931  14.438  2.1447 -1.3932 -1.3760
  669TMC3    H1 9957   1.380   4.031  14.742  1.0351 -1.8720 -0.6411
  669TMC3    H2 9958   1.378   4.228  14.366 -0.1093 -2.4079 -1.7091
  669TMC3    C7 9959   1.507   4.217  14.591  0.2118 -0.6150  0.5628
  669TMC3    C8 9960   1.152   4.102  14.264  0.1639 -0.0921  0.1017
  669TMC3    O1 9961   1.554   4.295  14.509 -0.2651 -0.2606 -0.0355
  669TMC3    O2 9962   1.043   4.054  14.252 -0.6143 -0.2584  0.0695
  670MPD2     C 9963   4.278   1.241  13.266 -0.1805  0.0300  0.7421
  670MPD2    C1 9964   4.284   1.376  13.240 -0.6479 -0.2602 -0.1340
  670MPD2    C2 9965   4.287   1.459  13.351  0.9831  0.1369  0.1852
  670MPD2    C3 9966   4.276   1.418  13.481 -0.0315  0.8608  0.2752
  670MPD2    C4 9967   4.262   1.285  13.497  0.0322 -0.5508  0.5599
  670MPD2    C5 9968   4.261   1.195  13.395  0.0918 -0.1101  0.1017
  670MPD2     H 9969   4.301   1.566  13.340  1.4602  0.1868  1.2834
  670MPD2    H1 9970   4.266   1.239  13.595 -1.1809 -2.4591 -0.3070
  670MPD2    H2 9971   4.295   1.167  13.188  2.4752 -0.4359  1.7421
  670MPD2    H3 9972   4.260   1.087  13.411  1.2158 -0.4260 -2.1108
  670MPD2     N 9973   4.263   1.504  13.588 -0.1260  0.2053 -0.5362
  670MPD2    H5 9974   4.215   1.464  13.669  1.0227 -0.3728 -0.1487
  670MPD2    N1 9975   4.286   1.426  13.105 -0.1026  0.0777 -1.0396
  670MPD2    H7 9976   4.297   1.526  13.093  2.5483  0.0040  0.8647
  671TMC3    C1 9977   4.290   1.697  13.720 -0.4342 -0.5240  0.5500
  671TMC3    C2 9978   4.399   1.742  13.794 -0.0970  0.3977  0.1470
  671TMC3    C3 9979   4.373   1.759  13.931 -0.4566 -0.0510  0.0023
  671TMC3    C4 9980   4.168   1.666  13.765 -0.1203 -0.1601  0.4370
  671TMC3    C5 9981   4.148   1.691  13.892  0.1257  0.6421  0.3253
  671TMC3    C6 9982   4.247   1.740  13.978  0.1402  0.5237  0.8151
  671TMC3     C 9983   4.330   1.623  13.603 -0.0329 -0.4417  0.4266
  671TMC3     O 9984   4.433   1.659  13.547  0.0167  0.4381 -0.4284
  671TMC3     H 9985   4.504   1.729  13.769 -0.5497 -0.6757 -1.2180
  671TMC3    H1 9986   4.088   1.652  13.693  1.5519 -0.6159 -1.3336
  671TMC3    H2 9987   4.232   1.751  14.085  2.2432 -2.6333  1.4186
  671TMC3    C7 9988   4.034   1.621  13.941  0.2915  0.1953  0.7121
  671TMC3    C8 9989   4.466   1.695  14.016 -0.0169 -0.0107  0.6390
  671TMC3    O1 9990   3.974   1.544  13.866  0.5099 -0.7291  0.4165
  671TMC3    O2 9991   4.415   1.630  14.107 -0.5599 -0.5495 -0.4609
  672MPD2     C 9992   4.150   1.688   0.987  0.3806 -0.2121  0.1512
  672MPD2    C1 9993   4.283   1.657   1.006 -0.0382 -0.7962 -0.1766
  672MPD2    C2 9994   4.336   1.680   1.133 -0.0735  0.9361  0.0493
  672MPD2    C3 9995   4.261   1.754   1.223  0.3806  0.4791 -0.1629
  672MPD2    C4 9996   4.133   1.788   1.200 -0.4159  0.7196 -0.6161
  672MPD2    C5 9997   4.075   1.751   1.081 -0.0439  0.1842  0.0690
  672MPD2     H 9998   4.426   1.629   1.166 -0.4269 -0.8479 -1.7499
  672MPD2    H1 9999   4.072   1.851   1.264 -2.2433  0.1522 -1.8036
  672MPD2    H210000   4.096   1.670   0.895 -1.1917  0.9935  0.8288
  672MPD2    H310001   3.979   1.776   1.038  0.0185  1.1888  0.5030
  672MPD2     N10002   4.325   1.798   1.349  0.2414  0.5601 -0.6689
  672MPD2    H510003   4.281   1.876   1.396  0.0923  1.1528 -1.8040
  672MPD2    N110004   4.363   1.592   0.912  0.1183 -0.3342  0.1314
  672MPD2    H710005   4.462   1.581   0.931  0.0664  2.2050  1.8410
  673TMC3    C110006   4.437   1.541   0.707  0.2790 -0.0523  0.0196
  673TMC3    C210007   4.550   1.481   0.760  0.0954  0.4490 -0.1220
  673TMC3    C310008   4.663   1.491   0.682 -0.3395  0.6677 -0.1248
  673TMC3    C410009   4.433   1.621   0.598  0.6397  0.4383  0.0087
  673TMC3    C510010   4.543   1.622   0.522  0.3838  0.3288 -0.1271
  673TMC3    C610011   4.657   1.555   0.562  0.2162 -0.0172  0.2549
  673TMC3     C10012   4.318   1.556   0.788  0.2824 -0.1745 -0.1441
  673TMC3     O10013   4.210   1.568   0.736  0.2712 -0.1596  0.2015
  673TMC3     H10014   4.550   1.422   0.851 -2.1344  1.1223  0.3020
  673TMC3    H110015   4.339   1.661   0.562  0.8916  0.2259 -0.9060
  673TMC3    H210016   0.011   1.567   0.506 -0.2125 -1.0310 -0.6612
  673TMC3    C710017   4.566   1.730   0.437  0.0981  0.2960  0.6377
  673TMC3    C810018   0.039   1.417   0.737 -0.0965 -0.3878 -1.2338
  673TMC3    O110019   4.634   1.701   0.343  0.3089 -0.1059 -0.5156
  673TMC3    O210020   0.031   1.394   0.855  0.4416  0.3781 -0.2542
  674MPD2     C10021   4.166   2.485   0.024  0.0014 -0.5202 -0.1602
  674MPD2    C110022   4.142   2.372   0.097 -0.3101  0.1475 -0.2472
  674MPD2    C210023   4.042   2.380   0.193 -0.0264 -0.1889 -0.2850
  674MPD2    C310024   3.956   2.488   0.204  0.1481 -1.2593  0.1094
  674MPD2    C410025   3.967   2.598   0.122 -0.2997  0.3369 -0.6861
  674MPD2    C510026   4.078   2.596   0.033 -0.1937  0.1413  0.0180
  674MPD2     H10027   4.028   2.299   0.264  2.7281  1.2216  1.8434
  674MPD2    H110028   3.913   2.692   0.124 -0.4661  0.2326 -0.3384
  674MPD2    H210029   4.247   2.481  17.704 -1.1596  1.2654 -1.5464
  674MPD2    H310030   4.095   2.678  17.716 -0.1455  0.4775  0.4274
  674MPD2     N10031   3.855   2.471   0.304 -0.2153  0.2582  0.1282
  674MPD2    H510032   3.856   2.383   0.354 -2.1522  0.3205  0.2571
  674MPD2    N110033   4.213   2.253   0.072  0.2160  0.6716  0.0506
  674MPD2    H710034   4.292   2.271   0.011  0.6814  0.4752  0.5957
  675TMC3    C110035   4.295   2.038   0.091  0.7914  1.0819  0.0376
  675TMC3    C210036   4.244   1.915   0.107  0.6086  0.1425  0.1665
  675TMC3    C310037   4.324   1.807   0.085  0.6720 -0.1279  0.7387
  675TMC3    C410038   4.428   2.057   0.068  0.1886  0.2942 -0.8283
  675TMC3    C510039   4.504   1.945   0.031  0.7852  0.9851 -0.1441
  675TMC3    C610040   4.453   1.817   0.036  0.4330  0.3950  0.7089
  675TMC3     C10041   4.207   2.141   0.149  0.1892  0.2042  0.4027
  675TMC3     O10042   4.136   2.102   0.240 -0.3742  0.6993 -0.4953
  675TMC3     H10043   4.143   1.908   0.145  0.2573 -1.3916 -1.0622
  675TMC3    H110044   4.469   2.156   0.088  2.5387 -0.8028 -0.1591
  675TMC3    H210045   4.506   1.730  17.753  2.1052  1.5854  0.3080
  675TMC3    C710046   4.645   1.955   0.043 -0.0528 -0.1343  0.6464
  675TMC3    C810047   4.291   1.677   0.116  0.1194 -0.2040  0.2733
  675TMC3    O110048   4.701   2.063   0.025  0.1314 -0.4317  0.0381
  675TMC3    O210049   4.367   1.591   0.077  0.8193 -0.6938  0.3827
  676MPD2     C10050   1.698   0.576  11.430 -0.3625 -0.3885  0.6210
  676MPD2    C110051   1.594   0.489  11.463 -0.2796 -0.4938 -0.1017
  676MPD2    C210052   1.595   0.360  11.408  0.5013 -0.4917 -0.2130
  676MPD2    C310053   1.699   0.331  11.319 -0.0850  0.6457  0.1144
  676MPD2    C410054   1.809   0.416  11.301  0.0806 -0.2493 -0.3101
  676MPD2    C510055   1.805   0.536  11.357 -0.1142  0.2704  0.6233
  676MPD2     H10056   1.519   0.288  11.437 -0.2868 -0.5792 -2.4921
  676MPD2    H110057   1.902   0.400  11.248 -0.1009 -2.0423 -0.0890
  676MPD2    H210058   1.710   0.676  11.470 -0.5635 -0.0746 -0.1178
  676MPD2    H310059   1.879   0.607  11.323  0.9573 -1.5689 -0.8225
  676MPD2     N10060   1.703   0.211  11.239  0.8564 -0.2669 -0.0256
  676MPD2    H510061   1.775   0.197  11.168  0.3726  1.5553 -0.8631
  676MPD2    N110062   1.488   0.521  11.552 -0.2844 -0.0736 -0.3748
  676MPD2    H710063   1.439   0.443  11.596 -1.7016  0.4215 -1.0683
  677TMC3    C110064   1.390   0.659  11.716  0.0312 -0.0637 -0.3031
  677TMC3    C210065   1.284   0.575  11.729  0.2346  0.1205  0.8883
  677TMC3    C310066   1.205   0.597  11.839 -0.5274 -0.0290  0.7599
  677TMC3    C410067   1.410   0.762  11.800 -0.1351 -0.2073  0.0029
  677TMC3    C510068   1.318   0.784  11.902 -0.1600 -0.1861  0.4194
  677TMC3    C610069   1.216   0.699  11.928 -0.1542  0.3422 -0.3948
  677TMC3     C10070   1.474   0.648  11.602  0.4846  0.5343  0.4776
  677TMC3     O10071   1.529   0.755  11.574  0.1791 -0.0209  0.6900
  677TMC3     H10072   1.258   0.493  11.662  1.7811  0.4875 -0.1340
  677TMC3    H110073   1.502   0.820  11.794  0.0539 -0.4608  0.4064
  677TMC3    H210074   1.144   0.712  12.007  0.5163  0.7179  0.1572
  677TMC3    C710075   1.344   0.881  11.995 -0.4452 -0.5812  0.0516
  677TMC3    C810076   1.088   0.500  11.855  0.2198 -0.4829 -0.3879
  677TMC3    O110077   1.302   0.851  12.105  0.6848  0.3150  0.1544
  677TMC3    O210078   1.002   0.500  11.772  0.7136  0.4320  0.0025
  678MPD2     C10079   4.046   0.714   1.264  0.6818  0.4207  0.2274
  678MPD2    C110080   4.033   0.625   1.162 -0.2637 -0.5738 -0.0473
  678MPD2    C210081   3.918   0.590   1.112  0.2232 -0.4761 -1.0145
  678MPD2    C310082   3.803   0.643   1.168 -0.4218 -0.0056 -0.5903
  678MPD2    C410083   3.815   0.742   1.256 -0.5526  0.3234  0.1688
  678MPD2    C510084   3.934   0.784   1.308 -0.1997  0.2980  0.1577
  678MPD2     H10085   3.913   0.516   1.033  2.3318 -1.5181 -0.1719
  678MPD2    H110086   3.730   0.803   1.285 -1.1741  0.3258 -1.6633
  678MPD2    H210087   4.141   0.740   1.309 -0.1593  1.1739  1.5771
  678MPD2    H310088   3.941   0.870   1.373 -2.5014 -0.1225  0.9506
  678MPD2     N10089   3.678   0.586   1.117 -0.2494  0.2731  0.0193
  678MPD2    H510090   3.692   0.510   1.051 -1.5895 -0.7597  0.9320
  678MPD2    N110091   4.150   0.563   1.105  0.2035  0.1423  0.3275
  678MPD2    H710092   4.133   0.493   1.033  0.0849  1.0895 -0.5569
  679TMC3    C110093   4.588   0.403   1.066 -0.6397 -0.3486  0.0476
  679TMC3    C210094   4.484   0.448   1.145 -0.0683 -0.0642 -0.7028
  679TMC3    C310095   4.375   0.495   1.079 -0.0029 -0.8655  0.8342
  679TMC3    C410096   4.576   0.402   0.928 -0.3445 -0.0080 -0.8391
  679TMC3    C510097   4.460   0.428   0.871 -0.4265  0.1831 -0.5598
  679TMC3    C610098   4.354   0.484   0.944  0.1026  0.1117  0.4987
  679TMC3     C10099   4.677   0.299   1.115  0.7153  0.6066 -0.4637
  679TMC3     O10100   4.631   0.236   1.208  0.0299 -0.1044 -0.0341
  679TMC3     H10101   4.486   0.443   1.254  0.5104  0.7492 -0.6734
  679TMC3    H110102   4.659   0.373   0.864  0.3354  0.6661 -0.2533
  679TMC3    H210103   4.276   0.542   0.896 -0.2007  0.2190  1.1230
  679TMC3    C710104   4.435   0.417   0.730  0.0594  0.1810  0.0961
  679TMC3    C810105   4.278   0.570   1.158  0.2643  0.1714  0.6793
  679TMC3    O110106   4.333   0.471   0.688 -0.0661 -0.0637  0.0734
  679TMC3    O210107   4.328   0.635   1.248 -0.0009  0.1584 -0.3582
  680MPD2     C10108   3.390   4.132  13.890 -0.4375  0.0191 -0.6600
  680MPD2    C110109   3.476   4.032  13.842  0.0058  0.6355 -0.5865
  680MPD2    C210110   3.608   4.064  13.824 -0.5629  0.2427  0.0695
  680MPD2    C310111   3.665   4.193  13.852 -0.3709 -0.1450  0.0883
  680MPD2    C410112   3.578   4.288  13.902  0.5486  0.0576  0.2114
  680MPD2    C510113   3.439   4.260  13.920  0.1357  0.3359 -0.4965
  680MPD2     H10114   3.670   3.988  13.777 -0.5422 -0.0159  0.5167
  680MPD2    H110115   3.620   4.381  13.937  0.0029  0.8164 -1.1677
  680MPD2    H210116   3.282   4.125  13.891 -0.5657  1.7529 -2.5110
  680MPD2    H310117   3.380   4.334  13.973 -2.1320 -0.0629 -2.4881
  680MPD2     N10118   3.797   4.236  13.832 -0.0371 -0.2709  0.0944
  680MPD2    H510119   3.808   4.330  13.868 -0.3259  1.0573 -3.3511
  680MPD2    N110120   3.440   3.895  13.824  0.0578 -0.5908 -0.0099
  680MPD2    H710121   3.508   3.830  13.786 -0.1208 -0.5708 -0.3605
  681TMC3    C110122   3.368   3.697  13.899  0.5058  0.0204  0.3127
  681TMC3    C210123   3.377   3.674  14.030 -0.5105  0.2127 -0.5052
  681TMC3    C310124   3.491   3.612  14.080 -0.1428  0.7786  0.5034
  681TMC3    C410125   3.463   3.647  13.818  0.4639  0.2676  0.3309
  681TMC3    C510126   3.570   3.575  13.864 -0.0829  0.1258 -0.2538
  681TMC3    C610127   3.588   3.551  14.001  0.6752 -0.1548  0.1236
  681TMC3     C10128   3.332   3.833  13.877 -0.1635  0.1194  0.0547
  681TMC3     O10129   3.231   3.882  13.924 -0.5664 -0.1432 -0.1492
  681TMC3     H10130   3.302   3.726  14.089 -0.8996  0.5686 -1.3227
  681TMC3    H110131   3.447   3.673  13.714  0.4075 -1.9183 -0.1941
  681TMC3    H210132   3.675   3.498  14.040 -0.9666 -2.2191  0.9596
  681TMC3    C710133   3.650   3.496  13.771  0.3649  0.0906 -0.3120
  681TMC3    C810134   3.506   3.630  14.222  0.1658 -0.0837 -0.0822
  681TMC3    O110135   3.756   3.455  13.816 -0.4720 -0.1452 -0.3087
  681TMC3    O210136   3.398   3.645  14.286  0.0564  0.4867 -0.0710
  682MPD2     C10137   0.716   0.875  10.867  0.3786  0.1399 -1.0125
  682MPD2    C110138   0.704   0.738  10.853 -0.3426  0.1017  0.5212
  682MPD2    C210139   0.626   0.664  10.939 -0.7737  0.4478 -0.2577
  682MPD2    C310140   0.568   0.729  11.049 -0.4001  0.5262 -0.4765
  682MPD2    C410141   0.577   0.863  11.061 -0.0277 -0.6047  0.8847
  682MPD2    C510142   0.651   0.933  10.975 -0.5577  0.2945  0.2347
  682MPD2     H10143   0.615   0.557  10.922 -0.6194  0.5732 -1.1265
  682MPD2    H110144   0.543   0.921  11.146  3.5894 -1.3062  2.8294
  682MPD2    H210145   0.777   0.926  10.794  1.4527  2.4257  1.4905
  682MPD2    H310146   0.679   1.034  11.000 -1.2339  0.9639 -1.7002
  682MPD2     N10147   0.507   0.652  11.160  0.1123  0.8270 -0.1481
  682MPD2    H510148   0.480   0.712  11.237 -0.0553 -0.2585  0.6422
  682MPD2    N110149   0.775   0.662  10.753 -0.0102 -0.0087 -0.4260
  682MPD2    H710150   0.755   0.562  10.749 -2.0069  0.3638 -0.0268
  683TMC3    C110151   0.453   0.450  11.520 -0.2356 -0.7807 -0.4404
  683TMC3    C210152   0.391   0.328  11.513 -0.1762  0.2974  0.2596
  683TMC3    C310153   0.350   0.283  11.393 -0.2652 -0.3720  0.6723
  683TMC3    C410154   0.488   0.524  11.405 -0.2502 -0.1256  0.5034
  683TMC3    C510155   0.447   0.465  11.282 -0.8088  0.3139 -0.1674
  683TMC3    C610156   0.376   0.351  11.276 -0.0789 -0.1465 -0.0429
  683TMC3     C10157   0.516   0.504  11.632  0.0702  0.3466  0.7121
  683TMC3     O10158   0.518   0.627  11.627 -0.2884 -0.5772  0.2085
  683TMC3     H10159   0.373   0.274  11.606  1.7702 -0.6796  0.0564
  683TMC3    H110160   0.544   0.616  11.414  0.1130 -0.3251  0.2793
  683TMC3    H210161   0.331   0.311  11.187  0.6844 -0.7343 -0.1613
  683TMC3    C710162   0.475   0.518  11.150 -0.0154 -0.2071  0.5439
  683TMC3    C810163   0.261   0.169  11.390  0.0109  0.7735  0.4719
  683TMC3    O110164   0.483   0.431  11.067  0.2135  0.1690  0.0549
  683TMC3    O210165   0.197   0.168  11.283  0.2591 -0.2132  0.0063
  684MPD2     C10166   4.248   4.229  16.360 -0.4798  0.0972 -0.7078
  684MPD2    C110167   4.184   4.312  16.271  0.2443 -0.5217 -0.0820
  684MPD2    C210168   4.191   4.451  16.291  0.6683 -0.4102 -0.2902
  684MPD2    C310169   4.255   4.511  16.402 -0.0054  0.1637 -0.0998
  684MPD2    C410170   4.309   4.426  16.496  0.6307  0.6846  0.3036
  684MPD2    C510171   4.303   4.290  16.469  0.3238  0.7167  0.6070
  684MPD2     H10172   4.127   4.512  16.230  0.7176  0.4716  0.5436
  684MPD2    H110173   4.373   4.453  16.579  1.5494  0.6419 -0.3948
  684MPD2    H210174   4.254   4.121  16.352 -0.6461 -0.1593  3.0107
  684MPD2    H310175   4.349   4.223  16.540  0.3356 -0.0818 -0.1514
  684MPD2     N10176   4.267   4.652  16.415 -0.0167  0.1982 -0.0227
  684MPD2    H510177   4.344   4.678  16.475 -0.0289 -2.4023  1.1308
  684MPD2    N110178   4.135   4.268  16.144 -0.3389  0.2645  0.0485
  684MPD2    H710179   4.086   4.339  16.091 -0.8899  0.3334  0.6397
  685TMC3    C110180   4.086   4.143  15.961  0.3684 -0.2332  0.4164
  685TMC3    C210181   3.978   4.212  15.923 -0.2801  0.5128 -0.0420
  685TMC3    C310182   3.983   4.263  15.788  0.6007  0.4686  1.1953
  685TMC3    C410183   4.194   4.111  15.876 -0.3904  0.4016  0.2687
  685TMC3    C510184   4.201   4.167  15.752  0.1227 -0.9054 -0.1121
  685TMC3    C610185   4.091   4.241  15.702 -0.6955  0.4677  0.2107
  685TMC3     C10186   4.139   4.143  16.097 -0.0609 -0.1445  0.8047
  685TMC3     O10187   4.198   4.049  16.145  0.3059 -0.3086 -0.1954
  685TMC3     H10188   3.896   4.225  15.992  1.3888  0.9441  1.8852
  685TMC3    H110189   4.282   4.060  15.914 -0.2840 -0.3917 -1.0590
  685TMC3    H210190   4.103   4.284  15.603 -0.2909 -0.0137  0.0491
  685TMC3    C710191   4.340   4.211  15.730  0.7293 -0.4559  0.3238
  685TMC3    C810192   3.863   4.336  15.741  0.4293  0.1660 -0.5639
  685TMC3    O110193   4.428   4.122  15.732  0.2220  0.1300  0.1684
  685TMC3    O210194   3.848   4.330  15.618  0.3447  0.1521  0.3426
  686MPD2     C10195   0.965   4.677  15.334  0.0265  0.7604 -0.4585
  686MPD2    C110196   0.884   4.576  15.384 -0.2900 -0.4227  0.4802
  686MPD2    C210197   0.885   4.453  15.332  0.0233  0.1700  0.6218
  686MPD2    C310198   0.974   4.420  15.231 -0.0325  0.3407  0.2960
  686MPD2    C410199   1.058   4.519  15.186 -0.1952 -0.1123 -0.6961
  686MPD2    C510200   1.049   4.654  15.229  0.9877 -0.1983  0.4383
  686MPD2     H10201   0.811   4.380  15.362 -1.7686  1.9415  0.4613
  686MPD2    H110202   1.121   4.499  15.100  1.4619 -1.8491  0.9455
  686MPD2    H210203   0.968   0.038  15.375 -2.6394  0.3910  0.6317
  686MPD2    H310204   1.108   0.002  15.201  2.3221 -1.5425 -0.9166
  686MPD2     N10205   0.976   4.291  15.170 -0.6211 -0.7375  0.0069
  686MPD2    H510206   1.012   4.290  15.076 -2.5486  0.0294 -0.7420
  686MPD2    N110207   0.806   4.608  15.495 -0.6661  0.1751 -0.1602
  686MPD2    H710208   0.795   4.707  15.514 -1.5414 -0.2380  1.4896
  687TMC3    C110209   0.888   4.158  15.347 -0.9385  0.1254 -0.4697
  687TMC3    C210210   0.774   4.105  15.401  0.0735  0.4620 -0.0109
  687TMC3    C310211   0.768   4.082  15.538  0.7865 -0.7990  0.3339
  687TMC3    C410212   1.010   4.161  15.412 -0.1470  0.0321 -0.1846
  687TMC3    C510213   1.008   4.124  15.549 -0.5106  0.6159  0.7769
  687TMC3    C610214   0.879   4.103  15.611 -0.1084 -0.3622  0.0025
  687TMC3     C10215   0.892   4.184  15.200  0.2149  0.0325  0.4527
  687TMC3     O10216   0.873   4.082  15.132 -0.0447  0.0192  0.2398
  687TMC3     H10217   0.682   4.113  15.344  0.6580  0.9101 -0.8923
  687TMC3    H110218   1.106   4.176  15.363  0.3049 -2.4030 -0.0786
  687TMC3    H210219   0.880   4.085  15.718  1.3727 -2.6133 -0.3914
  687TMC3    C710220   1.132   4.162  15.623  0.3643 -0.3312  0.0217
  687TMC3    C810221   0.648   4.112  15.616 -0.1627  0.4003  0.2361
  687TMC3    O110222   1.209   4.225  15.555 -0.3685 -0.5537  0.2996
  687TMC3    O210223   0.640   4.080  15.733  0.0642 -0.1625 -0.4091
  688MPD2     C10224   4.725   3.411  17.652 -0.1151  0.3239 -0.0470
  688MPD2    C110225   0.026   3.280  17.636  0.1486 -0.1532 -0.0570
  688MPD2    C210226   0.114   3.235  17.538  0.6284  0.0844 -0.1677
  688MPD2    C310227   0.175   3.329  17.454  0.2739  0.1903 -0.1295
  688MPD2    C410228   0.133   3.460  17.471  0.1618 -0.0129 -0.1515
  688MPD2    C510229   0.044   3.503  17.564 -0.2373  1.0300 -0.1666
  688MPD2     H10230   0.150   3.133  17.536 -0.0090 -0.1315 -0.9341
  688MPD2    H110231   0.189   3.540  17.425 -0.0922 -0.6653 -1.5760
  688MPD2    H210232   4.660   3.448  17.730  1.5390  0.8244  1.1021
  688MPD2    H310233   0.031   3.610  17.574  3.1015  1.4221 -0.1280
  688MPD2     N10234   0.275   3.304  17.356 -0.4282  0.5154  0.2817
  688MPD2    H510235   0.299   3.377  17.290  0.1332 -0.2313 -0.3398
  688MPD2    N110236   4.720   3.190  17.742 -0.7400  0.1535 -0.2520
  688MPD2    H710237   0.029   3.101   0.000 -2.4241 -0.7363 -0.1298
  689TMC3    C110238   4.596   3.110   0.158 -0.6732 -0.2598 -0.1364
  689TMC3    C210239   4.544   3.137   0.285 -0.0429  0.8503  0.0394
  689TMC3    C310240   4.554   3.040   0.381 -1.1793  0.0007 -0.8234
  689TMC3    C410241   4.640   2.987   0.122 -0.3903  0.2702  0.0675
  689TMC3    C510242   4.653   2.892   0.221 -0.6038 -0.7216 -0.0936
  689TMC3    C610243   4.612   2.915   0.349  0.0762 -0.1253 -0.1645
  689TMC3     C10244   4.626   3.220   0.078 -0.0310 -0.2264  0.2980
  689TMC3     O10245   4.547   3.309   0.105  0.8347  0.1945  0.2477
  689TMC3     H10246   4.515   3.236   0.320 -0.8870  0.0474  1.5890
  689TMC3    H110247   4.681   2.961   0.025 -0.5697  1.1505 -0.2531
  689TMC3    H210248   4.621   2.838   0.425  0.2443 -0.3005 -0.3619
  689TMC3    C710249   4.666   2.756   0.187 -0.1763 -0.2991 -0.6473
  689TMC3    C810250   4.467   3.037   0.493 -0.1186 -0.2003  0.4580
  689TMC3    O110251   4.722   2.686   0.272  0.1804 -0.2248 -0.2994
  689TMC3    O210252   4.492   2.951   0.576  0.4840 -0.4086 -0.0647
  690MPD2     C10253   2.338   0.356  15.904  0.1578 -0.0227  0.2219
  690MPD2    C110254   2.341   0.387  15.775  0.4064  0.3209 -0.1543
  690MPD2    C210255   2.445   0.474  15.726 -0.8030  0.1790  0.9598
  690MPD2    C310256   2.539   0.527  15.817 -0.5749  0.0727  0.4727
  690MPD2    C410257   2.519   0.498  15.954  0.3985  0.2020 -0.4875
  690MPD2    C510258   2.423   0.406  15.991  0.2493  0.4299  0.2715
  690MPD2     H10259   2.460   0.483  15.619 -0.4598  1.3117  1.1077
  690MPD2    H110260   2.588   0.529  16.032  0.1777  1.1221 -0.6583
  690MPD2    H210261   2.261   0.287  15.937  0.7452 -1.0487 -0.5397
  690MPD2    H310262   2.414   0.374  16.095 -0.9542 -1.3253 -0.3733
  690MPD2     N10263   2.629   0.620  15.764  0.1858 -0.2252 -0.2055
  690MPD2    H510264   2.619   0.645  15.666 -0.5135  0.0236 -0.0683
  690MPD2    N110265   2.244   0.320  15.687 -0.4852  0.8536 -0.3767
  690MPD2    H710266   2.192   0.246  15.732  0.9471  1.0588  1.5863
  691TMC3    C110267   2.103   0.274  15.508  0.0050 -0.2786 -0.0781
  691TMC3    C210268   1.985   0.341  15.509 -0.3556 -0.1600  0.1062
  691TMC3    C310269   1.877   0.260  15.491 -0.5487  0.3371 -0.3077
  691TMC3    C410270   2.113   0.141  15.512 -0.2834  0.5067 -0.0637
  691TMC3    C510271   2.000   0.063  15.499 -0.2729  0.4103  0.3073
  691TMC3    C610272   1.886   0.126  15.485  0.3100  0.4739  0.2745
  691TMC3     C10273   2.219   0.353  15.555 -0.4212  0.6534 -0.5848
  691TMC3     O10274   2.257   0.447  15.482  0.3017  0.2160  0.4756
  691TMC3     H10275   1.971   0.448  15.517  0.0512 -0.1401  0.5397
  691TMC3    H110276   2.210   0.091  15.519 -1.6013 -1.8022  1.6112
  691TMC3    H210277   1.793   0.073  15.469  1.7244 -1.5072 -1.3160
  691TMC3    C710278   2.008   4.661  15.536 -0.1164 -0.6979  0.2891
  691TMC3    C810279   1.738   0.303  15.450 -0.3223  0.1372  0.2539
  691TMC3    O110280   2.125   4.637  15.566  0.1145 -0.2951  0.1221
  691TMC3    O210281   1.674   0.231  15.377 -0.5571 -0.1715 -0.1310
  692TMC3    C110282   4.022   1.229  15.710 -0.4852 -0.1712 -0.4623
  692TMC3    C210283   4.146   1.257  15.762  0.5679 -0.6767 -0.4699
  692TMC3    C310284   4.237   1.158  15.776 -0.5564 -0.1271 -0.1335
  692TMC3    C410285   3.982   1.102  15.676 -0.3668  0.0598  0.2669
  692TMC3    C510286   4.068   1.000  15.717  0.0318  0.5743  0.0677
  692TMC3    C610287   4.193   1.024  15.764 -0.1676 -0.6216  0.8946
  692TMC3     C10288   3.916   1.326  15.714  0.5547 -0.8500  0.4215
  692TMC3     O10289   3.804   1.293  15.747  0.3596 -0.4403 -0.0930
  692TMC3     H10290   4.180   1.359  15.762 -0.5170 -0.3137  1.5869
  692TMC3    H110291   3.877   1.081  15.656  0.0351 -3.3964  1.7134
  692TMC3    H210292   4.255   0.935  15.768 -1.2361 -1.3452  1.5062
  692TMC3    C710293   4.017   0.867  15.703 -0.1092 -0.0731 -0.0445
  692TMC3    C810294   4.321   1.177  15.896 -0.4741  0.3014  0.1966
  692TMC3    O110295   3.916   0.854  15.635  0.9064 -0.2841  0.9100
  692TMC3    O210296   4.357   1.076  15.955 -0.6349  0.2430  0.1286
  693MPD2     C10297   3.138   4.432  11.040  0.1365  0.0891 -0.2915
  693MPD2    C110298   3.085   4.315  11.002  0.8653 -0.2817  0.3456
  693MPD2    C210299   3.168   4.211  10.986  0.1008 -0.5572  1.2142
  693MPD2    C310300   3.307   4.221  11.027  0.5684  0.5410  0.4773
  693MPD2    C410301   3.349   4.342  11.086  0.8351  0.2693  0.1375
  693MPD2    C510302   3.269   4.449  11.075  0.1388 -0.0916  0.0785
  693MPD2     H10303   3.143   4.115  10.942  1.1837  0.0553 -0.7511
  693MPD2    H110304   3.451   4.361  11.118  1.3978 -3.6800  0.6922
  693MPD2    H210305   3.079   4.523  11.044  1.9616  1.2943 -0.9552
  693MPD2    H310306   3.312   4.543  11.108 -1.6709  1.1528 -1.0720
  693MPD2     N10307   3.394   4.109  11.033  0.2975 -0.0576  0.2322
  693MPD2    H510308   3.488   4.112  11.074  0.6125 -0.4280 -0.4729
  693MPD2    N110309   2.946   4.310  10.969  0.2949 -0.3595 -0.2741
  693MPD2    H710310   2.898   4.399  10.980  0.5351 -0.6408  3.1546
  694TMC3    C110311   2.738   4.216  10.914 -0.0902 -0.5856 -0.2680
  694TMC3    C210312   2.665   4.131  10.838 -0.1098 -0.1806 -0.2807
  694TMC3    C310313   2.527   4.151  10.835 -0.5935 -0.1149  0.2638
  694TMC3    C410314   2.674   4.311  10.990 -0.3368  0.5113 -0.4584
  694TMC3    C510315   2.535   4.329  10.988  0.1732  0.2869 -0.1510
  694TMC3    C610316   2.459   4.235  10.918  0.7504  0.1931 -0.8960
  694TMC3     C10317   2.880   4.200  10.918 -0.1438  0.9445 -0.4977
  694TMC3     O10318   2.926   4.094  10.881 -0.3047  0.1087  0.0739
  694TMC3     H10319   2.720   4.066  10.771  2.5232  1.1296  0.6138
  694TMC3    H110320   2.726   4.390  11.043  2.1169 -0.1561 -1.8642
  694TMC3    H210321   2.354   4.257  10.904  0.9331  0.7273 -1.4007
  694TMC3    C710322   2.470   4.421  11.078 -0.3573  0.0815  0.8946
  694TMC3    C810323   2.447   4.044  10.770 -0.2839  0.0567 -0.1664
  694TMC3    O110324   2.536   4.523  11.096 -0.2116  0.4013 -0.5032
  694TMC3    O210325   2.335   4.028  10.811 -0.1186  0.2196  0.5211
  695MPD2     C10326   4.098   0.755  14.195  0.0874 -0.1134 -0.1257
  695MPD2    C110327   4.146   0.842  14.098  0.1012  0.1118 -0.4507
  695MPD2    C210328   4.048   0.910  14.029  0.0137  0.1766  0.3941
  695MPD2    C310329   3.913   0.895  14.039  0.2247 -0.2844  0.1498
  695MPD2    C410330   3.872   0.810  14.133 -0.0528  0.3516  0.2946
  695MPD2    C510331   3.966   0.740  14.213  0.1038 -0.2337  0.2145
  695MPD2     H10332   4.072   0.984  13.953  1.7918  0.3805  1.1698
  695MPD2    H110333   3.766   0.790  14.143 -0.4000  1.3372 -1.3397
  695MPD2    H210334   4.169   0.704  14.259 -0.2036 -1.7102 -1.0747
  695MPD2    H310335   3.931   0.675  14.293 -0.6369  0.1620  0.2131
  695MPD2     N10336   3.827   0.978  13.959 -0.0650 -0.2626 -0.3198
  695MPD2    H510337   3.868   1.051  13.902  0.7886 -2.1191 -2.0737
  695MPD2    N110338   4.283   0.870  14.074 -0.3351  0.3096 -0.3322
  695MPD2    H710339   4.293   0.937  13.999 -1.9442  1.2504  0.2803
  696TMC3    C110340   3.639   1.114  13.920  0.1893 -0.5528 -0.0660
  696TMC3    C210341   3.556   1.198  13.983 -0.8365  0.0379  0.6732
  696TMC3    C310342   3.501   1.302  13.913  0.1789 -0.8179 -0.1172
  696TMC3    C410343   3.687   1.125  13.793  0.1715 -0.4867  0.0901
  696TMC3    C510344   3.629   1.233  13.724  0.6251  0.0947 -0.2222
  696TMC3    C610345   3.540   1.313  13.785 -0.7858  0.5171  0.2116
  696TMC3     C10346   3.697   0.998  13.991 -0.5986  0.3788  0.3459
  696TMC3     O10347   3.621   0.942  14.072  0.0356 -0.0775  0.1925
  696TMC3     H10348   3.538   1.184  14.089  0.2559 -0.5488  0.7754
  696TMC3    H110349   3.748   1.055  13.737  0.0698 -1.3548  1.0762
  696TMC3    H210350   3.490   1.383  13.720 -2.2063 -1.8987 -1.2829
  696TMC3    C710351   3.716   1.283  13.623 -0.4026 -0.0476 -0.2895
  696TMC3    C810352   3.549   1.423  13.975 -0.8204  0.1970 -0.3577
  696TMC3    O110353   3.801   1.209  13.577 -0.4418  0.3233 -0.3768
  696TMC3    O210354   3.563   1.516  13.905  0.0328  0.0111 -0.3644
  697MPD2     C10355   3.399   3.196  15.789  0.3594 -0.1899 -0.3973
  697MPD2    C110356   3.445   3.170  15.663  0.3810  0.0284 -0.2582
  697MPD2    C210357   3.482   3.274  15.586  0.2860 -0.0695 -0.4434
  697MPD2    C310358   3.463   3.400  15.633  0.1617  0.1812  0.2669
  697MPD2    C410359   3.416   3.425  15.757  0.5969  0.3483 -0.1087
  697MPD2    C510360   3.388   3.325  15.836  0.1674  0.2656 -0.5040
  697MPD2     H10361   3.519   3.260  15.485 -0.7224  2.0336 -1.1003
  697MPD2    H110362   3.422   3.527  15.793  3.2625 -0.3015  1.2789
  697MPD2    H210363   3.378   3.118  15.860 -0.3906 -0.3608 -0.8043
  697MPD2    H310364   3.343   3.351  15.931  1.8735  1.9367 -0.1666
  697MPD2     N10365   3.505   3.503  15.541 -0.1463 -0.4599  0.4771
  697MPD2    H510366   3.551   3.472  15.456  0.6653 -1.1759  1.1679
  697MPD2    N110367   3.458   3.038  15.618 -0.0779  0.3212  0.0415
  697MPD2    H710368   3.447   2.965  15.688 -0.3245  0.1151 -0.2113
  698TMC3    C110369   3.514   3.717  15.436  0.0165 -0.1080  0.6134
  698TMC3    C210370   3.632   3.792  15.448  0.3701 -0.0178 -1.0746
  698TMC3    C310371   3.714   3.806  15.341 -0.6704  0.4677 -0.1081
  698TMC3    C410372   3.483   3.651  15.316  0.0387 -0.6035  0.1281
  698TMC3    C510373   3.575   3.659  15.216 -0.6808 -0.9138 -0.0846
  698TMC3    C610374   3.683   3.740  15.222 -0.2974  0.3117 -0.0440
  698TMC3     C10375   3.485   3.641  15.556  0.4778  0.1272  0.1238
  698TMC3     O10376   3.456   3.712  15.653 -0.0649 -0.3511  0.7597
  698TMC3     H10377   3.653   3.831  15.546  0.0554 -0.8399 -0.6797
  698TMC3    H110378   3.404   3.578  15.305 -1.3909  1.3893 -2.5621
  698TMC3    H210379   3.738   3.758  15.131 -2.3727  1.1171 -1.1267
  698TMC3    C710380   3.543   3.594  15.092  0.1637 -0.4389  0.2841
  698TMC3    C810381   3.802   3.928  15.351  0.2289  0.2786 -0.6367
  698TMC3    O110382   3.423   3.607  15.060  0.8936 -0.7212 -0.3305
  698TMC3    O210383   3.769   4.003  15.446  0.5841  0.1523 -0.7819
  699TMC3    C110384   3.664   1.368  13.143 -0.7428  0.5419  0.2673
  699TMC3    C210385   3.674   1.229  13.155 -0.0625 -0.2719  0.0694
  699TMC3    C310386   3.601   1.169  13.252  0.5795 -0.1221  0.0596
  699TMC3    C410387   3.599   1.444  13.227  0.2552  0.3768  0.0957
  699TMC3    C510388   3.528   1.381  13.327  0.2093  0.3394 -0.4113
  699TMC3    C610389   3.515   1.242  13.328 -0.5867 -0.2369  0.2516
  699TMC3     C10390   3.726   1.441  13.035  0.0026 -0.2094  0.3932
  699TMC3     O10391   3.686   1.553  13.011  0.3339 -0.0242  0.7686
  699TMC3     H10392   3.741   1.170  13.094  1.6073  0.9714  0.6742
  699TMC3    H110393   3.610   1.552  13.226  2.2544  0.1478 -1.5095
  699TMC3    H210394   3.464   1.196  13.412  0.4423  1.7401  1.9535
  699TMC3    C710395   3.447   1.453  13.426  0.2672  0.2785  0.1278
  699TMC3    C810396   3.659   1.041  13.313  0.3000  0.2247 -0.4608
  699TMC3    O110397   3.384   1.385  13.508 -0.2710  0.1875 -0.1392
  699TMC3    O210398   3.583   0.976  13.382 -0.3525  0.3356 -0.4198
  700TMC3    C110399   3.416   3.775  16.988  0.7516 -0.4989 -0.4976
  700TMC3    C210400   3.521   3.699  16.955  0.5556  0.2521 -0.1114
  700TMC3    C310401   3.648   3.728  17.010 -1.0838  0.3688 -0.6423
  700TMC3    C410402   3.441   3.881  17.078 -0.9361  0.5227  0.4603
  700TMC3    C510403   3.562   3.903  17.130 -0.1438  0.2184 -0.0105
  700TMC3    C610404   3.671   3.838  17.084 -0.0573 -0.0452 -0.0298
  700TMC3     C10405   3.352   3.836  16.872  0.3559 -0.5642 -0.2011
  700TMC3     O10406   3.425   3.859  16.775 -0.6351 -0.7697 -0.4589
  700TMC3     H10407   3.507   3.615  16.889 -0.8096  0.0941  0.3691
  700TMC3    H110408   3.356   3.927  17.128 -1.3597  0.0253  0.1972
  700TMC3    H210409   3.767   3.853  17.133  0.0783 -1.1691  0.0480
  700TMC3    C710410   3.592   4.032  17.185  0.0929 -0.0346  0.1746
  700TMC3    C810411   3.745   3.631  16.967  0.2796 -0.3225 -0.4232
  700TMC3    O110412   3.690   4.039  17.257 -0.0521 -0.0005  0.2702
  700TMC3    O210413   3.694   3.523  16.932 -0.2625  0.0500  0.6543
  701TMC3    C110414   2.869   2.414  15.534  0.4765 -0.2230 -0.4785
  701TMC3    C210415   2.847   2.420  15.403  0.1088 -0.0864 -0.3992
  701TMC3    C310416   2.949   2.465  15.320  0.0029 -0.1033  0.1817
  701TMC3    C410417   2.984   2.461  15.587 -0.2742  0.0845  0.3447
  701TMC3    C510418   3.083   2.504  15.506  0.3116  0.3401 -0.0603
  701TMC3    C610419   3.070   2.510  15.373 -0.7537  0.9019 -0.4505
  701TMC3     C10420   2.751   2.457  15.613  0.9013  0.3219 -0.5654
  701TMC3     O10421   2.770   2.561  15.678 -0.0335  0.2693 -0.1245
  701TMC3     H10422   2.747   2.399  15.366 -0.2178 -2.3120  1.7468
  701TMC3    H110423   2.983   2.464  15.696  0.0870 -2.0900  0.3969
  701TMC3    H210424   3.140   2.555  15.305 -0.6219  0.8834 -0.3269
  701TMC3    C710425   3.138   2.624  15.560 -0.0723 -0.0128 -0.0543
  701TMC3    C810426   2.931   2.483  15.176  0.0167  0.0816  0.9401
  701TMC3    O110427   3.137   2.721  15.481 -0.3033  0.0588 -0.5776
  701TMC3    O210428   2.983   2.571  15.108 -0.0502 -0.1637  0.5450
  702MPD2     C10429   1.854   0.053  10.547  0.2106  0.9140  0.4035
  702MPD2    C110430   1.738   0.087  10.606  0.7640 -0.1886 -0.3909
  702MPD2    C210431   1.656   0.178  10.541 -0.5864  0.1046 -0.5190
  702MPD2    C310432   1.697   0.237  10.420 -0.5958  0.4993  1.0591
  702MPD2    C410433   1.817   0.207  10.366 -0.3124  0.5865  0.2059
  702MPD2    C510434   1.890   0.113  10.437  0.0242 -0.2640 -0.1029
  702MPD2     H10435   1.558   0.198  10.583  0.0268 -1.5152  1.6582
  702MPD2    H110436   1.858   0.265  10.285  0.8655 -2.6021 -1.5072
  702MPD2    H210437   1.917   4.720  10.597 -0.6295  0.6737  1.1251
  702MPD2    H310438   1.986   0.084  10.395  0.6610  3.4413 -1.1477
  702MPD2     N10439   1.622   0.344  10.369  0.8267  0.0190 -0.2533
  702MPD2    H510440   1.531   0.347  10.415 -0.1656 -3.3432 -2.0282
  702MPD2    N110441   1.691   0.045  10.730  0.2288  0.7877  0.0003
  702MPD2    H710442   1.603   0.075  10.770  0.9322  0.0253  2.1247
  703TMC3    C110443   1.588   0.567  10.337 -0.0667  0.0672 -0.0764
  703TMC3    C210444   1.453   0.536  10.370  0.7911 -0.0013  0.1859
  703TMC3    C310445   1.401   0.572  10.490  0.6952 -0.1541  0.5670
  703TMC3    C410446   1.659   0.648  10.418  0.3301 -0.2914 -0.1177
  703TMC3    C510447   1.600   0.696  10.533  0.1653  0.1464  0.7356
  703TMC3    C610448   1.471   0.661  10.570 -0.6301  0.2858 -0.4154
  703TMC3     C10449   1.671   0.452  10.298 -0.4583  0.1220 -0.3799
  703TMC3     O10450   1.787   0.469  10.263  0.0766 -0.5108 -0.1758
  703TMC3     H10451   1.403   0.462  10.309  0.7183 -1.4854  2.0836
  703TMC3    H110452   1.757   0.686  10.391  1.0247 -1.6802  0.4093
  703TMC3    H210453   1.424   0.706  10.657 -0.4858  0.4003 -0.3964
  703TMC3    C710454   1.681   0.780  10.623  0.4481 -0.6888  0.4681
  703TMC3    C810455   1.331   0.460  10.552 -0.5117  0.2574  0.1586
  703TMC3    O110456   1.802   0.773  10.615  0.3794  0.2309 -0.4302
  703TMC3    O210457   1.362   0.348  10.509  0.0457 -0.3341 -0.3428
  704TMC3    C110458   3.922   3.141  11.948  0.2297 -0.6078 -0.2219
  704TMC3    C210459   4.024   3.125  11.859 -0.6344  0.0193  0.5442
  704TMC3    C310460   4.141   3.059  11.902  0.0996 -0.1044 -0.0133
  704TMC3    C410461   3.919   3.072  12.070  0.5758 -0.2821 -0.6521
  704TMC3    C510462   4.032   3.012  12.107  0.0535  0.9147  0.0028
  704TMC3    C610463   4.150   3.006  12.027  0.4725 -0.5591  0.1546
  704TMC3     C10464   3.802   3.212  11.915 -0.0585  0.6536 -0.4107
  704TMC3     O10465   3.701   3.187  11.976  0.7122  0.3018  0.0354
  704TMC3     H10466   4.010   3.164  11.758  1.3229  0.0673  0.2971
  704TMC3    H110467   3.831   3.081  12.133  0.9383  0.0546 -0.1936
  704TMC3    H210468   4.240   2.957  12.063  0.3190 -0.1656  1.0761
  704TMC3    C710469   4.015   2.941  12.235 -0.4197  0.4411 -0.3878
  704TMC3    C810470   4.261   3.041  11.819 -0.3104 -0.1470 -0.2702
  704TMC3    O110471   3.918   2.970  12.303 -0.1807 -0.0722 -0.8493
  704TMC3    O210472   4.349   2.971  11.868 -0.4329  0.1835 -0.4489
  705MPD2     C10473   4.207   0.745  16.249  0.3069  0.1308  0.2939
  705MPD2    C110474   4.247   0.867  16.300 -0.0937  0.2052  0.1861
  705MPD2    C210475   4.155   0.944  16.366  0.3152  0.6725 -0.1430
  705MPD2    C310476   4.026   0.900  16.382 -0.2846 -0.4808  0.4262
  705MPD2    C410477   3.998   0.773  16.337  0.1624  0.5554 -0.0367
  705MPD2    C510478   4.088   0.693  16.279 -0.3692  0.2058  0.2477
  705MPD2     H10479   4.197   1.033  16.412 -1.3935  0.6369  1.5107
  705MPD2    H110480   3.894   0.744  16.331 -0.0703  1.1247  1.1403
  705MPD2    H210481   4.283   0.685  16.199 -1.5712 -0.0762 -2.3240
  705MPD2    H310482   4.050   0.608  16.223  0.0395 -0.6003  1.2077
  705MPD2     N10483   3.926   0.978  16.441  0.1853 -0.0214 -0.5819
  705MPD2    H510484   3.836   0.933  16.453 -0.5706  1.1297 -1.9447
  705MPD2    N110485   4.377   0.915  16.286  0.3933 -0.0767 -0.1484
  705MPD2    H710486   4.382   0.999  16.343  3.5507  0.2940 -0.9788
  706TMC3    C110487   0.106   0.917  16.274  0.3854 -1.1620  0.0613
  706TMC3    C210488   0.105   1.017  16.368  0.0305  0.6197 -0.7962
  706TMC3    C310489   4.726   1.080  16.391  0.2001  0.8886  0.9713
  706TMC3    C410490   4.723   0.880  16.215  0.8498 -0.5086  0.6953
  706TMC3    C510491   4.612   0.942  16.246  0.6457 -0.5768 -0.2271
  706TMC3    C610492   4.607   1.046  16.335 -0.3066  0.5069  0.5767
  706TMC3     C10493   0.227   0.870  16.215  0.1647  0.4360 -0.1151
  706TMC3     O10494   0.326   0.854  16.286 -0.2812 -0.7240 -0.2838
  706TMC3     H10495   0.196   1.041  16.421  1.2564  0.0934 -2.6388
  706TMC3    H110496   4.716   0.805  16.137 -1.0363  0.5121 -0.1092
  706TMC3    H210497   4.514   1.080  16.379 -1.2692 -1.3303 -0.0204
  706TMC3    C710498   4.485   0.869  16.215  0.7352  0.2190 -0.2475
  706TMC3    C810499   4.730   1.203  16.470  0.4562  0.4474  0.7040
  706TMC3    O110500   4.487   0.764  16.153  0.2623 -0.3377  0.1268
  706TMC3    O210501   0.032   1.186  16.584  0.3547 -0.0569  0.0605
  707TMC3    C110502   1.578   0.386   1.561 -0.7270 -0.3824 -0.4537
  707TMC3    C210503   1.644   0.428   1.675 -0.4641 -0.1735  0.2078
  707TMC3    C310504   1.581   0.450   1.796 -0.2738  0.5362  0.4720
  707TMC3    C410505   1.443   0.377   1.558 -0.2310  1.3071  0.5205
  707TMC3    C510506   1.371   0.398   1.674  0.3799 -0.8628  0.1154
  707TMC3    C610507   1.441   0.446   1.790 -0.6258 -0.9765 -0.2204
  707TMC3     C10508   1.662   0.328   1.455 -0.0632 -0.2456 -0.5322
  707TMC3     O10509   1.778   0.298   1.477 -0.1751  0.3772 -0.0766
  707TMC3     H10510   1.750   0.444   1.659 -0.4866  0.3896  0.5828
  707TMC3    H110511   1.401   0.327   1.472  2.7394 -0.2278 -0.0282
  707TMC3    H210512   1.375   0.473   1.872 -0.5079  0.8248 -0.7133
  707TMC3    C710513   1.227   0.384   1.687  0.0703 -0.1403  0.0581
  707TMC3    C810514   1.625   0.366   1.904  0.0329 -0.0473 -0.5924
  707TMC3    O110515   1.180   0.403   1.800 -0.1148  0.4851 -0.2485
  707TMC3    O210516   1.562   0.358   2.009  0.7314 -0.3541 -0.7694
  708MPD2     C10517   2.566   4.249  13.837 -1.1462  0.2265  0.3445
  708MPD2    C110518   2.474   4.225  13.932  0.2647  0.1360  0.3374
  708MPD2    C210519   2.517   4.208  14.059  0.0660 -0.8911  0.7989
  708MPD2    C310520   2.648   4.210  14.100  0.1634 -1.4706 -0.6200
  708MPD2    C410521   2.739   4.233  14.007 -0.7971  0.1677  0.5158
  708MPD2    C510522   2.699   4.261  13.878 -0.4319 -0.2260  0.4423
  708MPD2     H10523   2.443   4.208  14.137  0.5061 -1.0571  1.2182
  708MPD2    H110524   2.846   4.244  14.022 -0.5532  1.1144 -1.9514
  708MPD2    H210525   2.551   4.279  13.734  0.9797 -1.8130 -0.5702
  708MPD2    H310526   2.768   4.295  13.802  0.0309 -1.1652  0.4383
  708MPD2     N10527   2.695   4.206  14.237 -0.1583  0.1807 -0.6280
  708MPD2    H510528   2.794   4.217  14.258 -0.5590  1.8066  0.4924
  708MPD2    N110529   2.336   4.234  13.893 -0.0528  0.1745  0.0583
  708MPD2    H710530   2.306   4.260  13.800 -1.4612 -0.7082  0.2629
  709TMC3    C110531   2.109   4.210  13.914 -0.3983 -0.4069 -0.2737
  709TMC3    C210532   2.062   4.094  13.855 -0.4383  0.1562 -0.1385
  709TMC3    C310533   1.939   4.045  13.881 -0.2728 -0.4690  0.5873
  709TMC3    C410534   2.025   4.278  14.002  0.0142  0.1277 -0.8861
  709TMC3    C510535   1.903   4.221  14.036  0.8257  0.0538  0.5698
  709TMC3    C610536   1.862   4.104  13.979  0.5611 -0.0126 -0.3002
  709TMC3     C10537   2.232   4.190  13.972  0.3803  0.0640 -0.0926
  709TMC3     O10538   2.222   4.154  14.091 -0.1412  0.1656 -0.1026
  709TMC3     H10539   2.125   4.029  13.796 -0.3941 -0.6287  0.7627
  709TMC3    H110540   2.071   4.355  14.064  1.4306 -1.4770  0.0655
  709TMC3    H210541   1.764   4.068  14.008  1.3996 -1.3107  0.9211
  709TMC3    C710542   1.883   4.204  14.183  0.2869 -0.3947 -0.0902
  709TMC3    C810543   1.872   3.949  13.794  0.4600 -0.3026  1.3231
  709TMC3    O110544   1.767   4.205  14.226  0.2082  0.5104 -0.1316
  709TMC3    O210545   1.770   3.895  13.827 -0.0864 -0.3675 -0.1638
  710TMC3    C110546   3.984   0.742   0.095 -0.6400 -0.6059  0.2946
  710TMC3    C210547   4.052   0.798  17.741  0.4112 -0.2110 -0.2209
  710TMC3    C310548   4.185   0.774  17.714  0.8725 -0.2829  0.5928
  710TMC3    C410549   4.054   0.673   0.186 -0.1715 -0.3327  0.5498
  710TMC3    C510550   4.194   0.667   0.163  0.5125 -0.4577  0.3135
  710TMC3    C610551   4.260   0.701   0.052  0.0012  0.5801  0.2276
  710TMC3     C10552   3.843   0.752   0.105  0.1563 -0.2657 -0.1386
  710TMC3     O10553   3.789   0.728  17.750  0.2994 -0.2647  0.1036
  710TMC3     H10554   3.981   0.838  17.669 -0.5130 -1.9964 -0.3035
  710TMC3    H110555   4.013   0.630   0.277 -3.0386  0.0926 -0.5483
  710TMC3    H210556   4.368   0.691   0.048  0.2173  2.5630  1.1148
  710TMC3    C710557   4.271   0.603   0.266 -0.0979  0.8410 -0.9168
  710TMC3    C810558   4.255   0.803  17.596 -0.3093 -0.9287 -0.0469
  710TMC3    O110559   4.223   0.624   0.374 -0.3076  0.6865 -0.1733
  710TMC3    O210560   4.193   0.878  17.521 -0.4668 -0.3456 -0.0772
  711TMC3    C110561   3.668   1.941  15.185 -0.0863  0.2551  0.3660
  711TMC3    C210562   3.759   1.996  15.272  0.6764 -0.7284 -0.5877
  711TMC3    C310563   3.889   2.000  15.236  0.2091 -0.2628  0.2427
  711TMC3    C410564   3.711   1.876  15.075  0.0403 -0.1416 -0.3101
  711TMC3    C510565   3.837   1.891  15.033  0.8008 -0.4369  0.0062
  711TMC3    C610566   3.928   1.956  15.111 -0.6676 -0.0362  0.2600
  711TMC3     C10567   3.530   1.945  15.207 -0.1994 -0.4815  0.0056
  711TMC3     O10568   3.470   1.849  15.166  0.3226  0.4522 -0.2126
  711TMC3     H10569   3.720   2.006  15.373  2.3254  0.3612 -0.0612
  711TMC3    H110570   3.640   1.826  15.010 -0.0276  2.1739 -2.0292
  711TMC3    H210571   4.030   1.970  15.078 -0.2519  1.0417  2.0137
  711TMC3    C710572   3.887   1.768  14.993 -0.1902  0.0436  0.1880
  711TMC3    C810573   3.988   1.991  15.344  0.1981 -0.2713 -0.0926
  711TMC3    O110574   3.986   1.735  15.063  0.6768 -0.0529  0.4596
  711TMC3    O210575   3.952   2.025  15.454 -0.0154  0.4775  0.0010
  712MPD2     C10576   0.037   2.682  13.688  0.3522 -0.2301  0.2073
  712MPD2    C110577   4.659   2.746  13.647  1.0656  1.2160  1.1471
  712MPD2    C210578   4.670   2.867  13.582  0.2422 -0.0365  0.2049
  712MPD2    C310579   0.055   2.933  13.554  0.7467 -0.0184 -0.3718
  712MPD2    C410580   0.168   2.871  13.604 -0.0558 -0.5434 -0.7216
  712MPD2    C510581   0.155   2.749  13.669 -0.7708 -0.7917  0.3163
  712MPD2     H10582   4.577   2.918  13.562  0.7702  1.6333  2.0669
  712MPD2    H110583   0.262   2.924  13.605 -0.5200  0.2805 -0.2996
  712MPD2    H210584   0.028   2.593  13.749  1.5710 -0.5624 -0.1072
  712MPD2    H310585   0.250   2.710  13.706 -0.9706 -1.7623 -0.1954
  712MPD2     N10586   0.059   3.060  13.500  0.3696 -0.2482  0.2892
  712MPD2    H510587   0.154   3.089  13.481  0.4705 -1.2465 -0.7266
  712MPD2    N110588   4.529   2.695  13.666 -0.4609 -0.3357  0.8032
  712MPD2    H710589   4.460   2.755  13.621  1.3711  0.0531 -1.4949
  713TMC3    C110590   4.738   3.267  13.424 -0.2086 -0.0469  0.0417
  713TMC3    C210591   0.130   3.300  13.403  0.2419 -0.3883 -0.0225
  713TMC3    C310592   0.164   3.414  13.344  0.1914 -0.8713  0.0839
  713TMC3    C410593   4.639   3.355  13.388 -0.4752 -0.1610 -0.5178
  713TMC3    C510594   4.680   3.471  13.321  0.0413 -0.4386  0.1630
  713TMC3    C610595   0.071   3.500  13.296 -0.4722 -0.2238 -0.7624
  713TMC3     C10596   4.695   3.141  13.467 -0.3624 -0.3143 -0.2912
  713TMC3     O10597   4.574   3.122  13.475 -0.4367 -0.3188  0.1638
  713TMC3     H10598   0.214   3.234  13.425 -0.1796 -0.9997 -0.2622
  713TMC3    H110599   4.533   3.334  13.400 -0.7519  1.5659  0.0822
  713TMC3    H210600   0.082   3.596  13.247 -0.8456  1.7226  2.9340
  713TMC3    C710601   4.590   3.526  13.222 -0.5114  0.0330 -0.1141
  713TMC3    C810602   0.300   3.455  13.321  0.0796  0.5274  0.2231
  713TMC3    O110603   4.640   3.553  13.115 -0.4950 -0.2874 -0.4353
  713TMC3    O210604   0.317   3.501  13.207 -0.3451  0.2492 -0.7244
  714MPD2     C10605   2.274   1.538   1.414  0.6777  0.2220  0.1962
  714MPD2    C110606   2.325   1.472   1.301 -0.4526 -0.4815 -0.6344
  714MPD2    C210607   2.313   1.534   1.178 -0.1395 -0.3827  0.8595
  714MPD2    C310608   2.248   1.658   1.165  0.2013 -0.6906 -0.0791
  714MPD2    C410609   2.202   1.720   1.283 -0.4042 -0.1948 -0.4655
  714MPD2    C510610   2.212   1.658   1.405  0.0563 -0.5915  0.1998
  714MPD2     H10611   2.353   1.494   1.085  1.3646  0.3379  1.1856
  714MPD2    H110612   2.151   1.816   1.288 -1.2062 -0.8057  2.9793
  714MPD2    H210613   2.280   1.498   1.514 -0.2919  0.3996  0.3229
  714MPD2    H310614   2.176   1.707   1.494 -2.2110 -0.3682 -0.8421
  714MPD2     N10615   2.233   1.711   1.031 -0.8917 -0.0010 -0.0827
  714MPD2    H510616   2.277   1.664   0.953 -0.3683 -1.8414  1.3204
  714MPD2    N110617   2.395   1.349   1.322  0.0195  0.1885 -0.0159
  714MPD2    H710618   2.388   1.312   1.416  0.1298  0.1192 -0.0355
  715TMC3    C110619   2.554   1.183   1.285 -0.6166 -0.7661 -0.3789
  715TMC3    C210620   2.592   1.084   1.196  0.3561 -0.5832 -0.4638
  715TMC3    C310621   2.703   1.018   1.222 -0.1180 -0.8622 -0.3813
  715TMC3    C410622   2.623   1.212   1.399  0.2856 -0.3854 -0.6720
  715TMC3    C510623   2.736   1.143   1.420 -0.4803  0.2270 -0.6822
  715TMC3    C610624   2.781   1.047   1.336  0.4492  0.2960 -0.1069
  715TMC3     C10625   2.470   1.289   1.224 -0.6930 -0.3478  0.1735
  715TMC3     O10626   2.464   1.290   1.102  0.3637  0.5530  0.3067
  715TMC3     H10627   2.542   1.070   1.100 -2.3819 -1.2142  1.0363
  715TMC3    H110628   2.595   1.298   1.460  1.2150  0.3983 -1.3411
  715TMC3    H210629   2.862   0.985   1.373 -0.9921 -1.5029  0.0802
  715TMC3    C710630   2.825   1.182   1.527 -0.0321 -0.1776  0.3758
  715TMC3    C810631   2.758   0.941   1.108  0.2440 -0.3361 -0.5710
  715TMC3    O110632   2.945   1.160   1.517  0.1888 -0.0070  0.0886
  715TMC3    O210633   2.680   0.896   1.026  0.3861  0.1983 -0.1775
  716MPD2     C10634   2.274   0.316  10.232  0.4557 -0.3134  0.5112
  716MPD2    C110635   2.238   0.307  10.098  0.4588  0.1340 -0.0305
  716MPD2    C210636   2.229   0.177  10.046  0.0512  0.5286  0.3809
  716MPD2    C310637   2.288   0.072  10.114  0.0696  0.1981 -0.0117
  716MPD2    C410638   2.328   0.085  10.250  0.0175 -0.0599  0.1750
  716MPD2    C510639   2.308   0.205  10.308 -0.1482  0.0009  0.4872
  716MPD2     H10640   2.175   0.168   9.952  0.3785 -0.5552  0.2948
  716MPD2    H110641   2.358   0.001  10.310 -0.7838  0.8929  1.9072
  716MPD2    H210642   2.277   0.411  10.284 -2.1119 -0.1140  0.2899
  716MPD2    H310643   2.335   0.221  10.411 -0.6252  0.4581  0.5402
  716MPD2     N10644   2.296   4.692  10.046 -1.0279  0.1921 -0.1213
  716MPD2    H510645   2.261   4.685   9.951 -0.1117 -1.3883 -0.3534
  716MPD2    N110646   2.195   0.426  10.032 -0.3550 -0.0218  0.2478
  716MPD2    H710647   2.194   0.513  10.084  1.9825 -0.3068  0.7307
  717TMC3    C110648   2.305   4.476   9.998  0.2170 -0.0132  0.5668
  717TMC3    C210649   2.203   4.491   9.912  0.7826  0.3821 -0.1618
  717TMC3    C310650   2.173   4.392   9.823 -0.3953  0.0290 -0.0113
  717TMC3    C410651   2.385   4.369   9.996 -0.0559 -0.0024  0.0592
  717TMC3    C510652   2.358   4.275   9.896 -0.3492 -0.1807  0.3536
  717TMC3    C610653   2.258   4.283   9.803 -0.1291  0.0523 -0.7663
  717TMC3     C10654   2.328   4.572  10.102  0.1457  0.2315 -0.0591
  717TMC3     O10655   2.377   4.542  10.212  0.4630  0.6800 -0.0280
  717TMC3     H10656   2.138   4.578   9.914 -0.0854 -0.3091  1.7329
  717TMC3    H110657   2.467   4.360  10.066  1.6683 -1.8003 -2.1842
  717TMC3    H210658   2.242   4.213   9.721  0.2078 -0.3317 -0.5086
  717TMC3    C710659   2.455   4.170   9.872  0.1256  0.3766  0.7701
  717TMC3    C810660   2.078   4.429   9.720  0.1873 -0.3033  0.7206
  717TMC3    O110661   2.413   4.071   9.812  0.0484 -0.1122 -0.0636
  717TMC3    O210662   2.053   4.550   9.705 -1.0652  0.2695 -0.2268
  718MPD2     C10663   1.602   2.906  12.826 -0.2688 -0.1645 -0.4074
  718MPD2    C110664   1.521   2.878  12.726  0.0994  0.0010  0.0768
  718MPD2    C210665   1.385   2.868  12.753  0.1545  0.2386 -0.0145
  718MPD2    C310666   1.340   2.871  12.887 -0.0036 -0.6955  0.5031
  718MPD2    C410667   1.431   2.872  12.992  0.1672 -0.5938  0.1569
  718MPD2    C510668   1.561   2.901  12.954  0.0751  0.0716 -0.0031
  718MPD2     H10669   1.315   2.889  12.673 -0.2461  1.1793  0.5833
  718MPD2    H110670   1.402   2.875  13.097 -3.3310  3.3386 -0.9180
  718MPD2    H210671   1.701   2.934  12.794 -0.3646  3.3859  2.4616
  718MPD2    H310672   1.630   2.940  13.028 -3.2584  1.9893  2.0749
  718MPD2     N10673   1.194   2.876  12.907 -0.2913  0.4151  0.6535
  718MPD2    H510674   1.134   2.870  12.825 -1.0078 -0.7856  1.2735
  718MPD2    N110675   1.563   2.897  12.583  0.4432  0.1459  0.6280
  718MPD2    H710676   1.650   2.947  12.574  0.4037 -0.0363 -0.6917
  719TMC3    C110677   1.507   2.891  12.350 -0.1722 -0.0801  0.3062
  719TMC3    C210678   1.397   2.859  12.275  0.5643  0.0328 -0.4785
  719TMC3    C310679   1.323   2.969  12.230  0.3855  0.0729 -0.2239
  719TMC3    C410680   1.574   3.004  12.341  1.0305  0.0328  0.3458
  719TMC3    C510681   1.506   3.109  12.281 -0.1700 -0.1782  0.9585
  719TMC3    C610682   1.383   3.090  12.222  0.3392 -0.4379 -0.5061
  719TMC3     C10683   1.508   2.823  12.479 -0.0717  0.1770 -0.0371
  719TMC3     O10684   1.419   2.743  12.490 -0.2811 -0.5040 -0.6322
  719TMC3     H10685   1.349   2.762  12.280  0.7200 -0.0701 -0.9671
  719TMC3    H110686   1.671   3.011  12.389  1.9982 -1.6387 -1.3556
  719TMC3    H210687   1.328   3.177  12.190  1.3752  0.6791  0.7683
  719TMC3    C710688   1.572   3.241  12.271  0.1215 -0.3358  0.2001
  719TMC3    C810689   1.185   2.957  12.267  0.2775  0.3364 -0.2551
  719TMC3    O110690   1.508   3.338  12.239  0.1485 -0.0690 -0.0473
  719TMC3    O210691   1.144   2.853  12.309 -0.0218  0.5866 -0.4630
  720MPD2     C10692   0.289   4.554  14.043 -0.1825 -0.0567 -0.2346
  720MPD2    C110693   0.266   4.689  14.056  0.0765  0.3947  0.2680
  720MPD2    C210694   0.359   0.028  14.125 -0.8004 -0.5107 -0.0665
  720MPD2    C310695   0.459   4.707  14.199  0.4158 -0.6745 -0.0010
  720MPD2    C410696   0.473   4.573  14.199 -0.3452  0.0986 -0.7656
  720MPD2    C510697   0.383   4.502  14.123  0.4930 -0.5491  0.6116
  720MPD2     H10698   0.355   0.135  14.143 -1.0437 -0.3844 -0.8688
  720MPD2    H110699   0.556   4.525  14.249 -0.8423  2.3767  2.2601
  720MPD2    H210700   0.232   4.486  13.981 -0.7382  1.7751 -1.7303
  720MPD2    H310701   0.381   4.393  14.118 -0.0133 -0.5732  1.3705
  720MPD2     N10702   0.553   0.057  14.260  0.1736  0.5155  0.1462
  720MPD2    H510703   0.559   0.154  14.230  0.7119  0.3634 -0.2537
  720MPD2    N110704   0.167   0.017  13.980  0.2231  0.2767 -0.2327
  720MPD2    H710705   0.150   0.117  13.987  3.7522  0.9170 -0.7709
  721TMC3    C110706   0.733   0.111  14.404  0.2383  0.1284  0.0969
  721TMC3    C210707   0.758   0.117  14.537  0.3331 -0.1895 -0.1424
  721TMC3    C310708   0.860   0.194  14.568  0.2440  0.6148 -0.1649
  721TMC3    C410709   0.814   0.165  14.306  0.2365  0.2979 -0.2104
  721TMC3    C510710   0.933   0.230  14.343  0.4196 -0.4932  0.3417
  721TMC3    C610711   0.944   0.253  14.477 -0.1611 -0.0506 -0.4343
  721TMC3     C10712   0.636   0.012  14.362 -0.3859  0.0621 -0.6893
  721TMC3     O10713   0.632   4.650  14.431 -0.0355 -0.3272  0.3408
  721TMC3     H10714   0.721   0.045  14.609 -1.0744 -0.1680 -0.8327
  721TMC3    H110715   0.801   0.139  14.202  1.4353  2.6753 -0.9550
  721TMC3    H210716   1.037   0.303  14.504  0.8833 -1.0871 -2.0920
  721TMC3    C710717   1.053   0.246  14.257 -0.6101  0.4090 -0.2012
  721TMC3    C810718   0.870   0.259  14.692  0.6573  0.0475  0.2878
  721TMC3    O110719   1.156   0.266  14.321  0.0662  0.2305 -0.4150
  721TMC3    O210720   0.977   0.316  14.718  0.0188  0.0459 -0.3114
  722MPD2     C10721   3.255   3.808  13.517  0.1022 -0.0085 -0.2096
  722MPD2    C110722   3.294   3.915  13.439  0.3916  0.2429 -0.1374
  722MPD2    C210723   3.196   3.975  13.357  1.5570 -0.1478  0.2097
  722MPD2    C310724   3.071   3.922  13.343 -0.3335 -0.3705 -0.0776
  722MPD2    C410725   3.028   3.825  13.432  0.6787 -0.0219  0.0719
  722MPD2    C510726   3.123   3.775  13.515 -0.3121 -0.1484  0.3227
  722MPD2     H10727   3.232   4.054  13.291  0.3385 -0.5509 -0.9291
  722MPD2    H110728   2.927   3.787  13.438 -0.3147  2.5511 -0.4092
  722MPD2    H210729   3.319   3.754  13.586  0.5919  1.3478  0.3955
  722MPD2    H310730   3.091   3.695  13.580  0.6840  2.3554  3.8630
  722MPD2     N10731   2.988   3.974  13.244 -0.3581  0.1851 -0.6099
  722MPD2    H510732   3.015   4.065  13.208 -1.0942 -1.0723 -4.3750
  722MPD2    N110733   3.428   3.966  13.430  0.1181  0.4876  0.7203
  722MPD2    H710734   3.454   4.041  13.368  0.0277 -1.5232 -1.7556
  723TMC3    C110735   2.825   3.968  13.075  0.0685  0.2525 -1.1558
  723TMC3    C210736   2.780   3.897  12.977 -0.4934  0.0984 -0.5092
  723TMC3    C310737   2.727   3.966  12.873 -0.1227  0.4687 -0.1660
  723TMC3    C410738   2.820   4.104  13.073 -0.7351  0.4226  0.2413
  723TMC3    C510739   2.748   4.170  12.983  0.1231  0.5409 -0.3761
  723TMC3    C610740   2.702   4.101  12.875  0.5939  1.0854  0.0902
  723TMC3     C10741   2.881   3.903  13.192  0.0920  0.1620 -0.1878
  723TMC3     O10742   2.842   3.787  13.205  0.0438  0.8139 -0.3686
  723TMC3     H10743   2.800   3.790  12.977 -2.2332 -0.2258 -0.1083
  723TMC3    H110744   2.881   4.162  13.141 -0.6900  1.8045 -0.9788
  723TMC3    H210745   2.643   4.157  12.803 -1.0403 -0.3114  0.3190
  723TMC3    C710746   2.704   4.306  13.007  0.8602  0.1238  0.2777
  723TMC3    C810747   2.674   3.891  12.757  0.6289 -0.0501 -0.0340
  723TMC3    O110748   2.609   4.346  12.937 -0.5402 -1.1003 -0.4385
  723TMC3    O210749   2.634   3.962  12.669  0.0502 -0.5317  0.6450
  724TMC3    C110750   3.321   1.882  10.847  0.0528 -0.2080  0.3444
  724TMC3    C210751   3.314   1.856  10.711  0.3022 -0.0304 -0.2696
  724TMC3    C310752   3.420   1.889  10.635  0.7340  0.8081  0.6417
  724TMC3    C410753   3.437   1.934  10.905  0.4957 -0.0951  0.3952
  724TMC3    C510754   3.538   1.978  10.821  0.5343 -0.3201  0.2738
  724TMC3    C610755   3.531   1.948  10.689  0.4781 -0.6840 -0.1627
  724TMC3     C10756   3.209   1.843  10.933 -0.7690  0.4529 -0.4052
  724TMC3     O10757   3.233   1.876  11.049 -0.2420  0.2409  1.1874
  724TMC3     H10758   3.220   1.846  10.657  0.1167 -0.7192  0.1851
  724TMC3    H110759   3.448   1.929  11.013 -0.7762 -3.0461  0.3830
  724TMC3    H210760   3.615   1.981  10.628  0.2617 -0.8046 -0.5236
  724TMC3    C710761   3.599   2.103  10.855 -0.6135 -0.7360 -0.1534
  724TMC3    C810762   3.400   1.874  10.488  0.2363 -0.1774 -0.3109
  724TMC3    O110763   3.637   2.172  10.761 -0.1718  0.0769 -0.4018
  724TMC3    O210764   3.315   1.794  10.456 -0.3797 -0.0529 -0.0022
  725TMC3    C110765   0.857   0.728  13.126  0.2129 -0.3133 -0.7062
  725TMC3    C210766   0.772   0.824  13.076  0.4641 -0.7756  0.1297
  725TMC3    C310767   0.687   0.782  12.984  0.5062  0.1778  0.5341
  725TMC3    C410768   0.860   0.596  13.098  0.1265  0.7685 -0.6968
  725TMC3    C510769   0.760   0.559  13.007  0.6425 -0.5207 -0.0259
  725TMC3    C610770   0.685   0.649  12.941 -0.4274  0.3671  0.6490
  725TMC3     C10771   0.977   0.785  13.190 -0.1548  0.0113 -0.0597
  725TMC3     O10772   0.992   0.909  13.185  0.3814 -0.2337  0.0639
  725TMC3     H10773   0.779   0.930  13.101  2.2311 -0.6301 -1.0053
  725TMC3    H110774   0.904   0.527  13.168  1.1396  0.7316 -1.3708
  725TMC3    H210775   0.592   0.620  12.893  0.2648 -1.6083  0.5264
  725TMC3    C710776   0.699   0.435  13.023 -0.2065  0.2037  0.6981
  725TMC3    C810777   0.581   0.875  12.943 -0.0523  0.1033  0.3195
  725TMC3    O110778   0.579   0.422  12.997 -0.4926 -0.5029 -0.4871
  725TMC3    O210779   0.580   0.978  13.012 -0.0068  0.3150  0.3194
  726MPD2     C10780   2.640   2.149  10.365  0.3271  0.3604  0.2578
  726MPD2    C110781   2.642   2.200  10.493  0.2110 -0.0324  0.1984
  726MPD2    C210782   2.546   2.166  10.588 -0.3758 -0.5464  0.7402
  726MPD2    C310783   2.467   2.056  10.565  0.2877 -0.2451  0.4305
  726MPD2    C410784   2.481   1.990  10.447 -0.0990 -0.1887  1.4248
  726MPD2    C510785   2.566   2.037  10.354  0.0533  0.3648  0.1286
  726MPD2     H10786   2.549   2.214  10.685 -0.3115  1.3331 -0.2065
  726MPD2    H110787   2.426   1.901  10.419  0.1520 -0.1776  0.8894
  726MPD2    H210788   2.719   2.161  10.292 -1.4012  1.1919 -1.4696
  726MPD2    H310789   2.571   1.977  10.264 -1.4103  0.4026  0.0271
  726MPD2     N10790   2.371   2.003  10.652  0.7368 -0.1531  0.4302
  726MPD2    H510791   2.319   1.923  10.620 -0.9761  0.1520  2.4314
  726MPD2    N110792   2.738   2.297  10.524 -0.1003 -0.5491 -0.0670
  726MPD2    H710793   2.746   2.338  10.617 -0.3841 -0.9967  0.1572
  727TMC3    C110794   2.894   2.475  10.490 -0.0447 -0.1006 -0.5093
  727TMC3    C210795   2.939   2.457  10.617  0.4176 -0.3375 -0.1988
  727TMC3    C310796   3.024   2.555  10.655 -0.0091 -0.4071  0.2424
  727TMC3    C410797   2.931   2.574  10.406 -0.0987 -0.1122  0.3991
  727TMC3    C510798   3.014   2.674  10.455  0.0216 -0.3766  0.6576
  727TMC3    C610799   3.054   2.669  10.586 -0.2156 -0.3727  0.1092
  727TMC3     C10800   2.806   2.374  10.431  0.2063  0.6279 -0.5091
  727TMC3     O10801   2.783   2.375  10.315  0.6358 -0.0337  0.1205
  727TMC3     H10802   2.918   2.369  10.677 -0.4039  1.1976  1.7108
  727TMC3    H110803   2.882   2.579  10.309  0.9409 -0.0720 -0.1183
  727TMC3    H210804   3.115   2.750  10.625 -0.7134 -1.3372  2.8883
  727TMC3    C710805   3.046   2.794  10.374  0.4794  0.0427 -0.1632
  727TMC3    C810806   3.044   2.577  10.801 -0.4173 -0.5476 -0.0321
  727TMC3    O110807   3.119   2.874  10.425 -0.1583  0.4544  0.2424
  727TMC3    O210808   3.140   2.651  10.826 -0.0444 -0.2193  0.3886
  728TMC3    C110809   2.802   0.775  15.753 -0.3959  0.0060  0.3616
  728TMC3    C210810   2.917   0.832  15.816  0.1860 -0.2566  0.1085
  728TMC3    C310811   2.979   0.920  15.742 -0.9624 -0.8205 -0.7002
  728TMC3    C410812   2.774   0.797  15.619 -0.0746 -0.9886  0.2450
  728TMC3    C510813   2.862   0.876  15.549 -1.1089  0.2640 -0.5864
  728TMC3    C610814   2.953   0.950  15.618 -0.2709 -0.3929  0.8377
  728TMC3     C10815   2.732   0.681  15.833 -0.4051 -0.1117  0.9542
  728TMC3     O10816   2.768   0.661  15.951 -0.8726  0.1085  0.8236
  728TMC3     H10817   2.945   0.821  15.920 -1.3127  0.8567  0.6229
  728TMC3    H110818   2.696   0.751  15.558 -0.3946  0.2485 -0.2805
  728TMC3    H210819   3.025   1.011  15.564 -0.6188 -1.2000 -0.5385
  728TMC3    C710820   2.818   0.915  15.415 -0.9395  0.1127  0.2670
  728TMC3    C810821   3.087   1.000  15.801  0.5354 -0.0608  0.4217
  728TMC3    O110822   2.743   0.845  15.344 -0.6985  0.0815 -0.5712
  728TMC3    O210823   3.107   1.114  15.759 -0.1976  0.6708  0.4456
  729MPD2     C10824   4.566   2.152  16.834  0.0556 -0.3310 -0.4319
  729MPD2    C110825   4.661   2.062  16.864 -0.0195  0.3759 -0.0068
  729MPD2    C210826   4.683   2.032  16.995  0.5099 -0.3608  0.2974
  729MPD2    C310827   4.615   2.097  17.096  0.1622  0.2699 -0.7466
  729MPD2    C410828   4.518   2.192  17.063  0.0929  0.6960  0.1865
  729MPD2    C510829   4.496   2.217  16.929  0.6520 -0.7638  0.1484
  729MPD2     H10830   0.024   1.962  17.021 -0.5165 -1.5792  0.1563
  729MPD2    H110831   4.464   2.246  17.140  0.4822  3.5466 -1.5441
  729MPD2    H210832   4.545   2.188  16.735 -1.8100 -1.0695 -0.3057
  729MPD2    H310833   4.426   2.295  16.902 -0.3428 -2.1630 -1.2786
  729MPD2     N10834   4.634   2.087  17.236  0.3301  0.0637 -0.1510
  729MPD2    H510835   4.587   2.160  17.289 -0.2247 -0.4626  0.0852
  729MPD2    N110836   4.733   2.013  16.750 -0.4365  0.1161  0.3827
  729MPD2    H710837   4.708   2.058  16.663 -2.3315 -1.5053  0.0905
  730TMC3    C110838   0.056   2.041  17.406 -0.0480 -0.3117 -0.2560
  730TMC3    C210839   0.157   1.959  17.453  0.3477 -0.8080 -0.0342
  730TMC3    C310840   0.260   2.014  17.520  0.1500  0.3594  0.0850
  730TMC3    C410841   0.058   2.179  17.431  0.2518  0.6448 -0.6723
  730TMC3    C510842   0.163   2.228  17.508  0.6972 -0.2808  0.7666
  730TMC3    C610843   0.260   2.146  17.551 -0.7017  0.0886 -0.8124
  730TMC3     C10844   4.732   2.007  17.283  0.0551 -0.5193 -0.2437
  730TMC3     O10845   0.037   1.903  17.234 -0.1053  0.0761 -0.2720
  730TMC3     H10846   0.161   1.853  17.430  1.3335 -0.3519 -1.9362
  730TMC3    H110847   4.718   2.246  17.397  0.1591  0.2251 -1.2902
  730TMC3    H210848   0.338   2.185  17.615 -0.0554  0.9383 -2.1122
  730TMC3    C710849   0.182   2.372  17.513 -0.4578 -0.0039 -0.7081
  730TMC3    C810850   0.382   1.970  17.459  0.9569 -0.0446  0.1868
  730TMC3    O110851   0.245   2.428  17.606  0.1174  0.1559 -0.3679
  730TMC3    O210852   0.393   1.860  17.415 -0.0796  0.5729  0.0418
  731MPD2     C10853   4.662   0.279  12.545 -0.0102 -0.1597  0.0206
  731MPD2    C110854   0.027   0.194  12.547 -0.0782 -0.4596  0.8319
  731MPD2    C210855   0.081   0.155  12.666  0.3290 -0.2181 -0.0984
  731MPD2    C310856   0.036   0.215  12.787 -0.1584  0.2663  0.2123
  731MPD2    C410857   4.671   0.307  12.775  0.1537 -1.0654 -0.0726
  731MPD2    C510858   4.619   0.340  12.656  0.1908  0.6429  0.2227
  731MPD2     H10859   0.176   0.102  12.664 -0.1255 -0.9117 -2.4013
  731MPD2    H110860   4.635   0.346  12.869 -0.6100  0.6888 -1.1041
  731MPD2    H210861   4.613   0.318  12.457  1.5871 -0.9842 -1.2407
  731MPD2    H310862   4.548   0.422  12.649  1.4086  1.6597 -0.2029
  731MPD2     N10863   0.095   0.170  12.906 -0.2953  0.3077  0.5862
  731MPD2    H510864   0.159   0.092  12.897 -1.2281 -0.0305 -2.7904
  731MPD2    N110865   0.073   0.154  12.418  0.4079 -0.4972 -0.2710
  731MPD2    H710866   0.036   0.208  12.340 -3.0067 -0.8799  1.1043
  732TMC3    C110867   0.218   0.060  12.252 -0.0740  0.5912  0.3254
  732TMC3    C210868   0.138   0.095  12.147 -0.1314  0.0247  0.5977
  732TMC3    C310869   0.187   0.078  12.021  0.4575 -0.9840 -0.6749
  732TMC3    C410870   0.343   4.737  12.230 -1.0570 -0.3509 -0.0023
  732TMC3    C510871   0.393   0.003  12.095  0.6080 -0.9303 -0.2402
  732TMC3    C610872   0.315   0.057  11.997 -0.4341 -0.5095  0.1078
  732TMC3     C10873   0.171   0.064  12.393  0.0416 -0.1928  0.5593
  732TMC3     O10874   0.225   4.727  12.471 -0.4564 -0.1332 -0.1278
  732TMC3     H10875   0.035   0.128  12.153 -0.2504 -0.4997  1.4923
  732TMC3    H110876   0.404   4.696  12.310  0.4098  1.6639 -0.0801
  732TMC3    H210877   0.346   0.068  11.894  1.1663  1.8846  0.8390
  732TMC3    C710878   0.531   4.713  12.066 -0.4144 -0.1981  0.6066
  732TMC3    C810879   0.106   0.136  11.920 -1.0220 -0.3533  0.4892
  732TMC3    O110880   0.576   0.038  11.972 -0.6065  0.0499  0.1438
  732TMC3    O210881   0.170   0.196  11.834  0.5541  0.1779 -0.0435
  733TMC3    C110882   0.764   2.890  13.066  0.4933  0.4561 -0.4846
  733TMC3    C210883   0.899   2.854  13.085  0.4288  0.0071 -0.7045
  733TMC3    C310884   0.990   2.910  12.998 -0.4668  1.0926 -0.9524
  733TMC3    C410885   0.728   2.956  12.954  0.6678 -0.4749  0.5478
  733TMC3    C510886   0.817   3.004  12.871  0.5417  1.1660 -0.1698
  733TMC3    C610887   0.955   2.994  12.897  0.7006  0.6530  0.4208
  733TMC3     C10888   0.662   2.832  13.153 -0.1428  0.0998 -0.5509
  733TMC3     O10889   0.694   2.764  13.247 -0.0559 -0.3099  0.3621
  733TMC3     H10890   0.937   2.788  13.163 -2.8953 -2.2091 -0.9613
  733TMC3    H110891   0.626   2.970  12.921  1.5691 -0.5299 -2.2711
  733TMC3    H210892   1.030   3.040  12.834  0.3138 -1.9700 -1.9826
  733TMC3    C710893   0.776   3.079  12.752  0.8677  0.2915 -0.7591
  733TMC3    C810894   1.127   2.884  13.027 -0.5480 -0.0681  0.1282
  733TMC3    O110895   0.672   3.142  12.752 -0.2669 -0.1131 -1.8140
  733TMC3    O210896   1.160   2.843  13.141  0.5111  0.7376  0.0328
  734MPD2     C10897   2.632   0.964  12.596  0.1832  0.1357  0.4995
  734MPD2    C110898   2.568   0.890  12.501  0.0739  0.0367 -0.2073
  734MPD2    C210899   2.535   0.956  12.387 -0.3172  1.0749  0.1957
  734MPD2    C310900   2.557   1.088  12.368 -0.2887  0.2958 -0.0724
  734MPD2    C410901   2.635   1.156  12.468  0.4427  0.1064 -0.2228
  734MPD2    C510902   2.669   1.092  12.583 -0.0737  0.3298 -0.4817
  734MPD2     H10903   2.473   0.911  12.310  1.2531  0.8224 -0.9100
  734MPD2    H110904   2.668   1.258  12.456  0.5409  0.0025 -0.8401
  734MPD2    H210905   2.664   0.923  12.692 -0.5734 -3.1871 -0.6560
  734MPD2    H310906   2.731   1.149  12.652 -0.0704  0.2548 -0.4235
  734MPD2     N10907   2.494   1.146  12.252  0.5989  0.7842  0.0445
  734MPD2    H510908   2.439   1.089  12.188  2.7754 -0.7105 -0.4843
  734MPD2    N110909   2.519   0.753  12.524 -0.3843  0.2771 -0.0065
  734MPD2    H710910   2.538   0.717  12.617 -0.8752 -1.1601 -0.4506
  735TMC3    C110911   2.395   0.557  12.457  0.0486  0.2182 -0.1003
  735TMC3    C210912   2.279   0.525  12.397 -0.0542  0.5272  0.4115
  735TMC3    C310913   2.285   0.419  12.311  0.5149 -0.0316  0.4883
  735TMC3    C410914   2.511   0.494  12.433 -0.6564 -0.1993  0.5124
  735TMC3    C510915   2.513   0.396  12.346 -0.1216 -0.3349 -0.9435
  735TMC3    C610916   2.398   0.354  12.285 -0.4365  0.2012 -0.4080
  735TMC3     C10917   2.407   0.703  12.459  0.5938 -0.3415  0.0644
  735TMC3     O10918   2.335   0.756  12.375 -0.3444  0.0550 -0.3580
  735TMC3     H10919   2.189   0.580  12.423 -1.1132 -0.3574 -1.3549
  735TMC3    H110920   2.592   0.528  12.496  2.1072 -0.6345 -2.8454
  735TMC3    H210921   2.394   0.279  12.207 -0.3326  0.8694 -1.0561
  735TMC3    C710922   2.644   0.352  12.317  0.2417 -0.4647  0.5117
  735TMC3    C810923   2.227   0.453  12.186 -0.1446 -0.1478 -0.4326
  735TMC3    O110924   2.732   0.431  12.339 -0.4578 -0.0272  0.2459
  735TMC3    O210925   2.229   0.369  12.098  0.0333 -0.1051  0.3930
  736MPD2     C10926   2.739   0.047  12.129  0.1898  0.0666 -0.4027
  736MPD2    C110927   2.754   0.175  12.189 -0.3877 -0.1692 -0.1042
  736MPD2    C210928   2.887   0.215  12.209 -0.0555  0.1310  0.2187
  736MPD2    C310929   2.995   0.134  12.169  0.7705  0.0270 -0.5778
  736MPD2    C410930   2.975   0.012  12.107  1.0184  0.1382 -0.2061
  736MPD2    C510931   2.846   4.711  12.081  0.2050  0.1704  0.0858
  736MPD2     H10932   2.905   0.312  12.254  2.0996  0.6060 -1.6877
  736MPD2    H110933   3.050   4.684  12.066  2.5683  0.1395  2.7054
  736MPD2    H210934   2.641   0.008  12.106 -0.2375  0.8372  0.1272
  736MPD2    H310935   2.816   4.627  12.021 -1.4917  0.2710  0.8017
  736MPD2     N10936   3.131   0.174  12.174 -0.3661  0.1215 -0.0172
  736MPD2    H510937   3.200   0.115  12.129  0.9818  0.2075  1.9068
  736MPD2    N110938   2.643   0.240  12.235  0.7790 -0.0409 -0.3627
  736MPD2    H710939   2.559   0.182  12.235  0.6371  0.1646 -1.6091
  737TMC3    C110940   3.320   0.285  12.230 -0.5651  0.6687  0.2058
  737TMC3    C210941   3.386   0.405  12.227  0.0386 -0.7518 -0.3191
  737TMC3    C310942   3.522   0.404  12.224 -0.2232  0.5571 -0.3563
  737TMC3    C410943   3.381   0.162  12.214  0.3039 -0.7268 -0.1680
  737TMC3    C510944   3.521   0.167  12.197 -0.0114  0.0544  0.0364
  737TMC3    C610945   3.590   0.283  12.200 -0.1147 -0.8298 -0.3480
  737TMC3     C10946   3.179   0.290  12.222  0.4468  0.0652  0.0198
  737TMC3     O10947   3.120   0.384  12.271  0.0801  0.0913 -0.5262
  737TMC3     H10948   3.322   0.492  12.229  1.7881  0.5336 -0.6315
  737TMC3    H110949   3.341   0.061  12.210 -0.6607 -0.2960 -1.3396
  737TMC3    H210950   3.697   0.280  12.188  0.0492  0.2552  0.8250
  737TMC3    C710951   3.568   0.060  12.125  0.1374 -0.1075  0.7038
  737TMC3    C810952   3.581   0.512  12.150 -0.1741 -0.3103 -0.1437
  737TMC3    O110953   3.518   4.688  12.138 -0.1238 -0.0137 -0.2414
  737TMC3    O210954   3.698   0.530  12.173 -0.1022  0.5659  0.7785
  738MPD2     C10955   4.013   4.125  15.346  0.2510  0.0173 -0.2974
  738MPD2    C110956   3.997   4.033  15.248  0.4813 -0.5598  0.2451
  738MPD2    C210957   4.082   4.030  15.139 -0.3909  0.3271  0.4313
  738MPD2    C310958   4.189   4.119  15.126 -0.0160 -0.0341  0.3449
  738MPD2    C410959   4.202   4.209  15.234  0.4060 -0.1419 -0.3637
  738MPD2    C510960   4.116   4.217  15.335  0.7827 -0.3194  0.0525
  738MPD2     H10961   4.062   3.949  15.069 -1.8268  0.4267  0.7190
  738MPD2    H110962   4.279   4.285  15.221  0.5627 -0.7555 -3.0051
  738MPD2    H210963   3.961   4.115  15.441  0.3914  0.3539 -0.1825
  738MPD2    H310964   4.136   4.275  15.424 -0.1211 -1.0486  0.7295
  738MPD2     N10965   4.281   4.131  15.020  0.1338  0.8384 -0.5488
  738MPD2    H510966   4.351   4.204  15.027 -0.4755  1.4714 -1.0792
  738MPD2    N110967   3.907   3.931  15.264 -0.6299  0.9052 -0.1794
  738MPD2    H710968   3.923   3.851  15.203  1.9524  1.3840 -0.1074
  739TMC3    C110969   4.407   4.059  14.845  0.3622 -0.2491  0.1344
  739TMC3    C210970   4.412   4.047  14.707  0.4450 -0.2410 -0.0521
  739TMC3    C310971   4.513   4.095  14.631 -0.5622  0.7178  0.5658
  739TMC3    C410972   4.514   4.126  14.910  0.2460 -0.4235  0.0134
  739TMC3    C510973   4.623   4.140  14.834  0.0001  0.1569 -0.3186
  739TMC3    C610974   4.622   4.142  14.701 -0.3404 -0.1226 -0.2432
  739TMC3     C10975   4.282   4.044  14.912 -0.3461 -1.0371 -0.5133
  739TMC3     O10976   4.187   3.969  14.882 -0.1667 -0.1018  0.2228
  739TMC3     H10977   4.324   4.004  14.660 -1.2814 -0.0616  3.0177
  739TMC3    H110978   4.510   4.141  15.017 -0.5938  1.0875 -0.2285
  739TMC3    H210979   4.709   4.176  14.645  0.4348 -1.2149  0.2945
  739TMC3    C710980   0.009   4.161  14.912 -0.7734 -0.6574 -0.6951
  739TMC3    C810981   4.497   4.116  14.489  0.3953  0.5073  0.6176
  739TMC3    O110982   4.735   4.191  15.028 -0.6097 -0.2475 -0.4457
  739TMC3    O210983   4.377   4.120  14.450 -0.2965  0.0177  0.0039
  740TMC3    C110984   0.121   0.424  14.500 -0.0889  0.0517 -0.0063
  740TMC3    C210985   0.176   0.331  14.588 -0.5064  0.3232  0.2825
  740TMC3    C310986   0.305   0.293  14.568 -1.0395 -0.1886 -0.3536
  740TMC3    C410987   0.190   0.463  14.385 -1.0918 -0.0810  0.4877
  740TMC3    C510988   0.322   0.429  14.373  0.3636  0.7869 -0.2232
  740TMC3    C610989   0.382   0.345  14.467  0.1840 -0.6081 -0.9768
  740TMC3     C10990   4.734   0.494  14.527 -0.5196  0.5202  0.1866
  740TMC3     O10991   4.703   0.597  14.467 -0.2747 -0.6168 -0.8662
  740TMC3     H10992   0.130   0.296  14.679 -0.9764 -0.6717 -0.3330
  740TMC3    H110993   0.152   0.531  14.310 -2.3007 -0.7448  0.5012
  740TMC3    H210994   0.489   0.331  14.463  0.2742  0.1077 -1.1884
  740TMC3    C710995   0.378   0.399  14.237  0.0856 -0.6618  0.1990
  740TMC3    C810996   0.374   0.196  14.657  0.3672 -0.2546 -0.5890
  740TMC3    O110997   0.468   0.316  14.235  0.1350  0.2363 -0.1154
  740TMC3    O210998   0.492   0.172  14.644  0.1789 -0.0029  0.2220
  741TMC3    C110999   4.364   4.636  14.160 -0.5456 -0.4442  0.3173
  741TMC3    C211000   4.232   4.624  14.194 -0.6080  0.0875  0.2184
  741TMC3    C311001   4.203   4.527  14.285 -0.2897  0.1302  0.4316
  741TMC3    C411002   4.463   4.567  14.220  0.5180  0.4267  0.8048
  741TMC3    C511003   4.427   4.492  14.324 -0.4953  0.2896 -0.1614
  741TMC3    C611004   4.299   4.467  14.357 -0.1846  0.0008 -0.3029
  741TMC3     C11005   4.398   0.019  14.100  0.2854 -0.2353 -0.0251
  741TMC3     O11006   4.515   0.048  14.086  0.5537  0.3290  0.2493
  741TMC3     H11007   4.152   4.661  14.130 -0.2803 -2.1825 -1.5171
  741TMC3    H111008   4.566   4.599  14.209  1.1135 -1.1282  1.9353
  741TMC3    H211009   4.270   4.399  14.437  1.7513 -0.6076 -0.1183
  741TMC3    C711010   4.516   4.467  14.433  0.5341 -0.5960 -0.1326
  741TMC3    C811011   4.068   4.475  14.273  0.5125 -0.0706 -0.4424
  741TMC3    O111012   4.466   4.447  14.542 -0.1849 -0.1260  0.0686
  741TMC3    O211013   3.975   4.545  14.224  0.5929  0.2920 -0.5028
  742TMC3    C111014   3.900   3.308  15.320  0.2215  0.1915 -0.2797
  742TMC3    C211015   3.809   3.254  15.225 -0.1867  0.3020 -0.4111
  742TMC3    C311016   3.855   3.166  15.134  0.2926  0.8884 -0.0868
  742TMC3    C411017   4.029   3.259  15.336 -0.6771  0.2380  0.5594
  742TMC3    C511018   4.055   3.153  15.254  0.1695 -0.4832  0.9265
  742TMC3    C611019   3.983   3.118  15.145 -0.0051 -0.5876  1.0166
  742TMC3     C11020   3.870   3.430  15.390 -0.3212  0.2130 -0.2825
  742TMC3     O11021   3.752   3.457  15.404 -0.1243  0.7423  0.0633
  742TMC3     H11022   3.714   3.306  15.221 -0.6540 -0.6046 -1.0910
  742TMC3    H111023   4.074   3.277  15.432  0.9599  0.5586 -0.2671
  742TMC3    H211024   4.006   3.029  15.088  1.6685  0.2661  0.3721
  742TMC3    C711025   4.176   3.071  15.267 -0.0901  0.0051 -0.0605
  742TMC3    C811026   3.777   3.118  15.018 -0.1610 -0.2151 -0.2002
  742TMC3    O111027   4.187   2.954  15.224 -0.4622  0.3232  0.0501
  742TMC3    O211028   3.829   3.026  14.956  0.0113 -0.0252  0.2339
  743MPD2     C11029   2.657   4.585   1.907  0.5664  0.1299 -0.4438
  743MPD2    C111030   2.630   4.496   1.804 -0.6022 -0.3581  0.2868
  743MPD2    C211031   2.732   4.419   1.748  0.6738  0.0102  0.8328
  743MPD2    C311032   2.862   4.441   1.799  0.3597  0.4209  0.5201
  743MPD2    C411033   2.882   4.521   1.914 -0.1559  0.3691 -0.2876
  743MPD2    C511034   2.779   4.587   1.968  0.0493 -0.7075 -0.3946
  743MPD2     H11035   2.715   4.354   1.663  2.7024 -0.2729  0.6371
  743MPD2    H111036   2.982   4.540   1.952  0.1744  0.5654 -1.2623
  743MPD2    H211037   2.585   4.660   1.937  1.7217  1.6524 -1.4718
  743MPD2    H311038   2.791   4.656   2.051 -0.2076  0.2337 -1.1404
  743MPD2     N11039   2.965   4.371   1.740  0.4569 -0.1253 -0.1996
  743MPD2    H511040   2.947   4.305   1.665 -0.1248 -1.0060  0.7111
  743MPD2    N111041   2.497   4.483   1.764 -0.1569  0.0229 -0.3834
  743MPD2    H711042   2.429   4.552   1.794 -1.5222 -0.5449 -2.1487
  744TMC3    C111043   2.322   4.435   1.615  0.2574  0.3068 -0.9567
  744TMC3    C211044   2.234   4.518   1.679  1.3382 -0.1713 -0.2448
  744TMC3    C311045   2.106   4.533   1.627  0.4061  0.0280  0.7053
  744TMC3    C411046   2.281   4.372   1.500  0.3564 -0.3058  0.4362
  744TMC3    C511047   2.157   4.400   1.442 -0.1410  0.0441 -0.4704
  744TMC3    C611048   2.070   4.482   1.505  0.5084 -0.9062 -0.0777
  744TMC3     C11049   2.448   4.393   1.677 -0.5651 -0.3276  0.6569
  744TMC3     O11050   2.501   4.290   1.631 -0.1522 -0.0393  0.2931
  744TMC3     H11051   2.270   4.581   1.759 -1.2476 -2.1080  2.4222
  744TMC3    H111052   2.338   4.291   1.455  3.1465  2.2779 -0.6237
  744TMC3    H211053   1.976   4.493   1.453  0.1608 -0.2063  0.7204
  744TMC3    C711054   2.144   4.349   1.304 -0.0940 -0.3079  0.0170
  744TMC3    C811055   2.023   4.642   1.672  0.2080 -0.0293  0.0330
  744TMC3    O111056   2.240   4.329   1.232  0.2738  0.0154 -0.4186
  744TMC3    O211057   1.970   4.709   1.588 -0.5915 -0.4515 -0.9049
  745TMC3    C111058   4.346   2.592  13.770  0.0011  0.4475  0.2362
  745TMC3    C211059   4.302   2.541  13.890  0.1605 -0.1230 -0.3842
  745TMC3    C311060   4.165   2.550  13.922 -0.2941 -0.1300  0.6888
  745TMC3    C411061   4.262   2.647  13.680  0.2898  0.5628 -0.2475
  745TMC3    C511062   4.128   2.652  13.711  0.7038  0.4761  0.2753
  745TMC3    C611063   4.079   2.610  13.832 -0.4024  1.5600 -0.2261
  745TMC3     C11064   4.492   2.585  13.744 -0.1873 -0.7952  0.6005
  745TMC3     O11065   4.567   2.509  13.808 -0.8199 -0.1692 -0.4301
  745TMC3     H11066   4.368   2.490  13.959 -2.9044 -1.2840  1.7046
  745TMC3    H111067   4.305   2.662  13.581 -1.1244  0.8604 -0.8236
  745TMC3    H211068   3.972   2.616  13.849 -0.1040  1.4351  1.6631
  745TMC3    C711069   4.040   2.757  13.655 -0.2091 -0.6283  0.7332
  745TMC3    C811070   4.127   2.515  14.057 -0.1729  0.1163 -0.2993
  745TMC3    O111071   3.939   2.798  13.710  0.2702 -0.2076  0.3409
  745TMC3    O211072   4.152   2.406  14.102 -0.3611  0.4324  0.2550
  746TMC3    C111073   1.632   0.010  11.143 -0.0240  0.4519 -1.1462
  746TMC3    C211074   1.675   0.031  11.013 -0.4754 -0.4901  0.2009
  746TMC3    C311075   1.688   4.663  10.932  0.6603 -0.5699 -0.3782
  746TMC3    C411076   1.600   4.622  11.187 -1.0000 -0.1532 -0.5819
  746TMC3    C511077   1.611   4.521  11.095  0.3348 -0.3483 -0.2822
  746TMC3    C611078   1.657   4.537  10.973 -0.2625  0.2670 -0.2778
  746TMC3     C11079   1.608   0.116  11.233 -0.7051 -0.2747  0.3290
  746TMC3     O11080   1.494   0.118  11.286  0.0433 -0.7046 -0.1486
  746TMC3     H11081   1.722   0.123  10.980  1.0917 -1.3539  0.0229
  746TMC3    H111082   1.578   4.612  11.292  4.0440  0.3106  0.5174
  746TMC3    H211083   1.662   4.454  10.903 -2.9663 -0.0208 -0.0988
  746TMC3    C711084   1.531   4.403  11.128  0.1569 -0.1312 -0.6907
  746TMC3    C811085   1.747   4.677  10.799 -0.6789  0.0004 -0.5597
  746TMC3    O111086   1.516   4.373  11.246 -0.6911 -0.1661 -0.6264
  746TMC3    O211087   1.830   4.595  10.760  0.4417  0.1605  0.4377
  747TMC3    C111088   3.902   0.315  11.171  0.2267 -0.2404 -0.5479
  747TMC3    C211089   3.837   0.221  11.236  0.2965 -0.1274 -0.3078
  747TMC3    C311090   3.872   0.206  11.369  0.0411 -0.5989 -0.4024
  747TMC3    C411091   4.001   0.398  11.219 -0.4825 -0.1658  0.1207
  747TMC3    C511092   4.037   0.376  11.351 -0.4770 -0.7575  0.6068
  747TMC3    C611093   3.984   0.272  11.425  0.0900 -0.1134 -0.1162
  747TMC3     C11094   3.851   0.330  11.036  0.6671 -0.2699 -0.4817
  747TMC3     O11095   3.805   0.441  11.008 -0.0367  0.3895  0.1012
  747TMC3     H11096   3.759   0.162  11.190  0.4649 -1.2064  0.7931
  747TMC3    H111097   4.058   0.467  11.158  0.2238  0.7183  1.7459
  747TMC3    H211098   4.023   0.259  11.525 -2.1025 -1.2819  0.6019
  747TMC3    C711099   4.170   0.423  11.392 -0.4265  0.2380 -0.4591
  747TMC3    C811100   3.797   0.108  11.444  0.1957 -0.4363 -0.2852
  747TMC3    O111101   4.176   0.484  11.500  0.2161  0.3254 -0.0629
  747TMC3    O211102   3.719   0.035  11.388 -0.0682  0.0539 -0.4615
  748MPD2     C11103   1.331   0.803   1.764 -0.1030 -0.2164 -0.5135
  748MPD2    C111104   1.304   0.750   1.641 -0.2074 -0.1180 -0.2946
  748MPD2    C211105   1.408   0.733   1.549 -0.4971 -0.1821 -0.0594
  748MPD2    C311106   1.542   0.751   1.589  0.2096  0.2656 -0.1727
  748MPD2    C411107   1.572   0.796   1.718  0.2089  0.9216  0.7176
  748MPD2    C511108   1.464   0.827   1.803 -0.1634  0.2926 -0.0733
  748MPD2     H11109   1.379   0.687   1.455  0.4198 -2.7747  0.9191
  748MPD2    H111110   1.674   0.794   1.754  0.3823 -1.7399  0.1263
  748MPD2    H211111   1.262   0.835   1.842 -1.0346 -0.4413 -1.2523
  748MPD2    H311112   1.491   0.868   1.900 -0.3863  2.7135 -1.0327
  748MPD2     N11113   1.660   0.727   1.510 -0.0348  1.0710 -0.4324
  748MPD2    H511114   1.748   0.734   1.559 -0.4942  0.0317  0.5348
  748MPD2    N111115   1.171   0.716   1.613 -0.7843 -0.3218 -0.0339
  748MPD2    H711116   1.108   0.744   1.688 -1.4993 -2.3729  0.1477
  749TMC3    C111117   1.776   0.676   1.309  0.3084 -0.0705  0.6218
  749TMC3    C211118   1.874   0.631   1.393 -0.3264  0.5463  0.1257
  749TMC3    C311119   2.003   0.630   1.352  0.0603  0.0187  0.2633
  749TMC3    C411120   1.807   0.725   1.188 -0.0854  0.6487 -0.3785
  749TMC3    C511121   1.942   0.729   1.151 -0.3338 -0.2090 -0.8120
  749TMC3    C611122   2.045   0.670   1.222  0.0898  0.2936 -0.0320
  749TMC3     C11123   1.648   0.713   1.371 -0.5451 -0.4557  0.2119
  749TMC3     O11124   1.556   0.736   1.297  0.4021  0.2902  0.3617
  749TMC3     H11125   1.848   0.592   1.490 -0.4532 -0.0856 -0.1644
  749TMC3    H111126   1.732   0.770   1.124 -1.3541 -0.0829  0.5956
  749TMC3    H211127   2.150   0.677   1.194 -0.4000  2.4906 -1.2869
  749TMC3    C711128   1.977   0.826   1.046 -0.1899 -0.1759 -0.2398
  749TMC3    C811129   2.106   0.586   1.441  0.1165 -0.7024  0.3464
  749TMC3    O111130   2.038   0.928   1.078 -0.4808 -0.6140  0.2897
  749TMC3    O211131   2.079   0.591   1.560 -0.6257 -0.9448 -0.2966
  750MPD2     C11132   1.649   2.041  11.727 -0.9199  0.0099  0.1422
  750MPD2    C111133   1.524   1.992  11.766  0.4264  0.0683  0.2595
  750MPD2    C211134   1.471   1.881  11.701  0.4287  0.7016 -0.5951
  750MPD2    C311135   1.553   1.806  11.618  0.1013  0.1583 -0.8968
  750MPD2    C411136   1.676   1.860  11.584 -0.2707 -0.1041 -0.4246
  750MPD2    C511137   1.722   1.975  11.638 -0.1367  0.0099 -0.5768
  750MPD2     H11138   1.368   1.850  11.712 -0.1784  3.0581  0.2760
  750MPD2    H111139   1.747   1.810  11.519  1.7963  1.3896  0.6880
  750MPD2    H211140   1.694   2.129  11.771  2.3514 -2.0141  0.8319
  750MPD2    H311141   1.822   2.013  11.620 -0.1931  1.6148  2.5486
  750MPD2     N11142   1.522   1.679  11.561  0.0901 -0.6311  0.5356
  750MPD2    H511143   1.583   1.644  11.488 -1.8462 -3.7304  0.3976
  750MPD2    N111144   1.444   2.057  11.862  0.0402  0.8232  0.3919
  750MPD2    H711145   1.357   2.010  11.886  1.8098 -3.6974 -2.0944
  751TMC3    C111146   1.387   1.488  11.520 -0.6701 -0.0263 -0.1039
  751TMC3    C211147   1.328   1.386  11.591  0.6219  0.2073  0.2410
  751TMC3    C311148   1.345   1.256  11.540  0.1035  0.1375 -0.1146
  751TMC3    C411149   1.458   1.468  11.410 -0.3494 -0.2038  0.1237
  751TMC3    C511150   1.457   1.346  11.351  0.2819 -0.7103 -0.1376
  751TMC3    C611151   1.408   1.245  11.423 -0.1237  0.0139  0.4008
  751TMC3     C11152   1.415   1.602  11.608  0.3802 -0.3625  0.3027
  751TMC3     O11153   1.356   1.615  11.716  0.0917  0.1401  0.4346
  751TMC3     H11154   1.273   1.405  11.682  0.4051  1.3886 -0.1326
  751TMC3    H111155   1.495   1.557  11.359 -1.6296 -0.7382 -1.7649
  751TMC3    H211156   1.407   1.145  11.381  0.5846 -0.2721  1.0671
  751TMC3    C711157   1.484   1.347  11.207 -0.3817 -0.4816 -0.1424
  751TMC3    C811158   1.235   1.166  11.559  0.0741 -0.1937 -0.1193
  751TMC3    O111159   1.527   1.448  11.151  0.1451  0.4448  0.2056
  751TMC3    O211160   1.195   1.126  11.453 -0.1078 -0.7524 -0.1278
  752TMC3    C111161   0.672   1.434  17.334  0.0327  0.4874 -0.3364
  752TMC3    C211162   0.774   1.424  17.425  0.7311  0.1586  0.8071
  752TMC3    C311163   0.739   1.404  17.554  0.2773 -0.1764  0.2804
  752TMC3    C411164   0.538   1.434  17.373  0.2355  0.2607 -0.3725
  752TMC3    C511165   0.515   1.429  17.506 -0.3584 -0.1474  0.2171
  752TMC3    C611166   0.613   1.422  17.600 -0.8995 -0.4405  0.0584
  752TMC3     C11167   0.711   1.447  17.198 -0.5442  0.2971 -0.1327
  752TMC3     O11168   0.825   1.412  17.184 -0.2236  0.1622  0.1570
  752TMC3     H11169   0.878   1.423  17.396 -0.3670  0.5031 -3.1940
  752TMC3    H111170   0.450   1.430  17.310 -0.3888 -0.7675  0.5626
  752TMC3    H211171   0.584   1.396  17.701 -1.2852 -2.0922 -0.4849
  752TMC3    C711172   0.381   1.418  17.561 -0.0979  0.3148  0.2500
  752TMC3    C811173   0.815   1.303  17.631 -0.3589  0.2482  0.0117
  752TMC3    O111174   0.369   1.356  17.667  0.6120  0.0358 -0.0328
  752TMC3    O211175   0.811   1.307   0.003  0.7631 -0.1389 -0.5570
  753TMC3    C111176   2.851   2.626  13.582 -0.0139 -0.4147 -0.1149
  753TMC3    C211177   2.938   2.627  13.686 -0.1335 -0.2345 -0.3680
  753TMC3    C311178   2.962   2.504  13.748  0.2187 -0.2182  0.0056
  753TMC3    C411179   2.829   2.513  13.510  0.2940  0.6495  0.3678
  753TMC3    C511180   2.879   2.399  13.556  0.0210  0.0199 -0.9258
  753TMC3    C611181   2.941   2.390  13.678  0.6518 -0.1254 -0.0073
  753TMC3     C11182   2.841   2.755  13.506 -0.5930 -0.1079 -0.6647
  753TMC3     O11183   2.822   2.765  13.386 -0.1644 -0.3075 -0.7600
  753TMC3     H11184   2.965   2.720  13.734 -0.5062  0.7424 -2.0444
  753TMC3    H111185   2.781   2.522  13.413  0.0946 -3.2580  0.1151
  753TMC3    H211186   2.967   2.294  13.722 -1.1069 -0.5446  0.1514
  753TMC3    C711187   2.844   2.269  13.498 -0.0314  0.4882 -0.2131
  753TMC3    C811188   3.022   2.493  13.880  0.5397  0.2413  0.6009
  753TMC3    O111189   2.760   2.270  13.411  0.6057  0.2620  0.0560
  753TMC3    O211190   3.044   2.379  13.922  0.1253 -0.4889 -0.1319
  754MPD2     C11191   2.220   1.309  13.667 -0.0197  0.0902 -0.4056
  754MPD2    C111192   2.137   1.200  13.646 -0.0661  0.4154 -0.6269
  754MPD2    C211193   2.050   1.201  13.541 -0.2801  0.3274  0.3049
  754MPD2    C311194   2.030   1.320  13.475  0.8132 -0.4379 -0.1363
  754MPD2    C411195   2.103   1.432  13.504 -0.6491  0.4081 -1.1937
  754MPD2    C511196   2.197   1.423  13.596 -0.7044 -0.2821 -0.2345
  754MPD2     H11197   1.988   1.113  13.529 -0.8989  0.7003  0.7662
  754MPD2    H111198   2.062   1.528  13.478  1.8033  1.7138 -0.2040
  754MPD2    H211199   2.297   1.317  13.743 -1.4283  0.5020  0.9687
  754MPD2    H311200   2.256   1.506  13.633  1.1504 -0.0862 -3.5437
  754MPD2     N11201   1.933   1.335  13.381  0.1862 -0.3431 -0.5256
  754MPD2    H511202   1.909   1.424  13.338  2.6012  0.3883 -0.3415
  754MPD2    N111203   2.143   1.084  13.718 -0.2208  0.4390 -0.5629
  754MPD2    H711204   2.080   1.006  13.699  0.5907 -0.4151  0.2998
  755MPD2     C11205   1.326   2.012  13.359 -0.2038 -0.4532 -0.8174
  755MPD2    C111206   1.255   1.900  13.409 -0.7239 -0.3082 -0.1579
  755MPD2    C211207   1.321   1.775  13.401 -0.1145  0.0781 -1.0560
  755MPD2    C311208   1.452   1.759  13.356 -0.3875  0.1368  0.2957
  755MPD2    C411209   1.518   1.871  13.311  0.3964  0.0101 -0.7394
  755MPD2    C511210   1.455   1.993  13.315 -0.4872  0.1154 -0.2544
  755MPD2     H11211   1.262   1.692  13.438 -2.5599  1.4989 -1.7779
  755MPD2    H111212   1.612   1.852  13.260  1.5304  0.4088  1.2136
  755MPD2    H211213   1.281   2.111  13.350 -0.4112 -0.3688  1.2238
  755MPD2    H311214   1.506   2.087  13.295 -0.0050  0.1075  0.8945
  755MPD2     N11215   1.519   1.636  13.355  0.0089  0.2896  0.2839
  755MPD2    H511216   1.601   1.630  13.296 -0.5011 -0.7414 -0.3130
  755MPD2    N111217   1.121   1.900  13.457 -0.6309  0.2752 -0.1264
  755MPD2    H711218   1.093   1.806  13.484  0.0624 -0.4412 -1.9414
  756MPD2     C11219   1.204   2.626   9.975  0.5695 -0.3411  0.6405
  756MPD2    C111220   1.102   2.536  10.006 -0.2135 -0.9552 -0.4635
  756MPD2    C211221   0.966   2.578   9.981  0.7628 -0.9053  0.2834
  756MPD2    C311222   0.935   2.692   9.913 -0.0084  0.2329  0.4004
  756MPD2    C411223   1.040   2.772   9.880  0.7999 -0.0927 -0.1624
  756MPD2    C511224   1.169   2.743   9.912  0.0295  0.0742 -0.4725
  756MPD2     H11225   0.887   2.518  10.024  0.3006 -1.3078 -1.1085
  756MPD2    H111226   1.022   2.869   9.834 -1.1679 -0.7447 -0.7737
  756MPD2    H211227   1.307   2.601   9.998  0.7282  0.4559  0.7928
  756MPD2    H311228   1.244   2.811   9.873 -0.1708 -0.1275 -1.2161
  756MPD2     N11229   0.800   2.720   9.895  0.5067  0.1664 -0.3187
  756MPD2    H511230   0.734   2.657   9.939 -0.2440  1.3119  0.1832
  756MPD2    N111231   1.118   2.421  10.091 -0.0556 -0.0475 -0.4538
  756MPD2    H711232   1.033   2.370  10.112 -0.4104  0.1086 -1.5008
  757MPD2     C11233   0.267   2.113   9.985 -0.3622  0.7044 -0.3847
  757MPD2    C111234   0.382   2.136   9.921 -0.2022 -0.7943 -0.2114
  757MPD2    C211235   0.412   2.268   9.888 -0.8646  0.3045 -0.1122
  757MPD2    C311236   0.338   2.374   9.942 -0.1508 -0.1614  0.2177
  757MPD2    C411237   0.230   2.346  10.021 -0.9352 -0.2050  0.0810
  757MPD2    C511238   0.191   2.215  10.034 -0.3788 -0.3682  0.4391
  757MPD2     H11239   0.489   2.295   9.817  1.0150 -2.4806  0.8741
  757MPD2    H111240   0.162   2.425  10.051  2.3204  1.8779  2.0378
  757MPD2    H211241   0.230   2.012  10.002  2.4941 -0.6254 -1.9403
  757MPD2    H311242   0.094   2.193  10.078 -0.1391 -1.0767  0.5959
  757MPD2     N11243   0.373   2.505   9.912  0.7010  0.0498  0.1574
  757MPD2    H511244   0.464   2.521   9.868  1.3076 -0.4938  1.2175
  757MPD2    N111245   0.464   2.027   9.878 -0.3515  0.0565 -0.0243
  757MPD2    H711246   0.439   1.932   9.903 -0.6721  0.5509  1.4733
  758MPD2     C11247   1.304   0.442  16.086  1.1971 -0.0917  0.0068
  758MPD2    C111248   1.429   0.459  16.127  0.0981  0.3285  0.2677
  758MPD2    C211249   1.462   0.563  16.212  0.2340 -0.3429  0.7992
  758MPD2    C311250   1.376   0.666  16.250 -0.2964  0.7477 -0.2849
  758MPD2    C411251   1.245   0.639  16.213  0.2190  0.0547 -0.1813
  758MPD2    C511252   1.214   0.535  16.131 -0.6236  0.4133  0.8729
  758MPD2     H11253   1.562   0.564  16.255 -0.3208  2.5739  2.0763
  758MPD2    H111254   1.163   0.692  16.260 -0.0574 -0.9590  0.4715
  758MPD2    H211255   1.270   0.354  16.032  2.3745 -0.5257 -0.0128
  758MPD2    H311256   1.112   0.510  16.108  0.1129 -0.3161 -1.5754
  758MPD2     N11257   1.416   0.776  16.329 -0.5514  0.1754 -0.5688
  758MPD2    H511258   1.338   0.829  16.368 -1.2894 -1.1800 -0.2179
  758MPD2    N111259   1.533   0.373  16.085 -0.4885 -0.0886  0.2567
  758MPD2    H711260   1.516   0.323  15.999  2.6281 -1.3986  0.4414
  759MPD2     C11261   0.073   0.026  10.216 -0.1212 -1.1706  0.0408
  759MPD2    C111262   0.149   4.668  10.140  0.2313  0.5987 -0.2612
  759MPD2    C211263   0.286   4.676  10.136  0.6897  0.8524  0.6920
  759MPD2    C311264   0.355   0.039  10.211 -0.2354 -0.0908 -0.0065
  759MPD2    C411265   0.277   0.138  10.279 -0.2405 -0.2107  0.0743
  759MPD2    C511266   0.145   0.128  10.280  0.4612 -0.0095 -0.4233
  759MPD2     H11267   0.351   4.610  10.080  0.9145 -0.4254  2.4955
  759MPD2    H111268   0.311   0.232  10.321 -1.4613 -0.5033  1.7006
  759MPD2    H211269   4.704   0.017  10.229 -0.1549 -0.5181  0.2487
  759MPD2    H311270   0.083   0.201  10.331 -0.4388  0.5369 -2.3250
  759MPD2     N11271   0.499   0.050  10.197  0.2139  0.1027  0.4461
  759MPD2    H511272   0.542   4.706  10.156  0.5614  1.7873 -2.5399
  759MPD2    N111273   0.088   4.576  10.058  0.0574 -0.6612 -0.2191
  759MPD2    H711274   0.151   4.517  10.005 -3.2968 -3.2987 -1.2393
  760MPD2     C11275   4.478   1.528  12.075  0.2963 -0.4037  0.8806
  760MPD2    C111276   4.583   1.502  11.990  0.2332  0.3988 -0.2583
  760MPD2    C211277   4.627   1.372  11.980  0.0761 -0.4896  0.3481
  760MPD2    C311278   4.570   1.268  12.049  0.4200  0.2918  0.4026
  760MPD2    C411279   4.453   1.299  12.123  0.6032  0.6076  0.1654
  760MPD2    C511280   4.408   1.429  12.129  0.0001  0.6112  0.5411
  760MPD2     H11281   4.703   1.354  11.906 -0.1502 -3.4364  0.8327
  760MPD2    H111282   4.390   1.220  12.161 -0.5442  1.5790  0.2880
  760MPD2    H211283   4.437   1.627  12.087  0.8142  0.0750 -1.2003
  760MPD2    H311284   4.318   1.453  12.185 -1.2824 -0.0738 -1.2368
  760MPD2     N11285   4.620   1.135  12.044  0.1626  0.2938 -0.1634
  760MPD2    H511286   4.574   1.071  12.107 -2.1212  1.2840 -0.8259
  760MPD2    N111287   4.661   1.604  11.931 -0.3173 -0.4341  0.8997
  760MPD2    H711288   0.013   1.579  11.893 -0.1908  0.7252  0.4101
  761MPD2     C11289   0.948   0.849  11.832  0.6513  0.8042 -0.4923
  761MPD2    C111290   0.969   0.858  11.695 -0.2573  0.3405 -0.0917
  761MPD2    C211291   1.043   0.959  11.644 -0.5577  0.4678  0.0009
  761MPD2    C311292   1.094   1.056  11.733  0.3470  0.1855  0.4424
  761MPD2    C411293   1.062   1.056  11.867  0.1647  0.6783 -0.4136
  761MPD2    C511294   0.987   0.953  11.915  0.2312  0.0137 -0.5961
  761MPD2     H11295   1.072   0.960  11.540 -0.2820  3.9190  0.1140
  761MPD2    H111296   1.105   1.130  11.933  0.7153 -0.0200  0.0131
  761MPD2    H211297   0.879   0.779  11.878  0.0200  1.5793 -0.2595
  761MPD2    H311298   0.958   0.956  12.019  1.9076  0.2965 -0.1460
  761MPD2     N11299   1.181   1.159  11.684  0.5766  0.0331 -0.4178
  761MPD2    H511300   1.229   1.217  11.753  1.4434 -0.4341 -0.6298
  761MPD2    N111301   0.923   0.748  11.610 -0.4657 -0.5036 -0.1718
  761MPD2    H711302   0.903   0.660  11.657  2.4869 -0.3864  1.2949
  762MPD2     C11303   0.970   0.233  10.831 -0.0212  0.0612  0.2733
  762MPD2    C111304   0.995   0.356  10.887 -0.3521 -0.2617 -0.3930
  762MPD2    C211305   1.084   0.441  10.824 -0.1618  0.0984  0.8447
  762MPD2    C311306   1.152   0.403  10.707  0.6356  0.1363  0.6238
  762MPD2    C411307   1.133   0.275  10.662  0.1491  0.2453  0.0956
  762MPD2    C511308   1.036   0.197  10.719  0.3394 -0.0055 -0.4628
  762MPD2     H11309   1.093   0.542  10.864  0.2791  0.5355 -0.3754
  762MPD2    H111310   1.164   0.249  10.562 -1.2470 -1.4775  0.1095
  762MPD2    H211311   0.891   0.166  10.861 -1.3822  1.1461 -0.9154
  762MPD2    H311312   1.003   0.105  10.672  0.5372  0.3677 -1.3328
  762MPD2     N11313   1.236   0.492  10.644  0.0519  0.0867 -0.4620
  762MPD2    H511314   1.248   0.583  10.689  3.0141  0.4519 -1.9691
  762MPD2    N111315   0.918   0.388  11.003 -0.1979 -0.0553  0.5491
  762MPD2    H711316   0.873   0.313  11.053 -0.9492 -0.0534 -0.1256
  763MPD2     C11317   3.887   0.992  16.041  0.1911 -0.6912  0.0421
  763MPD2    C111318   3.771   1.059  16.016 -0.3542 -0.6573 -0.3327
  763MPD2    C211319   3.758   1.193  16.048 -0.0485  0.3330 -0.2187
  763MPD2    C311320   3.860   1.258  16.108 -0.3442  0.4392 -0.3834
  763MPD2    C411321   3.975   1.191  16.124 -0.3386  0.0801 -0.0209
  763MPD2    C511322   3.985   1.055  16.103  0.5176  0.2698 -0.4340
  763MPD2     H11323   3.665   1.240  16.017  0.8261  2.3852  0.3213
  763MPD2    H111324   4.057   1.247  16.168 -1.2391  1.5648 -0.2307
  763MPD2    H211325   3.906   0.889  16.012  3.1350  0.0221 -0.5175
  763MPD2    H311326   4.079   1.004  16.119  0.8292  1.3663  1.2189
  763MPD2     N11327   3.868   1.398  16.138 -0.0020  0.4213  0.4746
  763MPD2    H511328   3.957   1.441  16.161 -0.2678  0.0966  2.1239
  763MPD2    N111329   3.673   0.997  15.941  0.1514  0.3707 -0.3857
  763MPD2    H711330   3.606   1.062  15.900 -1.5104 -0.4446  1.0347
  764MPD2     C11331   1.269   1.714  17.059  0.3218  0.5308 -0.6632
  764MPD2    C111332   1.232   1.846  17.054 -0.0646  0.1136 -0.1312
  764MPD2    C211333   1.233   1.925  17.170 -0.0433 -0.6838  0.0520
  764MPD2    C311334   1.290   1.873  17.284  0.3101 -0.1651 -0.2188
  764MPD2    C411335   1.348   1.744  17.277 -0.7139 -0.4830 -0.2668
  764MPD2    C511336   1.330   1.667  17.171 -0.4953  0.4794  0.6023
  764MPD2     H11337   1.192   2.026  17.170 -0.7091 -0.9477 -0.4604
  764MPD2    H111338   1.400   1.695  17.359 -0.1277 -0.4253 -0.6096
  764MPD2    H211339   1.282   1.651  16.972  0.2915 -2.4005  1.4296
  764MPD2    H311340   1.379   1.571  17.178  1.8513  1.5144 -1.6124
  764MPD2     N11341   1.303   1.962  17.397  0.1817 -0.0276  0.6779
  764MPD2    H511342   1.255   2.052  17.396  0.0524 -0.0948  0.7995
  764MPD2    N111343   1.188   1.916  16.940  0.0948  0.4007  0.8764
  764MPD2    H711344   1.143   2.005  16.958  0.0771  1.2595 -3.4268
  765MPD2     C11345   1.320   0.567  15.540  0.0688  0.1747 -0.0165
  765MPD2    C111346   1.411   0.592  15.645 -0.3484 -0.4353 -0.1747
  765MPD2    C211347   1.538   0.540  15.643 -0.6846  0.2561 -0.1389
  765MPD2    C311348   1.574   0.463  15.530 -0.0942 -0.1554  0.6145
  765MPD2    C411349   1.486   0.447  15.424 -0.0164 -0.3513  0.4915
  765MPD2    C511350   1.359   0.496  15.432 -0.3181  0.1509  0.6787
  765MPD2     H11351   1.612   0.566  15.718 -0.8279 -1.3726  0.5874
  765MPD2    H111352   1.513   0.388  15.336  1.0225  0.9785 -0.0783
  765MPD2    H211353   1.220   0.609  15.530 -0.8952 -1.6822  1.7375
  765MPD2    H311354   1.290   0.475  15.351 -1.5487  0.5884  1.6081
  765MPD2     N11355   1.697   0.399  15.542  0.7860 -0.1411  0.2896
  765MPD2    H511356   1.756   0.443  15.612  1.5170 -2.2624  0.9943
  765MPD2    N111357   1.369   0.681  15.749 -0.5054 -0.1033 -0.0916
  765MPD2    H711358   1.274   0.715  15.736  0.1166  0.5789 -2.9663
  766MPD2     C11359   0.890   0.763  15.584  0.4025 -0.2108 -1.2838
  766MPD2    C111360   1.017   0.822  15.573 -0.6090  0.4143  0.2579
  766MPD2    C211361   1.094   0.810  15.456  0.5982  0.0217  0.2857
  766MPD2    C311362   1.048   0.733  15.356 -0.7155  0.4508  0.5803
  766MPD2    C411363   0.927   0.663  15.368 -0.2636 -0.1173  0.1071
  766MPD2    C511364   0.851   0.683  15.483  0.7722  0.5677  0.6348
  766MPD2     H11365   1.198   0.842  15.455  0.6328 -0.1985 -2.1633
  766MPD2    H111366   0.903   0.603  15.281  1.4460  1.6165 -1.5683
  766MPD2    H211367   0.824   0.770  15.669  1.8919  1.7516 -0.2757
  766MPD2    H311368   0.762   0.622  15.499  0.8539 -0.2992 -2.1132
  766MPD2     N11369   1.116   0.714  15.234 -0.2472 -0.0754  0.3896
  766MPD2    H511370   1.084   0.640  15.172 -0.4852 -0.8473  1.4268
  766MPD2    N111371   1.079   0.893  15.683 -0.0710 -0.1003  0.4878
  766MPD2    H711372   1.166   0.942  15.666 -1.0274  1.8735  1.2344
  767MPD2     C11373   0.690   0.898  15.196 -0.0259  0.1778 -0.1020
  767MPD2    C111374   0.802   0.945  15.141 -0.5804 -0.4175 -0.7459
  767MPD2    C211375   0.848   0.892  15.018 -0.0736  0.3184 -0.0254
  767MPD2    C311376   0.760   0.810  14.949  0.1016  0.0086 -0.3854
  767MPD2    C411377   0.640   0.768  15.002  0.2501 -0.0040 -0.1867
  767MPD2    C511378   0.607   0.808  15.127 -0.0929 -0.6665  0.4059
  767MPD2     H11379   0.943   0.920  14.974 -0.5530 -0.1350 -1.3524
  767MPD2    H111380   0.579   0.691  14.957  2.2764 -1.0194 -1.1994
  767MPD2    H211381   0.660   0.906  15.300  1.2500 -2.0249  0.4356
  767MPD2    H311382   0.521   0.765  15.177  0.2709  0.7041  2.2213
  767MPD2     N11383   0.791   0.768  14.820 -0.3854 -0.9105 -0.6471
  767MPD2    H511384   0.881   0.795  14.781 -0.5961  0.8563  0.0685
  767MPD2    N111385   0.887   1.037  15.212 -0.0969  0.0203  0.4620
  767MPD2    H711386   0.854   1.056  15.306 -1.5764 -2.5334  0.4701
  768MPD2     C11387   1.496   4.377  10.434  0.5968 -0.3462  0.1445
  768MPD2    C111388   1.437   4.281  10.507  0.5238 -0.1603 -0.3265
  768MPD2    C211389   1.500   4.241  10.620 -0.0702 -0.1304 -0.3855
  768MPD2    C311390   1.627   4.289  10.653  0.3854 -0.6193  0.4583
  768MPD2    C411391   1.688   4.389  10.573 -0.0321  0.5153  0.1129
  768MPD2    C511392   1.610   4.442  10.477  0.4802  0.0498  0.1374
  768MPD2     H11393   1.450   4.175  10.690 -0.9323  0.9100 -0.0278
  768MPD2    H111394   1.775   4.445  10.606  0.5055 -0.1735 -0.1497
  768MPD2    H211395   1.462   4.418  10.340 -2.2538 -0.0939  1.2732
  768MPD2    H311396   1.637   4.533  10.425  0.0575 -1.3775 -2.5862
  768MPD2     N11397   1.704   4.245  10.761 -0.2663 -0.1668  0.4930
  768MPD2    H511398   1.797   4.283  10.772 -0.4654  0.1277  1.1134
  768MPD2    N111399   1.313   4.223  10.477  0.5329  0.2767 -0.1422
  768MPD2    H711400   1.280   4.154  10.544 -2.0846  0.7791 -0.8885
  769MPD2     C11401   2.610   2.388  14.788 -0.1741 -0.2786  0.1679
  769MPD2    C111402   2.560   2.322  14.897  0.0871 -0.1730  0.1638
  769MPD2    C211403   2.650   2.320  15.003 -0.0585 -0.2158  0.0203
  769MPD2    C311404   2.772   2.386  15.009  0.3473 -0.6563 -0.6004
  769MPD2    C411405   2.819   2.450  14.897  0.3229 -0.0490 -0.1008
  769MPD2    C511406   2.741   2.431  14.784  0.2371  0.6877  0.1876
  769MPD2     H11407   2.632   2.251  15.084 -0.5803 -1.3411 -1.0660
  769MPD2    H111408   2.920   2.487  14.891  0.2156  0.2043 -0.3481
  769MPD2    H211409   2.546   2.398  14.702  2.7450  4.2548 -1.4835
  769MPD2    H311410   2.785   2.462  14.690  0.8584 -0.0526  0.2305
  769MPD2     N11411   2.836   2.386  15.135  0.0512 -0.3008 -0.3667
  769MPD2    H511412   2.807   2.319  15.205 -1.0314  0.2300 -0.3127
  769MPD2    N111413   2.434   2.256  14.903  0.2374 -0.3600 -0.1337
  769MPD2    H711414   2.380   2.239  14.818  0.3156 -0.7172 -0.1132
  770MPD2     C11415   2.069   1.457  15.469  0.0420 -0.4898 -0.1461
  770MPD2    C111416   2.092   1.437  15.337 -0.5092 -0.3375  0.3797
  770MPD2    C211417   2.105   1.538  15.245  0.5752 -0.0853  0.1306
  770MPD2    C311418   2.091   1.669  15.277  0.3966  0.7353 -0.6911
  770MPD2    C411419   2.072   1.692  15.416 -0.4584 -0.0444  0.5305
  770MPD2    C511420   2.057   1.590  15.509  0.7285  0.8655 -0.5494
  770MPD2     H11421   2.142   1.518  15.145 -0.6658  1.3390 -0.6101
  770MPD2    H111422   2.053   1.793  15.451  1.2299  1.3486 -2.5439
  770MPD2    H211423   2.070   1.377  15.542 -0.6340 -0.3350  0.0402
  770MPD2    H311424   2.039   1.610  15.614 -0.8374 -0.4356 -0.5618
  770MPD2     N11425   2.098   1.764  15.173 -0.2528 -0.0931  0.2045
  770MPD2    H511426   2.125   1.734  15.080 -0.6059 -1.5472  0.5698
  770MPD2    N111427   2.101   1.306  15.298 -0.1913 -0.3004 -0.2122
  770MPD2    H711428   2.096   1.237  15.372  0.1469 -1.2569 -1.0906
  771MPD2     C11429   3.504   4.736  13.930  0.1875  0.0443 -0.0363
  771MPD2    C111430   3.433   0.085  13.848 -0.6183  0.0621  0.2175
  771MPD2    C211431   3.300   0.068  13.831 -0.2112  0.3451 -0.2947
  771MPD2    C311432   3.234   4.699  13.890 -0.3238  0.3111 -0.3936
  771MPD2    C411433   3.316   4.601  13.950 -0.2172 -0.3138 -0.2514
  771MPD2    C511434   3.445   4.630  13.978 -0.5853 -0.3800  0.4629
  771MPD2     H11435   3.240   0.145  13.783  0.9088  2.0908  1.1196
  771MPD2    H111436   3.272   4.514  13.996 -1.0049 -0.2648 -0.9039
  771MPD2    H211437   3.611   0.002  13.950  0.3379 -2.4190 -0.3568
  771MPD2    H311438   3.505   4.553  14.024  2.2779 -0.0837 -2.7302
  771MPD2     N11439   3.097   4.689  13.884 -0.6031  0.7364  0.3669
  771MPD2    H511440   3.047   0.037  13.865 -0.8130  0.5260 -0.0525
  771MPD2    N111441   3.489   0.209  13.803 -0.7016 -0.6356  0.1502
  771MPD2    H711442   3.424   0.276  13.764 -0.0619 -0.4004 -0.5020
  772MPD2     C11443   3.342   0.879  13.604  0.3909 -0.5948  0.0152
  772MPD2    C111444   3.305   0.760  13.659 -1.0195  0.1507 -0.1611
  772MPD2    C211445   3.172   0.721  13.640 -0.2219 -0.0766  0.0912
  772MPD2    C311446   3.082   0.805  13.576  0.3887  0.1842 -0.4453
  772MPD2    C411447   3.125   0.929  13.537 -0.1407  0.0301  0.3915
  772MPD2    C511448   3.254   0.968  13.546  0.1793  0.3082  1.1269
  772MPD2     H11449   3.136   0.624  13.673 -1.1774 -0.0469 -0.8553
  772MPD2    H111450   3.053   0.996  13.490 -1.8011 -0.2273  2.5832
  772MPD2    H211451   3.443   0.914  13.618  0.5174 -0.2666 -1.7928
  772MPD2    H311452   3.291   1.061  13.506  0.8647 -0.3792  0.1545
  772MPD2     N11453   2.949   0.774  13.544  0.0759 -0.2485  0.4434
  772MPD2    H511454   2.904   0.835  13.476 -0.8692 -1.1429  0.2805
  772MPD2    N111455   3.397   0.678  13.729 -0.3232 -0.4728 -0.2822
  772MPD2    H711456   3.366   0.586  13.760 -1.0540  0.1569  0.8168
  773MPD2     C11457   2.346   1.567   0.085 -0.3775 -0.1229 -0.5620
  773MPD2    C111458   2.318   1.444   0.029  0.0853  0.3811 -0.4479
  773MPD2    C211459   2.352   1.329   0.094 -0.4089  0.0112  0.1391
  773MPD2    C311460   2.415   1.336   0.217  0.5623  0.7244  0.1443
  773MPD2    C411461   2.430   1.457   0.272 -0.4513  0.1512 -0.2023
  773MPD2    C511462   2.399   1.575   0.208  0.0243  0.8128 -0.0236
  773MPD2     H11463   2.327   1.234   0.047  0.7351  0.8939 -2.2569
  773MPD2    H111464   2.473   1.475   0.370 -0.2116  2.4728 -0.7517
  773MPD2    H211465   2.307   1.660   0.046  0.3139  0.5316  0.3269
  773MPD2    H311466   2.421   1.670   0.255  0.9580 -1.3374  3.8846
  773MPD2     N11467   2.433   1.207   0.288 -0.4043 -0.3566 -0.2069
  773MPD2    H511468   2.415   1.128   0.227  0.2248  1.3112 -2.5563
  773MPD2    N111469   2.272   1.424  17.648  0.5918 -0.6511  0.0993
  773MPD2    H711470   2.244   1.330  17.622  3.6289 -0.9139 -2.1079
  774MPD2     C11471   2.183   0.440  14.424 -0.0854 -0.3691 -0.4233
  774MPD2    C111472   2.050   0.453  14.385  0.5808 -0.5802  0.0131
  774MPD2    C211473   1.997   0.578  14.373 -0.1780 -0.1885  0.6327
  774MPD2    C311474   2.079   0.688  14.383 -0.3104  0.2421  1.2977
  774MPD2    C411475   2.212   0.675  14.422  0.4088 -0.3683 -0.0232
  774MPD2    C511476   2.257   0.550  14.451 -0.1282  0.1701 -0.4430
  774MPD2     H11477   1.895   0.587  14.336 -0.9766 -1.2335  2.6032
  774MPD2    H111478   2.286   0.753  14.429 -0.6111  0.5620  0.4368
  774MPD2    H211479   2.223   0.341  14.437 -2.2893 -1.1012  0.8201
  774MPD2    H311480   2.357   0.533  14.490 -0.6919  0.9549  1.3324
  774MPD2     N11481   2.031   0.806  14.322 -0.2768 -0.2185 -0.7108
  774MPD2    H511482   1.931   0.810  14.307 -0.4933  1.1045  0.9866
  774MPD2    N111483   1.993   0.333  14.334  0.8947  0.4918  0.2413
  774MPD2    H711484   2.041   0.244  14.331 -1.6423 -0.8046 -1.6222
  775MPD2     C11485   3.643   2.488  16.202  0.8470 -0.0175 -0.3898
  775MPD2    C111486   3.533   2.432  16.140  1.2659 -0.2984 -0.1577
  775MPD2    C211487   3.509   2.462  15.999  0.0645 -0.5496 -0.7248
  775MPD2    C311488   3.588   2.558  15.933 -0.0305  0.1884  0.9762
  775MPD2    C411489   3.702   2.595  15.997  0.5415 -0.5915  0.5309
  775MPD2    C511490   3.728   2.566  16.126 -0.3695  0.2269  0.6943
  775MPD2     H11491   3.425   2.420  15.946  0.2186 -0.5020 -1.0049
  775MPD2    H111492   3.759   2.667  15.940 -0.4177  1.7145  2.4847
  775MPD2    H211493   3.665   2.469  16.307  0.5626 -1.2080 -0.5502
  775MPD2    H311494   3.819   2.606  16.170  1.0655 -1.2969 -0.8381
  775MPD2     N11495   3.569   2.607  15.803  0.9140 -0.4043  0.7120
  775MPD2    H511496   3.635   2.676  15.768  2.4508 -1.5741  1.2881
  775MPD2    N111497   3.442   2.359  16.223 -0.4008 -0.4929  0.0468
  775MPD2    H711498   3.454   2.368  16.323 -2.7880 -1.0150  0.3726
  776MPD2     C11499   0.884   2.468  11.684 -0.7467  0.1922  0.0050
  776MPD2    C111500   1.004   2.515  11.731 -0.4645 -0.7526 -0.2632
  776MPD2    C211501   1.081   2.599  11.651 -0.0655 -0.4017  0.0216
  776MPD2    C311502   1.038   2.624  11.525 -0.7997  0.1765  0.5520
  776MPD2    C411503   0.917   2.574  11.475  0.6182 -0.3219  0.5242
  776MPD2    C511504   0.833   2.507  11.559 -0.3956  0.8245 -0.5527
  776MPD2     H11505   1.174   2.647  11.678  0.3150 -0.8196 -0.5345
  776MPD2    H111506   0.887   2.594  11.373  0.6415 -0.4797  0.4860
  776MPD2    H211507   0.818   2.406  11.744 -1.9261  1.4460  0.0284
  776MPD2    H311508   0.737   2.472  11.522 -0.3914 -1.4182  1.5401
  776MPD2     N11509   1.115   2.682  11.429  0.3247 -0.4901 -0.0008
  776MPD2    H511510   1.060   2.715  11.350 -1.1623 -1.4336  0.6308
  776MPD2    N111511   1.044   2.471  11.859 -0.6357 -0.2858 -0.2345
  776MPD2    H711512   0.987   2.395  11.893 -0.8660 -0.4236 -0.9151
  777MPD2     C11513   2.942   4.499   0.635  0.4080 -0.2287  0.6619
  777MPD2    C111514   2.858   4.486   0.748 -0.2008 -0.0042  1.0901
  777MPD2    C211515   2.751   4.392   0.749  0.0731  0.0476 -0.3137
  777MPD2    C311516   2.730   4.311   0.638 -0.5815 -0.1790  0.1180
  777MPD2    C411517   2.811   4.321   0.531 -0.6652  0.0909  0.4043
  777MPD2    C511518   2.918   4.413   0.532  0.5938 -0.1700 -0.2350
  777MPD2     H11519   2.688   4.392   0.837  0.9520  1.3643  0.3241
  777MPD2    H111520   2.794   4.265   0.440 -0.2452  0.5650  0.0403
  777MPD2    H211521   3.029   4.563   0.629  2.2599 -2.8388  0.0094
  777MPD2    H311522   2.982   4.426   0.446  0.8216  1.2188  0.1435
  777MPD2     N11523   2.627   4.213   0.650  0.5882  0.1630  0.1394
  777MPD2    H511524   2.577   4.220   0.738  0.7915 -0.6940  0.3220
  777MPD2    N111525   2.884   4.579   0.848  0.2872 -0.1149 -0.0761
  777MPD2    H711526   2.974   4.626   0.845 -0.1485  0.6214 -1.6743
  778MPD2     C11527   3.533   0.028  15.110 -0.0755 -0.5370 -0.2351
  778MPD2    C111528   3.541   4.650  15.032  0.2590 -0.2407  0.8254
  778MPD2    C211529   3.624   4.646  14.921 -1.0015  0.4129 -0.0912
  778MPD2    C311530   3.703   0.018  14.883  0.1340  0.0187 -0.3086
  778MPD2    C411531   3.693   0.137  14.959 -0.3222 -0.0299  0.7273
  778MPD2    C511532   3.600   0.139  15.062 -0.5504 -0.5108  0.5121
  778MPD2     H11533   3.636   4.552  14.869 -1.1311  0.7653 -0.7644
  778MPD2    H111534   3.741   0.229  14.926  0.4995 -0.8252 -0.2883
  778MPD2    H211535   3.463   0.042  15.192  1.4580 -1.1397  1.1547
  778MPD2    H311536   3.589   0.239  15.102  0.0024  0.4695 -1.8002
  778MPD2     N11537   3.786   0.007  14.770  1.1471 -0.5534  0.0668
  778MPD2    H511538   3.781   4.665  14.708  0.8166  0.1886 -0.8792
  778MPD2    N111539   3.451   4.543  15.052  0.5126 -0.3449  0.5454
  778MPD2    H711540   3.462   4.461  14.993  0.3782 -0.6992  1.0068
  779MPD2     C11541   2.921   3.728  14.273 -0.5071 -0.9756 -0.3970
  779MPD2    C111542   3.053   3.725  14.305 -0.1834 -0.1856  0.0719
  779MPD2    C211543   3.130   3.838  14.287 -0.3023 -0.3590 -0.4817
  779MPD2    C311544   3.063   3.956  14.244 -0.1962  0.1896 -0.0649
  779MPD2    C411545   2.939   3.946  14.190 -0.3887 -0.2024  0.1597
  779MPD2    C511546   2.867   3.835  14.204 -0.6686 -0.6998 -0.6990
  779MPD2     H11547   3.235   3.833  14.315 -0.7441 -0.1942  1.2228
  779MPD2    H111548   2.895   4.030  14.136 -0.1970  1.0878  2.0090
  779MPD2    H211549   2.851   3.646  14.286 -1.3089 -0.1306  0.5244
  779MPD2    H311550   2.761   3.837  14.178 -0.2901 -1.4436 -2.2513
  779MPD2     N11551   3.139   4.072  14.248 -0.1665 -0.2427 -0.5686
  779MPD2    H511552   3.231   4.059  14.290 -0.9787 -0.9905  0.9775
  779MPD2    N111553   3.121   3.603  14.346  0.3901 -0.1388 -0.4198
  779MPD2    H711554   3.221   3.607  14.362  0.9734 -1.6770 -3.6544
  780MPD2     C11555   2.760   3.694   1.146 -0.3585  1.0276  0.5416
  780MPD2    C111556   2.715   3.594   1.059  0.0123 -0.0773  0.3735
  780MPD2    C211557   2.782   3.579   0.938 -0.6321 -0.6602 -0.2444
  780MPD2    C311558   2.889   3.660   0.908 -0.0451 -0.8801 -0.7083
  780MPD2    C411559   2.943   3.746   1.004 -0.0034  0.3695  0.3472
  780MPD2    C511560   2.882   3.753   1.124 -0.1339  0.0190 -0.0371
  780MPD2     H11561   2.755   3.500   0.868  0.6317 -0.2179 -1.2232
  780MPD2    H111562   3.036   3.798   0.986 -1.8335  2.7766 -2.1276
  780MPD2    H211563   2.717   3.710   1.244  0.8975  0.9969  1.0899
  780MPD2    H311564   2.910   3.834   1.190  0.2580 -0.0409 -0.1308
  780MPD2     N11565   2.941   3.641   0.773  0.1293 -0.1366  0.0829
  780MPD2    H511566   2.887   3.580   0.712 -2.1660  3.6942 -1.6791
  780MPD2    N111567   2.619   3.502   1.099 -0.4195  0.6710  0.1446
  780MPD2    H711568   2.582   3.517   1.192  0.2037 -0.8507  0.6373
  781MPD2     C11569   4.079   0.730  12.143  0.4617 -0.0474 -0.2719
  781MPD2    C111570   4.184   0.692  12.216  1.5698 -0.3185  0.3078
  781MPD2    C211571   4.309   0.678  12.163 -0.0105 -0.1508  0.0730
  781MPD2    C311572   4.333   0.694  12.029  0.0102  0.7786  0.0711
  781MPD2    C411573   4.225   0.724  11.945 -0.3054 -0.6620  0.3180
  781MPD2    C511574   4.106   0.750  12.007 -0.3437 -0.1643  1.0741
  781MPD2     H11575   4.389   0.657  12.233  1.8086 -0.0047 -1.9654
  781MPD2    H111576   4.240   0.747  11.840  0.5546 -3.0716 -0.0932
  781MPD2    H211577   3.980   0.739  12.186 -0.1456 -1.5822 -1.3559
  781MPD2    H311578   4.026   0.773  11.937  1.4982  0.2629 -0.8809
  781MPD2     N11579   4.467   0.694  11.971 -0.8430  0.1546 -0.4071
  781MPD2    H511580   4.471   0.720  11.873  0.0757 -0.9837 -0.6787
  781MPD2    N111581   4.179   0.674  12.360  0.6541  0.4115 -0.2335
  781MPD2    H711582   4.267   0.639  12.396 -0.4909 -0.9594  1.2497
  782MPD2     C11583   1.446   1.797  10.472 -0.1485  0.0732  0.7167
  782MPD2    C111584   1.577   1.761  10.429 -0.1937  0.4247 -0.3541
  782MPD2    C211585   1.686   1.778  10.513 -0.5063 -0.2437 -0.3222
  782MPD2    C311586   1.675   1.830  10.640 -0.6770  0.8598 -0.2702
  782MPD2    C411587   1.552   1.862  10.683 -0.8826 -0.5167 -0.4763
  782MPD2    C511588   1.441   1.852  10.604  0.1475 -0.4578  0.2239
  782MPD2     H11589   1.786   1.756  10.478 -0.7824 -0.6715 -0.8585
  782MPD2    H111590   1.546   1.918  10.775  2.2749 -0.3833 -0.3779
  782MPD2    H211591   1.352   1.785  10.419  0.3816 -1.8392  0.2081
  782MPD2    H311592   1.342   1.890  10.628  1.1290  2.4768 -0.4097
  782MPD2     N11593   1.788   1.868  10.724  0.8396  0.4339  0.4440
  782MPD2    H511594   1.771   1.902  10.818 -1.6132  0.0948  0.1455
  782MPD2    N111595   1.592   1.714  10.296 -0.3237  0.1717  0.4385
  782MPD2    H711596   1.542   1.770  10.228 -1.7661 -1.2591  0.3245
  783MPD2     C11597   1.343   1.089  10.974 -0.3624  0.7837  0.1924
  783MPD2    C111598   1.411   1.203  11.016  0.1234 -0.3806  0.0907
  783MPD2    C211599   1.466   1.286  10.922  0.1511  0.3328  0.9181
  783MPD2    C311600   1.464   1.252  10.786 -0.6426 -0.8617  0.9816
  783MPD2    C411601   1.390   1.146  10.742  0.0587 -0.2418  0.2117
  783MPD2    C511602   1.334   1.062  10.839  0.3570 -0.2422  0.5270
  783MPD2     H11603   1.515   1.380  10.944  0.4334  0.8562 -1.9716
  783MPD2    H111604   1.375   1.115  10.639  1.2738  1.8590 -0.5914
  783MPD2    H211605   1.296   1.018  11.041 -0.9485  0.3772 -0.6359
  783MPD2    H311606   1.268   0.986  10.798  0.6318  0.3876 -1.0609
  783MPD2     N11607   1.548   1.328  10.699  0.3732  0.3259 -0.1696
  783MPD2    H511608   1.616   1.394  10.735  2.1205 -1.2106 -0.6409
  783MPD2    N111609   1.421   1.233  11.156  0.4802 -0.3071 -0.5393
  783MPD2    H711610   1.380   1.175  11.228  2.0438 -1.0257 -0.2349
  784MPD2     C11611   0.492   1.183   0.736 -0.0166  0.3122  0.3328
  784MPD2    C111612   0.416   1.218   0.846 -0.8045  0.0234 -0.9693
  784MPD2    C211613   0.300   1.289   0.810 -0.2549  0.1498 -1.0072
  784MPD2    C311614   0.261   1.323   0.685 -0.6706  0.9562 -0.0629
  784MPD2    C411615   0.341   1.282   0.585  0.0127  0.0121 -1.1251
  784MPD2    C511616   0.465   1.218   0.611  0.3520 -0.2037  0.6441
  784MPD2     H11617   0.238   1.307   0.897  3.0349  1.8095  0.9713
  784MPD2    H111618   0.313   1.297   0.481 -0.5139  3.0512 -0.5449
  784MPD2    H211619   0.583   1.125   0.748 -1.0798 -1.1993  1.1531
  784MPD2    H311620   0.531   1.177   0.535  0.1775 -1.0652  0.9691
  784MPD2     N11621   0.132   1.374   0.643  0.3422  0.3572  0.3909
  784MPD2    H511622   0.118   1.389   0.544  1.0090 -1.8543 -0.0291
  784MPD2    N111623   0.441   1.211   0.986 -0.0444 -0.0808 -0.8352
  784MPD2    H711624   0.373   1.249   1.052 -2.8337 -1.2644 -2.9976
  785MPD2     C11625   0.135   0.201  10.686  0.0059 -0.2096  0.8141
  785MPD2    C111626   0.076   0.291  10.771  0.1408 -0.2127 -0.0455
  785MPD2    C211627   4.674   0.277  10.789 -0.2406 -0.2854 -0.0470
  785MPD2    C311628   4.597   0.198  10.707  0.5257  0.2911 -0.4137
  785MPD2    C411629   4.655   0.125  10.612  0.4692 -1.2136 -0.2295
  785MPD2    C511630   0.055   0.128  10.607 -0.1393 -0.0079  0.4121
  785MPD2     H11631   4.614   0.328  10.863  0.5690 -0.5569  0.7942
  785MPD2    H111632   4.598   0.070  10.538 -2.7920 -0.0419  1.3999
  785MPD2    H211633   0.243   0.194  10.683  0.1037  2.6326 -2.5329
  785MPD2    H311634   0.111   0.052  10.554  0.8053  0.1484  1.1846
  785MPD2     N11635   4.457   0.192  10.738  0.5538  0.1189  0.4882
  785MPD2    H511636   4.419   0.235  10.822 -0.9672 -0.7005  0.2174
  785MPD2    N111637   0.151   0.376  10.854 -0.2988 -0.0245 -0.1175
  785MPD2    H711638   0.252   0.371  10.846 -0.1897  2.3788 -0.0535
  786MPD2     C11639   3.343   3.059  14.753 -0.5287  0.5560  0.4920
  786MPD2    C111640   3.459   2.985  14.764 -0.4420 -0.2345  0.5054
  786MPD2    C211641   3.553   3.022  14.855 -0.1847 -0.3106  0.2314
  786MPD2    C311642   3.537   3.128  14.935 -0.8509  0.4175  0.0678
  786MPD2    C411643   3.411   3.193  14.937 -0.1252  0.2411 -0.0552
  786MPD2    C511644   3.314   3.156  14.846 -0.5713 -0.2889  0.0170
  786MPD2     H11645   3.644   2.964  14.844  0.1227  0.4082 -1.0041
  786MPD2    H111646   3.394   3.273  15.008  1.2507  0.9734 -0.5523
  786MPD2    H211647   3.267   3.044  14.677  0.0654  0.6675 -0.1274
  786MPD2    H311648   3.226   3.216  14.828  0.7097  1.6440  0.1867
  786MPD2     N11649   3.649   3.175  15.015 -0.2754  0.1570 -0.7317
  786MPD2    H511650   3.636   3.250  15.081 -1.0153 -0.4216 -0.2189
  786MPD2    N111651   3.485   2.880  14.681 -0.7281  0.6899 -0.6169
  786MPD2    H711652   3.570   2.828  14.700 -1.2405 -0.5949 -1.8573
  787MPD2     C11653   3.620   2.043  14.421 -0.3499 -0.4278  0.3606
  787MPD2    C111654   3.637   2.147  14.513  0.5261  0.8574 -0.1137
  787MPD2    C211655   3.757   2.137  14.591  0.1355  0.5866 -0.5928
  787MPD2    C311656   3.846   2.029  14.589  0.1122  1.5204  0.6006
  787MPD2    C411657   3.821   1.931  14.498 -0.4289  0.2575  0.1010
  787MPD2    C511658   3.710   1.942  14.414 -0.4860 -0.3624 -0.1727
  787MPD2     H11659   3.778   2.216  14.662  0.4751  0.3517 -0.4368
  787MPD2    H111660   3.890   1.850  14.480 -0.5604  0.5793 -1.8674
  787MPD2    H211661   3.538   2.046  14.351 -1.1824 -0.7518  1.3235
  787MPD2    H311662   3.692   1.865  14.339  0.3263  1.2740 -2.0340
  787MPD2     N11663   3.971   2.038  14.661  0.0455 -0.0744 -0.7159
  787MPD2    H511664   3.989   2.112  14.728 -0.2328 -1.2827  0.7029
  787MPD2    N111665   3.554   2.253  14.518 -0.1181 -0.0824  0.6654
  787MPD2    H711666   3.464   2.246  14.472 -0.8252 -3.3498  2.5365
  788MPD2     C11667   1.141   1.350   1.168 -0.3139 -0.1941 -0.1543
  788MPD2    C111668   1.106   1.268   1.058  0.1420  0.1433 -0.2855
  788MPD2    C211669   1.050   1.328   0.946  0.0363  0.5547 -0.1989
  788MPD2    C311670   1.038   1.463   0.943  0.1508  0.2619  0.9571
  788MPD2    C411671   1.080   1.539   1.047  0.1097 -0.1616  0.3647
  788MPD2    C511672   1.126   1.483   1.161  0.1927  0.4737 -0.1333
  788MPD2     H11673   1.025   1.256   0.870 -1.9139  0.6175  0.3925
  788MPD2    H111674   1.056   1.644   1.055  1.4842  0.0620  1.6057
  788MPD2    H211675   1.162   1.306   1.264 -1.2551 -0.3017  0.0026
  788MPD2    H311676   1.145   1.549   1.245  2.1537 -0.0718 -0.1608
  788MPD2     N11677   0.982   1.525   0.834  0.1752  0.6508 -0.0527
  788MPD2    H511678   0.990   1.626   0.838 -2.2594  0.9091 -2.3287
  788MPD2    N111679   1.115   1.130   1.068  0.2420 -0.0983 -0.1865
  788MPD2    H711680   1.050   1.083   1.006  0.4062  0.6272 -0.9071
  789MPD2     C11681   1.503   0.539  16.810  0.4365  0.5761 -0.3849
  789MPD2    C111682   1.410   0.546  16.706  0.2100 -0.1490 -0.4291
  789MPD2    C211683   1.325   0.656  16.697  0.2465 -0.0029 -0.0149
  789MPD2    C311684   1.316   0.745  16.802  1.1201  0.6057 -0.8590
  789MPD2    C411685   1.418   0.747  16.895  0.9025  0.5675 -0.1231
  789MPD2    C511686   1.511   0.646  16.896 -0.4417 -0.8493 -0.9404
  789MPD2     H11687   1.260   0.675  16.612  0.3629 -1.7287 -0.4861
  789MPD2    H111688   1.421   0.828  16.968  2.2514  1.4120 -1.1238
  789MPD2    H211689   1.572   0.456  16.802  1.1545  0.9314  2.3409
  789MPD2    H311690   1.585   0.635  16.974  0.6598  2.3841 -1.4905
  789MPD2     N11691   1.208   0.848  16.816 -0.1747 -0.0607 -0.0920
  789MPD2    H511692   1.233   0.917  16.886 -0.2864  0.0731 -0.1833
  789MPD2    N111693   1.402   0.450  16.596  0.5158  0.1419 -0.2472
  789MPD2    H711694   1.336   0.470  16.521 -1.1121  0.5043  1.2825
  790MPD2     C11695   2.401   1.754  13.437  0.1955 -0.5324 -0.2374
  790MPD2    C111696   2.407   1.895  13.454 -0.0228  0.5229 -0.7034
  790MPD2    C211697   2.332   1.977  13.368  0.3141  0.3786 -0.0391
  790MPD2    C311698   2.252   1.919  13.265  0.2322 -0.8893  0.3829
  790MPD2    C411699   2.259   1.783  13.250  0.4734 -0.1578  0.2722
  790MPD2    C511700   2.333   1.698  13.333 -0.3767 -0.5419  0.6861
  790MPD2     H11701   2.330   2.085  13.378 -3.3002  0.5938 -3.0129
  790MPD2    H111702   2.199   1.725  13.181  1.1772 -2.3888  1.5402
  790MPD2    H211703   2.456   1.687  13.502  0.9678  0.2712 -0.0613
  790MPD2    H311704   2.317   1.591  13.329 -0.4724 -0.5557  1.4615
  790MPD2     N11705   2.168   2.003  13.184 -0.5117 -0.7005 -0.6437
  790MPD2    H511706   2.179   2.104  13.193 -1.2498 -0.6899  0.2006
  790MPD2    N111707   2.482   1.940  13.566  0.1004  0.0231  0.3645
  790MPD2    H711708   2.510   1.868  13.632 -2.1000 -0.5228  0.7103
  791MPD2     C11709   1.425   2.428  12.945 -0.3448 -0.8853 -0.1209
  791MPD2    C111710   1.451   2.301  12.983 -0.1950 -0.3884  0.0702
  791MPD2    C211711   1.340   2.222  13.016  0.4683 -0.7067  0.0725
  791MPD2    C311712   1.208   2.272  13.019 -0.0962 -0.2968  0.6256
  791MPD2    C411713   1.192   2.400  12.978  0.5081 -0.1429  0.3568
  791MPD2    C511714   1.298   2.478  12.937  0.3019 -0.3152 -0.2307
  791MPD2     H11715   1.351   2.117  13.041 -1.0078 -0.8280  0.2051
  791MPD2    H111716   1.093   2.443  12.975 -0.0035 -1.2340  2.0390
  791MPD2    H211717   1.504   2.485  12.897 -3.3834  0.2614 -3.7901
  791MPD2    H311718   1.281   2.580  12.904 -2.6179 -0.5110  0.6180
  791MPD2     N11719   1.101   2.183  13.049  0.1360 -0.0244  0.1116
  791MPD2    H511720   1.127   2.087  13.066  1.3250  0.8724  3.3148
  791MPD2    N111721   1.581   2.255  12.956 -0.3516  0.1601  0.3221
  791MPD2    H711722   1.645   2.321  12.913 -2.1815  3.6366  2.8982
  792MPD2     C11723   1.977   2.508  11.593 -0.1796  0.8297  0.4634
  792MPD2    C111724   1.915   2.534  11.469  0.3377  0.2892  0.3008
  792MPD2    C211725   1.785   2.489  11.440 -0.9438  0.0874 -0.1929
  792MPD2    C311726   1.717   2.429  11.538  0.0888 -0.2373 -0.6366
  792MPD2    C411727   1.770   2.415  11.666 -0.8919 -1.0655 -1.2291
  792MPD2    C511728   1.900   2.449  11.687 -0.8015 -1.2885  0.3281
  792MPD2     H11729   1.740   2.501  11.342 -0.6587 -2.2736 -0.6135
  792MPD2    H111730   1.720   2.366  11.749  1.2700 -1.5877 -0.2330
  792MPD2    H211731   2.077   2.543  11.616 -0.3898  1.4845  0.3723
  792MPD2    H311732   1.937   2.449  11.789 -0.4520  0.3157  0.1942
  792MPD2     N11733   1.579   2.388  11.533 -0.0679  0.2518 -0.9373
  792MPD2    H511734   1.543   2.341  11.616 -1.4411  2.1001 -0.4928
  792MPD2    N111735   1.998   2.605  11.378  0.2468  0.1584 -0.6137
  792MPD2    H711736   2.090   2.630  11.412  1.2765 -0.2480 -3.1235
  793MPD2     C11737   0.905   2.210  10.761 -0.2185  0.0639  0.1346
  793MPD2    C111738   1.041   2.225  10.762 -0.1935 -0.2379 -0.3446
  793MPD2    C211739   1.111   2.265  10.877 -0.1915 -0.0614  0.2359
  793MPD2    C311740   1.045   2.296  10.993 -0.0644 -0.0859 -0.1941
  793MPD2    C411741   0.911   2.300  10.977  0.1878  0.8031 -0.4627
  793MPD2    C511742   0.843   2.264  10.865  0.2950  0.2015  0.5081
  793MPD2     H11743   1.220   2.262  10.880 -0.1746 -2.2427 -1.8726
  793MPD2    H111744   0.841   2.316  11.057  0.7450  0.7145  0.0441
  793MPD2    H211745   0.841   2.169  10.684  0.0839 -0.9472  0.4252
  793MPD2    H311746   0.735   2.267  10.869  0.2873 -0.3954  0.8036
  793MPD2     N11747   1.118   2.305  11.119  0.0145  0.0262  0.5445
  793MPD2    H511748   1.217   2.283  11.126  0.6371  2.1809 -1.6587
  793MPD2    N111749   1.116   2.195  10.649 -0.3445  0.0815  0.1219
  793MPD2    H711750   1.217   2.199  10.661 -0.4964  0.4373  1.2669
  794MPD2     C11751   2.293   1.448  16.777 -0.5585 -0.6107  0.0921
  794MPD2    C111752   2.167   1.446  16.842  0.6273  0.2402  0.4102
  794MPD2    C211753   2.062   1.409  16.757  0.2861  0.2283  0.2390
  794MPD2    C311754   2.074   1.405  16.622 -0.1888 -1.0509 -0.3413
  794MPD2    C411755   2.199   1.403  16.567 -0.0456  0.5988 -0.8485
  794MPD2    C511756   2.311   1.424  16.644 -0.7599 -0.1640  0.4321
  794MPD2     H11757   1.964   1.404  16.805  0.3159 -0.7799  0.1927
  794MPD2    H111758   2.213   1.390  16.460  1.3637 -0.7222 -0.5031
  794MPD2    H211759   2.388   1.472  16.824 -0.6176 -2.3032  1.0726
  794MPD2    H311760   2.409   1.433  16.599 -0.2236  5.0931  2.7419
  794MPD2     N11761   1.958   1.389  16.536  0.3381 -0.1484  0.0486
  794MPD2    H511762   1.978   1.367  16.439  0.9322 -0.1102  0.1642
  794MPD2    N111763   2.145   1.445  16.981 -0.4101 -0.8480 -0.1737
  794MPD2    H711764   2.048   1.429  17.007 -1.2861  1.3009 -2.0167
  795MPD2     C11765   4.155   3.740  13.094  0.2397  0.2044  0.5823
  795MPD2    C111766   4.180   3.769  13.223  0.3415 -0.1549 -0.2476
  795MPD2    C211767   4.298   3.731  13.282  0.4160 -0.9417 -0.4989
  795MPD2    C311768   4.380   3.650  13.208 -0.3309 -0.2234  0.8103
  795MPD2    C411769   4.364   3.630  13.072  0.1227  0.1730  0.2318
  795MPD2    C511770   4.248   3.676  13.016 -0.0839  0.1205 -0.4403
  795MPD2     H11771   4.327   3.759  13.382 -0.5003  0.5814 -0.6629
  795MPD2    H111772   4.427   3.565  13.012  0.2444  0.5266 -0.0177
  795MPD2    H211773   4.063   3.769  13.046  1.0568  2.2605  0.2412
  795MPD2    H311774   4.209   3.640  12.922 -2.4839 -1.5878  1.2207
  795MPD2     N11775   4.483   3.584  13.281  0.5340  0.1761 -0.2171
  795MPD2    H511776   4.478   3.570  13.382  0.9248  0.4588 -0.1611
  795MPD2    N111777   4.090   3.841  13.299 -0.6962 -0.2686 -0.5668
  795MPD2    H711778   4.117   3.863  13.394 -4.9544 -1.9750  1.0642
  796MPD2     C11779   3.910   0.426  15.934  0.1663 -0.1876  1.2290
  796MPD2    C111780   4.031   0.469  15.978 -0.2895  0.2020  0.5666
  796MPD2    C211781   4.077   0.579  15.917 -0.5340  0.3737 -0.2285
  796MPD2    C311782   4.016   0.650  15.819 -0.1743  0.3604  0.5453
  796MPD2    C411783   3.894   0.607  15.779 -0.1999 -0.0683 -0.5153
  796MPD2    C511784   3.845   0.488  15.828 -0.0606  0.0910 -1.2908
  796MPD2     H11785   4.171   0.625  15.946 -0.2722 -0.5821  0.4319
  796MPD2    H111786   3.828   0.658  15.710  0.3388  0.4404 -0.6479
  796MPD2    H211787   3.875   0.334  15.979 -0.3080 -1.2578 -1.3297
  796MPD2    H311788   3.747   0.452  15.800 -0.8431  0.2952  1.1363
  796MPD2     N11789   4.072   0.775  15.787  0.0797 -0.4301 -0.5611
  796MPD2    H511790   4.158   0.794  15.837  1.3653 -3.1257 -1.7437
  796MPD2    N111791   4.104   0.396  16.080  0.4141  0.7465  0.2599
  796MPD2    H711792   4.055   0.323  16.131  1.2811  0.6992  1.0158
  797MPD2     C11793   1.126   0.413  17.039  0.0180 -0.1732 -0.0422
  797MPD2    C111794   1.031   0.492  17.095  0.0990  0.5097 -0.3631
  797MPD2    C211795   0.945   0.567  17.017 -0.2363  0.2125  0.6218
  797MPD2    C311796   0.944   0.553  16.880 -0.1142  0.6993  0.2902
  797MPD2    C411797   1.040   0.483  16.820  0.1647 -0.0920  0.0075
  797MPD2    C511798   1.130   0.415  16.901  0.0139  0.2935 -0.2692
  797MPD2     H11799   0.863   0.624  17.059  0.3424  0.4452  1.4377
  797MPD2    H111800   1.030   0.469  16.713 -1.5399  2.1794 -0.1284
  797MPD2    H211801   1.192   0.349  17.097  0.0552 -1.1476 -1.1571
  797MPD2    H311802   1.211   0.363  16.851 -0.5371 -0.8822  0.0653
  797MPD2     N11803   0.829   0.610  16.816  0.1367  0.8172  0.4567
  797MPD2    H511804   0.765   0.661  16.875 -0.1453 -0.2732  1.0874
  797MPD2    N111805   1.005   0.508  17.233 -0.1603  0.4592  0.1389
  797MPD2    H711806   0.932   0.573  17.262 -0.3731  0.6835 -0.9092
  798MPD2     C11807   0.296   0.802  17.217  0.6068 -0.6649 -0.1977
  798MPD2    C111808   0.417   0.776  17.150  0.0748  0.3484 -0.5495
  798MPD2    C211809   0.525   0.724  17.214  0.8837  0.1917  0.1563
  798MPD2    C311810   0.519   0.697  17.347 -0.9194  0.1005 -0.3302
  798MPD2    C411811   0.400   0.723  17.413  0.3652 -0.0454 -0.0787
  798MPD2    C511812   0.291   0.776  17.347 -0.8815 -0.4719  0.1814
  798MPD2     H11813   0.613   0.689  17.162 -0.2353 -3.1856  0.4979
  798MPD2    H111814   0.399   0.727  17.521  2.6334  0.3837 -0.0882
  798MPD2    H211815   0.216   0.859  17.173  0.1200 -0.3029  1.1553
  798MPD2    H311816   0.201   0.801  17.402  0.3707  1.2584  1.4243
  798MPD2     N11817   0.628   0.628  17.410  0.0061  0.1216  0.5380
  798MPD2    H511818   0.710   0.618  17.352  0.2216 -0.6395  0.9717
  798MPD2    N111819   0.426   0.801  17.010 -0.5409  0.4296 -0.5691
  798MPD2    H711820   0.339   0.824  16.963 -1.5960 -2.7400 -0.1864
  799MPD2     C11821   4.442   2.053  14.472 -0.9321 -0.2228  0.0568
  799MPD2    C111822   4.373   1.951  14.413 -0.0491 -0.1029  0.8672
  799MPD2    C211823   4.308   1.969  14.297  0.5324 -0.8775  0.3064
  799MPD2    C311824   4.285   2.101  14.252  0.5978 -0.2901 -0.1021
  799MPD2    C411825   4.362   2.202  14.308  0.6961 -0.0638  0.0330
  799MPD2    C511826   4.441   2.178  14.414  0.4171  0.1069 -0.2343
  799MPD2     H11827   4.244   1.892  14.256  1.7692 -0.4699 -2.3663
  799MPD2    H111828   4.361   2.308  14.282 -0.0583 -0.1686 -0.3600
  799MPD2    H211829   4.507   2.037  14.558  0.3203  0.1290 -0.8176
  799MPD2    H311830   4.490   2.265  14.457 -1.2869  1.1672 -0.4454
  799MPD2     N11831   4.201   2.136  14.146  0.3214 -0.4512 -0.1052
  799MPD2    H511832   4.207   2.231  14.111 -1.4208 -0.3365 -0.0909
  799MPD2    N111833   4.365   1.819  14.462 -0.4917 -0.5951  0.8440
  799MPD2    H711834   4.294   1.759  14.421 -0.9363  0.2146  0.4413
  800MPD2     C11835   4.033   3.013  14.034  0.0819 -0.1766 -0.4456
  800MPD2    C111836   4.156   2.950  14.011  0.7470  0.1842 -0.5324
  800MPD2    C211837   4.160   2.816  14.048 -1.2951  0.0338  0.2001
  800MPD2    C311838   4.048   2.749  14.092  0.2308  0.2867  0.3520
  800MPD2    C411839   3.932   2.818  14.114  0.3778  0.7348  0.0943
  800MPD2    C511840   3.935   2.952  14.103 -0.6494 -0.4624 -0.5635
  800MPD2     H11841   4.251   2.760  14.029 -0.6127  1.0585  0.3996
  800MPD2    H111842   3.840   2.774  14.149  1.8536 -1.0039  1.8011
  800MPD2    H211843   4.013   3.119  14.022  1.0767 -0.0752 -1.2045
  800MPD2    H311844   3.836   2.993  14.095 -0.0990  0.9835  0.1000
  800MPD2     N11845   4.055   2.608  14.127  0.3093 -0.0704  1.0230
  800MPD2    H511846   3.997   2.578  14.205 -0.4949 -2.4373 -0.4745
  800MPD2    N111847   4.263   3.020  13.949  0.0016 -0.0981 -0.0128
  800MPD2    H711848   4.248   3.116  13.920  1.0293  0.1327  0.2249
  801MPD2     C11849   4.576   3.679  14.094 -0.1382  0.9607 -0.0334
  801MPD2    C111850   4.508   3.562  14.129 -0.2654  0.8359 -0.1319
  801MPD2    C211851   4.474   3.544  14.260 -0.4791  0.2020 -0.4716
  801MPD2    C311852   4.496   3.647  14.356  0.4564 -0.2091 -0.5900
  801MPD2    C411853   4.553   3.764  14.315 -0.0038 -0.6186 -0.4340
  801MPD2    C511854   4.604   3.778  14.192  0.2885  0.0831  0.3101
  801MPD2     H11855   4.432   3.449  14.290  2.5448 -1.4142 -1.3211
  801MPD2    H111856   4.571   3.849  14.381 -0.0856  0.0432 -1.2719
  801MPD2    H211857   4.615   3.691  13.994 -0.3942  0.4287 -0.2004
  801MPD2    H311858   4.658   3.868  14.162 -1.7959  1.4600  0.6683
  801MPD2     N11859   4.449   3.629  14.487 -0.1570 -0.9342 -0.3396
  801MPD2    H511860   4.387   3.549  14.498 -0.8239 -0.3694 -0.0499
  801MPD2    N111861   4.490   3.455  14.036  0.3191 -0.8369 -0.4883
  801MPD2    H711862   4.447   3.373  14.077 -0.2982  1.0671  2.6437
  802MPD2     C11863   4.190   0.021   0.380 -1.0531 -0.2886 -0.0686
  802MPD2    C111864   4.154   4.621   0.387  0.7492 -0.0780  0.2518
  802MPD2    C211865   4.208   4.532   0.300 -0.2145  0.4191 -0.2533
  802MPD2    C311866   4.305   4.566   0.206  0.3156  0.0016 -0.2288
  802MPD2    C411867   4.330   4.699   0.191 -0.2845 -0.2187 -0.4723
  802MPD2    C511868   4.277   0.054   0.281  0.2255  0.4415  0.0693
  802MPD2     H11869   4.179   4.428   0.306 -1.7792  0.8692  0.0126
  802MPD2    H111870   4.388   4.737   0.107 -1.3037 -0.6961 -1.3877
  802MPD2    H211871   4.143   0.097   0.441  2.7832  1.9225  0.1534
  802MPD2    H311872   4.297   0.157   0.254 -1.0237  0.8377  0.6528
  802MPD2     N11873   4.349   4.467   0.118  0.5198  0.0184 -0.3525
  802MPD2    H511874   4.304   4.378   0.136 -0.1025  0.1806 -1.0945
  802MPD2    N111875   4.058   4.567   0.478 -0.3028 -0.2115 -0.0334
  802MPD2    H711876   4.036   4.468   0.479  1.4155 -0.5851  0.5613
  803MPD2     C11877   4.602   2.174  11.690 -0.4374  1.1507  0.7020
  803MPD2    C111878   4.649   2.303  11.721 -0.5238 -0.0649 -0.2503
  803MPD2    C211879   4.652   2.342  11.852 -0.2902 -0.0310 -0.0605
  803MPD2    C311880   4.620   2.252  11.953  0.0766 -0.6301 -0.2618
  803MPD2    C411881   4.561   2.132  11.922 -0.4317  0.3534 -0.4868
  803MPD2    C511882   4.545   2.098  11.792  0.3521  0.5419  0.4597
  803MPD2     H11883   4.702   2.436  11.870 -2.6507  0.5056  3.8985
  803MPD2    H111884   4.521   2.069  12.001  1.9652  0.8932  1.1786
  803MPD2    H211885   4.596   2.130  11.591 -1.4291 -1.0118  1.7221
  803MPD2    H311886   4.506   2.001  11.762  0.8949  0.1224  1.1111
  803MPD2     N11887   4.626   2.280  12.092  0.0891  0.0175 -0.3006
  803MPD2    H511888   4.613   2.206  12.161 -1.6143  0.7713  0.2081
  803MPD2    N111889   4.690   2.391  11.626  0.9177  0.1486  0.0456
  803MPD2    H711890   4.727   2.481  11.656  1.0363 -0.0462  0.4814
  804MPD2     C11891   4.519   3.540  17.141 -0.2721 -0.4853  0.2324
  804MPD2    C111892   4.486   3.502  17.273 -0.7031  0.3962  0.5172
  804MPD2    C211893   4.512   3.591  17.381 -0.7164 -0.2892 -0.1558
  804MPD2    C311894   4.573   3.711  17.355 -0.0565  1.1033 -0.8042
  804MPD2    C411895   4.592   3.749  17.227 -0.3155  0.3393  0.6958
  804MPD2    C511896   4.571   3.666  17.124  0.1488  0.0984  0.1375
  804MPD2     H11897   4.478   3.564  17.481 -0.3264 -0.5279 -0.0847
  804MPD2    H111898   4.628   3.851  17.216  0.4988  0.0339  0.5157
  804MPD2    H211899   4.489   3.488  17.051  1.7570  0.2609 -0.8643
  804MPD2    H311900   4.591   3.698  17.022 -1.7522 -1.9518 -0.8650
  804MPD2     N11901   4.610   3.796  17.463  0.4123  0.1489 -0.3653
  804MPD2    H511902   4.561   3.769  17.548  0.9287  1.6859  0.4343
  804MPD2    N111903   4.432   3.371  17.287  0.7480 -0.5448  0.5813
  804MPD2    H711904   4.393   3.350  17.379  0.8226  2.2731  1.2550
  805MPD2     C11905   4.297   1.789  15.353  0.0407 -0.7761 -0.1633
  805MPD2    C111906   4.207   1.885  15.396 -0.7925 -0.5917 -0.1856
  805MPD2    C211907   4.224   1.936  15.522  0.0313  0.0374 -0.5054
  805MPD2    C311908   4.325   1.892  15.607  0.1176  0.3621  0.0471
  805MPD2    C411909   4.425   1.811  15.549 -0.5706 -0.4146  0.0498
  805MPD2    C511910   4.416   1.755  15.423 -0.5372 -0.6019 -0.0776
  805MPD2     H11911   4.153   2.006  15.564  2.0140  1.4934  0.4097
  805MPD2    H111912   4.514   1.786  15.606 -2.3693 -2.7429  1.8244
  805MPD2    H211913   4.271   1.739  15.260  0.7636 -0.9567 -0.2667
  805MPD2    H311914   4.498   1.700  15.378 -1.2216 -1.3526 -0.4104
  805MPD2     N11915   4.327   1.938  15.745  0.0824  0.1638  0.2130
  805MPD2    H511916   4.265   2.015  15.770  0.9809  0.4728  1.4771
  805MPD2    N111917   4.098   1.917  15.309  0.1645  0.2526 -0.1872
  805MPD2    H711918   4.097   1.879  15.215  1.7170  1.2489 -0.6031
  806MPD2     C11919   4.054   1.307   0.370  0.3145  0.0433  0.0676
  806MPD2    C111920   4.009   1.429   0.422  0.5615  0.1830 -0.6575
  806MPD2    C211921   4.053   1.547   0.366 -0.0954  0.1523 -0.1055
  806MPD2    C311922   4.135   1.541   0.254  0.2698 -0.1855  0.2025
  806MPD2    C411923   4.174   1.423   0.200  0.1168 -0.5773  0.9484
  806MPD2    C511924   4.144   1.306   0.264 -0.2637 -0.4034 -1.2185
  806MPD2     H11925   4.024   1.642   0.409  2.0288  0.6277  0.2943
  806MPD2    H111926   4.236   1.406   0.113 -0.4815  2.5768 -0.1013
  806MPD2    H211927   4.018   1.214   0.412 -1.2581  0.1943 -0.9304
  806MPD2    H311928   4.168   1.207   0.228 -1.2059 -1.4301  0.9556
  806MPD2     N11929   4.187   1.668   0.206  0.1027 -0.6103 -0.1389
  806MPD2    H511930   4.150   1.753   0.246  1.9411 -0.5150  1.3721
  806MPD2    N111931   3.941   1.421   0.550  0.1274  0.1792 -0.2937
  806MPD2    H711932   3.922   1.327   0.582 -0.5869 -0.0511 -1.3571
  807MPD2     C11933   3.724   1.762   1.305  0.3697  0.5792  1.0466
  807MPD2    C111934   3.778   1.636   1.315 -0.7907 -0.2008  0.4746
  807MPD2    C211935   3.843   1.611   1.431 -0.8556  0.2854 -0.3818
  807MPD2    C311936   3.847   1.697   1.536 -0.5282 -0.1563 -0.6112
  807MPD2    C411937   3.790   1.823   1.515  0.4672  0.0349 -0.3678
  807MPD2    C511938   3.720   1.855   1.403  0.2510  0.3805 -0.5147
  807MPD2     H11939   3.891   1.515   1.446 -2.3540 -0.0119  2.5668
  807MPD2    H111940   3.787   1.895   1.597 -2.4586  1.1219 -1.4488
  807MPD2    H211941   3.681   1.796   1.211 -0.5492  0.1138  1.2970
  807MPD2    H311942   3.688   1.956   1.385 -2.3440 -0.4068 -0.3063
  807MPD2     N11943   3.904   1.652   1.660 -0.6094 -0.7065 -0.2125
  807MPD2    H511944   3.969   1.575   1.658  0.6811  0.3779 -0.1754
  807MPD2    N111945   3.779   1.547   1.211  0.1158 -1.3864  0.4516
  807MPD2    H711946   3.832   1.461   1.219  1.8805 -0.1106  2.3753
  808MPD2     C11947   3.875   3.047  10.199 -0.5312 -0.4996  0.3217
  808MPD2    C111948   3.958   2.972  10.119 -0.6598  0.2410  0.9656
  808MPD2    C211949   4.092   2.998  10.103 -0.0754 -0.8318 -0.0211
  808MPD2    C311950   4.134   3.122  10.159 -0.1063  0.3027 -0.1112
  808MPD2    C411951   4.048   3.195  10.236  0.8214 -0.7574 -0.5823
  808MPD2    C511952   3.924   3.155  10.266  0.2020 -0.6943 -0.8276
  808MPD2     H11953   4.151   2.938  10.034 -0.4537 -0.7988 -0.3736
  808MPD2    H111954   4.092   3.285  10.277  1.1021 -1.4088  0.5405
  808MPD2    H211955   3.768   3.032  10.208 -0.5058 -0.6504  0.3743
  808MPD2    H311956   3.872   3.222  10.333  1.2803  0.0033 -0.6852
  808MPD2     N11957   4.263   3.176  10.133  0.1543  0.8994  0.1167
  808MPD2    H511958   4.288   3.269  10.166  1.5117  0.4983  0.2090
  808MPD2    N111959   3.901   2.861  10.049  0.2366 -0.0284 -0.2962
  808MPD2    H711960   3.962   2.820   9.979  0.6830 -0.0170  0.0870
  809MPD2     C11961   0.285   2.778   9.583 -0.5341  0.4427 -0.2340
  809MPD2    C111962   0.310   2.914   9.579 -0.0326  0.1693  0.4253
  809MPD2    C211963   0.216   2.997   9.637 -0.2558 -0.4488  0.5076
  809MPD2    C311964   0.098   2.953   9.693 -0.6544 -0.4945  0.8515
  809MPD2    C411965   0.076   2.817   9.707 -0.1627  0.1455 -0.3116
  809MPD2    C511966   0.172   2.734   9.651 -0.8865  0.9126 -0.1792
  809MPD2     H11967   0.239   3.102   9.645 -1.2745 -0.2861  1.1432
  809MPD2    H111968   4.724   2.779   9.751 -0.7440  2.7318  0.7265
  809MPD2    H211969   0.349   2.700   9.544 -0.1740  0.5413  0.1637
  809MPD2    H311970   0.152   2.627   9.646 -1.1988  0.9631  0.0570
  809MPD2     N11971   0.006   3.031   9.762  0.5511  0.0085  0.3128
  809MPD2    H511972   4.668   2.983   9.807 -0.0545  0.1028 -0.6246
  809MPD2    N111973   0.424   2.973   9.533  0.1274  0.3157  0.2520
  809MPD2    H711974   0.422   3.074   9.527 -1.0552  0.1697 -1.8265
  810MPD2     C11975   3.632   2.908  10.731  0.3398 -0.4425  0.3445
  810MPD2    C111976   3.594   2.773  10.759 -0.6299  0.7928 -0.5412
  810MPD2    C211977   3.580   2.742  10.891 -0.4292  0.4483 -0.5571
  810MPD2    C311978   3.613   2.835  10.989  0.1400 -0.8470 -0.2099
  810MPD2    C411979   3.654   2.965  10.957 -0.3237 -0.0162 -0.3553
  810MPD2    C511980   3.664   2.995  10.825 -0.4691  0.3973  0.1208
  810MPD2     H11981   3.551   2.642  10.919 -2.9306  1.0165 -1.1245
  810MPD2    H111982   3.681   3.038  11.033  1.3673 -2.7633  1.6782
  810MPD2    H211983   3.638   2.935  10.626 -3.3993 -1.4797 -0.1620
  810MPD2    H311984   3.671   3.102  10.805 -2.0781  0.3039 -0.9946
  810MPD2     N11985   3.594   2.783  11.115 -0.4731 -0.0522 -0.2577
  810MPD2    H511986   3.546   2.695  11.128 -0.7064 -0.1220 -1.5127
  810MPD2    N111987   3.559   2.698  10.651 -0.0798  0.4570 -0.3016
  810MPD2    H711988   3.574   2.731  10.556  2.0368  0.7250  0.1165
  811MPD2     C11989   3.370   2.494   9.905 -0.1529 -0.3114  0.2502
  811MPD2    C111990   3.357   2.593   9.993  0.5884  0.5242 -0.6199
  811MPD2    C211991   3.408   2.721   9.966  0.4385 -0.4190  0.2869
  811MPD2    C311992   3.465   2.740   9.845  0.0078  0.3207  0.0302
  811MPD2    C411993   3.492   2.638   9.757 -0.1314 -0.2032 -0.7393
  811MPD2    C511994   3.440   2.517   9.790  0.3579 -0.7225  0.5142
  811MPD2     H11995   3.404   2.806  10.034  1.0967 -0.5312  0.4664
  811MPD2    H111996   3.547   2.648   9.664 -0.8102 -3.0312 -1.4417
  811MPD2    H211997   3.338   2.392   9.925 -0.6883 -0.1727  0.1131
  811MPD2    H311998   3.444   2.429   9.726 -1.2240  1.2834 -2.3329
  811MPD2     N11999   3.505   2.877   9.809  0.1191  0.2143 -0.0791
  811MPD2    H512000   3.466   2.949   9.869  1.9966 -0.8608  2.4186
  811MPD2    N112001   3.311   2.547  10.121  0.7675  0.7422  0.0743
  811MPD2    H712002   3.291   2.448  10.127 -1.6061  1.2772  1.0759
  812MPD2     C12003   2.151   2.357  12.107 -0.1889  0.5754  0.7789
  812MPD2    C112004   2.253   2.443  12.134  0.9164  0.2154  0.6187
  812MPD2    C212005   2.348   2.409  12.223  0.2029  0.5575 -0.0704
  812MPD2    C312006   2.340   2.282  12.287 -0.1987  0.3620 -0.4239
  812MPD2    C412007   2.242   2.186  12.251 -0.4668 -0.3389 -0.4404
  812MPD2    C512008   2.145   2.230  12.162  0.2370  0.4979 -0.3044
  812MPD2     H12009   2.429   2.476  12.250  0.9150 -0.4186  0.2117
  812MPD2    H112010   2.237   2.089  12.299  0.6355 -0.6937 -1.0424
  812MPD2    H212011   2.065   2.386  12.048 -0.4340  2.9629  2.3093
  812MPD2    H312012   2.063   2.163  12.140 -0.2498  0.5913  1.2001
  812MPD2     N12013   2.437   2.265  12.387 -0.1900  0.6440  0.7722
  812MPD2    H512014   2.500   2.340  12.414 -1.7238  2.1085  0.2253
  812MPD2    N112015   2.251   2.567  12.066 -0.3101 -0.5342 -0.0712
  812MPD2    H712016   2.163   2.588  12.020  0.2392 -1.1797 -1.4164
  813MPD2     C12017   1.604   3.731  12.940  0.0542 -0.7271 -0.1456
  813MPD2    C112018   1.587   3.866  12.957 -0.3816 -0.5228  0.7664
  813MPD2    C212019   1.498   3.913  13.054 -0.5894  0.6110  0.3099
  813MPD2    C312020   1.441   3.832  13.147 -0.3267  0.3923 -0.2291
  813MPD2    C412021   1.472   3.696  13.143  0.4604  0.1272 -0.2503
  813MPD2    C512022   1.549   3.648  13.036  0.1624  0.2682  0.0476
  813MPD2     H12023   1.490   4.021  13.062  1.7991  0.8694 -1.0426
  813MPD2    H112024   1.443   3.622  13.216  0.2851 -1.2626 -1.7166
  813MPD2    H212025   1.687   3.707  12.875  0.6915  0.6675  0.1504
  813MPD2    H312026   1.574   3.542  13.032  1.0720  0.4552  1.0552
  813MPD2     N12027   1.371   3.892  13.260 -0.2676  0.2238  0.2103
  813MPD2    H512028   1.345   3.990  13.257  0.8402  0.5584  1.5538
  813MPD2    N112029   1.679   3.949  12.884 -0.3415  0.8196  0.5874
  813MPD2    H712030   1.742   3.905  12.819 -0.6038  1.9039 -0.4021
  814MPD2     C12031   2.096   0.620  12.660 -0.2872  0.0653  0.0579
  814MPD2    C112032   2.072   0.741  12.576 -0.4403  0.0757  0.2590
  814MPD2    C212033   2.134   0.864  12.608 -0.5308  0.1767 -0.1717
  814MPD2    C312034   2.209   0.880  12.719  0.4728  1.0043  0.4454
  814MPD2    C412035   2.215   0.772  12.797  0.0361 -0.2933 -0.0492
  814MPD2    C512036   2.166   0.648  12.772  0.4259 -0.0559  0.1181
  814MPD2     H12037   2.106   0.950  12.548  1.0903  1.2918  0.6708
  814MPD2    H112038   2.271   0.779  12.890 -0.1091  2.1632 -0.1431
  814MPD2    H212039   2.066   0.519  12.635 -1.7377  1.0518 -2.1762
  814MPD2    H312040   2.186   0.569  12.843 -0.0873 -1.2406 -1.0486
  814MPD2     N12041   2.264   1.003  12.775  0.4961 -1.0044  1.1346
  814MPD2    H512042   2.325   0.996  12.856  0.9616 -0.6706  0.8175
  814MPD2    N112043   1.979   0.737  12.464  0.4509  0.1366  0.0661
  814MPD2    H712044   1.963   0.829  12.423 -2.2238 -0.7150 -0.7821
  815MPD2     C12045   2.571   4.280  11.959 -0.1050  0.2819  0.1563
  815MPD2    C112046   2.526   4.158  11.930 -0.2815  0.1367  0.1473
  815MPD2    C212047   2.404   4.119  11.977  0.5490 -0.1630 -0.1907
  815MPD2    C312048   2.321   4.202  12.047 -1.1047  0.0287 -0.0713
  815MPD2    C412049   2.356   4.335  12.052 -0.0662 -0.4385  0.3516
  815MPD2    C512050   2.486   4.371  12.019 -0.2787 -0.0977  0.6145
  815MPD2     H12051   2.370   4.018  11.957  0.3893  0.0633 -1.0753
  815MPD2    H112052   2.295   4.417  12.088  1.6795  0.0100  2.3027
  815MPD2    H212053   2.671   4.313  11.935 -0.3652 -0.9673 -2.6457
  815MPD2    H312054   2.527   4.469  12.042 -0.4997  0.3016 -0.6927
  815MPD2     N12055   2.204   4.150  12.095 -0.4636  0.2787 -0.2877
  815MPD2    H512056   2.192   4.050  12.081  0.9133  0.6917 -4.4567
  815MPD2    N112057   2.618   4.067  11.861  0.1725  0.1874  0.6869
  815MPD2    H712058   2.703   4.103  11.820 -0.3913 -0.0160 -0.6495
  816MPD2     C12059   4.108   3.657  16.945 -0.2255  0.0896  0.4662
  816MPD2    C112060   3.987   3.604  16.921 -0.3173 -0.3139 -0.1235
  816MPD2    C212061   3.974   3.482  16.871  0.3044  1.3346 -0.7913
  816MPD2    C312062   4.081   3.416  16.823  0.1069 -0.1504  0.1587
  816MPD2    C412063   4.211   3.472  16.830 -0.3182  0.2420 -0.7316
  816MPD2    C512064   4.223   3.588  16.899  0.2587  0.2967  0.2874
  816MPD2     H12065   3.875   3.447  16.846  1.0069 -0.5394 -0.9968
  816MPD2    H112066   4.298   3.434  16.777 -2.1964 -2.0778 -2.1087
  816MPD2    H212067   4.124   3.753  16.994  0.9774 -0.7810  1.7745
  816MPD2    H312068   4.326   3.621  16.912  0.6489 -1.4435  1.5092
  816MPD2     N12069   4.058   3.294  16.743  0.3177  0.1877  0.0500
  816MPD2    H512070   3.962   3.266  16.725  0.5511 -0.5670 -0.0053
  816MPD2    N112071   3.873   3.682  16.962  0.1593 -0.3351  0.0379
  816MPD2    H712072   3.883   3.777  16.996 -0.3316 -1.7162  4.1244
  817MPD2     C12073   2.621   0.419  10.477 -0.2057  0.5897 -0.9785
  817MPD2    C112074   2.614   0.362  10.353  0.2316 -0.2211 -1.2332
  817MPD2    C212075   2.585   0.445  10.250  0.3934 -1.2059  0.4785
  817MPD2    C312076   2.581   0.578  10.264 -0.2214  0.3956 -0.2188
  817MPD2    C412077   2.591   0.631  10.389 -0.5210  0.8033  0.2507
  817MPD2    C512078   2.600   0.552  10.497 -0.3595  0.1594  0.1808
  817MPD2     H12079   2.562   0.393  10.158  0.4272  0.1339 -0.2754
  817MPD2    H112080   2.556   0.732  10.406  2.4737  1.9112 -0.1456
  817MPD2    H212081   2.612   0.346  10.556 -0.1116  0.2965 -1.2394
  817MPD2    H312082   2.574   0.603  10.588 -1.0206  1.8444 -0.9530
  817MPD2     N12083   2.553   0.662  10.146  0.0673 -0.1465  0.9157
  817MPD2    H512084   2.557   0.763  10.155  0.5620  0.0742 -1.7562
  817MPD2    N112085   2.630   0.226  10.323 -0.1835  0.2534 -0.5133
  817MPD2    H712086   2.627   0.201  10.225  0.6216 -0.5924 -0.3209
  818MPD2     C12087   1.342   0.643  10.073 -0.1499  0.6942 -0.0125
  818MPD2    C112088   1.267   0.524  10.095 -0.4562 -0.2382  0.1765
  818MPD2    C212089   1.314   0.409  10.032  0.4930  0.4703  0.0090
  818MPD2    C312090   1.426   0.403   9.957 -0.0011 -0.8059 -0.6852
  818MPD2    C412091   1.495   0.525   9.938  0.0491  0.0861  0.3347
  818MPD2    C512092   1.449   0.640   9.991 -0.0993  0.1600 -0.1175
  818MPD2     H12093   1.258   0.317  10.046 -0.6723  1.1652 -0.1047
  818MPD2    H112094   1.594   0.528   9.893  1.4312  1.0816  3.4820
  818MPD2    H212095   1.335   0.738  10.126  0.5021  0.2246  0.9266
  818MPD2    H312096   1.509   0.729   9.976  1.0871 -0.6364 -0.0911
  818MPD2     N12097   1.487   0.291   9.903  0.9303  0.6597 -0.0366
  818MPD2    H512098   1.578   0.303   9.860  0.1763  1.3411 -1.4255
  818MPD2    N112099   1.157   0.507  10.188 -0.4468 -0.0379 -1.0619
  818MPD2    H712100   1.134   0.412  10.216  0.7984 -0.5207 -1.7314
  819MPD2     C12101   4.459   1.439  15.580  0.5320  0.1896  0.0434
  819MPD2    C112102   4.474   1.309  15.548  0.6109  0.0721  0.0129
  819MPD2    C212103   4.588   1.235  15.592 -1.0096 -0.1536  0.4305
  819MPD2    C312104   4.672   1.294  15.687  1.0092  0.1604  0.2034
  819MPD2    C412105   4.643   1.426  15.731  0.6070 -0.3958 -0.2595
  819MPD2    C512106   4.541   1.497  15.672  0.2227 -0.0937  0.3360
  819MPD2     H12107   4.606   1.132  15.563  0.0220  0.3292 -0.6501
  819MPD2    H112108   4.693   1.469  15.817 -1.0371 -0.0891  0.5435
  819MPD2    H212109   4.370   1.493  15.548  0.6545 -0.1400 -0.8433
  819MPD2    H312110   4.516   1.594  15.713  0.5301  0.2459 -0.2966
  819MPD2     N12111   0.050   1.220  15.731 -0.6578  0.1826 -1.0856
  819MPD2    H512112   0.072   1.130  15.689 -0.6334  1.8794 -4.7120
  819MPD2    N112113   4.387   1.254  15.457 -0.1215  0.4287  0.9638
  819MPD2    H712114   4.308   1.310  15.428  1.1302  2.0705  0.6626
  820MPD2     C12115   3.779   1.511  14.752 -0.4436 -0.6553  0.1978
  820MPD2    C112116   3.844   1.565  14.859 -0.2152  0.3091  0.2279
  820MPD2    C212117   3.938   1.489  14.925 -0.1862 -0.6167  0.0146
  820MPD2    C312118   3.947   1.356  14.900 -0.5425  0.0190  0.1423
  820MPD2    C412119   3.882   1.303  14.791  0.0237 -0.5341 -0.4076
  820MPD2    C512120   3.795   1.377  14.714  0.0403 -0.0739 -0.5071
  820MPD2     H12121   3.998   1.532  15.004  0.6720  1.3653 -1.7034
  820MPD2    H112122   3.880   1.198  14.766  1.6305 -0.4492 -0.9044
  820MPD2    H212123   3.698   1.568  14.707 -1.0909 -1.8780 -0.1968
  820MPD2    H312124   3.745   1.340  14.625  0.3321  0.6346 -0.9741
  820MPD2     N12125   4.032   1.268  14.968  0.4375 -0.2308  0.2032
  820MPD2    H512126   4.055   1.179  14.923  0.1571  0.8060 -1.9901
  820MPD2    N112127   3.814   1.702  14.901  0.3951  0.4684  0.3976
  820MPD2    H712128   3.742   1.749  14.847  0.1732 -0.1375  0.1621
  821MPD2     C12129   3.928   2.987  13.475 -0.6812  0.2499 -0.0374
  821MPD2    C112130   4.047   2.917  13.459 -0.5077  0.1009 -0.3517
  821MPD2    C212131   4.130   2.955  13.359 -0.8955 -0.2263 -0.7700
  821MPD2    C312132   4.113   3.066  13.281  1.5281  0.5792  0.3938
  821MPD2    C412133   3.996   3.139  13.293  0.2072 -0.0235  0.0763
  821MPD2    C512134   3.906   3.096  13.387 -0.2394 -0.5181  0.3929
  821MPD2     H12135   4.227   2.905  13.362 -0.1473  1.3544  2.1300
  821MPD2    H112136   3.972   3.234  13.247  2.9118  0.3027 -0.6198
  821MPD2    H212137   3.849   2.959  13.544  0.3367 -2.9128 -0.1511
  821MPD2    H312138   3.821   3.163  13.395 -1.5866 -2.3638  1.5672
  821MPD2     N12139   4.215   3.121  13.191  0.3738 -0.0445 -0.5628
  821MPD2    H512140   4.198   3.221  13.184 -0.5701 -0.1319  0.3999
  821MPD2    N112141   4.092   2.805  13.537  0.5666 -0.2192  0.3176
  821MPD2    H712142   4.165   2.747  13.497 -1.0963 -0.7692 -1.8949
  822MPD2     C12143   0.482   3.017  15.735 -0.4603  0.1136 -0.5484
  822MPD2    C112144   0.454   3.017  15.872 -0.3165 -0.2504 -0.4288
  822MPD2    C212145   0.372   3.120  15.920 -0.2147  0.0469 -0.0908
  822MPD2    C312146   0.327   3.219  15.837 -0.5649 -0.1088  0.4088
  822MPD2    C412147   0.346   3.209  15.700 -0.5336 -0.0233 -0.2020
  822MPD2    C512148   0.429   3.115  15.655 -0.2470  0.3503 -0.4458
  822MPD2     H12149   0.356   3.130  16.027  2.6350  1.2966  0.1951
  822MPD2    H112150   0.308   3.279  15.627  0.4162  0.6510 -0.0550
  822MPD2    H212151   0.541   2.936  15.694  0.0931  0.2670 -0.0661
  822MPD2    H312152   0.446   3.111  15.548 -0.0384 -0.6734 -0.3784
  822MPD2     N12153   0.256   3.328  15.899 -0.0069 -0.0704  0.2379
  822MPD2    H512154   0.238   3.321  15.999 -1.0634  0.5187  0.0803
  822MPD2    N112155   0.506   2.912  15.952 -0.0429 -0.1584  0.8743
  822MPD2    H712156   0.472   2.902  16.047 -0.3544  1.9141  0.9764
  823MPD2     C12157   4.589   3.603  16.547 -0.2577  0.2347  0.4844
  823MPD2    C112158   4.647   3.512  16.454 -0.1822  0.2572 -0.1500
  823MPD2    C212159   4.680   3.383  16.505 -0.6048 -0.7645 -0.0416
  823MPD2    C312160   4.685   3.371  16.643 -0.4051  0.0170  0.2094
  823MPD2    C412161   4.627   3.462  16.722  0.4957 -0.2895 -0.0592
  823MPD2    C512162   4.568   3.570  16.677  0.4307 -0.0328 -0.6315
  823MPD2     H12163   4.727   3.306  16.446 -1.1406 -2.8251  2.2236
  823MPD2    H112164   4.630   3.441  16.829  0.4002 -1.6710 -0.3194
  823MPD2    H212165   4.555   3.701  16.515 -2.1366 -0.3149  0.8361
  823MPD2    H312166   4.516   3.628  16.753  1.0006 -1.5838  0.9292
  823MPD2     N12167   0.010   3.264  16.710 -0.0193 -0.1623 -0.5494
  823MPD2    H512168   0.003   3.266  16.811 -0.7403 -1.5278 -0.5826
  823MPD2    N112169   4.651   3.549  16.322  0.1882  0.4145  0.2767
  823MPD2    H712170   4.645   3.650  16.309  1.3335  0.6616  1.7325
  824MPD2     C12171   0.659   2.122  15.863  0.0476 -0.3763 -0.4377
  824MPD2    C112172   0.763   2.199  15.904 -0.0054 -0.3727 -0.7000
  824MPD2    C212173   0.892   2.164  15.862 -0.1787  0.0901  0.5886
  824MPD2    C312174   0.920   2.055  15.782 -0.9521 -0.2806  0.3850
  824MPD2    C412175   0.812   1.971  15.743  0.0493  0.0666 -0.0224
  824MPD2    C512176   0.685   2.004  15.791  0.4424 -1.1789 -0.2712
  824MPD2     H12177   0.975   2.226  15.895 -0.8358  1.3365 -0.1367
  824MPD2    H112178   0.822   1.891  15.671 -1.7976  0.1369 -0.3433
  824MPD2    H212179   0.557   2.152  15.887  0.8427  0.5647  1.7244
  824MPD2    H312180   0.605   1.947  15.745  1.1651 -1.5507 -1.0718
  824MPD2     N12181   1.056   2.034  15.742  0.1436  0.5522 -0.0038
  824MPD2    H512182   1.118   2.106  15.778 -0.6912  0.4031  1.7176
  824MPD2    N112183   0.734   2.321  15.977 -0.1471  0.4587  0.1887
  824MPD2    H712184   0.641   2.359  15.961 -0.6217 -0.7952 -0.0570
  825MPD2     C12185   1.742   2.245  15.233  0.3824 -0.5138 -0.8282
  825MPD2    C112186   1.614   2.270  15.283 -0.6658  0.1891  0.0166
  825MPD2    C212187   1.546   2.385  15.240 -0.2141 -0.7282 -0.3431
  825MPD2    C312188   1.596   2.475  15.143 -0.4785 -0.0706  0.6486
  825MPD2    C412189   1.716   2.447  15.094  0.4453 -0.1467 -0.9875
  825MPD2    C512190   1.787   2.330  15.134 -0.3012 -0.4837  0.1123
  825MPD2     H12191   1.454   2.405  15.293  0.5765  0.9951  0.3808
  825MPD2    H112192   1.760   2.515  15.023  1.9882 -1.0975 -0.9457
  825MPD2    H212193   1.804   2.161  15.261 -0.5409 -1.1089 -0.5688
  825MPD2    H312194   1.886   2.306  15.096  0.5164  0.1316  1.8635
  825MPD2     N12195   1.531   2.597  15.121 -0.6346  0.7545  0.1064
  825MPD2    H512196   1.581   2.661  15.059 -1.9266  2.0778  0.4137
  825MPD2    N112197   1.558   2.180  15.378 -0.0340  0.1960 -0.1394
  825MPD2    H712198   1.620   2.108  15.413  0.3549  1.0281  0.8777
  826MPD2     C12199   1.112   1.884  13.883 -0.3576 -0.0098 -0.2015
  826MPD2    C112200   1.222   1.959  13.842 -1.0350  0.1277  0.6872
  826MPD2    C212201   1.213   2.100  13.852  0.2254  0.1053 -0.3887
  826MPD2    C312202   1.101   2.155  13.911  0.7589  0.0713 -0.7196
  826MPD2    C412203   0.994   2.078  13.946 -0.4706  0.7351 -0.1333
  826MPD2    C512204   1.002   1.938  13.937 -0.3958 -0.7291  0.0967
  826MPD2     H12205   1.294   2.162  13.814  0.5033  0.0533  0.1241
  826MPD2    H112206   0.897   2.119  13.972 -0.0920  1.7164 -0.2483
  826MPD2    H212207   1.109   1.775  13.878 -0.0396 -0.1374  2.3389
  826MPD2    H312208   0.915   1.881  13.968 -0.8518 -1.0814 -1.8111
  826MPD2     N12209   1.087   2.298  13.924  0.1831 -0.6302  0.6109
  826MPD2    H512210   0.990   2.328  13.931 -0.2344 -1.5477 -1.1696
  826MPD2    N112211   1.329   1.885  13.794 -0.0713 -0.8809  0.4499
  826MPD2    H712212   1.328   1.784  13.787 -1.0017 -0.6686 -2.2680
  827MPD2     C12213   1.799   3.774  10.202  0.2484 -0.5707  0.8400
  827MPD2    C112214   1.732   3.671  10.266 -0.0353 -1.0043  1.0357
  827MPD2    C212215   1.604   3.644  10.218 -0.0573  0.1051  0.1519
  827MPD2    C312216   1.553   3.708  10.111 -0.2970  0.9079 -0.2123
  827MPD2    C412217   1.620   3.813  10.053  0.0598  0.3738 -0.0904
  827MPD2    C512218   1.744   3.850  10.106  0.3448  0.0751 -0.5265
  827MPD2     H12219   1.541   3.573  10.270 -1.4892  0.5823 -0.9520
  827MPD2    H112220   1.578   3.844   9.958 -0.6678 -0.2988  0.0083
  827MPD2    H212221   1.898   3.811  10.224  0.0802 -0.0194  0.6616
  827MPD2    H312222   1.788   3.945  10.078  2.7985 -1.1809 -0.8668
  827MPD2     N12223   1.412   3.693  10.095  0.4268  0.5624  0.0908
  827MPD2    H512224   1.375   3.611  10.142  1.2210  0.2247  0.1274
  827MPD2    N112225   1.793   3.615  10.377 -0.1454  0.6684  0.5654
  827MPD2    H712226   1.885   3.654  10.392 -0.7555  1.3943  2.3669
  828MPD2     C12227   4.373   3.250  12.333  0.0363 -0.3712 -0.7310
  828MPD2    C112228   4.286   3.274  12.230  0.2047  0.1785  0.1349
  828MPD2    C212229   4.328   3.292  12.098 -0.0955  0.1811 -0.7984
  828MPD2    C312230   4.462   3.289  12.074 -0.4506  0.7538 -0.5602
  828MPD2    C412231   4.555   3.284  12.178  0.6349  0.3001  0.5344
  828MPD2    C512232   4.509   3.262  12.306  0.2050 -0.8671 -0.0587
  828MPD2     H12233   4.260   3.308  12.015 -0.4568 -0.5035 -0.6419
  828MPD2    H112234   4.659   3.260  12.156  0.6341  4.6264 -4.1090
  828MPD2    H212235   4.349   3.253  12.439 -0.4656 -2.3169 -0.7912
  828MPD2    H312236   4.578   3.262  12.390  1.9557 -1.3774 -1.5096
  828MPD2     N12237   4.523   3.293  11.944  0.6960  0.3668 -0.6662
  828MPD2    H512238   4.622   3.275  11.938  0.2714 -0.7919 -4.1909
  828MPD2    N112239   4.146   3.289  12.260  0.4079 -0.4532  0.2262
  828MPD2    H712240   4.098   3.332  12.182 -0.9792  0.0608  1.3774
  829MPD2     C12241   3.654   3.921  11.999 -0.2118 -0.0547 -0.1172
  829MPD2    C112242   3.563   3.860  12.079 -0.2125  0.2288 -0.3568
  829MPD2    C212243   3.582   3.727  12.115  0.2785  0.3473 -0.4787
  829MPD2    C312244   3.695   3.656  12.076 -0.0679 -0.1569 -0.5098
  829MPD2    C412245   3.787   3.726  11.999  0.0718  0.9618 -0.2070
  829MPD2    C512246   3.768   3.862  11.961  0.4277  0.2233  0.2156
  829MPD2     H12247   3.494   3.687  12.165  0.1170  1.7703  0.3754
  829MPD2    H112248   3.881   3.677  11.974 -2.6175 -2.6348 -3.2550
  829MPD2    H212249   3.635   4.020  11.959  3.6493  1.5154  1.9633
  829MPD2    H312250   3.843   3.905  11.895  0.2938  1.2549  0.7451
  829MPD2     N12251   3.724   3.522  12.114  0.5791 -0.6755  0.1016
  829MPD2    H512252   3.807   3.482  12.072  1.2551  0.3182  0.4906
  829MPD2    N112253   3.431   3.905  12.108  0.1638  0.0609  0.4971
  829MPD2    H712254   3.358   3.840  12.137 -0.1907  0.1242 -0.2468
  830MPD2     C12255   0.936   1.269  15.756 -0.5299 -0.0686  0.4734
  830MPD2    C112256   0.819   1.288  15.692 -0.1139 -0.3418 -1.0537
  830MPD2    C212257   0.813   1.383  15.591 -0.4975  0.4063  0.9784
  830MPD2    C312258   0.913   1.479  15.564  1.1166 -0.3644  0.5575
  830MPD2    C412259   1.024   1.457  15.643  0.5673  0.3151 -0.1644
  830MPD2    C512260   1.040   1.355  15.732  0.3036  0.3699  0.8803
  830MPD2     H12261   0.721   1.398  15.536  1.9535  0.0787 -3.2197
  830MPD2    H112262   1.110   1.519  15.620  0.1717  1.0711  0.4108
  830MPD2    H212263   0.929   1.189  15.828  0.8195 -0.3521  0.2855
  830MPD2    H312264   1.135   1.341  15.782  0.8801 -0.2366 -0.3816
  830MPD2     N12265   0.910   1.584  15.470  0.2466  0.2332 -0.6645
  830MPD2    H512266   0.992   1.644  15.466 -1.6361  2.8480  0.5468
  830MPD2    N112267   0.707   1.214  15.741 -0.2335 -0.1158  0.3751
  830MPD2    H712268   0.728   1.152  15.818 -0.4197  0.8249  1.1953
  831MPD2     C12269   0.478   3.459  16.230 -0.1976 -0.4880 -0.4595
  831MPD2    C112270   0.515   3.328  16.221  0.0507 -0.5911  0.1487
  831MPD2    C212271   0.422   3.225  16.250 -0.0331 -0.2441  0.4042
  831MPD2    C312272   0.292   3.260  16.275 -0.5341  0.8333  0.5041
  831MPD2    C412273   0.254   3.393  16.301  0.2473 -0.9634  0.0120
  831MPD2    C512274   0.352   3.487  16.276 -0.1703 -0.7309 -0.5716
  831MPD2     H12275   0.455   3.122  16.246  2.7159  0.6064  1.3757
  831MPD2    H112276   0.157   3.421  16.340  0.0709 -0.2850 -0.9334
  831MPD2    H212277   0.542   3.538  16.194  1.5726 -1.5156  0.4155
  831MPD2    H312278   0.334   3.593  16.281  1.6075 -0.4320 -0.5857
  831MPD2     N12279   0.185   3.169  16.255  0.0855 -0.2395 -0.4490
  831MPD2    H512280   0.090   3.200  16.273 -1.3357 -3.3760 -2.6897
  831MPD2    N112281   0.645   3.295  16.177  0.3876  0.0169  0.5593
  831MPD2    H712282   0.701   3.377  16.156  1.8748 -0.7752  1.4478
  832MPD2     C12283   4.165   4.461  17.287  0.0716  0.8168  0.0499
  832MPD2    C112284   4.159   4.555  17.194 -0.2119  0.1966 -0.0291
  832MPD2    C212285   4.056   4.559  17.103  0.3601 -0.2770  0.7241
  832MPD2    C312286   3.957   4.456  17.103  0.5010  0.5709  0.2502
  832MPD2    C412287   3.964   4.355  17.193 -0.8094 -0.7774 -0.0799
  832MPD2    C512288   4.068   4.362  17.287 -0.6671  0.0369  0.2181
  832MPD2     H12289   4.066   4.626  17.019  1.1459  1.7661  2.4621
  832MPD2    H112290   3.889   4.277  17.195 -2.1222  0.5256  1.6164
  832MPD2    H212291   4.244   4.466  17.362  0.6583  2.2995 -0.6819
  832MPD2    H312292   4.072   4.278  17.355 -2.2275  0.1005  0.3693
  832MPD2     N12293   3.848   4.458  17.014 -0.0814 -0.0562  0.3835
  832MPD2    H512294   3.800   4.370  16.997  0.1625  0.3093 -2.2025
  832MPD2    N112295   4.271   4.643  17.194 -1.0454 -0.0830  0.2237
  832MPD2    H712296   4.339   4.641  17.269 -1.1555  3.1359  0.4395
  833MPD2     C12297   0.688   1.323  12.874 -0.1940 -0.1683  0.2070
  833MPD2    C112298   0.662   1.379  12.753 -0.1000 -1.0580 -0.3055
  833MPD2    C212299   0.721   1.323  12.640  0.5837  1.1695 -0.3612
  833MPD2    C312300   0.795   1.210  12.643 -0.0393 -0.0402  0.3787
  833MPD2    C412301   0.816   1.148  12.765 -0.6168 -0.2849  0.7854
  833MPD2    C512302   0.761   1.208  12.873 -0.6352 -1.0281 -0.1640
  833MPD2     H12303   0.719   1.382  12.548  2.0295  1.0540 -0.4691
  833MPD2    H112304   0.878   1.060  12.775 -2.0991 -1.4684 -0.5283
  833MPD2    H212305   0.644   1.355  12.969 -1.0813  0.6626 -0.4755
  833MPD2    H312306   0.790   1.169  12.969 -0.4529 -1.2853 -0.3247
  833MPD2     N12307   0.849   1.150  12.528  0.1274 -0.1691  0.0361
  833MPD2    H512308   0.880   1.054  12.526  0.0040 -0.1378 -2.9882
  833MPD2    N112309   0.560   1.479  12.745  0.0924 -0.4260 -0.3539
  833MPD2    H712310   0.522   1.508  12.834 -0.7020  1.7563 -1.3898
  834MPD2     C12311   0.699   0.348  11.922  0.3612 -0.2518  0.8861
  834MPD2    C112312   0.635   0.451  11.845  0.5380 -0.3296 -0.6375
  834MPD2    C212313   0.623   0.583  11.899  0.1289 -0.1342 -0.3034
  834MPD2    C312314   0.679   0.616  12.022  0.1931 -0.7990  0.0697
  834MPD2    C412315   0.745   0.514  12.093  0.0298 -0.1938 -0.0157
  834MPD2    C512316   0.744   0.387  12.044  0.8094  0.0207  0.1143
  834MPD2     H12317   0.566   0.658  11.845  1.8787  1.4073 -0.0180
  834MPD2    H112318   0.786   0.531  12.192  0.8396 -1.4759 -0.1277
  834MPD2    H212319   0.698   0.244  11.892  1.6737  0.3181 -1.1518
  834MPD2    H312320   0.778   0.303  12.103 -2.0753 -0.5187  1.0095
  834MPD2     N12321   0.675   0.754  12.065 -0.7341 -0.8745 -0.0929
  834MPD2    H512322   0.621   0.818  12.007  0.0372  2.0299  2.4088
  834MPD2    N112323   0.565   0.413  11.725  0.0467  0.0730 -0.3976
  834MPD2    H712324   0.567   0.316  11.695  1.2626 -0.0003 -0.0447
  835MPD2     C12325   0.647   3.533  10.616 -0.1024  0.1940 -1.0282
  835MPD2    C112326   0.514   3.530  10.652  0.3593  0.5311 -0.4178
  835MPD2    C212327   0.486   3.488  10.781  0.2759  0.0065  0.2545
  835MPD2    C312328   0.581   3.465  10.879 -0.2340 -0.0558 -0.1623
  835MPD2    C412329   0.709   3.466  10.837 -0.3282 -0.1055 -0.1398
  835MPD2    C512330   0.741   3.513  10.716  0.1533 -0.0750  0.6567
  835MPD2     H12331   0.383   3.467  10.807  0.2518  1.3110  1.1969
  835MPD2    H112332   0.787   3.448  10.910 -0.7509 -0.5581  0.1952
  835MPD2    H212333   0.694   3.539  10.518 -1.6243  0.0860 -1.7599
  835MPD2    H312334   0.844   3.512  10.682 -0.3828  1.6976 -0.9750
  835MPD2     N12335   0.552   3.445  11.016  0.6294  0.1644 -0.4104
  835MPD2    H512336   0.634   3.435  11.075  0.2909 -1.0423 -0.1243
  835MPD2    N112337   0.408   3.556  10.562 -0.1207  0.2676 -0.4306
  835MPD2    H712338   0.315   3.535  10.597 -0.6792  2.6642 -0.4557
  836MPD2     C12339   4.737   3.816  11.419  0.2434 -0.0259 -0.0630
  836MPD2    C112340   0.067   3.742  11.505 -0.6940  0.1166 -0.6659
  836MPD2    C212341   0.009   3.721  11.627 -0.1425 -0.2725  1.6527
  836MPD2    C312342   4.634   3.791  11.668  1.2427  0.4339  0.1755
  836MPD2    C412343   4.573   3.870  11.577 -0.2452 -0.4439  0.4634
  836MPD2    C512344   4.621   3.883  11.456  0.2525  0.0868 -0.3105
  836MPD2     H12345   0.047   3.657  11.706  0.7129 -1.3991  0.3316
  836MPD2    H112346   4.479   3.918  11.601 -0.4166 -0.4223 -0.2304
  836MPD2    H212347   0.040   3.829  11.319  0.8997 -0.5758  0.1328
  836MPD2    H312348   4.582   3.950  11.380  2.0311  0.7760 -0.6226
  836MPD2     N12349   4.580   3.774  11.798 -0.7067  0.2428  0.1141
  836MPD2    H512350   4.490   3.819  11.804 -0.3951  0.7275  1.2256
  836MPD2    N112351   0.186   3.673  11.460 -0.4652  0.2297 -0.0398
  836MPD2    H712352   0.212   3.699  11.365 -3.3306 -0.5105 -1.0117
  837MPD2     C12353   4.072   3.467  10.020 -0.0520 -0.5227  0.6918
  837MPD2    C112354   3.933   3.461  10.041  0.6305 -0.2436  1.0686
  837MPD2    C212355   3.872   3.551  10.131  0.1778 -0.2991  0.0822
  837MPD2    C312356   3.941   3.653  10.195 -0.1409  0.4337  0.5972
  837MPD2    C412357   4.074   3.669  10.167 -0.0809 -0.2262  0.6528
  837MPD2    C512358   4.134   3.577  10.080 -0.4009  0.5575 -0.2671
  837MPD2     H12359   3.766   3.544  10.150 -0.4018 -0.2538 -3.1334
  837MPD2    H112360   4.127   3.758  10.199  2.6918 -2.3318  1.9663
  837MPD2    H212361   4.128   3.406   9.949 -0.2120  2.1207 -1.7129
  837MPD2    H312362   4.238   3.595  10.053 -0.6296  0.4966 -1.1994
  837MPD2     N12363   3.857   3.739  10.268  0.2443 -0.4135 -0.4254
  837MPD2    H512364   3.761   3.708  10.281  0.3821  0.0379  1.6793
  837MPD2    N112365   3.852   3.372   9.969  0.2625  0.0993 -1.1099
  837MPD2    H712366   3.756   3.384  10.002  1.3560  1.2312  1.6761
  838MPD2     C12367   1.870   1.646  12.392  0.5264  0.2839 -0.6545
  838MPD2    C112368   1.746   1.666  12.331  0.0421 -0.3089  0.0958
  838MPD2    C212369   1.633   1.624  12.397 -0.8912  0.0093 -0.0294
  838MPD2    C312370   1.633   1.559  12.515  0.3850  0.0570  0.1297
  838MPD2    C412371   1.759   1.518  12.554  0.0615  0.0853 -0.0251
  838MPD2    C512372   1.876   1.571  12.498  0.3227  0.3805  0.0945
  838MPD2     H12373   1.536   1.661  12.366  0.2879  3.0053 -0.1239
  838MPD2    H112374   1.778   1.452  12.638 -1.6086 -0.0176  0.2781
  838MPD2    H212375   1.967   1.665  12.348  1.1518  0.3287  0.7280
  838MPD2    H312376   1.975   1.540  12.528  0.8166  2.7940  0.9161
  838MPD2     N12377   1.509   1.520  12.576 -0.1287  0.1000 -0.3379
  838MPD2    H512378   1.425   1.540  12.523 -0.0263  0.3879 -0.3871
  838MPD2    N112379   1.726   1.726  12.203 -0.2343  0.3251  0.0283
  838MPD2    H712380   1.632   1.755  12.177 -0.2990  1.0215  1.0288
  839MPD2     C12381   1.503   1.061  12.164  0.0696 -0.7306  0.2545
  839MPD2    C112382   1.485   1.081  12.031 -0.1070  0.2273  0.7340
  839MPD2    C212383   1.534   1.197  11.978  0.3935 -0.2351  0.2767
  839MPD2    C312384   1.610   1.290  12.051 -0.2895  0.1073 -0.5675
  839MPD2    C412385   1.622   1.264  12.183 -0.5119  0.4159  0.2236
  839MPD2    C512386   1.576   1.156  12.241  0.1542 -0.1805  0.3346
  839MPD2     H12387   1.521   1.201  11.870  1.1296 -0.9082  0.1574
  839MPD2    H112388   1.671   1.339  12.244  1.2811 -1.2458  0.8337
  839MPD2    H212389   1.461   0.971  12.208 -0.6617  0.6289  2.3429
  839MPD2    H312390   1.603   1.145  12.346  0.3754 -0.9153  0.2024
  839MPD2     N12391   1.648   1.420  11.997 -0.8866  0.0533  0.2748
  839MPD2    H512392   1.679   1.492  12.062 -1.9891 -0.1211  0.9933
  839MPD2    N112393   1.425   0.987  11.953  0.9599  0.7511  0.4904
  839MPD2    H712394   1.442   0.997  11.854 -1.2007  0.2001  0.0601
  840MPD2     C12395   2.423   3.626  10.481 -0.0448 -0.0299 -0.0527
  840MPD2    C112396   2.334   3.672  10.579 -0.0299  0.0814  0.4628
  840MPD2    C212397   2.359   3.793  10.643  0.9329 -0.4390  0.1983
  840MPD2    C312398   2.482   3.854  10.617 -0.1681 -0.8264  0.6132
  840MPD2    C412399   2.570   3.811  10.515  0.0762  0.4723 -0.1917
  840MPD2    C512400   2.535   3.697  10.449  0.6820  0.0710 -0.9729
  840MPD2     H12401   2.282   3.835  10.707  0.8333  1.4084 -1.1103
  840MPD2    H112402   2.663   3.860  10.487 -0.0504  1.1913  0.6622
  840MPD2    H212403   2.394   3.531  10.437 -1.4392  0.7566 -0.8160
  840MPD2    H312404   2.607   3.655  10.380  0.7111  0.1966 -1.0203
  840MPD2     N12405   2.521   3.975  10.678 -0.2801 -0.6088  0.4235
  840MPD2    H512406   2.612   4.005  10.642 -0.1567  0.5350  1.6916
  840MPD2    N112407   2.219   3.592  10.609  0.0906 -0.2864 -0.0749
  840MPD2    H712408   2.202   3.508  10.555 -0.8231 -0.6074  0.7083
  841MPD2     C12409   1.874   3.698  14.167 -0.3209 -0.5144 -0.2107
  841MPD2    C112410   1.873   3.602  14.259  0.0230  0.3358  0.2458
  841MPD2    C212411   1.950   3.616  14.373  0.3136 -0.3057 -0.5265
  841MPD2    C312412   2.037   3.719  14.385  0.1791  0.0282 -0.9315
  841MPD2    C412413   2.058   3.805  14.278  0.1554 -0.2300 -0.0293
  841MPD2    C512414   1.973   3.801  14.181 -0.2328  0.4426  0.6694
  841MPD2     H12415   1.948   3.539  14.449 -0.9527 -0.9698 -1.2341
  841MPD2    H112416   2.141   3.874  14.282  0.5986 -0.6621 -1.8369
  841MPD2    H212417   1.830   3.685  14.069  1.6038 -1.8909 -0.8954
  841MPD2    H312418   1.983   3.870  14.098 -3.3828  0.0187 -0.0444
  841MPD2     N12419   2.116   3.717  14.500 -0.1108 -0.0932  0.0342
  841MPD2    H512420   2.088   3.649  14.570  1.9986 -0.7248  0.2821
  841MPD2    N112421   1.803   3.477  14.249  0.4752 -0.0730  0.0734
  841MPD2    H712422   1.850   3.401  14.296  1.3819 -0.0584 -0.8145
  842MPD2     C12423   2.157   4.301  16.856 -0.5267 -0.4726 -0.8855
  842MPD2    C112424   2.292   4.333  16.876 -0.0869  0.0988 -0.2221
  842MPD2    C212425   2.368   4.242  16.952  0.1309  0.5226 -0.6474
  842MPD2    C312426   2.304   4.149  17.036 -0.2727 -0.1082 -0.3574
  842MPD2    C412427   2.167   4.134  17.026  0.0340 -0.4371 -0.1286
  842MPD2    C512428   2.099   4.191  16.923  0.3975  0.7579  0.2754
  842MPD2     H12429   2.461   4.277  16.995  1.7506 -1.4931 -2.4782
  842MPD2    H112430   2.124   4.054  17.084 -1.9062  0.7523  0.0505
  842MPD2    H212431   2.099   4.346  16.776  0.0716  2.1765  0.1632
  842MPD2    H312432   2.001   4.157  16.892  1.9011 -2.0794 -1.3892
  842MPD2     N12433   2.378   4.070  17.126 -0.5259 -0.7613  0.6862
  842MPD2    H512434   2.320   4.007  17.181 -0.1277 -1.8316 -0.1149
  842MPD2    N112435   2.347   4.439  16.802 -0.1045  0.1618  0.0140
  842MPD2    H712436   2.291   4.498  16.742  0.5616 -1.8604 -2.5701
  843MPD2     C12437   0.810   4.603   0.646 -0.6891  1.0693 -1.0097
  843MPD2    C112438   0.796   4.640   0.515  0.0172 -0.0271 -0.2468
  843MPD2    C212439   0.827   0.030   0.470  0.7668  0.8016  0.9518
  843MPD2    C312440   0.871   0.121   0.557 -0.0519  0.1219 -0.2901
  843MPD2    C412441   0.896   0.084   0.683 -0.0307 -0.1751  0.2299
  843MPD2    C512442   0.869   4.695   0.723  0.2762  0.3376  0.0216
  843MPD2     H12443   0.826   0.059   0.366 -0.1086 -0.6221  0.5526
  843MPD2    H112444   0.935   0.153   0.757 -1.9492 -1.3972  2.3805
  843MPD2    H212445   0.772   4.509   0.683  1.6202  0.0724 -1.1484
  843MPD2    H312446   0.897   4.669   0.824 -1.5229 -0.5994  0.2765
  843MPD2     N12447   0.880   0.259   0.526  0.1042 -0.0604 -0.4955
  843MPD2    H512448   0.924   0.320   0.594  1.3848 -0.8062 -0.6569
  843MPD2    N112449   0.748   4.543   0.431 -0.2905 -0.3121  0.0324
  843MPD2    H712450   0.744   4.447   0.464 -3.2549 -0.3796 -0.5311
  844MPD2     C12451   3.669   3.479  16.532  0.0316 -0.2102 -0.0284
  844MPD2    C112452   3.586   3.591  16.524 -0.6215  0.5586  0.5492
  844MPD2    C212453   3.633   3.717  16.551  0.1252  0.1835 -0.7605
  844MPD2    C312454   3.772   3.731  16.579 -0.0160  0.0404  0.6589
  844MPD2    C412455   3.860   3.618  16.574 -0.1423 -0.4287  0.6344
  844MPD2    C512456   3.803   3.496  16.555  0.1782  0.3155 -0.2774
  844MPD2     H12457   3.572   3.806  16.542 -2.5485 -1.5683  0.0314
  844MPD2    H112458   3.967   3.633  16.587 -0.6270  3.1860  0.4856
  844MPD2    H212459   3.651   3.374  16.516 -0.9540 -0.0082 -0.2391
  844MPD2    H312460   3.865   3.408  16.567  0.3171  0.7414  2.0647
  844MPD2     N12461   3.827   3.861  16.591  0.3609 -0.2090  0.2841
  844MPD2    H512462   3.766   3.941  16.589 -0.4661 -0.7106  4.2259
  844MPD2    N112463   3.443   3.573  16.514 -0.7608 -0.2837  0.7331
  844MPD2    H712464   3.391   3.659  16.510 -0.1160 -0.0278 -2.1756
  845MPD2     C12465   3.721   0.115  16.470  0.4520  0.0190  0.0009
  845MPD2    C112466   3.848   0.115  16.524 -0.6715 -0.3294 -0.4879
  845MPD2    C212467   3.912   4.730  16.542 -0.1421  0.4555  0.5213
  845MPD2    C312468   3.844   4.612  16.518 -0.0189  0.1585  0.5061
  845MPD2    C412469   3.722   4.621  16.460 -0.2908  0.3307 -0.0986
  845MPD2    C512470   3.665   0.003  16.426 -0.1902  0.1494 -0.1166
  845MPD2     H12471   4.015   4.725  16.577 -0.1510 -1.7474  0.2437
  845MPD2    H112472   3.666   4.530  16.440  0.9384 -0.0221 -1.9640
  845MPD2    H212473   3.670   0.209  16.449  0.8768  0.2109 -0.1607
  845MPD2    H312474   3.565   4.738  16.382 -0.3791 -1.9830  0.5015
  845MPD2     N12475   3.913   4.487  16.546  0.0410 -0.3869 -0.0311
  845MPD2    H512476   3.996   4.495  16.603 -0.5646  3.5724  0.3100
  845MPD2    N112477   3.908   0.241  16.560  0.0292 -1.1707 -0.0751
  845MPD2    H712478   3.855   0.327  16.547  1.0466 -0.4108  0.8097
  846MPD2     C12479   0.337   0.375  13.717 -0.1966  0.5917  0.0714
  846MPD2    C112480   0.245   0.456  13.766  0.6332 -0.9393  0.7264
  846MPD2    C212481   0.238   0.479  13.898  0.0329  0.2427 -0.1287
  846MPD2    C312482   0.322   0.422  13.990  0.7934 -0.5253 -0.4070
  846MPD2    C412483   0.411   0.331  13.943  0.5708 -0.0939 -0.0496
  846MPD2    C512484   0.408   0.302  13.808  0.2090  0.0714 -0.2506
  846MPD2     H12485   0.175   0.556  13.941  0.9870  0.7559  0.3551
  846MPD2    H112486   0.490   0.280  13.997 -1.6908 -1.6717  1.7296
  846MPD2    H212487   0.343   0.348  13.612 -0.4813  1.0253 -0.0547
  846MPD2    H312488   0.487   0.235  13.776  0.4971  1.2500 -1.9813
  846MPD2     N12489   0.306   0.454  14.129 -0.2366 -0.4140 -0.1241
  846MPD2    H512490   0.241   0.530  14.149 -1.1929 -1.2339 -0.0719
  846MPD2    N112491   0.167   0.539  13.683  0.3523  0.2062 -0.3346
  846MPD2    H712492   0.100   0.602  13.725 -0.0461 -0.0763 -0.5509
  847MPD2     C12493   0.031   1.558  14.640 -0.3714 -0.3211 -0.5081
  847MPD2    C112494   0.174   1.568  14.647 -0.4675 -0.5343  0.2317
  847MPD2    C212495   0.246   1.484  14.723 -0.3212  0.3067  0.5733
  847MPD2    C312496   0.189   1.375  14.786 -0.3745  0.2547 -0.9211
  847MPD2    C412497   0.054   1.362  14.775  0.3856 -0.9994 -0.2593
  847MPD2    C512498   4.714   1.448  14.704  0.9696  0.1695  0.8269
  847MPD2     H12499   0.353   1.500  14.720  0.2196 -3.0281  2.5826
  847MPD2    H112500   0.001   1.276  14.814  0.4958 -1.0655 -0.2548
  847MPD2    H212501   4.699   1.624  14.589 -0.6036  2.0457  2.8384
  847MPD2    H312502   4.609   1.425  14.690  1.4033 -0.1737 -1.9648
  847MPD2     N12503   0.264   1.277  14.858  0.7862 -0.0764 -0.2214
  847MPD2    H512504   0.200   1.211  14.901 -0.4009  2.7768  2.3989
  847MPD2    N112505   0.241   1.667  14.572 -0.0969  0.9532 -0.0844
  847MPD2    H712506   0.340   1.681  14.587  0.3738 -2.3963 -0.0317
  848MPD2     C12507   3.118   0.026  16.972  0.7467  0.3163  0.0980
  848MPD2    C112508   3.231   0.113  16.955  0.4157  0.1860 -0.8450
  848MPD2    C212509   3.224   0.233  17.017  0.6641  0.6241  0.6650
  848MPD2    C312510   3.105   0.286  17.062 -0.6545 -0.1002  0.1452
  848MPD2    C412511   2.995   0.197  17.075  0.3165 -0.5482  0.6420
  848MPD2    C512512   3.009   0.071  17.026 -0.4904 -0.2281  0.0094
  848MPD2     H12513   3.314   0.291  16.996  0.5349  1.1815  1.6524
  848MPD2    H112514   2.901   0.241  17.110  0.1367 -0.1004 -0.4133
  848MPD2    H212515   3.117   4.665  16.929 -2.4101  0.8310 -1.0114
  848MPD2    H312516   2.929   4.736  17.031  0.7227 -1.4256  1.7261
  848MPD2     N12517   3.086   0.423  17.087  0.3655 -0.0222  0.0513
  848MPD2    H512518   2.995   0.449  17.122  0.9063  2.3473 -0.3056
  848MPD2    N112519   3.354   0.063  16.896  0.1296  0.0420 -0.2412
  848MPD2    H712520   3.436   0.123  16.896  1.4164 -1.7286 -1.6372
  849MPD2     C12521   1.935   4.174  14.483 -0.3532  0.3765 -0.3489
  849MPD2    C112522   2.030   4.174  14.382  0.1842  0.1389  0.1175
  849MPD2    C212523   2.162   4.161  14.422  1.1057 -0.3668  0.9250
  849MPD2    C312524   2.205   4.154  14.555  0.2758 -0.5571 -0.3065
  849MPD2    C412525   2.111   4.138  14.651  0.4324  0.6136 -0.6667
  849MPD2    C512526   1.978   4.158  14.611 -0.3247  0.2424  0.4591
  849MPD2     H12527   2.239   4.150  14.346 -1.8601 -0.7682 -2.0446
  849MPD2    H112528   2.130   4.135  14.758 -0.1335 -2.7660 -0.6679
  849MPD2    H212529   1.829   4.181  14.462 -1.0179 -0.9625  2.5199
  849MPD2    H312530   1.905   4.157  14.691 -0.8118 -1.8958 -0.0178
  849MPD2     N12531   2.341   4.156  14.581 -0.0242  0.0130 -0.3234
  849MPD2    H512532   2.403   4.147  14.501 -0.5851  1.2610 -0.8922
  849MPD2    N112533   2.006   4.184  14.244 -0.0961 -0.3847  0.3192
  849MPD2    H712534   2.093   4.177  14.193  0.7659 -2.0057  2.0157
  850MPD2     C12535   0.118   2.118  14.947  0.2966 -0.1742 -0.3722
  850MPD2    C112536   0.112   2.245  14.994 -0.3786 -0.0376  0.6126
  850MPD2    C212537   0.226   2.320  15.039 -0.8124  0.5456  0.2539
  850MPD2    C312538   0.347   2.256  14.999 -0.0583 -0.1053  0.3067
  850MPD2    C412539   0.355   2.131  14.927 -0.0262  0.2919  0.1610
  850MPD2    C512540   0.239   2.058  14.910  0.3898  0.6831 -0.4500
  850MPD2     H12541   0.210   2.414  15.090  1.0655  0.1769  1.5337
  850MPD2    H112542   0.453   2.091  14.904  0.1035  1.0534 -0.5804
  850MPD2    H212543   0.022   2.072  14.928  1.0384 -2.4011  1.2686
  850MPD2    H312544   0.241   1.962  14.860  0.6716 -0.3503  1.5261
  850MPD2     N12545   0.475   2.310  15.026  0.7753 -0.0920 -0.6501
  850MPD2    H512546   0.557   2.267  14.984  1.0233 -0.0627 -0.1921
  850MPD2    N112547   4.719   2.291  15.005  0.5277 -0.2239 -0.2005
  850MPD2    H712548   4.644   2.235  14.966  0.4776  1.6167 -2.7696
  851MPD2     C12549   0.531   2.424  15.602  0.1594 -0.4487  0.5066
  851MPD2    C112550   0.451   2.349  15.513  0.6090  0.3580 -0.2895
  851MPD2    C212551   0.515   2.239  15.452  0.1679 -0.5376 -0.6386
  851MPD2    C312552   0.646   2.203  15.475 -0.1684  0.0134 -0.3881
  851MPD2    C412553   0.719   2.289  15.551 -0.0933  1.1954  0.3842
  851MPD2    C512554   0.661   2.399  15.616 -0.2466  0.3924  0.7234
  851MPD2     H12555   0.461   2.183  15.377 -0.2568  1.1827 -1.6285
  851MPD2    H112556   0.825   2.283  15.575 -0.1376  0.0212  0.3166
  851MPD2    H212557   0.496   2.512  15.654 -1.4935 -1.8494  1.7689
  851MPD2    H312558   0.714   2.457  15.690 -0.6115  0.9200  0.5738
  851MPD2     N12559   0.703   2.096  15.398 -0.0957  0.0359  0.1828
  851MPD2    H512560   0.637   2.042  15.343  2.7893 -1.0209 -2.2419
  851MPD2    N112561   0.316   2.392  15.486  0.2003 -0.0815  0.0628
  851MPD2    H712562   0.283   2.483  15.519 -0.1711  0.0016 -0.5470
  852MPD2     C12563   4.098   0.649  10.259  0.2699 -0.2065 -0.1372
  852MPD2    C112564   4.192   0.640  10.358  0.5713 -0.0008 -0.0998
  852MPD2    C212565   4.285   0.735  10.364 -0.3220 -0.7991  0.4826
  852MPD2    C312566   4.294   0.846  10.279 -0.5140 -0.4579 -0.0314
  852MPD2    C412567   4.200   0.846  10.176  0.5149 -0.0847 -0.6061
  852MPD2    C512568   4.099   0.750  10.169  1.0754 -0.2620  0.4772
  852MPD2     H12569   4.356   0.726  10.445  0.2101  1.2813  0.2599
  852MPD2    H112570   4.191   0.931  10.110 -1.9656  0.4594  0.4378
  852MPD2    H212571   4.015   0.580  10.247  0.4636  0.0854 -2.9913
  852MPD2    H312572   4.014   0.755  10.102  3.3816 -0.0459 -2.4161
  852MPD2     N12573   4.393   0.942  10.290 -0.4063  0.2122  0.3099
  852MPD2    H512574   4.459   0.915  10.363 -0.7599 -1.1829  0.1114
  852MPD2    N112575   4.178   0.545  10.464  0.7112  0.3229  0.1414
  852MPD2    H712576   4.227   0.559  10.552 -0.2181  0.2839  0.6706
  853MPD2     C12577   1.845   4.495  12.581 -0.0693  0.7334 -0.1358
  853MPD2    C112578   1.749   4.593  12.569 -0.3491 -0.5608  0.4517
  853MPD2    C212579   1.724   4.649  12.446  0.3171  0.4913  0.4148
  853MPD2    C312580   1.783   4.611  12.330  0.9810  0.3282  0.1295
  853MPD2    C412581   1.881   4.510  12.341 -0.2679  0.3257 -0.7410
  853MPD2    C512582   1.905   4.455  12.463 -1.0987 -0.6984  0.3897
  853MPD2     H12583   1.653   4.731  12.439 -1.1405 -0.7471  0.6240
  853MPD2    H112584   1.946   4.476  12.261  0.1184  0.2110 -0.3797
  853MPD2    H212585   1.876   4.446  12.673  1.3435  1.8818 -0.0013
  853MPD2    H312586   1.967   4.366  12.460  1.1245  0.8533 -0.1222
  853MPD2     N12587   1.745   4.638  12.197 -0.1710 -0.8572 -0.5082
  853MPD2    H512588   1.805   4.603  12.122 -0.0407  0.3366 -0.9712
  853MPD2    N112589   1.682   4.635  12.687  0.9407  0.0784  0.4988
  853MPD2    H712590   1.715   4.589  12.771  1.9181  0.1890  0.1786
  854MPD2     C12591   3.140   4.123  12.413  0.6848 -0.3927  0.1394
  854MPD2    C112592   3.208   4.231  12.469  0.1597  0.1694  0.3062
  854MPD2    C212593   3.331   4.209  12.525  0.2723  0.3292  0.0224
  854MPD2    C312594   3.389   4.085  12.525  0.2425 -0.2728  0.1513
  854MPD2    C412595   3.329   3.987  12.454 -0.0419 -0.1212 -1.0072
  854MPD2    C512596   3.200   3.999  12.412  0.8055 -0.0347 -0.1713
  854MPD2     H12597   3.370   4.289  12.587 -0.9883  1.3848 -0.5387
  854MPD2    H112598   3.378   3.891  12.446  1.6188  0.5167  1.6558
  854MPD2    H212599   3.050   4.143  12.356  0.0556 -0.4812  1.1193
  854MPD2    H312600   3.152   3.922  12.354 -1.1829  1.6754 -0.7972
  854MPD2     N12601   3.514   4.058  12.585  0.1317  0.6878  0.2231
  854MPD2    H512602   3.561   3.968  12.576 -2.6487 -0.8653  1.2232
  854MPD2    N112603   3.140   4.364  12.471  0.5842 -0.8007 -0.1616
  854MPD2    H712604   3.054   4.371  12.418  0.2815  2.7830  0.8219
  855MPD2     C12605   4.369   4.147  13.281  0.0102 -0.4230 -0.2815
  855MPD2    C112606   4.239   4.195  13.296 -0.6488 -0.3204  0.4164
  855MPD2    C212607   4.158   4.203  13.182 -0.7196  0.4373  0.6132
  855MPD2    C312608   4.202   4.148  13.056  0.6633 -0.1930  0.5776
  855MPD2    C412609   4.332   4.110  13.048 -0.5905  0.1908  0.0346
  855MPD2    C512610   4.413   4.109  13.161  0.5999 -0.0079 -0.2856
  855MPD2     H12611   4.056   4.240  13.192 -0.5333  1.1499 -0.1455
  855MPD2    H112612   4.380   4.082  12.955 -1.1629  0.7194 -0.4275
  855MPD2    H212613   4.438   4.131  13.363 -1.3970 -3.0680  0.3904
  855MPD2    H312614   4.518   4.086  13.146  0.7733  0.6181 -0.0310
  855MPD2     N12615   4.122   4.139  12.936  0.1664  0.0588  0.1862
  855MPD2    H512616   4.174   4.134  12.849  0.6494 -2.1050  0.6022
  855MPD2    N112617   4.193   4.255  13.410 -0.4602  0.2592 -0.1359
  855MPD2    H712618   4.095   4.281  13.420 -0.3930  0.5819 -0.3068
  856MPD2     C12619   1.005   0.991  13.917  0.0527 -0.4385  0.3174
  856MPD2    C112620   1.046   1.095  13.999 -0.7588 -0.4035  0.1627
  856MPD2    C212621   0.958   1.208  14.000  0.3220 -0.4662 -0.1921
  856MPD2    C312622   0.832   1.205  13.930  0.5132  0.0627 -0.5980
  856MPD2    C412623   0.803   1.091  13.858 -0.0474  0.1002 -0.4760
  856MPD2    C512624   0.895   0.991  13.846  0.4008 -0.3007  0.4456
  856MPD2     H12625   0.984   1.293  14.061  0.8079 -1.7016  1.3207
  856MPD2    H112626   0.715   1.078  13.796  0.6301 -0.9704 -1.2192
  856MPD2    H212627   1.083   0.921  13.891  0.1913 -0.7013  1.4627
  856MPD2    H312628   0.866   0.904  13.788 -0.9814 -0.0039  0.6894
  856MPD2     N12629   0.734   1.308  13.940  0.3864  0.0926 -0.5939
  856MPD2    H512630   0.659   1.305  13.871 -2.2926  1.5083  2.2588
  856MPD2    N112631   1.181   1.111  14.038  0.0604 -0.0509  0.0417
  856MPD2    H712632   1.219   1.205  14.044  2.3289 -0.8890 -1.4001
  857MPD2     C12633   2.583   3.467  12.489  0.0750  0.6663  0.1603
  857MPD2    C112634   2.651   3.436  12.602 -0.4478 -0.1132 -0.9267
  857MPD2    C212635   2.690   3.535  12.685 -0.1262 -0.2411 -0.2003
  857MPD2    C312636   2.673   3.668  12.668  0.2709 -0.4955 -1.2462
  857MPD2    C412637   2.607   3.694  12.542  0.3314 -0.4066  0.0445
  857MPD2    C512638   2.555   3.598  12.458  0.1354  0.4542 -0.7227
  857MPD2     H12639   2.733   3.503  12.779  0.6416 -0.4680 -0.6327
  857MPD2    H112640   2.579   3.796  12.518  1.9388 -0.2689 -1.2927
  857MPD2    H212641   2.547   3.382  12.431  1.6735  0.7462 -0.9374
  857MPD2    H312642   2.486   3.618  12.377 -1.7917  0.2339  0.8658
  857MPD2     N12643   2.705   3.759  12.761 -0.2356  0.6725  0.2837
  857MPD2    H512644   2.742   3.725  12.849  0.2404  2.2082  0.6841
  857MPD2    N112645   2.661   3.298  12.631  0.1419  0.2931  0.1987
  857MPD2    H712646   2.611   3.239  12.565 -1.3739  2.9530 -1.0405
  858MPD2     C12647   3.488   1.738  16.696 -0.0370 -0.5278  0.6143
  858MPD2    C112648   3.620   1.771  16.673 -0.1984  0.8755 -0.3110
  858MPD2    C212649   3.681   1.843  16.772 -0.0567  0.2975 -0.6534
  858MPD2    C312650   3.606   1.895  16.881  0.7296 -0.4082  0.3887
  858MPD2    C412651   3.475   1.871  16.889 -0.9117 -0.0854 -0.1436
  858MPD2    C512652   3.416   1.791  16.801 -0.7501  0.1698 -0.5126
  858MPD2     H12653   3.784   1.876  16.779  0.0080 -0.2478  1.2093
  858MPD2    H112654   3.426   1.891  16.984 -1.0121 -0.5874 -0.0913
  858MPD2    H212655   3.429   1.679  16.627  2.4057 -1.9931 -0.2507
  858MPD2    H312656   3.312   1.762  16.806 -0.8304  0.5007 -0.2926
  858MPD2     N12657   3.659   1.973  16.987 -0.9355  0.3472 -0.0950
  858MPD2    H512658   3.592   2.007  17.055  0.5469 -0.2278  1.6423
  858MPD2    N112659   3.675   1.726  16.547 -0.4486  0.6874 -0.1185
  858MPD2    H712660   3.621   1.667  16.485  1.5413 -1.3392  0.1058
  859MPD2     C12661   2.353   4.300  16.079  0.3522 -0.4895  0.4918
  859MPD2    C112662   2.335   4.296  15.943 -0.3553 -0.5376 -0.3137
  859MPD2    C212663   2.266   4.181  15.898  0.1331 -0.1789  0.2026
  859MPD2    C312664   2.209   4.086  15.985 -0.2112 -0.2690  0.1361
  859MPD2    C412665   2.231   4.104  16.124  0.6749  0.0977  0.1939
  859MPD2    C512666   2.311   4.205  16.165 -0.7135 -0.5264  0.0081
  859MPD2     H12667   2.238   4.176  15.793 -1.7692  0.2361  0.6931
  859MPD2    H112668   2.184   4.033  16.191 -3.5879  2.0233 -0.7488
  859MPD2    H212669   2.400   4.385  16.127  0.3347 -1.4429  2.2185
  859MPD2    H312670   2.331   4.221  16.270  0.8867 -0.1856 -0.3377
  859MPD2     N12671   2.114   3.989  15.940  0.0236  0.4182 -0.1024
  859MPD2    H512672   2.079   3.929  16.014 -0.8769  2.1415  0.8900
  859MPD2    N112673   2.361   4.406  15.865 -0.1028 -0.1150  0.1726
  859MPD2    H712674   2.407   4.479  15.917  0.1803 -0.0066 -0.2306
  860MPD2     C12675   4.646   0.150  11.696  0.2231  0.1542  0.1257
  860MPD2    C112676   4.623   0.104  11.823  0.0098 -0.6239 -0.8735
  860MPD2    C212677   4.492   0.063  11.854 -0.1129  0.0862 -0.4096
  860MPD2    C312678   4.386   0.069  11.762 -0.3362  0.2661 -0.2302
  860MPD2    C412679   4.415   0.111  11.634  0.2306 -0.2695  0.0640
  860MPD2    C512680   4.546   0.147  11.600  0.2141  0.2480 -0.1732
  860MPD2     H12681   4.475   0.026  11.955 -0.1366 -0.2586 -0.5406
  860MPD2    H112682   4.333   0.117  11.563 -0.0300  1.2800  0.4884
  860MPD2    H212683   0.001   0.192  11.662  1.4765 -1.5521  1.4669
  860MPD2    H312684   4.554   0.187  11.500 -0.3248  2.4779  0.6558
  860MPD2     N12685   4.261   0.021  11.807 -0.1931 -0.1672  0.1664
  860MPD2    H512686   4.245   0.002  11.905 -1.0117  1.9394  0.4425
  860MPD2    N112687   4.715   0.097  11.922  0.2200 -0.3056  0.3868
  860MPD2    H712688   4.684   0.035  11.995  0.3928 -0.8123  0.0296
  861MPD2     C12689   2.688   2.629  11.345  0.7084 -0.0783 -0.3179
  861MPD2    C112690   2.787   2.721  11.383 -0.3600  0.6259  0.6414
  861MPD2    C212691   2.829   2.802  11.284 -0.0002  0.3893  0.2025
  861MPD2    C312692   2.780   2.801  11.153 -0.5764 -0.0863  0.5658
  861MPD2    C412693   2.682   2.706  11.124 -0.1338 -0.0674  0.1172
  861MPD2    C512694   2.638   2.618  11.215  0.4797  0.6240  0.1032
  861MPD2     H12695   2.912   2.868  11.308 -0.9153  1.7310 -0.3020
  861MPD2    H112696   2.637   2.701  11.026  0.3834 -0.4466 -0.1042
  861MPD2    H212697   2.655   2.559  11.421  0.2511  1.9300  1.3660
  861MPD2    H312698   2.564   2.544  11.186  0.9443  0.1603  0.1010
  861MPD2     N12699   2.824   2.886  11.046  0.0616  0.0146  0.2417
  861MPD2    H512700   2.769   2.871  10.961 -0.7285 -0.5096  0.8401
  861MPD2    N112701   2.858   2.733  11.504 -0.2441  0.2764 -0.5715
  861MPD2    H712702   2.908   2.819  11.518  0.0384 -0.1023  0.8145
  862MPD2     C12703   2.737   2.936  10.352 -0.4764 -0.4114  0.3055
  862MPD2    C112704   2.730   2.893  10.487  0.6738 -0.8614 -0.4543
  862MPD2    C212705   2.651   2.778  10.511  0.1681 -0.5133  0.3405
  862MPD2    C312706   2.583   2.712  10.403  0.5497 -0.2016 -0.2189
  862MPD2    C412707   2.599   2.761  10.271 -0.3701  0.0127  0.1353
  862MPD2    C512708   2.677   2.873  10.252 -0.6375 -0.7958 -0.4246
  862MPD2     H12709   2.632   2.752  10.614 -0.4415 -1.5948 -0.0477
  862MPD2    H112710   2.555   2.714  10.183 -1.8362  0.2163  0.7610
  862MPD2    H212711   2.791   3.025  10.322 -0.5610 -0.6207 -0.4607
  862MPD2    H312712   2.689   2.917  10.153  1.7380 -0.0429  0.2107
  862MPD2     N12713   2.498   2.605  10.426  0.0115 -0.1171  0.0300
  862MPD2    H512714   2.439   2.592  10.344  1.0096  2.2202 -1.0556
  862MPD2    N112715   2.800   2.951  10.594 -0.4997 -0.4683 -0.4423
  862MPD2    H712716   2.762   2.930  10.686  1.2803  1.4449  0.7344
  863MPD2     C12717   2.149   1.076  16.453  0.1922 -0.3877 -0.3167
  863MPD2    C112718   2.089   1.036  16.569 -0.0469 -0.0159 -0.1677
  863MPD2    C212719   2.149   0.998  16.679  0.2823  0.2684 -0.2606
  863MPD2    C312720   2.284   0.988  16.679  0.8725  0.4121  0.6928
  863MPD2    C412721   2.353   1.044  16.576  0.5818 -1.0893  0.0927
  863MPD2    C512722   2.284   1.093  16.470 -0.3845  0.3786 -0.3961
  863MPD2     H12723   2.098   0.958  16.766 -0.0691 -1.5668 -1.3138
  863MPD2    H112724   2.461   1.049  16.578  0.5354  0.2591 -0.7714
  863MPD2    H212725   2.096   1.120  16.369 -0.5052 -0.1845  0.2323
  863MPD2    H312726   2.340   1.138  16.388 -0.3536 -0.3734 -0.7855
  863MPD2     N12727   2.366   0.917  16.768  0.5213  0.3698 -0.1445
  863MPD2    H512728   2.466   0.934  16.766  1.2862 -3.5075  5.0193
  863MPD2    N112729   1.944   1.030  16.556  0.5543 -0.3652  0.1121
  863MPD2    H712730   1.907   1.029  16.461 -0.5433 -1.2456  0.5460
  864MPD2     C12731   2.808   1.736  17.387  0.0345  0.2899 -0.3015
  864MPD2    C112732   2.870   1.707  17.263 -0.3681  0.5124 -0.2120
  864MPD2    C212733   2.957   1.798  17.201  0.3824  0.1546  0.0901
  864MPD2    C312734   2.990   1.913  17.263  0.8469 -0.7938 -0.4987
  864MPD2    C412735   2.927   1.937  17.389 -0.3013 -0.0868  1.0105
  864MPD2    C512736   2.835   1.850  17.447  0.2900  0.3620  0.4336
  864MPD2     H12737   3.004   1.775  17.106 -1.6068 -2.0651 -0.3563
  864MPD2    H112738   2.941   2.034  17.435  0.0464  0.3405  0.0129
  864MPD2    H212739   2.739   1.664  17.430  0.1750  0.0517 -0.4807
  864MPD2    H312740   2.795   1.871  17.546 -1.1344 -0.3938  0.0180
  864MPD2     N12741   3.069   2.013  17.209 -0.3593  0.3724 -0.0209
  864MPD2    H512742   3.102   2.088  17.269  0.9375 -1.0601  1.0340
  864MPD2    N112743   2.841   1.579  17.206  0.1003  0.3159  0.3377
  864MPD2    H712744   2.756   1.534  17.237  0.6595 -1.3624 -0.5634
  865MPD2     C12745   3.182   2.669  16.668  0.7561 -0.0052  0.0089
  865MPD2    C112746   3.177   2.539  16.711  0.5860 -0.4929  0.5727
  865MPD2    C212747   3.183   2.511  16.846 -0.0816  0.0441  0.1989
  865MPD2    C312748   3.198   2.609  16.940  0.2319 -0.6656  0.3940
  865MPD2    C412749   3.199   2.738  16.894  0.2248  0.1715 -0.3416
  865MPD2    C512750   3.194   2.768  16.757 -0.5665  0.6665 -0.5815
  865MPD2     H12751   3.152   2.413  16.881 -0.6695  0.4781  0.9068
  865MPD2    H112752   3.185   2.827  16.954 -3.8876 -3.2967  3.8798
  865MPD2    H212753   3.184   2.696  16.563 -1.3929  1.2317  0.2972
  865MPD2    H312754   3.189   2.869  16.716 -0.3641 -0.8845 -4.4386
  865MPD2     N12755   3.203   2.588  17.081  0.2461 -0.2630  0.1520
  865MPD2    H512756   3.190   2.678  17.125  0.9777 -0.1995  0.2350
  865MPD2    N112757   3.167   2.448  16.608 -0.1342  0.0737  0.2191
  865MPD2    H712758   3.189   2.485  16.516 -1.1541 -0.3558 -0.2025
  866MPD2     C12759   3.977   2.901  11.591  0.1376  0.6636  0.7175
  866MPD2    C112760   3.893   2.878  11.698  0.1601 -0.0190  0.1745
  866MPD2    C212761   3.758   2.932  11.692 -0.6192  0.2857  0.4079
  866MPD2    C312762   3.731   3.033  11.601 -0.0100 -0.4520 -0.7302
  866MPD2    C412763   3.833   3.080  11.522  0.6299 -0.0781  0.2860
  866MPD2    C512764   3.950   3.012  11.518  0.7237 -0.0712 -0.1426
  866MPD2     H12765   3.689   2.904  11.771 -0.0509 -1.1670  0.3934
  866MPD2    H112766   3.813   3.159  11.451 -0.3691  1.0609  1.8057
  866MPD2    H212767   4.076   2.860  11.584 -0.2236 -0.0634 -0.0343
  866MPD2    H312768   4.007   3.036  11.429  1.4281 -2.0690 -0.2131
  866MPD2     N12769   3.602   3.087  11.578 -0.4353  0.5895  0.7428
  866MPD2    H512770   3.593   3.171  11.521 -2.4919 -1.0623 -1.3843
  866MPD2    N112771   3.927   2.774  11.785 -0.2916  0.3410  0.1632
  866MPD2    H712772   4.002   2.717  11.748  0.1421 -1.4601  3.7904
  867MPD2     C12773   1.097   1.472  16.208  0.2796  0.6225 -0.5868
  867MPD2    C112774   1.199   1.543  16.261  1.2398 -0.5218 -0.0660
  867MPD2    C212775   1.190   1.670  16.297 -0.1158  0.2589 -0.0907
  867MPD2    C312776   1.067   1.738  16.282 -0.1449  0.6501 -0.4826
  867MPD2    C412777   0.962   1.668  16.226  0.3002  0.2597  0.7065
  867MPD2    C512778   0.982   1.540  16.185  1.2025  0.2065  0.1667
  867MPD2     H12779   1.268   1.724  16.349  0.9640 -1.3141 -0.1131
  867MPD2    H112780   0.864   1.714  16.236 -0.3295 -1.2183  1.3659
  867MPD2    H212781   1.099   1.364  16.197  2.4775  0.5608  0.2968
  867MPD2    H312782   0.890   1.487  16.161  2.2825 -1.5622 -0.0639
  867MPD2     N12783   1.042   1.862  16.335 -0.0488 -0.4932  0.0567
  867MPD2    H512784   0.946   1.890  16.351 -0.7909 -1.8093 -2.1475
  867MPD2    N112785   1.308   1.465  16.292 -0.1211  0.0381  0.3654
  867MPD2    H712786   1.305   1.366  16.271 -2.0580  0.4870 -1.5705
  868MPD2     C12787   3.507   1.781  13.556 -0.8939 -0.1035 -0.0413
  868MPD2    C112788   3.438   1.666  13.546  0.3430  0.2656 -0.2036
  868MPD2    C212789   3.346   1.634  13.642 -0.3046 -0.4885  0.4978
  868MPD2    C312790   3.322   1.707  13.755  0.2260 -0.1301 -0.5205
  868MPD2    C412791   3.394   1.825  13.767  0.0039  0.0234 -0.0157
  868MPD2    C512792   3.481   1.860  13.667 -1.3194 -0.5568 -0.3910
  868MPD2     H12793   3.290   1.541  13.645 -0.0093 -0.7157 -0.8750
  868MPD2    H112794   3.398   1.894  13.851 -2.1798  1.4105 -1.0407
  868MPD2    H212795   3.586   1.812  13.488  1.0271 -3.7888  0.5504
  868MPD2    H312796   3.533   1.953  13.690 -2.0431 -0.7107  1.8276
  868MPD2     N12797   3.230   1.662  13.849 -0.0339 -0.5899 -0.2192
  868MPD2    H512798   3.206   1.564  13.847 -0.4662 -0.4847 -0.3306
  868MPD2    N112799   3.477   1.584  13.438 -0.0003  0.4420  0.9526
  868MPD2    H712800   3.548   1.616  13.373  1.5298 -0.4164  2.2076
  869MPD2     C12801   3.843   4.123   0.955 -0.4276 -0.3790  0.4319
  869MPD2    C112802   3.915   4.086   0.846  0.5827  0.6295  0.5559
  869MPD2    C212803   4.055   4.114   0.847 -0.0259 -0.4257 -0.3183
  869MPD2    C312804   4.115   4.180   0.948 -0.1850  0.1485 -0.1405
  869MPD2    C412805   4.031   4.214   1.052 -0.3714  0.7086  0.1535
  869MPD2    C512806   3.903   4.197   1.048  0.2341  0.2988  0.2448
  869MPD2     H12807   4.114   4.073   0.766 -0.6095 -0.7998 -0.5567
  869MPD2    H112808   4.072   4.251   1.146 -0.8241 -1.7489  1.3496
  869MPD2    H212809   3.737   4.100   0.959  0.1197 -2.8946  0.2990
  869MPD2    H312810   3.842   4.228   1.132  3.0138  1.4145  1.8479
  869MPD2     N12811   4.251   4.200   0.965  0.2469 -0.4241 -0.0254
  869MPD2    H512812   4.288   4.231   1.054  0.2243  1.4584 -0.6476
  869MPD2    N112813   3.854   4.012   0.751  0.1901  0.7282  0.7069
  869MPD2    H712814   3.764   3.972   0.774  0.4861 -0.1888  0.2521
  870MPD2     C12815   4.111   2.520   1.953 -0.0998  0.4954  0.2444
  870MPD2    C112816   4.136   2.619   1.866 -0.3048 -0.7784  0.4862
  870MPD2    C212817   4.048   2.646   1.758 -0.0051  0.1211 -0.5232
  870MPD2    C312818   3.919   2.609   1.768 -0.0822  0.7077  0.6276
  870MPD2    C412819   3.890   2.514   1.867 -0.5737  0.4485 -0.5810
  870MPD2    C512820   3.987   2.467   1.951 -0.5223  0.5328 -0.3648
  870MPD2     H12821   4.073   2.725   1.688 -0.7096  1.0420  0.2696
  870MPD2    H112822   3.792   2.472   1.891 -0.8133  0.5832 -1.3283
  870MPD2    H212823   4.185   2.491   2.027 -1.2846 -0.3069  1.1103
  870MPD2    H312824   3.969   2.387   2.022  2.3263  0.4500  0.2484
  870MPD2     N12825   3.827   2.661   1.672  0.1645 -0.1147 -0.2205
  870MPD2    H512826   3.863   2.734   1.611  0.5409  1.1085  1.4653
  870MPD2    N112827   4.270   2.665   1.855  0.2299 -0.1289  0.2561
  870MPD2    H712828   4.344   2.608   1.893 -0.5929 -0.6468  1.0874
  871MPD2     C12829   0.339   2.629  16.352 -0.4900  0.2002 -0.6959
  871MPD2    C112830   0.304   2.604  16.487  0.7497  0.1835 -0.9550
  871MPD2    C212831   0.298   2.472  16.523 -0.0703  0.2218 -0.3362
  871MPD2    C312832   0.341   2.369  16.441 -0.6477 -0.0419  0.8170
  871MPD2    C412833   0.388   2.400  16.311  0.7065  0.1946  0.7005
  871MPD2    C512834   0.391   2.529  16.268  0.3859  0.6859  0.0864
  871MPD2     H12835   0.255   2.442  16.618 -0.7076  0.1290 -0.6513
  871MPD2    H112836   0.420   2.322  16.243  1.0557 -0.3574  1.5028
  871MPD2    H212837   0.330   2.732  16.319  1.9216  0.5781 -0.1954
  871MPD2    H312838   0.428   2.554  16.169  0.1313  3.3437  0.6744
  871MPD2     N12839   0.338   2.244  16.495  0.5441 -0.3104 -0.0201
  871MPD2    H512840   0.305   2.234  16.590 -0.5903 -0.5618 -0.4409
  871MPD2    N112841   0.260   2.712  16.575 -0.1928 -0.2032  0.1347
  871MPD2    H712842   0.279   2.805  16.538 -2.4675  0.9285  1.8290
  872MPD2     C12843   1.310   0.220  13.811  0.0730  0.7287  0.4594
  872MPD2    C112844   1.351   0.229  13.946  0.1271  0.0861  0.4302
  872MPD2    C212845   1.256   0.233  14.044 -0.7643  0.2739  0.7768
  872MPD2    C312846   1.123   0.223  14.022 -0.4783  0.2793  0.0238
  872MPD2    C412847   1.080   0.225  13.893 -0.4441 -0.2364 -0.1938
  872MPD2    C512848   1.169   0.222  13.787 -0.2886  0.1588  0.0532
  872MPD2     H12849   1.295   0.225  14.145 -0.5885 -2.5821  0.5007
  872MPD2    H112850   0.972   0.222  13.884 -0.2757  0.2881 -2.2877
  872MPD2    H212851   1.378   0.211  13.727 -0.1573  0.3729  0.3126
  872MPD2    H312852   1.129   0.228  13.686  0.0513  1.8769  0.0149
  872MPD2     N12853   1.027   0.233  14.122 -0.2962  0.8371  0.1326
  872MPD2    H512854   0.931   0.230  14.090  0.3388  0.9362 -1.7538
  872MPD2    N112855   1.487   0.217  13.990 -0.0074  0.2469 -0.1682
  872MPD2    H712856   1.502   0.194  14.088 -0.4844  1.0037  0.0792
  873MPD2     C12857   3.634   0.220   0.576  0.0643 -0.6802  0.8369
  873MPD2    C112858   3.548   0.172   0.670 -0.3193 -0.1286 -0.6983
  873MPD2    C212859   3.492   0.043   0.648 -0.1716 -0.5373  0.1441
  873MPD2    C312860   3.517   4.703   0.537  0.1419  0.4272  0.1166
  873MPD2    C412861   3.600   0.025   0.441 -0.4922 -0.3380  0.8908
  873MPD2    C512862   3.663   0.147   0.460  0.3285 -0.3953  0.3523
  873MPD2     H12863   3.419   0.000   0.716  0.0204  1.2315  1.4808
  873MPD2    H112864   3.639   4.721   0.349 -1.3005  1.0267 -0.0885
  873MPD2    H212865   3.683   0.314   0.596  2.3428 -1.0052 -3.2455
  873MPD2    H312866   3.743   0.185   0.397 -0.9591 -0.6563 -1.4273
  873MPD2     N12867   3.461   4.576   0.513 -0.3783  0.0950  0.1633
  873MPD2    H512868   3.465   4.531   0.422 -0.9106  2.4569 -1.0246
  873MPD2    N112869   3.514   0.256   0.782  0.1972  0.1327  0.5105
  873MPD2    H712870   3.556   0.349   0.787  0.5956 -0.0889  1.2093
  874MPD2     C12871   2.597   0.461  16.504  0.3925  0.2056 -0.1340
  874MPD2    C112872   2.663   0.374  16.582  0.5908  0.7680 -0.0030
  874MPD2    C212873   2.748   0.424  16.680 -0.2606  0.0090  0.0319
  874MPD2    C312874   2.772   0.559  16.696 -0.0900 -0.1908 -0.1397
  874MPD2    C412875   2.693   0.640  16.613 -0.3172  0.4335  0.4506
  874MPD2    C512876   2.611   0.599  16.519  0.1790  0.0255 -0.2692
  874MPD2     H12877   2.792   0.358  16.754 -0.6871  0.2092  0.4640
  874MPD2    H112878   2.695   0.748  16.620  0.1563  0.3829  1.1457
  874MPD2    H212879   2.521   0.427  16.435  0.3519  0.6246 -0.2942
  874MPD2    H312880   2.560   0.676  16.462  0.1264 -0.5301 -0.9726
  874MPD2     N12881   2.853   0.614  16.802 -0.0064 -0.1157 -0.4139
  874MPD2    H512882   2.911   0.550  16.856  0.1441 -0.2638 -0.7574
  874MPD2    N112883   2.632   0.238  16.563 -0.3617 -0.5025  0.3860
  874MPD2    H712884   2.575   0.210  16.484 -0.4367 -1.8148  0.9100
  875MPD2     C12885   3.709   3.318  14.678  0.0937 -0.5891 -0.3710
  875MPD2    C112886   3.583   3.372  14.696 -0.1014  0.0442 -0.3802
  875MPD2    C212887   3.562   3.442  14.812 -0.4670 -0.0013  0.0975
  875MPD2    C312888   3.665   3.479  14.898 -0.9402 -0.2109  0.5741
  875MPD2    C412889   3.796   3.434  14.870 -0.0617  0.6334  0.1710
  875MPD2    C512890   3.815   3.349  14.763 -0.4379 -0.6508 -0.5382
  875MPD2     H12891   3.461   3.472  14.838 -0.0171  2.3049 -0.8565
  875MPD2    H112892   3.877   3.449  14.940  1.4328 -2.6977 -0.8593
  875MPD2    H212893   3.742   3.260  14.592 -1.4613 -1.7649 -0.1692
  875MPD2    H312894   3.918   3.333  14.731 -1.7011 -3.1348 -3.4050
  875MPD2     N12895   3.652   3.556  15.018 -0.1321  0.2981  0.8310
  875MPD2    H512896   3.740   3.571  15.065  0.9235 -2.3961 -0.2904
  875MPD2    N112897   3.473   3.348  14.611 -0.7762 -0.0413  0.2978
  875MPD2    H712898   3.393   3.403  14.641 -0.7492  0.4947 -0.6026
  876MPD2     C12899   2.972   4.632  16.602 -0.6570  0.1039 -1.1122
  876MPD2    C112900   2.922   4.621  16.473 -0.6764 -0.3455  0.4598
  876MPD2    C212901   2.841   4.508  16.445  0.1134 -0.3365  0.4673
  876MPD2    C312902   2.812   4.418  16.550  0.1425  0.4209 -0.1181
  876MPD2    C412903   2.861   4.439  16.678 -0.5270 -0.3169  0.1702
  876MPD2    C512904   2.943   4.546  16.702 -0.0310 -0.7085 -0.1973
  876MPD2     H12905   2.809   4.489  16.344  2.4199 -0.4666 -0.2379
  876MPD2    H112906   2.836   4.368  16.756 -0.6048 -0.3050  0.1562
  876MPD2    H212907   3.034   4.714  16.636 -0.3486 -0.1323 -1.1017
  876MPD2    H312908   2.985   4.555  16.802  2.3572 -1.2385 -1.1532
  876MPD2     N12909   2.728   4.306  16.516  0.0036  0.2011 -0.4851
  876MPD2    H512910   2.713   4.295  16.416 -2.2990  0.7045 -0.1910
  876MPD2    N112911   2.952   4.718  16.380  0.1197  0.3015 -0.2339
  876MPD2    H712912   3.025   0.045  16.406 -1.0812  0.4298  2.8380
  877MPD2     C12913   2.638   0.238  15.642  0.1596  0.0288  0.2495
  877MPD2    C112914   2.775   0.246  15.647  0.0492  0.0320 -0.0908
  877MPD2    C212915   2.851   0.253  15.535  0.0579 -0.0538  0.2876
  877MPD2    C312916   2.794   0.241  15.409 -0.2443 -0.0586  0.0174
  877MPD2    C412917   2.656   0.229  15.401 -1.1745 -0.4850  0.4700
  877MPD2    C512918   2.578   0.232  15.519 -0.3314 -0.3877 -0.9596
  877MPD2     H12919   2.958   0.269  15.536 -0.3209  2.4424  2.2136
  877MPD2    H112920   2.606   0.229  15.305  0.6314 -0.5695 -0.4633
  877MPD2    H212921   2.583   0.228  15.735 -0.4670  0.4914 -0.0698
  877MPD2    H312922   2.470   0.227  15.518 -0.3629 -0.4207  1.3377
  877MPD2     N12923   2.867   0.236  15.285 -0.5705  0.9985 -0.2602
  877MPD2    H512924   2.808   0.208  15.207  0.7894  0.3312 -1.0447
  877MPD2    N112925   2.842   0.254  15.771  0.1982 -0.4336  0.1881
  877MPD2    H712926   2.941   0.269  15.758  0.3143 -0.3163  1.2547
  878MPD2     C12927   1.784   3.829  13.311 -0.8151  0.3203 -0.6605
  878MPD2    C112928   1.886   3.921  13.319 -0.8576  0.5688  0.0681
  878MPD2    C212929   1.942   3.960  13.438  0.2820  0.0291 -0.3830
  878MPD2    C312930   1.891   3.907  13.555  0.2397  0.1557  0.2909
  878MPD2    C412931   1.794   3.813  13.552 -0.4405 -0.0641 -0.4429
  878MPD2    C512932   1.746   3.767  13.425 -0.2816 -0.1970  0.0855
  878MPD2     H12933   2.020   4.035  13.434 -0.0335  0.3002 -1.3359
  878MPD2    H112934   1.756   3.749  13.631 -1.0478  0.5011 -0.2768
  878MPD2    H212935   1.740   3.785  13.222 -0.4263 -3.6893  1.1464
  878MPD2    H312936   1.682   3.680  13.433 -0.0365 -0.4418 -0.6485
  878MPD2     N12937   1.934   3.962  13.674 -0.0685  0.2671  0.1294
  878MPD2    H512938   2.014   4.023  13.665  0.9011 -1.1031 -0.4837
  878MPD2    N112939   1.926   3.981  13.196 -0.6652 -0.2656  0.1329
  878MPD2    H712940   1.883   3.928  13.121  0.6914 -1.5153  0.2304
  879MPD2     C12941   2.875   0.258  17.526 -0.3504 -0.2582  0.3229
  879MPD2    C112942   2.859   0.360  17.426  0.3756 -0.0298  0.2483
  879MPD2    C212943   2.785   0.340  17.311  0.4978  0.0341  0.3660
  879MPD2    C312944   2.728   0.217  17.292  0.0567 -0.5260 -0.0921
  879MPD2    C412945   2.760   0.116  17.386  0.1346  0.2581  0.6288
  879MPD2    C512946   2.833   0.138  17.497 -0.7446  0.4744  0.5030
  879MPD2     H12947   2.762   0.421  17.242 -1.3400 -2.1701 -1.6046
  879MPD2    H112948   2.722   0.016  17.371  1.3893 -0.2008  0.5169
  879MPD2    H212949   2.933   0.271  17.616  1.7689  0.8035 -1.1795
  879MPD2    H312950   2.839   0.059  17.571 -0.6746 -0.2981 -0.3266
  879MPD2     N12951   2.650   0.174  17.184  0.6681  0.3269  0.1883
  879MPD2    H512952   2.609   0.081  17.183 -2.2044  1.5671  2.0128
  879MPD2    N112953   2.918   0.482  17.461 -0.6924  0.1663  0.3108
  879MPD2    H712954   2.970   0.479  17.548 -0.6391 -1.5413  0.2061
  880MPD2     C12955   4.562   2.231   0.356  0.4572 -0.2130 -0.0000
  880MPD2    C112956   4.442   2.203   0.418  0.0835  0.3080 -0.3897
  880MPD2    C212957   4.415   2.070   0.449  0.5250 -0.7893  0.0513
  880MPD2    C312958   4.499   1.967   0.416  0.1923 -0.6891  0.3828
  880MPD2    C412959   4.624   2.005   0.369 -0.1264 -0.1951 -0.3876
  880MPD2    C512960   4.656   2.132   0.351  0.0316 -0.3693  0.0654
  880MPD2     H12961   4.317   2.051   0.492  0.4435  0.1396  0.2863
  880MPD2    H112962   4.699   1.932   0.341  1.4722  0.5851  1.8825
  880MPD2    H212963   4.588   2.331   0.323  0.3567 -0.2789 -0.2806
  880MPD2    H312964   0.021   2.154   0.327  1.0486  0.1328  4.7988
  880MPD2     N12965   4.485   1.837   0.468  0.3697 -0.1580  0.1531
  880MPD2    H512966   4.406   1.829   0.532  0.6933 -0.5428  0.4991
  880MPD2    N112967   4.356   2.314   0.435  0.3375  0.2473 -0.0308
  880MPD2    H712968   4.393   2.405   0.409  0.2948 -0.1313 -1.3912
  881MPD2     C12969   4.197   3.188   0.039  0.0739 -0.0237  0.1913
  881MPD2    C112970   4.289   3.084   0.024  0.5278  1.2668 -0.6996
  881MPD2    C212971   4.282   2.979   0.110  0.1520  0.3848 -0.3916
  881MPD2    C312972   4.183   2.980   0.211  0.1624  0.8422 -0.2596
  881MPD2    C412973   4.093   3.083   0.221 -0.7836  0.3586 -0.2924
  881MPD2    C512974   4.103   3.189   0.138  0.3861  1.3273  0.6756
  881MPD2     H12975   4.351   2.895   0.109 -1.4937 -0.9595 -0.6679
  881MPD2    H112976   4.012   3.090   0.292 -0.0774 -0.3580  0.5828
  881MPD2    H212977   4.208   3.275  17.728  0.4264  1.5171  2.3392
  881MPD2    H312978   4.041   3.278   0.143  0.5165  1.4172  0.6856
  881MPD2     N12979   4.168   2.872   0.302  0.2783  0.2523  0.0319
  881MPD2    H512980   4.090   2.880   0.366 -0.1785 -1.8785 -0.2728
  881MPD2    N112981   4.344   3.068  17.646 -0.7496 -0.1065  0.9538
  881MPD2    H712982   4.302   3.132  17.579  1.3085  1.1011  0.8014
  882MPD2     C12983   2.865   4.686  14.585 -0.8354  0.4544 -0.4096
  882MPD2    C112984   2.827   0.047  14.674 -0.1294  0.0269 -0.7163
  882MPD2    C212985   2.695   0.087  14.678  0.1967 -0.2631  0.1624
  882MPD2    C312986   2.599   0.022  14.611  0.0005 -0.2035 -0.4758
  882MPD2    C412987   2.642   4.652  14.525 -0.2628 -0.1400 -1.0137
  882MPD2    C512988   2.774   4.626  14.503  0.1346 -0.1337 -0.5170
  882MPD2     H12989   2.660   0.158  14.752 -2.3925 -1.1708 -0.1766
  882MPD2    H112990   2.578   4.601  14.454 -0.8012  0.6881 -1.1304
  882MPD2    H212991   2.970   4.670  14.562 -0.4605  2.9409 -0.4123
  882MPD2    H312992   2.814   4.553  14.434 -0.3262 -1.0479  0.1854
  882MPD2     N12993   2.456   0.050  14.616 -0.0568  0.0429  0.4116
  882MPD2    H512994   2.395   4.735  14.555  0.6522 -0.7820  0.4353
  882MPD2    N112995   2.927   0.107  14.754 -0.2767 -0.5823  0.3061
  882MPD2    H712996   3.016   0.059  14.765 -0.3540 -0.2115  2.5910
  883MPD2     C12997   4.428   4.481  16.114 -0.4781 -0.2593  0.1483
  883MPD2    C112998   4.437   4.606  16.059  0.1531 -0.6580 -0.6858
  883MPD2    C212999   4.540   4.684  16.084  0.3168 -0.1212 -0.8403
  883MPD2    C313000   4.635   4.638  16.174 -0.3472 -0.0199 -0.3464
  883MPD2    C413001   4.626   4.514  16.236  0.3196  0.0366 -0.1366
  883MPD2    C513002   4.518   4.436  16.205  0.4544 -0.1895 -0.5184
  883MPD2     H13003   4.554   0.038  16.030  0.4014 -0.5059 -1.4848
  883MPD2    H113004   4.698   4.473  16.305 -0.7184 -0.0266  0.9181
  883MPD2    H213005   4.352   4.410  16.084  1.5482 -0.9708 -3.3699
  883MPD2    H313006   4.498   4.341  16.253 -1.5020  0.2767 -0.4099
  883MPD2     N13007   0.006   4.731  16.203 -0.3694 -0.0437 -0.3941
  883MPD2    H513008   0.019   0.076  16.146 -4.1797  0.8777  0.1120
  883MPD2    N113009   4.334   4.657  15.974  0.3978  0.9073  0.0648
  883MPD2    H713010   4.349   0.008  15.929 -3.4164  0.6460 -1.7512
  884MPD2     C13011   1.701   0.871  15.448  0.5211 -0.4532 -0.0961
  884MPD2    C113012   1.699   0.953  15.342  0.0091 -0.2289 -0.1553
  884MPD2    C213013   1.602   1.056  15.346 -0.0545  0.0418  0.0716
  884MPD2    C313014   1.499   1.058  15.434  0.0600 -0.6496 -0.0261
  884MPD2    C413015   1.499   0.970  15.534  0.2623 -0.5144  0.5321
  884MPD2    C513016   1.603   0.881  15.540 -0.1979  0.0088  0.2771
  884MPD2     H13017   1.611   1.132  15.269  1.0768  0.1643  0.3262
  884MPD2    H113018   1.437   0.979  15.622  0.1435 -1.9267  0.5917
  884MPD2    H213019   1.775   0.794  15.468  0.4347 -0.8588 -1.3786
  884MPD2    H313020   1.620   0.820  15.628  2.9418  0.5208 -0.0060
  884MPD2     N13021   1.396   1.147  15.421 -0.1391 -0.1464 -0.7944
  884MPD2    H513022   1.401   1.205  15.337  0.6666  1.1152  0.1272
  884MPD2    N113023   1.785   0.933  15.236  0.2124 -0.0760 -0.1656
  884MPD2    H713024   1.772   0.997  15.158 -1.1350  2.3481  2.0240
  885MPD2     C13025   4.464   1.007   0.207 -1.3485  0.8337  0.2959
  885MPD2    C113026   4.600   1.026   0.199  0.4249 -0.5454  0.4024
  885MPD2    C213027   4.657   1.076   0.076  0.3407  0.5136  0.5266
  885MPD2    C313028   4.579   1.099  17.721  0.0844  0.1662  0.1665
  885MPD2    C413029   4.441   1.074  17.730 -0.0065 -0.2277 -0.1028
  885MPD2    C513030   4.390   1.034   0.100  0.4111 -0.2547 -0.3550
  885MPD2     H13031   0.023   1.099   0.062  0.7515 -1.0362  1.0467
  885MPD2    H113032   4.361   1.104  17.664 -0.4049  0.9196  0.9095
  885MPD2    H213033   4.422   0.972   0.300 -0.1773  0.6692  0.7634
  885MPD2    H313034   4.284   1.017   0.116  0.1335 -0.1413 -2.0959
  885MPD2     N13035   4.635   1.157  17.602 -0.1990 -0.0965 -0.0710
  885MPD2    H513036   4.736   1.153  17.606 -0.0858  1.5577 -1.2512
  885MPD2    N113037   4.674   1.000   0.317 -0.2463  0.2708 -0.3527
  885MPD2    H713038   4.613   0.999   0.398 -0.9667  1.4396 -0.8801
  886MPD2     C13039   1.221   4.007  15.132 -0.0925 -0.0088 -0.0623
  886MPD2    C113040   1.300   4.073  15.218 -0.0078  0.9716 -0.6382
  886MPD2    C213041   1.349   4.199  15.180 -0.4884 -0.0660  0.2051
  886MPD2    C313042   1.327   4.251  15.059  0.3771 -0.1135  0.0715
  886MPD2    C413043   1.238   4.196  14.972 -0.7829 -0.1077  0.5090
  886MPD2    C513044   1.188   4.074  15.010  0.2039 -0.6397  0.0532
  886MPD2     H13045   1.424   4.247  15.242  0.2273 -2.6155  1.3373
  886MPD2    H113046   1.211   4.244  14.878  1.2407 -0.8783 -0.4667
  886MPD2    H213047   1.194   3.903  15.145 -0.6096  0.0398 -0.7247
  886MPD2    H313048   1.116   4.031  14.941  0.3186 -0.2025 -0.3437
  886MPD2     N13049   1.375   4.385  15.020  0.2809  0.3375  0.5634
  886MPD2    H513050   1.379   4.403  14.921  1.3990 -1.3791  0.2927
  886MPD2    N113051   1.342   4.027  15.341  0.1732 -0.0441 -0.5553
  886MPD2    H713052   1.407   4.083  15.395  0.7737  1.0266 -2.4232
  887MPD2     C13053   1.860   4.247  15.781 -0.3895  0.3306 -0.0923
  887MPD2    C113054   1.761   4.265  15.682  0.3311  0.3097 -0.8010
  887MPD2    C213055   1.767   4.386  15.619  0.6216 -0.2212  0.1539
  887MPD2    C313056   1.873   4.478  15.643  0.7995 -0.1419 -0.6496
  887MPD2    C413057   1.979   4.449  15.734 -0.1494  0.7661  0.0933
  887MPD2    C513058   1.959   4.337  15.807 -0.4994 -0.2112  0.6339
  887MPD2     H13059   1.688   4.411  15.549  2.0808  1.1574 -1.0012
  887MPD2    H113060   2.069   4.506  15.753  1.8727 -2.4384  0.1533
  887MPD2    H213061   1.853   4.153  15.835 -0.2429  1.6970  2.3065
  887MPD2    H313062   2.034   4.306  15.879  0.0654  0.6278  0.4008
  887MPD2     N13063   1.888   4.591  15.557  0.1099 -0.0809 -0.1012
  887MPD2    H513064   1.810   4.612  15.496 -0.4291 -2.1508 -0.1525
  887MPD2    N113065   1.654   4.173  15.656 -0.5684  0.1041  0.1352
  887MPD2    H713066   1.584   4.200  15.588 -2.0124  0.1279  1.6481
  888MPD2     C13067   3.782   4.101  14.931 -0.1604 -0.4484 -0.4307
  888MPD2    C113068   3.728   4.173  15.041  0.1929 -0.0049 -0.2611
  888MPD2    C213069   3.782   4.300  15.068 -0.6928  0.3922  0.2944
  888MPD2    C313070   3.888   4.349  15.002 -0.2820  0.2739 -0.0417
  888MPD2    C413071   3.951   4.276  14.910  0.1816 -0.0466  0.1762
  888MPD2    C513072   3.903   4.150  14.885 -0.0920  0.3691  0.1994
  888MPD2     H13073   3.735   4.356  15.149 -2.8499 -2.2110  0.8688
  888MPD2    H113074   4.050   4.293  14.870 -0.0727  0.1968 -0.3400
  888MPD2    H213075   3.757   3.998  14.908  1.6696 -0.9983  0.1081
  888MPD2    H313076   3.961   4.080  14.826  2.2336  2.2590  0.2717
  888MPD2     N13077   3.940   4.473  15.039  0.1184  0.3440 -0.3527
  888MPD2    H513078   3.898   4.513  15.122 -0.3859 -1.1387  0.1014
  888MPD2    N113079   3.626   4.122  15.122 -0.3524 -0.3996 -0.1354
  888MPD2    H713080   3.604   4.170  15.209 -0.8109 -1.7674  0.5140
  889MPD2     C13081   2.610   4.556  13.141  0.7692  0.0722  0.3225
  889MPD2    C113082   2.715   4.476  13.188  0.1440 -0.0854  0.6534
  889MPD2    C213083   2.736   4.489  13.327  0.0264 -0.2259  0.0235
  889MPD2    C313084   2.669   4.588  13.396 -0.0249 -0.3970  0.2636
  889MPD2    C413085   2.586   4.679  13.339 -0.4590 -0.2596 -0.2980
  889MPD2    C513086   2.552   4.660  13.205  0.5794  0.9042 -0.0177
  889MPD2     H13087   2.810   4.431  13.381 -0.0766 -0.1826  0.2145
  889MPD2    H113088   2.536   0.016  13.399  0.8821 -1.8284  2.7734
  889MPD2    H213089   2.585   4.571  13.037 -0.1710 -2.5963  0.1686
  889MPD2    H313090   2.477   4.715  13.150  1.3874  0.4943 -1.5389
  889MPD2     N13091   2.692   4.586  13.536  0.2507  0.2641  0.6089
  889MPD2    H513092   2.765   4.521  13.565  1.6304  1.3338 -0.4748
  889MPD2    N113093   2.750   4.355  13.128 -0.0998  0.5721  0.8583
  889MPD2    H713094   2.814   4.308  13.191 -0.0184 -0.6182 -0.1123
  890MPD2     C13095   2.857   1.230  15.020  0.0023  0.2533 -0.1254
  890MPD2    C113096   2.865   1.313  15.135 -0.2510  0.3613  0.3808
  890MPD2    C213097   2.853   1.250  15.257  0.0326 -0.7237 -0.4567
  890MPD2    C313098   2.853   1.108  15.265 -0.1878 -0.5242 -0.4010
  890MPD2    C413099   2.860   1.026  15.149 -0.5748 -0.2246 -0.4244
  890MPD2    C513100   2.856   1.095  15.031  0.0113 -0.2248  0.0075
  890MPD2     H13101   2.860   1.312  15.346 -2.6501  1.6316 -1.8717
  890MPD2    H113102   2.862   0.918  15.145  0.2163 -0.1605 -2.0629
  890MPD2    H213103   2.845   1.265  14.918 -0.5579  0.9783  0.1886
  890MPD2    H313104   2.868   1.037  14.940  2.6461 -1.8029  1.3794
  890MPD2     N13105   2.851   1.045  15.394  0.5173  0.3308 -0.4321
  890MPD2    H513106   2.872   1.099  15.477 -0.9850 -0.0214  0.1745
  890MPD2    N113107   2.850   1.455  15.122  0.4981  0.2812 -0.7434
  890MPD2    H713108   2.856   1.494  15.028 -0.9055  0.9564 -0.5498
  891MPD2     C13109   0.672   4.630  16.370  0.3880  0.4317 -0.1818
  891MPD2    C113110   0.566   4.592  16.450 -0.0030 -0.1794 -0.2546
  891MPD2    C213111   0.572   4.610  16.585 -0.0325  0.3615 -0.0660
  891MPD2    C313112   0.690   4.652  16.644  0.2329  0.7452  0.0474
  891MPD2    C413113   0.793   4.691  16.561 -0.6069  0.7671  0.4034
  891MPD2    C513114   0.780   4.694  16.426 -0.2581  0.6552  0.3294
  891MPD2     H13115   0.494   4.565  16.646  0.7587 -1.4960 -0.4206
  891MPD2    H113116   0.884   4.728  16.606 -0.1219 -0.8952  0.7855
  891MPD2    H213117   0.668   4.621  16.262 -2.2734 -0.3448 -0.0146
  891MPD2    H313118   0.858   0.002  16.367 -1.0440  1.7655  0.1760
  891MPD2     N13119   0.704   4.639  16.788 -0.3630  0.1622 -0.6169
  891MPD2    H513120   0.623   4.600  16.837  1.1022  0.2949  1.8938
  891MPD2    N113121   0.448   4.543  16.379 -0.1197  0.4590  0.3155
  891MPD2    H713122   0.446   4.550  16.278  1.1783 -0.6534  0.2181
  892MPD2     C13123   1.901   0.820  14.855 -0.3587  0.1123  0.6007
  892MPD2    C113124   1.819   0.714  14.895 -0.2535 -0.4530  0.1641
  892MPD2    C213125   1.860   0.583  14.882  0.6296  0.0350  0.9151
  892MPD2    C313126   1.972   0.564  14.805  0.3043  0.4415 -0.3381
  892MPD2    C413127   2.050   0.675  14.765 -0.8660  0.9570  0.2138
  892MPD2    C513128   2.015   0.799  14.793  0.0552  0.1437  0.1173
  892MPD2     H13129   1.801   0.500  14.918  1.4426 -1.6022 -1.5792
  892MPD2    H113130   2.147   0.663  14.718 -0.4068 -1.2097  1.7471
  892MPD2    H213131   1.869   0.924  14.861 -1.2408 -0.1306  0.0982
  892MPD2    H313132   2.084   0.878  14.767  1.3676 -0.4061  1.9284
  892MPD2     N13133   2.025   0.437  14.777 -0.1675  0.3105  0.1076
  892MPD2    H513134   2.121   0.426  14.747 -0.2800 -2.5268  0.7945
  892MPD2    N113135   1.680   0.726  14.930  0.6159 -0.2675  1.0124
  892MPD2    H713136   1.637   0.638  14.957  0.0234  0.3226  1.9891
  893MPD2     C13137   3.295   3.955   1.910  0.2290 -0.7141  0.1143
  893MPD2    C113138   3.210   3.941   1.801 -0.1992 -0.3076  0.5394
  893MPD2    C213139   3.087   4.001   1.806  0.3102  0.2422 -0.3299
  893MPD2    C313140   3.035   4.051   1.925  0.2054 -0.4314  0.4553
  893MPD2    C413141   3.116   4.063   2.032 -0.1612 -0.3376 -0.7909
  893MPD2    C513142   3.244   4.024   2.024 -0.1596  0.3959  0.2034
  893MPD2     H13143   3.020   3.987   1.722  0.7527  2.0414 -0.9958
  893MPD2    H113144   3.075   4.103   2.124  1.1375 -1.6043  0.3211
  893MPD2    H213145   3.398   3.921   1.913  0.1971 -0.9102 -1.0009
  893MPD2    H313146   3.307   4.041   2.110  0.4482  0.2704 -0.2157
  893MPD2     N13147   2.902   4.091   1.947  0.3593 -0.0206 -0.7397
  893MPD2    H513148   2.875   4.128   2.038  1.7140  0.3059 -0.4748
  893MPD2    N113149   3.264   3.868   1.690  0.3575  0.1253 -0.0738
  893MPD2    H713150   3.348   3.817   1.714 -0.9313 -1.8882  0.1335
  894MPD2     C13151   1.649   1.188   0.845  0.1991 -0.4141 -0.0202
  894MPD2    C113152   1.744   1.218   0.940 -0.0310  0.1881  0.6551
  894MPD2    C213153   1.835   1.317   0.905 -0.5497  0.0067 -0.0308
  894MPD2    C313154   1.828   1.387   0.787 -0.0642  0.2092  0.4466
  894MPD2    C413155   1.730   1.352   0.694 -0.8588  0.1352 -0.3765
  894MPD2    C513156   1.644   1.256   0.727 -0.4590  0.0474 -0.1284
  894MPD2     H13157   1.912   1.342   0.978  1.7143  0.4116 -2.5560
  894MPD2    H113158   1.716   1.409   0.603  0.0862 -0.1555 -0.7079
  894MPD2    H213159   1.576   1.108   0.856  0.1321 -0.2436  0.7789
  894MPD2    H313160   1.571   1.229   0.652  1.7160 -2.0144 -1.4711
  894MPD2     N13161   1.913   1.501   0.777  0.6512 -0.0502  0.5795
  894MPD2    H513162   1.971   1.530   0.855  0.7523 -0.5911  0.7016
  894MPD2    N113163   1.762   1.165   1.066  0.0391  0.2867 -0.0218
  894MPD2    H713164   1.842   1.194   1.120 -0.1143  0.2339  0.2322
  895MPD2     C13165   1.274   4.499  12.933  0.5234 -0.4430 -0.2641
  895MPD2    C113166   1.243   4.424  13.042  0.3267 -0.5574 -0.1291
  895MPD2    C213167   1.228   4.289  13.035  0.0318 -0.3932 -0.3930
  895MPD2    C313168   1.225   4.228  12.915  0.0849  0.7575 -0.6633
  895MPD2    C413169   1.276   4.303  12.808 -0.0994  0.3710  0.1952
  895MPD2    C513170   1.314   4.433  12.821 -0.0967 -0.0003 -0.6409
  895MPD2     H13171   1.191   4.238  13.124 -0.1365  0.4158 -0.0054
  895MPD2    H113172   1.283   4.266  12.706 -1.9469 -3.0461  1.3014
  895MPD2    H213173   1.291   4.605  12.948 -0.3267 -0.6287  2.1302
  895MPD2    H313174   1.349   4.483  12.732 -1.6541 -0.5362 -1.5537
  895MPD2     N13175   1.178   4.093  12.890 -0.6819  0.0271  0.2254
  895MPD2    H513176   1.183   4.057  12.795  0.8599  1.7552 -0.3541
  895MPD2    N113177   1.202   4.475  13.168  0.1623  0.1216  0.3978
  895MPD2    H713178   1.176   4.414  13.244 -0.3370 -0.4708 -0.2548
  896MPD2     C13179   3.289   1.937   1.916 -0.2336  0.1919 -0.4536
  896MPD2    C113180   3.279   1.959   1.780  0.3210  0.7167 -0.1065
  896MPD2    C213181   3.177   1.902   1.707 -0.2030 -0.0191  0.3633
  896MPD2    C313182   3.087   1.815   1.760 -0.3105  0.5731 -0.1558
  896MPD2    C413183   3.107   1.778   1.888 -0.8250  0.6229  0.2130
  896MPD2    C513184   3.196   1.845   1.966 -0.5558  0.9162  0.2067
  896MPD2     H13185   3.170   1.919   1.600 -0.2944  2.5501  0.7727
  896MPD2    H113186   3.043   1.707   1.938 -0.5444 -0.0258 -0.3392
  896MPD2    H213187   3.353   1.994   1.982 -1.2205  0.7998 -0.0207
  896MPD2    H313188   3.196   1.806   2.068 -0.9081  1.0454  0.2535
  896MPD2     N13189   2.988   1.758   1.682  1.0647 -0.3683  0.0343
  896MPD2    H513190   3.013   1.763   1.584  3.4531 -1.0698  0.6070
  896MPD2    N113191   3.372   2.054   1.737  0.4096  0.2653 -0.3042
  896MPD2    H713192   3.442   2.085   1.803  0.7270 -1.0769  0.0004
  897MPD2     C13193   4.191   3.946  10.731 -0.2773 -0.3238  0.4584
  897MPD2    C113194   4.093   4.041  10.721 -0.2903 -0.2573 -0.1044
  897MPD2    C213195   3.991   4.033  10.811  0.1166 -0.8037 -0.9740
  897MPD2    C313196   3.977   3.932  10.901 -0.0605 -0.0348  0.0216
  897MPD2    C413197   4.074   3.836  10.905 -0.3001 -0.3641 -0.0633
  897MPD2    C513198   4.177   3.846  10.822 -0.3462  0.2123  0.0991
  897MPD2     H13199   3.904   4.096  10.793  0.7786  0.2089 -0.6297
  897MPD2    H113200   4.080   3.752  10.973  0.6618  0.0892  0.4164
  897MPD2    H213201   4.283   3.954  10.674 -0.3496 -0.4104  0.3289
  897MPD2    H313202   4.248   3.765  10.812  0.0530  0.5096  0.5160
  897MPD2     N13203   3.851   3.916  10.961 -0.2562 -0.0300  0.0805
  897MPD2    H513204   3.782   3.991  10.961 -0.2141  0.0083  0.5800
  897MPD2    N113205   4.109   4.140  10.618 -0.5539  0.0395 -0.6897
  897MPD2    H713206   4.185   4.127  10.553  0.4729  0.7658  0.3487
  898MPD2     C13207   2.013   0.160   0.726 -0.3818  0.5077  0.0962
  898MPD2    C113208   2.058   0.121   0.600 -0.0968 -0.3996 -0.1018
  898MPD2    C213209   1.970   0.104   0.500  0.3449  0.0291 -0.3836
  898MPD2    C313210   1.839   0.152   0.511  0.2533 -0.0801  0.3935
  898MPD2    C413211   1.797   0.207   0.636  0.0313  0.2061  0.6488
  898MPD2    C513212   1.885   0.209   0.737  0.5560  0.3593 -0.2910
  898MPD2     H13213   2.014   0.076   0.405  0.5673  0.1899 -0.3278
  898MPD2    H113214   1.697   0.247   0.650 -0.0309 -0.4007  1.8883
  898MPD2    H213215   2.074   0.153   0.816  0.6581 -0.7551 -0.7033
  898MPD2    H313216   1.857   0.261   0.829 -1.3423 -1.5477  0.2023
  898MPD2     N13217   1.770   0.149   0.389  0.5674 -0.0851 -0.2103
  898MPD2    H513218   1.823   0.121   0.306 -2.5037 -1.8880 -1.5623
  898MPD2    N113219   2.192   0.095   0.569  0.6549  0.2007  0.3475
  898MPD2    H713220   2.214   0.075   0.472 -0.8302 -0.4554  0.1510
  899MPD2     C13221   2.146   0.242  17.197 -0.2574  0.8684  0.3152
  899MPD2    C113222   2.193   0.365  17.246 -0.7526  0.0491  0.1964
  899MPD2    C213223   2.145   0.407  17.370 -0.2029  0.9864  0.2936
  899MPD2    C313224   2.055   0.332  17.444 -0.0199 -0.4943  0.3697
  899MPD2    C413225   2.014   0.208  17.396  0.2425 -0.5673 -0.3858
  899MPD2    C513226   2.063   0.163  17.271  0.6234  0.2038  0.2498
  899MPD2     H13227   2.163   0.510  17.398 -0.4978  1.3808 -0.9563
  899MPD2    H113228   1.954   0.145  17.460  1.2495  0.6063  1.7083
  899MPD2    H213229   2.189   0.208  17.103 -2.7227  0.8745 -0.8162
  899MPD2    H313230   2.027   0.071  17.228  1.2444 -1.1125  2.5422
  899MPD2     N13231   2.008   0.379  17.566 -0.0844 -0.8811 -0.0184
  899MPD2    H513232   2.015   0.479  17.576 -0.1391 -0.8654 -0.1399
  899MPD2    N113233   2.288   0.434  17.166  0.1372 -0.0727 -0.2701
  899MPD2    H713234   2.279   0.426  17.065 -0.2038  0.9294 -0.3195
  900MPD2     C13235   0.909   1.703  12.664  0.2065 -0.0859 -0.1602
  900MPD2    C113236   0.978   1.786  12.739  0.3110 -0.3894  0.5804
  900MPD2    C213237   0.945   1.926  12.761  0.0135  0.0317 -0.4752
  900MPD2    C313238   0.838   1.969  12.685  0.3043  0.8661  0.5110
  900MPD2    C413239   0.760   1.881  12.611 -0.3767 -0.3532  0.6037
  900MPD2    C513240   0.792   1.748  12.603  0.8768  0.4704 -0.4229
  900MPD2     H13241   0.990   2.009  12.815  0.4215 -1.7069  1.8604
  900MPD2    H113242   0.677   1.916  12.550 -1.2926 -1.8358  0.9793
  900MPD2    H213243   0.940   1.601  12.647 -0.1199  0.1186 -1.9512
  900MPD2    H313244   0.741   1.685  12.531  0.0296  1.0393 -0.3189
  900MPD2     N13245   0.802   2.103  12.702 -0.4716  0.0283 -0.3384
  900MPD2    H513246   0.835   2.166  12.774  1.2258 -1.1643 -0.0764
  900MPD2    N113247   1.078   1.718  12.814  0.3077 -0.0549 -0.5244
  900MPD2    H713248   1.077   1.616  12.810 -2.1707  0.0523 -3.1068
  901MPD2     C13249   1.319   0.858  12.931  0.2914 -0.0026  0.2651
  901MPD2    C113250   1.443   0.898  12.949 -0.9174 -0.5176 -0.1225
  901MPD2    C213251   1.462   1.029  12.973 -0.0685 -0.4161  0.3399
  901MPD2    C313252   1.349   1.106  12.975  0.3684  0.2337 -0.2395
  901MPD2    C413253   1.221   1.057  12.960 -0.6611  0.2584  0.3054
  901MPD2    C513254   1.202   0.929  12.937  0.7383 -0.1850 -0.7005
  901MPD2     H13255   1.563   1.066  12.982  0.0217 -0.1710 -1.6756
  901MPD2    H113256   1.129   1.114  12.967 -1.2426 -0.2666 -2.9394
  901MPD2    H213257   1.304   0.751  12.917 -1.3414  0.5226 -2.1351
  901MPD2    H313258   1.103   0.888  12.918  0.4344  0.2909 -0.1712
  901MPD2     N13259   1.378   1.242  13.003 -0.1836 -0.1782 -0.4109
  901MPD2    H513260   1.478   1.255  13.009 -0.4198  0.4671  2.1440
  901MPD2    N113261   1.546   0.801  12.955 -0.0151 -0.1334  0.0192
  901MPD2    H713262   1.522   0.703  12.943  1.1079 -0.5045  0.7311
  902MPD2     C13263   0.617   0.162  13.113  0.2211  0.1985  0.2797
  902MPD2    C113264   0.739   0.193  13.055  0.2304  0.3100  0.3738
  902MPD2    C213265   0.828   0.091  13.034 -0.4369  0.1065  0.4144
  902MPD2    C313266   0.783   4.697  13.049  0.3678 -0.1838 -0.5202
  902MPD2    C413267   0.660   4.671  13.098 -0.3177  0.2153  0.1959
  902MPD2    C513268   0.579   0.031  13.130  0.0006  0.7021 -0.2918
  902MPD2     H13269   0.929   0.109  12.999 -0.0464  0.0261  1.4977
  902MPD2    H113270   0.628   4.569  13.111  1.7373 -0.4529  0.0007
  902MPD2    H213271   0.549   0.241  13.144 -0.3966 -0.3380  0.3114
  902MPD2    H313272   0.480   0.003  13.162 -0.0015  0.3662 -0.5891
  902MPD2     N13273   0.850   4.583  13.003  0.9977  0.3277  0.7038
  902MPD2    H513274   0.798   4.496  13.009 -0.0707  0.8426 -0.8795
  902MPD2    N113275   0.782   0.332  13.045  0.1715 -0.4477  0.0980
  902MPD2    H713276   0.881   0.356  13.041  0.0156  0.9514  4.6832
  903MPD2     C13277   0.990   4.680  12.271 -0.6938 -0.2102 -0.3949
  903MPD2    C113278   0.905   4.590  12.341 -0.7927 -0.1768 -0.2417
  903MPD2    C213279   0.774   4.585  12.306 -0.4046 -0.0523 -0.6709
  903MPD2    C313280   0.726   4.652  12.198 -0.2703  0.3697  0.7336
  903MPD2    C413281   0.808   0.003  12.128  0.0600  0.5666 -0.8525
  903MPD2    C513282   0.942   0.020  12.174  0.2330  0.0305  0.2064
  903MPD2     H13283   0.699   4.523  12.354  0.5213 -0.9752 -0.4161
  903MPD2    H113284   0.768   0.066  12.049  1.0403  0.7657 -1.1854
  903MPD2    H213285   1.092   4.693  12.306 -0.5975 -0.6167 -0.5230
  903MPD2    H313286   0.995   0.104  12.132  0.2632 -1.1627 -2.1198
  903MPD2     N13287   0.589   4.647  12.170  0.5853  0.1167  0.3629
  903MPD2    H513288   0.536   4.595  12.238  0.5894  2.3340  2.0743
  903MPD2    N113289   0.967   4.516  12.445  0.2028 -0.6310  0.2138
  903MPD2    H713290   1.059   4.545  12.476  0.0282 -0.0076  0.1338
  904MPD2     C13291   0.576   3.541  13.916  0.4111  0.6317  0.2124
  904MPD2    C113292   0.671   3.640  13.931 -0.6101  0.0650  0.6852
  904MPD2    C213293   0.760   3.629  14.037 -0.3234 -0.7973 -0.0586
  904MPD2    C313294   0.758   3.520  14.123  0.4951 -0.5469  0.2756
  904MPD2    C413295   0.667   3.418  14.096 -0.4747 -0.0046  0.2532
  904MPD2    C513296   0.572   3.432  14.003 -0.3939  0.3198  0.0215
  904MPD2     H13297   0.847   3.692  14.049 -1.2437  0.4759 -0.0512
  904MPD2    H113298   0.662   3.331  14.160 -0.8940  1.1767  1.8060
  904MPD2    H213299   0.495   3.549  13.845  0.5493 -0.1767 -0.0309
  904MPD2    H313300   0.495   3.355  13.994  2.1404 -2.0960 -1.0335
  904MPD2     N13301   0.846   3.523  14.234  0.5663 -0.6174  0.1559
  904MPD2    H513302   0.904   3.606  14.234 -1.3139  0.7116 -0.2760
  904MPD2    N113303   0.691   3.745  13.840  0.4641 -0.8183 -0.1213
  904MPD2    H713304   0.776   3.797  13.857  0.9667 -2.1683  1.4306
  905MPD2     C13305   0.411   3.787  13.113 -0.3100 -1.1023 -0.3512
  905MPD2    C113306   0.529   3.851  13.126 -0.1208 -0.5503  0.5567
  905MPD2    C213307   0.615   3.854  13.015  0.3154  0.1537 -0.2363
  905MPD2    C313308   0.578   3.791  12.895  0.3354  0.4629  0.1007
  905MPD2    C413309   0.453   3.736  12.883 -0.5693 -0.4068  0.0959
  905MPD2    C513310   0.369   3.726  13.000  0.6998 -0.3051  0.6628
  905MPD2     H13311   0.712   3.900  13.024 -0.1906  0.9533  1.1832
  905MPD2    H113312   0.420   3.689  12.791  0.0435 -0.2484 -0.2067
  905MPD2    H213313   0.341   3.783  13.196 -0.1356 -1.4999 -0.2202
  905MPD2    H313314   0.275   3.671  12.997  0.6712 -0.1331 -1.9527
  905MPD2     N13315   0.646   3.795  12.774  0.2149 -0.4753 -0.0522
  905MPD2    H513316   0.582   3.773  12.698 -1.6580 -1.1661  1.7181
  905MPD2    N113317   0.566   3.899  13.250  0.2387  0.1516 -0.1046
  905MPD2    H713318   0.495   3.887  13.321  2.3544  0.5121  2.0918
  906MPD2     C13319   2.335   4.534  11.311 -0.8500 -0.1763 -0.6107
  906MPD2    C113320   2.331   4.401  11.274  0.1567  0.8221  0.3056
  906MPD2    C213321   2.274   4.307  11.359 -0.3085 -0.9497 -0.0524
  906MPD2    C313322   2.215   4.348  11.478 -0.1422  0.5442 -0.1953
  906MPD2    C413323   2.207   4.478  11.506  0.2249 -0.1213 -0.9334
  906MPD2    C513324   2.276   4.569  11.425 -0.2185 -0.2864 -0.8097
  906MPD2     H13325   2.280   4.203  11.330 -2.5883 -0.6897 -1.4973
  906MPD2    H113326   2.154   4.520  11.590  1.0651  0.0430 -0.4829
  906MPD2    H213327   2.367   4.616  11.247  4.4887  0.0933  2.3361
  906MPD2    H313328   2.266   4.675  11.443  0.6434 -0.5109  0.9631
  906MPD2     N13329   2.153   4.261  11.565  0.7020 -0.0028 -0.2022
  906MPD2    H513330   2.083   4.307  11.621  0.2339 -1.0758  0.1006
  906MPD2    N113331   2.383   4.352  11.154 -0.1122  0.5181  0.7912
  906MPD2    H713332   2.354   4.258  11.127 -1.9576  1.2802  0.1054
  907MPD2     C13333   1.332   3.333  15.381 -0.7365 -0.1335  0.5907
  907MPD2    C113334   1.374   3.205  15.404  0.4546  0.1241  0.1892
  907MPD2    C213335   1.467   3.172  15.504  0.6445 -0.7065 -0.0255
  907MPD2    C313336   1.522   3.272  15.582 -0.3425 -0.2190 -0.0325
  907MPD2    C413337   1.478   3.404  15.554 -0.4683  0.1972 -0.2271
  907MPD2    C513338   1.389   3.428  15.455 -0.2332 -0.5948 -0.2988
  907MPD2     H13339   1.499   3.069  15.505 -2.1541 -1.5988 -1.8619
  907MPD2    H113340   1.516   3.493  15.604 -0.3384 -0.3083  0.5730
  907MPD2    H213341   1.266   3.354  15.297 -2.1532 -2.0432  1.2219
  907MPD2    H313342   1.357   3.530  15.435  0.3293 -1.1005 -3.8308
  907MPD2     N13343   1.609   3.233  15.687  0.5817  0.5805 -0.2311
  907MPD2    H513344   1.635   3.135  15.695  0.1456  0.6302  1.7987
  907MPD2    N113345   1.327   3.098  15.325  0.0082  0.0065 -0.1392
  907MPD2    H713346   1.378   3.011  15.338  1.1565  0.5718 -0.8342
  908MPD2     C13347   3.743   3.865   9.876  0.3684 -0.2132 -0.3641
  908MPD2    C113348   3.877   3.865   9.896  0.8337  0.5595 -1.0636
  908MPD2    C213349   3.927   3.962   9.981  0.0604  0.3471  0.0286
  908MPD2    C313350   3.852   4.060  10.034 -0.3312 -0.4974  0.1782
  908MPD2    C413351   3.720   4.066  10.008  0.0159  0.6472  0.2418
  908MPD2    C513352   3.666   3.965   9.936 -0.0820  0.8553  0.0746
  908MPD2     H13353   4.033   3.961  10.000  0.0373  0.8150  0.1882
  908MPD2    H113354   3.641   4.129  10.046  1.3346  1.2523  1.9615
  908MPD2    H213355   3.692   3.793   9.813 -2.0473  0.5304  0.7437
  908MPD2    H313356   3.559   3.956   9.927 -0.2337  0.6152  2.0432
  908MPD2     N13357   3.916   4.146  10.132 -0.3379  0.3755  0.2867
  908MPD2    H513358   4.012   4.123  10.153 -0.3877 -0.6700 -0.6891
  908MPD2    N113359   3.956   3.789   9.813  0.2808  0.2041  0.1241
  908MPD2    H713360   3.905   3.730   9.747  1.9860  1.2101 -2.0618
  909MPD2     C13361   4.198   1.679  11.850 -0.4747 -0.1287  0.0081
  909MPD2    C113362   4.188   1.811  11.822 -0.1640  0.1082 -0.1716
  909MPD2    C213363   4.120   1.893  11.903 -0.2627  0.3303 -1.0685
  909MPD2    C313364   4.058   1.845  12.013  0.2995 -0.0202 -0.5195
  909MPD2    C413365   4.074   1.711  12.050 -0.9353 -0.2100  0.4799
  909MPD2    C513366   4.136   1.628  11.960 -0.0978 -0.0216 -0.0312
  909MPD2     H13367   4.098   1.996  11.875 -2.3931  0.0637 -0.3854
  909MPD2    H113368   4.037   1.661  12.139 -0.2195  0.6330  1.2556
  909MPD2    H213369   4.257   1.614  11.787 -1.5484 -0.6501 -0.4471
  909MPD2    H313370   4.156   1.524  11.983 -0.0175  0.4960  2.2216
  909MPD2     N13371   3.985   1.939  12.088 -0.0226  0.0014 -0.6069
  909MPD2    H513372   3.965   2.032  12.051 -1.1188  0.0360  0.0814
  909MPD2    N113373   4.244   1.866  11.704  0.3258 -0.4745  0.9443
  909MPD2    H713374   4.231   1.965  11.686  1.0380 -0.5318  0.1084
  910MPD2     C13375   0.678   3.608  15.917 -0.3414 -0.3565 -0.0469
  910MPD2    C113376   0.795   3.600  15.841 -0.1587  0.4886  0.0840
  910MPD2    C213377   0.799   3.665  15.713 -0.1362 -0.6134 -0.1096
  910MPD2    C313378   0.679   3.717  15.656 -0.4028  0.0151 -0.7775
  910MPD2    C413379   0.559   3.685  15.726 -0.4664  0.7325 -0.5995
  910MPD2    C513380   0.564   3.647  15.858  0.0076 -0.1306 -0.0368
  910MPD2     H13381   0.891   3.676  15.659 -0.2771  0.3671 -0.1380
  910MPD2    H113382   0.457   3.703  15.693 -0.3199 -0.4966 -1.7264
  910MPD2    H213383   0.675   3.567  16.018  0.9244 -1.5453 -0.4821
  910MPD2    H313384   0.472   3.634  15.914 -0.3378  1.2244 -0.2939
  910MPD2     N13385   0.683   3.750  15.519  0.1100  0.7974  0.4230
  910MPD2    H513386   0.769   3.726  15.472  0.2003 -0.5041  1.2533
  910MPD2    N113387   0.916   3.559  15.901  0.1030 -0.2694 -0.4078
  910MPD2    H713388   1.000   3.577  15.846  1.3697  0.3825  1.7631
  911MPD2     C13389   3.582   3.655  16.095  0.3306 -0.5842  0.0573
  911MPD2    C113390   3.670   3.734  16.171  0.1102 -0.1364  0.0836
  911MPD2    C213391   3.614   3.834  16.246 -0.1938 -0.7343  0.0296
  911MPD2    C313392   3.477   3.860  16.260 -0.8335  0.9358  1.0190
  911MPD2    C413393   3.397   3.776  16.190  1.0045  0.4586  0.6420
  911MPD2    C513394   3.451   3.673  16.112  0.2412 -0.1764  0.2764
  911MPD2     H13395   3.681   3.894  16.306 -1.3591  0.6329 -0.0130
  911MPD2    H113396   3.289   3.778  16.203  0.7243 -1.2098 -1.3655
  911MPD2    H213397   3.615   3.570  16.038 -3.9465 -0.3209 -2.7774
  911MPD2    H313398   3.387   3.619  16.043 -0.9870  0.4258  0.9392
  911MPD2     N13399   3.417   3.962  16.339  0.2426  0.0413  0.1259
  911MPD2    H513400   3.316   3.972  16.348  0.2609  0.5779 -0.2836
  911MPD2    N113401   3.814   3.713  16.167 -0.7267  0.3000 -0.2679
  911MPD2    H713402   3.840   3.641  16.100  1.6764 -1.4950  2.5739
  912MPD2     C13403   3.020   4.066  15.982  0.2423  0.5240 -0.3726
  912MPD2    C113404   3.026   4.075  16.121 -0.5815 -0.5347 -0.5552
  912MPD2    C213405   3.040   3.953  16.193  0.3998 -0.0240  0.5744
  912MPD2    C313406   3.032   3.831  16.138 -0.6150 -0.5782  0.2109
  912MPD2    C413407   3.023   3.826  16.002  0.0472 -0.6675 -0.3750
  912MPD2    C513408   3.027   3.939  15.926 -0.7461  0.1847 -0.1169
  912MPD2     H13409   3.073   3.954  16.296  0.6445 -1.9421  0.5035
  912MPD2    H113410   3.040   3.729  15.955 -1.2723  0.1716 -2.5553
  912MPD2    H213411   3.022   4.151  15.915  3.5255  1.0777  0.4669
  912MPD2    H313412   3.036   3.933  15.819  1.5440 -2.2033  0.2288
  912MPD2     N13413   3.052   3.720  16.227  0.0716 -0.0263  0.0483
  912MPD2    H513414   3.076   3.732  16.325  0.5455 -2.2508  0.2215
  912MPD2    N113415   3.045   4.197  16.185  0.4894  0.0989  0.0633
  912MPD2    H713416   3.073   4.278  16.129 -1.2585 -0.6102 -1.8059
  913MPD2     C13417   3.056   1.260  11.646  0.1618  0.5202 -0.1581
  913MPD2    C113418   3.187   1.271  11.601 -0.1780 -0.1482 -0.3224
  913MPD2    C213419   3.213   1.289  11.466 -0.0950  0.0412  0.3282
  913MPD2    C313420   3.108   1.300  11.371 -0.2204 -0.7091  0.0571
  913MPD2    C413421   2.981   1.277  11.416  0.8117  0.7749  0.1667
  913MPD2    C513422   2.955   1.261  11.547 -0.1484 -0.1162  0.0485
  913MPD2     H13423   3.316   1.309  11.436 -0.1154 -0.0908  0.1716
  913MPD2    H113424   2.895   1.261  11.352 -0.1344  0.8827  1.4138
  913MPD2    H213425   3.042   1.240  11.751 -1.4557  0.6365 -0.3458
  913MPD2    H313426   2.852   1.248  11.577 -0.4090  0.9193 -0.3821
  913MPD2     N13427   3.136   1.310  11.233 -0.7757  0.1482 -0.1807
  913MPD2    H513428   3.063   1.294  11.165 -0.5275 -3.0518  0.3135
  913MPD2    N113429   3.280   1.273  11.709 -0.2668 -0.0124 -0.2870
  913MPD2    H713430   3.240   1.252  11.801 -0.1628 -1.2486 -0.5250
  914MPD2     C13431   1.306   0.814  12.475  0.0273  0.1795 -0.0778
  914MPD2    C113432   1.381   0.896  12.552  0.1998 -0.3743  0.3382
  914MPD2    C213433   1.498   0.842  12.604  0.7419 -0.0205  0.0667
  914MPD2    C313434   1.534   0.707  12.602 -0.4521  0.0470  0.3884
  914MPD2    C413435   1.448   0.625  12.531 -0.5002  0.3943 -0.3442
  914MPD2    C513436   1.340   0.684  12.461 -0.2618  0.5301 -0.0130
  914MPD2     H13437   1.562   0.900  12.670 -0.8861 -0.4536  2.0197
  914MPD2    H113438   1.461   0.519  12.516 -1.2319  0.3125 -0.3997
  914MPD2    H213439   1.222   0.858  12.422  0.2149  1.7897  0.9546
  914MPD2    H313440   1.280   0.620  12.397 -2.1038  2.2802 -0.0334
  914MPD2     N13441   1.652   0.674  12.670 -0.4771 -0.7091  0.3723
  914MPD2    H513442   1.696   0.752  12.718  0.9584 -1.8473  0.9246
  914MPD2    N113443   1.358   1.033  12.573  0.6472  0.0474  0.4355
  914MPD2    H713444   1.421   1.080  12.636  1.5156 -2.0337  1.1174
  915MPD2     C13445   0.471   0.776  15.769  0.6253  0.3764  0.2216
  915MPD2    C113446   0.349   0.833  15.747 -0.3668  0.5288  0.4558
  915MPD2    C213447   0.260   0.851  15.847  1.2253  0.2390 -0.2128
  915MPD2    C313448   0.295   0.831  15.981 -0.5477  0.0886 -0.4942
  915MPD2    C413449   0.425   0.796  16.001  0.0022 -0.4473 -0.4359
  915MPD2    C513450   0.507   0.763  15.894  0.4016  0.5819  0.8096
  915MPD2     H13451   0.161   0.889  15.821  1.0426  1.0346  1.6449
  915MPD2    H113452   0.459   0.787  16.103  0.7202  2.0655 -0.4373
  915MPD2    H213453   0.543   0.749  15.692  1.2353  1.3531  0.4466
  915MPD2    H313454   0.612   0.747  15.917  0.1007 -0.3017  1.5422
  915MPD2     N13455   0.204   0.859  16.083  0.3051  0.2244 -0.4792
  915MPD2    H513456   0.110   0.882  16.052 -0.6893  0.4525  2.7471
  915MPD2    N113457   0.307   0.839  15.612  0.5850  0.4947  0.4129
  915MPD2    H713458   0.358   0.789  15.539  1.5052  1.1276  0.6198
  916MPD2     C13459   2.561   3.924  16.022  0.7693  0.2680 -0.0782
  916MPD2    C113460   2.655   3.854  16.094 -0.2818 -0.4272  0.2604
  916MPD2    C213461   2.731   3.751  16.033 -0.1973  0.1591 -0.1689
  916MPD2    C313462   2.712   3.726  15.897 -0.0174 -0.2589 -0.5932
  916MPD2    C413463   2.616   3.796  15.831 -0.2990  0.2604 -0.2429
  916MPD2    C513464   2.534   3.883  15.895  0.0620 -0.2706 -0.4409
  916MPD2     H13465   2.804   3.696  16.091  1.0685  1.8630 -0.1282
  916MPD2    H113466   2.581   3.752  15.739  0.2064  2.4879 -1.4872
  916MPD2    H213467   2.488   3.983  16.074  1.8615  0.3804  1.3396
  916MPD2    H313468   2.445   3.919  15.844  1.4156  0.1756 -2.4700
  916MPD2     N13469   2.793   3.632  15.829 -0.9885 -0.1879  0.1100
  916MPD2    H513470   2.858   3.580  15.888  1.2127  1.1920 -1.0902
  916MPD2    N113471   2.655   3.892  16.229 -0.0394  0.2888  0.3979
  916MPD2    H713472   2.609   3.978  16.256  1.8013  1.6364 -0.7245
  917MPD2     C13473   2.739   1.909  12.051 -0.1105  0.1649 -0.3148
  917MPD2    C113474   2.598   1.911  12.044 -0.1980 -0.0364 -0.5361
  917MPD2    C213475   2.530   2.012  11.981  0.6351  0.1941  0.1259
  917MPD2    C313476   2.606   2.117  11.924 -0.1791  0.6831 -0.0965
  917MPD2    C413477   2.744   2.115  11.928 -0.6820  0.0001 -0.9979
  917MPD2    C513478   2.809   2.007  11.983  0.0727 -0.3471 -0.1557
  917MPD2     H13479   2.422   2.015  11.991  0.4919 -2.2536 -0.4897
  917MPD2    H113480   2.808   2.185  11.875 -0.8675  1.2570  0.4380
  917MPD2    H213481   2.795   1.827  12.094 -4.1276 -1.8774  0.9483
  917MPD2    H313482   2.915   1.996  11.965 -0.0999 -1.2272 -0.6222
  917MPD2     N13483   2.544   2.230  11.885  0.1919  0.4283 -0.1599
  917MPD2    H513484   2.605   2.303  11.850 -1.3930  1.4724 -0.7695
  917MPD2    N113485   2.537   1.810  12.118  0.3433  0.5275  0.1690
  917MPD2    H713486   2.592   1.742  12.169  0.2816  0.2278 -0.1578
  918MPD2     C13487   3.031   1.558  12.677 -0.1322 -0.0416  0.0434
  918MPD2    C113488   3.025   1.641  12.572 -0.4536 -0.4719  0.0155
  918MPD2    C213489   2.912   1.641  12.496 -0.6393 -0.3407 -0.6684
  918MPD2    C313490   2.797   1.567  12.539  0.8283 -0.2939 -0.0674
  918MPD2    C413491   2.808   1.490  12.655  0.0549  0.0088 -0.4272
  918MPD2    C513492   2.927   1.480  12.721 -0.6443 -0.4586  0.2599
  918MPD2     H13493   2.896   1.705  12.410  1.4876  0.3361 -0.5421
  918MPD2    H113494   2.721   1.438  12.693  0.8977 -0.8947  0.2824
  918MPD2    H213495   3.128   1.529  12.716 -0.0694  0.6552  0.3978
  918MPD2    H313496   2.941   1.408  12.802  0.5652 -0.9279 -0.3610
  918MPD2     N13497   2.675   1.581  12.457  0.1856  0.8684  0.2794
  918MPD2    H513498   2.684   1.645  12.378 -1.4046  0.6853 -0.0422
  918MPD2    N113499   3.133   1.720  12.524 -0.4271 -0.4015  0.1155
  918MPD2    H713500   3.121   1.772  12.437  0.9392 -1.9130 -0.9503
  919MPD2     C13501   3.644   0.724  11.962 -0.2184  0.3612  0.0429
  919MPD2    C113502   3.532   0.645  11.949  0.5034 -0.2161  0.6782
  919MPD2    C213503   3.435   0.679  11.852 -0.4493  0.8569  0.1086
  919MPD2    C313504   3.463   0.779  11.757 -0.0512  0.3507  0.7656
  919MPD2    C413505   3.581   0.846  11.757  0.2103  0.0418 -0.1274
  919MPD2    C513506   3.665   0.821  11.864 -0.0684 -0.2925 -1.2198
  919MPD2     H13507   3.343   0.622  11.855  0.4372 -0.5570  0.5331
  919MPD2    H113508   3.614   0.920  11.686 -1.3299  1.0348  0.2082
  919MPD2    H213509   3.722   0.722  12.036  0.8535 -2.4274 -1.1800
  919MPD2    H313510   3.742   0.895  11.882  0.1082 -1.0858  1.3034
  919MPD2     N13511   3.374   0.812  11.654 -0.6484  0.3288 -0.7347
  919MPD2    H513512   3.409   0.872  11.580 -1.4413  1.6756 -0.0181
  919MPD2    N113513   3.500   0.544  12.044 -0.2974 -0.8495  0.2576
  919MPD2    H713514   3.407   0.504  12.036 -0.9411  0.6544  0.1719
  920MPD2     C13515   2.381   1.174  11.339  0.1428 -0.4148 -0.9540
  920MPD2    C113516   2.451   1.139  11.225 -0.3401  0.3544 -0.4424
  920MPD2    C213517   2.562   1.059  11.238 -0.3941  0.1963  0.6235
  920MPD2    C313518   2.614   1.022  11.361 -0.0182 -0.7174 -0.0730
  920MPD2    C413519   2.549   1.070  11.470 -0.0807 -0.6039  0.3943
  920MPD2    C513520   2.432   1.136  11.461 -0.1673 -1.0498 -0.3281
  920MPD2     H13521   2.612   1.044  11.143 -0.0456 -1.9652  1.1499
  920MPD2    H113522   2.587   1.057  11.571  0.4588 -0.4187  0.2152
  920MPD2    H213523   2.294   1.237  11.331 -0.3098 -0.8212  0.7300
  920MPD2    H313524   2.376   1.182  11.542  0.3214 -0.1862 -0.4779
  920MPD2     N13525   2.736   0.956  11.371 -0.7816 -0.2680  0.0926
  920MPD2    H513526   2.778   0.921  11.285 -1.0429 -0.0289 -0.1353
  920MPD2    N113527   2.404   1.185  11.100  0.1708  0.3316  0.3302
  920MPD2    H713528   2.306   1.214  11.094  0.5540  1.6764  0.4936
  921MPD2     C13529   4.625   4.071  16.644 -0.1145  0.1228 -0.1027
  921MPD2    C113530   4.636   4.059  16.511 -0.4698 -0.2128  0.0841
  921MPD2    C213531   4.542   3.995  16.441 -0.4119  0.1080 -0.1544
  921MPD2    C313532   4.431   3.931  16.504 -0.5947  0.1227  0.0581
  921MPD2    C413533   4.418   3.947  16.641 -0.3962  0.1224  0.1598
  921MPD2    C513534   4.513   4.019  16.708  0.0568 -0.1683 -0.2067
  921MPD2     H13535   4.552   3.985  16.334  0.6483 -0.0684 -0.0323
  921MPD2    H113536   4.337   3.908  16.702 -0.2524  2.2411  1.6916
  921MPD2    H213537   4.707   4.111  16.702 -0.3553 -2.7615  2.1768
  921MPD2    H313538   4.508   4.033  16.816  0.0560 -1.8722  0.0128
  921MPD2     N13539   4.335   3.855  16.431 -0.0784  0.0703 -0.1928
  921MPD2    H513540   4.254   3.820  16.481 -0.7909 -0.9901 -2.0843
  921MPD2    N113541   0.006   4.129  16.450  0.4549 -0.4375  0.7138
  921MPD2    H713542   0.068   4.174  16.517 -0.2629 -0.6558  1.5335
  922MPD2     C13543   0.750   2.153  17.131  0.4857 -0.2748  0.0600
  922MPD2    C113544   0.697   2.260  17.202 -0.0550  0.5390 -0.0775
  922MPD2    C213545   0.605   2.230  17.303 -0.4228  0.3254  0.5891
  922MPD2    C313546   0.561   2.097  17.334 -0.7494  0.4500  0.5869
  922MPD2    C413547   0.626   1.995  17.267  0.4412  0.2091  0.2820
  922MPD2    C513548   0.717   2.027  17.175 -0.3427 -0.3787  0.0987
  922MPD2     H13549   0.560   2.315  17.352 -1.0569  0.9332 -1.0356
  922MPD2    H113550   0.614   1.889  17.290  3.0695 -0.6902 -2.3271
  922MPD2    H213551   0.824   2.159  17.052 -0.3601 -1.7956 -0.8231
  922MPD2    H313552   0.775   1.946  17.132 -1.2741 -0.2735 -1.3836
  922MPD2     N13553   0.452   2.084  17.423  0.4839 -0.8481  0.1218
  922MPD2    H513554   0.413   2.171  17.457  0.3032 -0.7533 -0.3321
  922MPD2    N113555   0.738   2.394  17.175  0.1943  0.1802 -0.0130
  922MPD2    H713556   0.696   2.461  17.238  0.9276 -0.3658  1.0607
  923MPD2     C13557   1.676   4.328   9.435  0.0259  0.5449  0.2321
  923MPD2    C113558   1.752   4.444   9.444 -0.5297  0.5068  0.5353
  923MPD2    C213559   1.876   4.443   9.509  0.3730  0.4375 -0.0067
  923MPD2    C313560   1.913   4.328   9.575  0.3007 -0.0495 -0.0173
  923MPD2    C413561   1.839   4.217   9.551 -0.4118  0.0427  0.6905
  923MPD2    C513562   1.723   4.214   9.482 -0.0889 -0.1913 -0.1327
  923MPD2     H13563   1.926   4.538   9.519 -1.0305  1.0957  0.7037
  923MPD2    H113564   1.872   4.119   9.585  0.1085 -0.7526 -2.1622
  923MPD2    H213565   1.585   4.336   9.376  1.1323 -1.4198 -1.7411
  923MPD2    H313566   1.673   4.120   9.461  0.0354  0.0268 -1.4294
  923MPD2     N13567   2.016   4.321   9.674 -0.3744  0.5049 -0.5447
  923MPD2    H513568   2.036   4.234   9.722 -2.0990  0.5638  0.2775
  923MPD2    N113569   1.688   4.558   9.390  0.1663  0.0209 -0.2904
  923MPD2    H713570   1.590   4.543   9.365 -1.3397  1.2718  4.8671
  924MPD2     C13571   1.890   2.474  15.770 -0.4345 -0.0381  1.1086
  924MPD2    C113572   1.862   2.536  15.887 -1.0895 -0.1031 -0.2588
  924MPD2    C213573   1.888   2.672  15.914  0.7759 -0.1235  0.0651
  924MPD2    C313574   1.929   2.753  15.816  0.4680  0.6986  0.7923
  924MPD2    C413575   1.953   2.696  15.693  0.0315 -0.7356  0.0750
  924MPD2    C513576   1.938   2.559  15.673 -0.0800  0.3272 -0.1336
  924MPD2     H13577   1.874   2.716  16.012  0.7096 -0.1364  0.0609
  924MPD2    H113578   1.995   2.751  15.610  1.3776 -2.5932 -0.4887
  924MPD2    H213579   1.876   2.369  15.747  1.9920 -0.4826  1.7238
  924MPD2    H313580   1.976   2.517  15.580  1.0341  2.2917 -0.5634
  924MPD2     N13581   1.930   2.897  15.837  0.0745  0.4439  0.3857
  924MPD2    H513582   1.932   2.950  15.750  0.2179  0.1359  0.2039
  924MPD2    N113583   1.800   2.452  15.986  0.1645 -0.3442 -0.4067
  924MPD2    H713584   1.763   2.361  15.958 -0.9388 -0.1177  0.3314
  925MPD2     C13585   0.803   0.379  14.953  0.2298  0.5786  0.4617
  925MPD2    C113586   0.719   0.292  14.889 -0.7640 -0.0633  0.1852
  925MPD2    C213587   0.593   0.266  14.942 -0.4767 -0.3683 -0.4273
  925MPD2    C313588   0.557   0.320  15.064 -0.2254  0.0676  0.0842
  925MPD2    C413589   0.640   0.410  15.127 -0.1202  0.0522  0.3468
  925MPD2    C513590   0.756   0.450  15.063 -0.0160  0.1970  0.0948
  925MPD2     H13591   0.529   0.195  14.892 -1.1028 -0.6592  0.7725
  925MPD2    H113592   0.607   0.460  15.217  1.7108  2.8983 -0.5608
  925MPD2    H213593   0.902   0.401  14.915 -0.3188 -0.0545 -1.3087
  925MPD2    H313594   0.813   0.531  15.108 -2.1881  2.0069 -0.4251
  925MPD2     N13595   0.436   0.272  15.124  0.0740 -0.2436 -0.6425
  925MPD2    H513596   0.387   0.194  15.080 -0.1000  0.0232 -0.9156
  925MPD2    N113597   0.753   0.238  14.764  0.4748 -0.1615  0.9356
  925MPD2    H713598   0.687   0.183  14.710  1.2056 -0.3610  0.2467
  926MPD2     C13599   3.788   3.414  13.513 -0.0426 -0.6342  0.5139
  926MPD2    C113600   3.658   3.466  13.526 -0.1651 -0.9406  0.2276
  926MPD2    C213601   3.597   3.529  13.416 -0.1473 -0.6833 -0.2823
  926MPD2    C313602   3.672   3.539  13.296  0.3021  0.9503 -0.1958
  926MPD2    C413603   3.803   3.491  13.287  0.4584  0.7781 -0.3740
  926MPD2    C513604   3.856   3.437  13.396  0.2690  0.1468  0.3930
  926MPD2     H13605   3.497   3.571  13.423  0.9011  2.0700 -1.6624
  926MPD2    H113606   3.860   3.506  13.197  0.7800 -0.7999 -0.4232
  926MPD2    H213607   3.851   3.387  13.596 -1.9942 -3.1309  1.1796
  926MPD2    H313608   3.962   3.414  13.387 -0.2308 -2.5606  1.3777
  926MPD2     N13609   3.619   3.601  13.181 -0.1343 -0.1291  0.4733
  926MPD2    H513610   3.678   3.603  13.098 -1.5500  0.8488 -0.5112
  926MPD2    N113611   3.590   3.485  13.646  0.1829 -0.1747  0.3980
  926MPD2    H713612   3.496   3.523  13.635 -0.0792 -1.0444 -0.2990
  927MPD2     C13613   4.560   0.637  17.442  0.2671  0.0189  0.0802
  927MPD2    C113614   4.456   0.735  17.454  0.5039  0.0361  0.8932
  927MPD2    C213615   4.456   0.846  17.366  0.2590 -0.3195 -0.0430
  927MPD2    C313616   4.550   0.841  17.261 -0.6917 -0.0321  0.3898
  927MPD2    C413617   4.638   0.733  17.245 -0.6342 -0.6487 -0.3768
  927MPD2    C513618   4.652   0.634  17.342 -0.3337 -0.3823  0.1014
  927MPD2     H13619   4.380   0.921  17.382 -0.3825 -0.5964 -1.7381
  927MPD2    H113620   4.689   0.716  17.151 -1.1514 -1.7269 -0.4547
  927MPD2    H213621   4.567   0.547  17.502  1.4706 -0.9235 -1.4877
  927MPD2    H313622   4.702   0.538  17.330 -0.3914 -0.1911 -1.7382
  927MPD2     N13623   4.550   0.950  17.168 -0.0202  0.4167  0.8770
  927MPD2    H513624   4.481   1.023  17.183 -1.6554 -0.4300 -2.5006
  927MPD2    N113625   4.356   0.714  17.558  0.0211 -0.3953 -0.1478
  927MPD2    H713626   4.369   0.633  17.618 -1.4827  0.0058  0.7294
  928MPD2     C13627   1.818   4.271   1.129  0.0739  1.0244 -0.4800
  928MPD2    C113628   1.959   4.277   1.147  0.2984 -0.0713  0.1323
  928MPD2    C213629   2.038   4.233   1.042  0.0413 -0.6090  0.1188
  928MPD2    C313630   1.982   4.185   0.919  0.0325  0.5871 -0.8209
  928MPD2    C413631   1.845   4.180   0.909 -0.1127 -0.2025  0.9478
  928MPD2    C513632   1.764   4.227   1.011 -0.4368 -0.4462 -0.3067
  928MPD2     H13633   2.145   4.227   1.054  0.1869 -0.8767 -1.2817
  928MPD2    H113634   1.801   4.138   0.820 -2.3327 -2.3993  3.1170
  928MPD2    H213635   1.749   4.310   1.203  3.0912  1.0229  2.3700
  928MPD2    H313636   1.658   4.207   1.001 -0.0660 -1.4925 -2.2898
  928MPD2     N13637   2.054   4.132   0.812 -0.4026  0.1524 -0.8575
  928MPD2    H513638   2.008   4.103   0.727 -0.9313  1.4514 -1.0132
  928MPD2    N113639   2.013   4.326   1.276 -0.3192 -0.1817 -0.4324
  928MPD2    H713640   1.944   4.333   1.350  1.1168  2.4984  0.6439
  929MPD2     C13641   1.967   4.456  10.352  0.3028  0.4828 -0.2264
  929MPD2    C113642   1.874   4.389  10.283 -0.2513  0.6247 -0.3965
  929MPD2    C213643   1.825   4.436  10.163  0.8602 -0.2013  0.9143
  929MPD2    C313644   1.880   4.553  10.111  0.2446  0.2095  0.2036
  929MPD2    C413645   1.974   4.625  10.183  0.2447  0.2314 -0.2429
  929MPD2    C513646   2.020   4.577  10.302 -0.0027  0.5504 -0.0466
  929MPD2     H13647   1.727   4.397  10.136  0.8706 -0.2991  1.0183
  929MPD2    H113648   2.026   4.711  10.141  0.6038  1.0351  1.8429
  929MPD2    H213649   2.010   4.422  10.445  0.4759  0.3458 -0.3558
  929MPD2    H313650   2.097   4.628  10.358  0.1291  0.1491  0.1380
  929MPD2     N13651   1.828   4.601   9.987 -0.0832  0.1160 -0.8590
  929MPD2    H513652   1.773   4.527   9.944 -1.9247  1.1419 -0.2792
  929MPD2    N113653   1.824   4.272  10.343 -0.4738 -0.3038  0.1065
  929MPD2    H713654   1.849   4.261  10.441  1.4692 -0.1399 -0.3769
  930MPD2     C13655   3.871   1.673  14.277 -0.2723  0.2190  0.3736
  930MPD2    C113656   3.881   1.632  14.145 -0.0376  0.1592 -0.8251
  930MPD2    C213657   3.781   1.557  14.089  0.0965 -0.1855 -0.9745
  930MPD2    C313658   3.679   1.502  14.166  0.4875 -0.6256 -0.4257
  930MPD2    C413659   3.683   1.523  14.303 -0.1005 -0.0911  0.0144
  930MPD2    C513660   3.777   1.611  14.353 -0.4391  0.1808 -0.0626
  930MPD2     H13661   3.786   1.510  13.991 -0.5552 -1.2159 -0.5126
  930MPD2    H113662   3.612   1.480  14.373 -0.1491 -2.2461 -1.3467
  930MPD2    H213663   3.939   1.748  14.316 -0.5663  0.6890 -0.0138
  930MPD2    H313664   3.763   1.640  14.456  1.9428  0.2922  0.2306
  930MPD2     N13665   3.587   1.411  14.108  0.7431 -0.0797 -1.0974
  930MPD2    H513666   3.553   1.334  14.164 -1.8258  0.9319 -1.2674
  930MPD2    N113667   3.993   1.674  14.064  0.8948 -0.3076 -0.2436
  930MPD2    H713668   4.050   1.747  14.106  0.9727 -0.3282 -0.3133
  931MPD2     C13669   4.513   0.339   0.237 -0.6219  0.1947 -0.0008
  931MPD2    C113670   4.442   0.435   0.300 -0.6261 -0.3657 -0.3495
  931MPD2    C213671   4.446   0.439   0.443  0.3925 -0.0835  0.5284
  931MPD2    C313672   4.524   0.346   0.517  0.0238 -0.1724 -0.2917
  931MPD2    C413673   4.607   0.261   0.443 -0.0149  0.5348 -0.4200
  931MPD2    C513674   4.600   0.263   0.309 -0.3216 -0.4155  0.4572
  931MPD2     H13675   4.420   0.531   0.493 -1.1344  0.2090 -0.7935
  931MPD2    H113676   4.676   0.190   0.488  3.3888  3.1447 -1.4980
  931MPD2    H213677   4.495   0.314   0.133 -1.3117 -0.8246  0.3602
  931MPD2    H313678   4.651   0.183   0.258 -0.1242 -0.4536  0.7126
  931MPD2     N13679   4.526   0.349   0.658  0.6484 -0.2132 -0.0920
  931MPD2    H513680   4.597   0.298   0.709  2.2145  0.8640 -1.1869
  931MPD2    N113681   4.365   0.518   0.216  0.0905  0.1459  0.0904
  931MPD2    H713682   4.377   0.511   0.116 -3.4578 -1.6488 -0.2123
  932MPD2     C13683   0.056   4.718  11.454  0.0316 -0.3941  0.5000
  932MPD2    C113684   0.175   4.719  11.527 -0.5166  0.0007  0.1361
  932MPD2    C213685   0.187   4.641  11.639  0.4947 -0.1385 -0.8262
  932MPD2    C313686   0.083   4.567  11.686  0.1553 -1.1266 -0.3128
  932MPD2    C413687   4.706   4.557  11.609  0.3792  0.1985  0.2139
  932MPD2    C513688   4.692   4.631  11.491 -0.5789 -0.4073  0.2807
  932MPD2     H13689   0.274   4.656  11.703 -1.6517  3.5964  1.2629
  932MPD2    H113690   4.627   4.486  11.630  0.9560  0.3200  2.8778
  932MPD2    H213691   0.033   0.050  11.375 -0.6183  0.4225  1.4179
  932MPD2    H313692   4.598   4.621  11.437  0.5775  1.5703 -2.0999
  932MPD2     N13693   0.086   4.504  11.812 -0.5424 -0.3006 -0.0834
  932MPD2    H513694   4.733   4.473  11.841  0.0874 -1.8282  0.2309
  932MPD2    N113695   0.268   0.078  11.500 -0.0881 -0.1981 -0.1693
  932MPD2    H713696   0.345   0.091  11.565 -0.7965 -0.2869  0.6820
  933MPD2     C13697   1.892   4.686   2.016  0.5878  0.5026  0.0139
  933MPD2    C113698   1.918   4.715   1.887 -0.8074 -0.9151  0.6342
  933MPD2    C213699   1.863   0.093   1.837  0.2380  0.3559  0.9893
  933MPD2    C313700   1.785   0.175   1.913  0.6272 -0.6304 -0.1818
  933MPD2    C413701   1.767   0.145   2.049 -0.7735  0.0423  0.0904
  933MPD2    C513702   1.818   0.030   2.103 -0.0118 -0.1349 -0.3496
  933MPD2     H13703   1.888   0.114   1.734  0.2465  0.9292  1.1131
  933MPD2    H113704   1.716   0.208   2.121  1.7567  1.7821  0.3515
  933MPD2    H213705   1.935   4.599   2.064  1.3477  0.4501 -0.7692
  933MPD2    H313706   1.807   4.736   2.206 -1.3786  0.1114 -0.4128
  933MPD2     N13707   1.733   0.290   1.856  0.5498 -0.3301 -0.6469
  933MPD2    H513708   1.766   0.311   1.763  0.4598  0.9081 -0.3913
  933MPD2    N113709   2.009   4.637   1.809  0.6616 -0.3525  0.5021
  933MPD2    H713710   2.053   4.561   1.859  2.2417  0.4092  0.2525
  934MPD2     C13711   2.929   1.428   1.968 -0.2853  1.1011 -0.5394
  934MPD2    C113712   3.010   1.379   1.867 -0.0088 -0.4393  0.0019
  934MPD2    C213713   2.962   1.321   1.755  1.0112 -0.5745 -0.3372
  934MPD2    C313714   2.827   1.311   1.740  0.2160 -0.8404  0.3796
  934MPD2    C413715   2.741   1.353   1.834 -0.0879  0.2024 -0.5415
  934MPD2    C513716   2.795   1.415   1.949  0.0428 -0.7446  0.3498
  934MPD2     H13717   3.029   1.297   1.673 -0.7183 -1.7446 -1.4036
  934MPD2    H113718   2.636   1.355   1.806  0.5668 -1.5346 -3.1046
  934MPD2    H213719   2.974   1.484   2.049  0.3990 -0.4769  0.1814
  934MPD2    H313720   2.734   1.460   2.027 -1.0900 -1.7067  0.0220
  934MPD2     N13721   2.764   1.246   1.629 -0.0581  0.5340 -0.5214
  934MPD2    H513722   2.664   1.229   1.638  0.4948 -2.3558 -0.0356
  934MPD2    N113723   3.153   1.400   1.874 -0.2930 -0.7883  0.3394
  934MPD2    H713724   3.207   1.391   1.789  1.3284  0.8956  1.1866
  935MPD2     C13725   3.177   0.747   0.886 -0.3189 -0.5769 -0.3531
  935MPD2    C113726   3.044   0.742   0.841  0.0856  0.2140  0.7955
  935MPD2    C213727   2.951   0.790   0.927  0.2106 -0.5867 -0.1972
  935MPD2    C313728   2.992   0.858   1.041 -0.0033 -0.3029  0.2989
  935MPD2    C413729   3.123   0.855   1.082 -0.2670 -0.1056  0.0637
  935MPD2    C513730   3.218   0.802   1.002  0.2996  0.4713 -0.1525
  935MPD2     H13731   2.848   0.782   0.896  0.8591 -1.0373 -2.2267
  935MPD2    H113732   3.167   0.891   1.174 -1.3811  1.7221 -0.1220
  935MPD2    H213733   3.247   0.703   0.816  2.8591  2.8319  0.6985
  935MPD2    H313734   3.321   0.805   1.036 -0.3133 -0.7124  1.7784
  935MPD2     N13735   2.895   0.927   1.124 -0.0646 -0.5650  0.4624
  935MPD2    H513736   2.931   0.979   1.203 -1.2425  2.0668 -0.7471
  935MPD2    N113737   3.005   0.668   0.725  0.5045 -0.3124  0.4178
  935MPD2    H713738   2.905   0.652   0.714  0.2478  0.9128  0.9732
  936MPD2     C13739   0.802   3.214  12.487 -0.2941  0.7519  0.1322
  936MPD2    C113740   0.872   3.111  12.523  0.2432  0.1609 -0.2910
  936MPD2    C213741   0.971   3.062  12.441 -0.8235  0.3900 -0.3429
  936MPD2    C313742   1.003   3.122  12.320  0.2516 -0.1604 -0.0106
  936MPD2    C413743   0.930   3.234  12.288  0.5799 -0.7301  0.3868
  936MPD2    C513744   0.824   3.274  12.368 -0.0884 -0.4522 -0.3946
  936MPD2     H13745   1.025   2.972  12.469 -2.6363 -0.5643  0.1201
  936MPD2    H113746   0.943   3.293  12.198  1.4168 -0.3252  0.7617
  936MPD2    H213747   0.719   3.247  12.549 -0.6800  1.7816 -0.9397
  936MPD2    H313748   0.758   3.354  12.336 -0.7098 -0.6342  0.4266
  936MPD2     N13749   1.113   3.074  12.240 -0.1199 -0.3709 -0.2316
  936MPD2    H513750   1.140   3.133  12.163  1.9213 -1.4934 -0.3775
  936MPD2    N113751   0.862   3.044  12.648 -0.2286 -0.2865 -0.2188
  936MPD2    H713752   0.929   2.971  12.671  0.6741  0.9707  1.1089
  937MPD2     C13753   3.592   4.653  11.867  0.5511  0.4867 -0.1236
  937MPD2    C113754   3.666   0.029  11.902  0.3594  0.1154 -0.6702
  937MPD2    C213755   3.725   0.106  11.808  0.8481 -0.2258 -0.1877
  937MPD2    C313756   3.740   0.056  11.681  0.1744  0.4955 -0.0480
  937MPD2    C413757   3.684   4.673  11.655  0.2469 -0.9861  0.8875
  937MPD2    C513758   3.604   4.603  11.742 -0.3420 -0.4055 -0.0102
  937MPD2     H13759   3.768   0.203  11.828 -2.6668  1.3376 -0.0909
  937MPD2    H113760   3.710   4.624  11.562  1.7546 -0.7900  1.1997
  937MPD2    H213761   3.540   4.589  11.938  0.8118  0.6778  0.2440
  937MPD2    H313762   3.564   4.505  11.716 -0.0349  0.0016 -2.0095
  937MPD2     N13763   3.812   0.128  11.580 -0.9793 -0.1459 -0.2747
  937MPD2    H513764   3.862   0.212  11.610 -3.4950  1.3571 -0.2787
  937MPD2    N113765   3.641   0.101  12.015 -0.2598 -0.3738  1.0131
  937MPD2    H713766   3.666   0.199  12.013 -0.6280 -0.2825  1.0168
  938MPD2     C13767   2.078   0.942   0.563 -0.1578  0.7625  0.7056
  938MPD2    C113768   2.085   1.020   0.673  0.5852 -0.1572  0.3096
  938MPD2    C213769   2.044   0.971   0.794  0.0316  0.6010 -0.1587
  938MPD2    C313770   2.013   0.835   0.804  0.5062 -0.2427 -0.3837
  938MPD2    C413771   2.015   0.757   0.701  0.9630 -0.1913 -0.4627
  938MPD2    C513772   2.045   0.809   0.578  0.4755 -0.4061  0.4546
  938MPD2     H13773   2.046   1.036   0.881 -0.3890 -1.9267  1.7577
  938MPD2    H113774   1.987   0.654   0.716  0.6994 -0.1413 -0.6014
  938MPD2    H213775   2.111   0.978   0.466  0.2305  0.9539  0.9105
  938MPD2    H313776   2.047   0.741   0.493 -0.8584  0.0089  0.0965
  938MPD2     N13777   1.976   0.765   0.922 -0.1176  0.2480  0.7881
  938MPD2    H513778   1.955   0.666   0.916 -0.7553  0.3771  0.8928
  938MPD2    N113779   2.131   1.151   0.652  0.1951 -0.0378 -0.3237
  938MPD2    H713780   2.145   1.194   0.743 -1.1878  1.1898 -0.6953
  939MPD2     C13781   3.326   1.956   1.206 -0.7100 -0.1784  0.8000
  939MPD2    C113782   3.207   2.029   1.177  0.7589 -0.7777 -0.1408
  939MPD2    C213783   3.169   2.029   1.041 -0.1717  0.4029  1.1018
  939MPD2    C313784   3.234   1.954   0.949  0.4113  0.3855 -0.3874
  939MPD2    C413785   3.352   1.891   0.978 -0.6374  0.1672 -1.0294
  939MPD2    C513786   3.396   1.890   1.111  0.5468  0.6337  0.1126
  939MPD2     H13787   3.076   2.078   1.014  0.8709  1.9453  0.3010
  939MPD2    H113788   3.417   1.845   0.905 -0.0857 -0.3643 -0.2167
  939MPD2    H213789   3.362   1.950   1.308  1.5987  0.5059  0.0318
  939MPD2    H313790   3.492   1.841   1.129  0.5471 -0.1676 -2.0714
  939MPD2     N13791   3.178   1.961   0.817  0.4712 -0.3805  0.6326
  939MPD2    H513792   3.106   2.032   0.804 -0.6982 -1.9089 -1.2639
  939MPD2    N113793   3.144   2.111   1.275 -0.5767  0.7255  0.4692
  939MPD2    H713794   3.187   2.109   1.366 -0.5509  2.0353  0.4840
  940MPD2     C13795   1.956   2.695  13.107  0.1041 -0.6603 -0.0418
  940MPD2    C113796   2.027   2.740  12.997  0.3994  0.8286  0.2204
  940MPD2    C213797   1.995   2.704  12.867  0.0317  0.6624  0.2929
  940MPD2    C313798   1.885   2.625  12.848 -0.1322  0.2684 -0.0780
  940MPD2    C413799   1.820   2.577  12.960  0.4453  0.3784  0.5931
  940MPD2    C513800   1.859   2.606  13.091  0.6485 -0.7367 -0.1061
  940MPD2     H13801   2.057   2.743  12.787 -1.0167 -0.4236 -1.0588
  940MPD2    H113802   1.731   2.517  12.948 -0.6943  2.2978 -0.6320
  940MPD2    H213803   1.993   2.719  13.206 -2.1387  1.3423  0.3188
  940MPD2    H313804   1.805   2.565  13.175  1.3338  0.3422  0.8612
  940MPD2     N13805   1.845   2.589  12.718  0.5326 -0.3034 -0.2257
  940MPD2    H513806   1.896   2.636  12.645  1.4455  0.5919  0.9872
  940MPD2    N113807   2.150   2.814  13.021  0.1159 -0.3387 -0.5536
  940MPD2    H713808   2.196   2.873  12.953 -0.4772 -1.6691 -2.0969
  941MPD2     C13809   0.507   2.599  10.269 -0.0457 -0.3642  0.4198
  941MPD2    C113810   0.643   2.580  10.244 -0.0659  0.1198  0.3228
  941MPD2    C213811   0.697   2.458  10.215  0.3536  0.3893  0.7391
  941MPD2    C313812   0.621   2.342  10.233  0.4525 -0.0196 -0.0646
  941MPD2    C413813   0.491   2.353  10.271  0.7001 -0.1901 -0.0485
  941MPD2    C513814   0.437   2.481  10.287 -0.2088  0.3107 -0.4280
  941MPD2     H13815   0.804   2.449  10.200  0.1858 -0.5001  0.0743
  941MPD2    H113816   0.423   2.268  10.267  0.4959 -0.0146 -0.2819
  941MPD2    H213817   0.456   2.692  10.289 -1.0711 -0.9779  0.6833
  941MPD2    H313818   0.333   2.490  10.313 -0.0441 -0.0773  0.3605
  941MPD2     N13819   0.669   2.212  10.208 -0.4199  0.0548  0.0894
  941MPD2    H513820   0.607   2.137  10.239  1.0227 -1.0841  0.1960
  941MPD2    N113821   0.731   2.691  10.236  0.3695 -0.0879  0.0933
  941MPD2    H713822   0.831   2.672  10.233  0.3485 -0.1567 -0.2134
  942MPD2     C13823   0.555   0.009   9.865 -0.5154 -0.7256 -0.8075
  942MPD2    C113824   0.590   0.135   9.808  0.3777  0.1720 -0.1417
  942MPD2    C213825   0.694   0.139   9.712  0.1692 -0.4370  0.5641
  942MPD2    C313826   0.748   0.024   9.659  0.5056 -0.1856 -0.0414
  942MPD2    C413827   0.711   4.637   9.708 -0.0468  0.1245 -0.1570
  942MPD2    C513828   0.614   4.638   9.806 -0.0838 -0.8748  0.1797
  942MPD2     H13829   0.716   0.237   9.672  0.1182 -1.6826 -2.5686
  942MPD2    H113830   0.742   4.545   9.661 -0.8140  0.4516 -1.2985
  942MPD2    H213831   0.480   4.727   9.941 -1.3469  2.3252 -0.8106
  942MPD2    H313832   0.593   4.541   9.849 -1.1717 -1.9441 -2.7510
  942MPD2     N13833   0.843   0.021   9.553  0.2253  0.4856 -0.7852
  942MPD2    H513834   0.872   4.663   9.540  0.4837  0.1577  2.1418
  942MPD2    N113835   0.533   0.253   9.859  1.1300 -0.0894  0.4914
  942MPD2    H713836   0.556   0.345   9.822 -3.8848  0.6088 -0.9336
  943MPD2     C13837   4.070   2.479  10.096  0.1049  0.6782 -0.6896
  943MPD2    C113838   4.023   2.411  10.210  0.5574 -0.8146 -0.1031
  943MPD2    C213839   4.029   2.480  10.335 -0.3294  0.1354  0.1635
  943MPD2    C313840   4.076   2.605  10.342 -0.7070 -1.0989 -0.1320
  943MPD2    C413841   4.110   2.672  10.230 -0.1556 -0.3215  0.3486
  943MPD2    C513842   4.113   2.609  10.111  0.1110  0.0372 -0.5236
  943MPD2     H13843   4.003   2.423  10.424  0.7592  0.7068  0.8371
  943MPD2    H113844   4.145   2.775  10.234 -1.7506  0.1708  1.7536
  943MPD2    H213845   4.078   2.427  10.001  0.1688 -0.5032 -0.0314
  943MPD2    H313846   4.133   2.656  10.015  0.0795 -0.4974 -0.7928
  943MPD2     N13847   4.091   2.674  10.463  0.0009  0.2569 -0.1063
  943MPD2    H513848   4.135   2.766  10.463  1.6106 -0.5131 -1.7285
  943MPD2    N113849   3.981   2.272  10.189  0.9017 -0.3358 -0.0830
  943MPD2    H713850   3.995   2.241  10.094  1.7817 -2.7299  0.8272
  944MPD2     C13851   4.313   1.405  10.961 -0.4459  0.0557  0.4533
  944MPD2    C113852   4.182   1.390  10.928 -0.2808 -0.1489 -1.0338
  944MPD2    C213853   4.086   1.408  11.025 -0.5279 -0.2159 -0.0395
  944MPD2    C313854   4.123   1.472  11.142  0.1188  0.6400  0.3042
  944MPD2    C413855   4.251   1.484  11.177 -0.0939 -1.7188 -0.1580
  944MPD2    C513856   4.348   1.434  11.092  0.0428  0.5048  0.5982
  944MPD2     H13857   3.979   1.398  11.009 -0.8467 -0.5429  2.3728
  944MPD2    H113858   4.290   1.531  11.267  3.0820  1.3049 -3.1202
  944MPD2    H213859   4.394   1.376  10.895 -1.5948  1.4190 -1.5181
  944MPD2    H313860   4.454   1.447  11.107 -0.1289  0.4639  1.8320
  944MPD2     N13861   4.014   1.536  11.215  0.0168  0.0880  0.2415
  944MPD2    H513862   3.922   1.523  11.173 -0.3736  4.2004 -0.1896
  944MPD2    N113863   4.151   1.358  10.799  0.1821 -0.3536 -0.2109
  944MPD2    H713864   4.218   1.362  10.722 -0.4038 -0.0827 -0.7137
    1TMC1    C113865   2.414   2.398  14.237  0.6600 -0.3058  0.1756
    1TMC1    C213866   2.315   2.442  14.156  0.7731  0.6352  0.8003
    1TMC1    C313867   2.265   2.350  14.076 -0.1391 -0.5835 -0.2929
    1TMC1    C413868   2.471   2.271  14.232  0.8249  0.2516 -0.3134
    1TMC1    C513869   2.405   2.179  14.158  0.3306 -0.5577  0.5063
    1TMC1    C613870   2.308   2.220  14.071 -0.6068  0.3005  0.2289
    1TMC1     C13871   2.463   2.486  14.347  0.4340  0.6802  0.3553
    1TMC1     O13872   2.534   2.442  14.437  0.0697  0.4862  0.1998
    1TMC1     H13873   2.282   2.545  14.153  2.2017  1.1082  1.3123
    1TMC1    H113874   2.562   2.257  14.290  0.3191 -0.1960  0.3697
    1TMC1    H213875   2.260   2.155  13.997  0.3373 -1.9590  1.5978
    1TMC1    C713876   2.480   2.067  14.127 -0.2852 -0.0523 -0.1910
    1TMC1    C813877   2.163   2.383  13.972 -0.4956  0.0514  0.1190
    1TMC1    O113878   2.472   2.007  14.021 -0.0400 -0.2110  0.0089
    1TMC1    O213879   2.151   2.341  13.859 -0.1298 -0.1417  0.6093
    1TMC1    O313880   2.563   2.040  14.224 -0.0534  0.3004  0.5454
    1TMC1    H313881   2.521   2.085  14.301  1.5364  0.3467  1.3711
    1TMC1    O513882   2.075   2.472  14.033 -0.0794 -0.5199 -0.5347
    1TMC1    H513883   2.100   2.489  14.127 -2.3507 -0.7621  0.1110
    2MPD2     C13884   2.530   2.944  14.579 -0.3293 -0.3213  0.6200
    2MPD2    C113885   2.478   2.963  14.451  0.2636  0.0049  0.0563
    2MPD2    C213886   2.453   2.859  14.368 -0.1967 -0.4073  0.0603
    2MPD2    C313887   2.469   2.727  14.409  0.1347  0.0815  0.0159
    2MPD2    C413888   2.507   2.714  14.542  0.1047  0.4168  0.2810
    2MPD2    C513889   2.531   2.822  14.626 -0.2979 -0.7708 -0.3533
    2MPD2     H13890   2.436   2.894  14.267 -0.9182 -0.9232  0.0084
    2MPD2    H113891   2.520   2.618  14.591 -2.4361  0.8497  1.7708
    2MPD2    H213892   2.553   3.023  14.649 -1.1373  0.0849  0.4359
    2MPD2    H313893   2.561   2.807  14.729  2.3734  2.8071 -0.5888
    2MPD2     N13894   2.433   2.621  14.323 -0.2581  0.2117  0.4536
    2MPD2    H513895   2.396   2.649  14.233  1.0148  0.5244  0.0354
    2MPD2    N113896   2.461   3.104  14.404 -0.4646 -0.1144 -0.3427
    2MPD2    H713897   2.424   3.121  14.311 -1.0250 -0.3709 -0.1669
    3TMC2    C113898   2.466   3.337  14.402  0.1309 -0.4310  0.2344
    3TMC2    C213899   2.546   3.440  14.410 -0.2347 -0.0949  0.5727
    3TMC2    C313900   2.523   3.556  14.350 -0.3055  0.5020  0.4575
    3TMC2    C413901   2.350   3.349  14.326  0.3234  0.0987  0.1081
    3TMC2    C513902   2.319   3.471  14.278  0.4722 -0.3716 -0.3518
    3TMC2    C613903   2.399   3.580  14.299 -0.1848  0.4357  0.1452
    3TMC2     C13904   2.514   3.212  14.460  0.7109  0.2055  0.1876
    3TMC2     O13905   2.611   3.224  14.528 -0.2435 -0.2683 -0.4848
    3TMC2     H13906   2.643   3.431  14.458 -0.2251 -1.0176  0.3935
    3TMC2    H113907   2.297   3.260  14.295 -0.9876  1.7357 -2.3626
    3TMC2    H213908   2.367   3.680  14.272 -2.1737 -0.7184 -1.7194
    3TMC2    C713909   2.220   3.472  14.176 -0.0684  0.1752  0.3630
    3TMC2    C813910   2.588   3.677  14.412 -0.7860  0.1357 -0.0544
    3TMC2    O113911   2.146   3.375  14.174 -0.0465 -0.4350 -0.7006
    3TMC2    O213912   2.663   3.659  14.507  0.1098 -0.0446  0.9034
    3TMC2    O513913   2.568   3.785  14.334 -0.2706 -0.3575 -0.1283
    3TMC2    H513914   2.515   3.762  14.255 -1.0142  1.0497 -0.0416
    4TMC2    C113915   2.398   3.970  13.324 -0.6616  0.3911  0.0658
    4TMC2    C213916   2.522   4.026  13.333  0.3978 -0.0655  0.1387
    4TMC2    C313917   2.576   4.030  13.457 -0.9188  0.4656 -1.0306
    4TMC2    C413918   2.332   3.911  13.427 -0.1592  0.2782 -0.1070
    4TMC2    C513919   2.390   3.927  13.555  0.0311 -0.1730 -0.3296
    4TMC2    C613920   2.511   3.990  13.570  0.4169  0.2681  0.2036
    4TMC2     C13921   2.349   3.959  13.186  0.0652  0.5490 -0.2778
    4TMC2     O13922   2.388   4.044  13.110  0.1111 -0.2979  0.1909
    4TMC2     H13923   2.570   4.070  13.245 -1.8836  0.5713 -0.7780
    4TMC2    H113924   2.227   3.885  13.420  0.0917  0.1731 -3.4878
    4TMC2    H213925   2.552   4.022  13.665  1.0076 -2.1931  0.7813
    4TMC2    C713926   2.328   3.872  13.667  0.0568 -0.0168  0.1192
    4TMC2    C813927   2.699   4.112  13.463  0.0919  0.5183 -0.0431
    4TMC2    O113928   2.371   3.912  13.772  0.2839  0.2978 -0.2168
    4TMC2    O213929   2.736   4.183  13.370 -0.6815  0.3904 -0.1131
    4TMC2    O513930   2.777   4.067  13.562  0.5900 -0.2362 -0.0984
    4TMC2    H513931   2.738   3.998  13.619 -0.6003 -0.1814 -0.8489
    5MPD2     C13932   2.211   3.689  12.796  0.2911 -0.0796  0.3564
    5MPD2    C113933   2.132   3.641  12.899 -0.1625 -0.4693  0.1544
    5MPD2    C213934   2.147   3.706  13.015  0.1505  0.1223 -0.7897
    5MPD2    C313935   2.242   3.807  13.030  0.1369 -0.3322 -0.2382
    5MPD2    C413936   2.309   3.854  12.926  0.3582  0.3481  0.0741
    5MPD2    C513937   2.293   3.796  12.801 -0.0474 -0.4026 -1.0943
    5MPD2     H13938   2.085   3.684  13.101  2.4190 -1.1443  0.5278
    5MPD2    H113939   2.397   3.918  12.934 -0.6420  1.4669  2.0183
    5MPD2    H213940   2.209   3.636  12.702 -0.8749 -0.8154  0.7988
    5MPD2    H313941   2.357   3.816  12.716 -0.2524 -1.2912 -1.4532
    5MPD2     N13942   2.273   3.851  13.158  0.0234  0.3931 -0.3034
    5MPD2    H513943   2.234   3.790  13.229  1.8344  0.4580  0.7324
    5MPD2    N113944   2.043   3.539  12.868  0.1657 -0.1244 -0.2939
    5MPD2    H713945   2.057   3.487  12.782 -0.3373 -0.5832 -0.0973
    6MPD1     C13946   0.331   3.818  12.062  0.1824  0.3502 -0.5243
    6MPD1    C113947   0.313   3.702  12.130 -0.0066  0.2032  0.8127
    6MPD1    C213948   0.414   3.662  12.215 -0.0653  0.7739 -0.4716
    6MPD1    C313949   0.530   3.744  12.234  0.4620 -0.0223  0.3265
    6MPD1    C413950   0.542   3.864  12.171  0.0333  0.0477  0.5420
    6MPD1    C513951   0.446   3.894  12.075  0.5810  0.3105  0.2334
    6MPD1     H13952   0.396   3.571  12.271 -1.9090  0.7254 -1.1292
    6MPD1    H113953   0.628   3.930  12.175  0.6646 -0.7260 -0.3648
    6MPD1    H213954   0.252   3.855  11.997  0.4573  0.4800 -0.7890
    6MPD1    H313955   0.451   3.991  12.027  1.2961  0.4269  0.5365
    6MPD1     N13956   0.633   3.713  12.324 -0.3328  0.6830  0.6509
    6MPD1    H513957   0.706   3.783  12.329  1.4368 -1.0335 -1.4237
    6MPD1    N113958   0.181   3.650  12.129  0.1192 -0.9279 -0.2100
    6MPD1    H613959   0.137   3.649  12.037  1.2576 -1.0924 -0.7591
    6MPD1    H713960   0.183   3.552  12.156 -1.9114 -0.9240 -0.0511
    7MPD2     C13961   1.070   3.357  13.023 -0.8127 -0.3406 -0.2181
    7MPD2    C113962   1.110   3.331  12.890 -0.9175  0.5552  0.3171
    7MPD2    C213963   1.234   3.288  12.865  0.3021 -0.2505  0.8436
    7MPD2    C313964   1.329   3.286  12.962  0.3500 -0.2156 -0.3094
    7MPD2    C413965   1.296   3.317  13.093 -0.2359 -0.0991  0.3747
    7MPD2    C513966   1.167   3.352  13.123  0.8388 -0.0957  0.0687
    7MPD2     H13967   1.255   3.245  12.768 -3.2537 -0.5851  0.2322
    7MPD2    H113968   1.362   3.326  13.178  2.0012  0.8219 -1.4543
    7MPD2    H213969   0.973   3.399  13.045 -0.5624  0.5552 -0.8472
    7MPD2    H313970   1.134   3.366  13.225 -2.9564  1.0893 -1.3073
    7MPD2     N13971   1.463   3.263  12.920 -0.1046 -0.2200 -0.4543
    7MPD2    H513972   1.480   3.262  12.820 -1.1340 -0.1061 -0.6279
    7MPD2    N113973   1.030   3.363  12.771 -0.7568 -0.4041  0.2093
    7MPD2    H713974   1.067   3.371  12.677 -0.5803 -1.2431  0.2058
    8TMC3    C113975   1.695   3.240  12.933 -0.3163  0.3210  0.5173
    8TMC3    C213976   1.780   3.334  12.982 -1.0605 -0.1974 -0.2574
    8TMC3    C313977   1.850   3.408  12.898 -0.2722  0.1722 -0.4446
    8TMC3    C413978   1.676   3.226  12.799 -0.3687  0.0941  0.0443
    8TMC3    C513979   1.741   3.315  12.710  0.4150 -0.0961  1.0175
    8TMC3    C613980   1.825   3.410  12.762 -0.1687  0.2004 -0.5855
    8TMC3     C13981   1.573   3.244  13.003 -1.0395  0.2175  0.4155
    8TMC3     O13982   1.568   3.244  13.127 -0.2269 -0.0436  0.3764
    8TMC3     H13983   1.786   3.340  13.090  1.6462 -0.7228 -0.3775
    8TMC3    H113984   1.616   3.143  12.763 -1.8294 -0.2489  3.3185
    8TMC3    H213985   1.896   3.467  12.704  0.7407 -0.9921 -0.6495
    8TMC3    C713986   1.644   3.368  12.619 -0.2719  0.0134 -0.3680
    8TMC3    C813987   1.942   3.506  12.957  0.4176 -0.4666 -0.1100
    8TMC3    O113988   1.533   3.312  12.630 -0.2095  0.7281  0.0172
    8TMC3    O213989   1.902   3.549  13.065 -0.1219 -0.8346 -0.3092
    9TMC3    C113990   0.765   3.606  12.487 -0.2341 -0.1827 -0.7373
    9TMC3    C213991   0.875   3.669  12.439 -0.2956 -0.8039 -0.1123
    9TMC3    C313992   0.994   3.655  12.503  0.4199 -0.0784  0.4387
    9TMC3    C413993   0.769   3.526  12.593  0.2673  0.5758  0.1663
    9TMC3    C513994   0.893   3.500  12.646  0.0648  0.7813 -0.3587
    9TMC3    C613995   1.001   3.574  12.611  0.2286 -0.3275  0.5740
    9TMC3     C13996   0.645   3.605  12.408 -0.1572  0.5930 -0.0961
    9TMC3     O13997   0.561   3.526  12.440  0.7052 -0.0980 -0.2736
    9TMC3     H13998   0.872   3.737  12.355 -0.6981 -0.3708  0.2472
    9TMC3    H113999   0.679   3.482  12.633  0.0613  0.3990 -0.4873
    9TMC3    H214000   1.085   3.574  12.680  1.2530 -0.3833 -0.6809
    9TMC3    C714001   0.904   3.418  12.770  1.0232 -0.4321  0.4682
    9TMC3    C814002   1.113   3.723  12.466 -0.5574 -0.7287 -0.3653
    9TMC3    O114003   0.824   3.426  12.860 -0.3186  0.1224 -0.2063
    9TMC3    O214004   1.106   3.828  12.408  0.2726  0.5004 -0.7456
   10MPD2     C14005   1.624   3.707  12.479 -0.7321  0.4129 -0.4385
   10MPD2    C114006   1.576   3.579  12.506  0.2454  0.2796 -0.7371
   10MPD2    C214007   1.441   3.544  12.500 -0.5246 -0.1417  0.1550
   10MPD2    C314008   1.352   3.647  12.473  0.5145  0.6061  0.0367
   10MPD2    C414009   1.405   3.767  12.438 -0.6970 -0.1401 -0.6053
   10MPD2    C514010   1.540   3.798  12.437  0.1443  0.0974 -0.2466
   10MPD2     H14011   1.408   3.443  12.526 -2.4532 -0.0906 -2.1343
   10MPD2    H114012   1.344   3.854  12.419 -0.0556 -0.2345 -3.1201
   10MPD2    H214013   1.729   3.733  12.486 -0.8107  0.2135  1.6235
   10MPD2    H314014   1.569   3.900  12.414 -0.2068  0.4042  0.6330
   10MPD2     N14015   1.209   3.632  12.481 -0.8070 -0.4387  0.2875
   10MPD2    H514016   1.189   3.536  12.506  0.9031 -0.9100 -0.1007
   10MPD2    N114017   1.671   3.497  12.573 -0.4876 -0.4631  0.7077
   10MPD2    H714018   1.763   3.541  12.578 -0.5997 -0.0540 -0.6712
   11MPD2     C14019   2.071   3.509  13.918 -0.1289  0.2433  0.4160
   11MPD2    C114020   2.182   3.576  13.953 -0.1448 -0.1621  0.0403
   11MPD2    C214021   2.234   3.673  13.866 -0.4440  0.4119 -0.1322
   11MPD2    C314022   2.188   3.682  13.732  0.2785 -0.0392 -0.1939
   11MPD2    C414023   2.080   3.603  13.697  0.0493 -0.3279 -0.8104
   11MPD2    C514024   2.023   3.521  13.790  0.2329 -0.4382  0.3218
   11MPD2     H14025   2.322   3.729  13.894  2.7403 -4.5886 -0.1835
   11MPD2    H114026   2.041   3.597  13.596 -2.4129 -2.0976  0.2616
   11MPD2    H214027   2.026   3.435  13.982  0.0609  1.2900  1.7580
   11MPD2    H314028   1.937   3.463  13.760  1.0823 -0.4111 -2.1549
   11MPD2     N14029   2.248   3.769  13.636  0.0638 -0.6620 -0.3292
   11MPD2    H514030   2.225   3.754  13.538 -0.1475 -1.1590 -0.2048
   11MPD2    N114031   2.248   3.565  14.078 -0.1437 -0.8877 -0.2774
   11MPD2    H714032   2.324   3.631  14.090  1.3457 -2.9110  1.3998
    1MPD1     C14033   1.569   4.539   0.271 -0.0017  0.0178  0.0733
    1MPD1    C114034   1.571   4.450   0.172  0.4646  0.2523 -0.3093
    1MPD1    C214035   1.505   4.470   0.050  0.1834  0.4692 -0.1465
    1MPD1    C314036   1.421   4.584   0.040  0.0655  0.0763  0.0125
    1MPD1    C414037   1.412   4.672   0.147 -0.2572 -0.5649 -0.0695
    1MPD1    C514038   1.483   4.648   0.260 -1.0601  0.0340 -0.8848
    1MPD1     H14039   1.517   4.408  17.715  2.0102  2.6817 -1.4616
    1MPD1    H114040   1.348   0.021   0.141  1.1562  0.5877  1.8324
    1MPD1    H214041   1.628   4.533   0.362 -1.6443 -1.5825  1.0345
    1MPD1    H314042   1.471   4.726   0.335  1.8670 -1.5153  1.1737
    1MPD1     N14043   1.366   4.626  17.669  0.2701 -0.3503 -0.4753
    1MPD1    H514044   1.316   4.714  17.676 -0.0511 -0.6327  0.7818
    1MPD1    N114045   1.675   4.353   0.171 -0.4624  0.2683  0.0510
    1MPD1    H614046   1.656   4.266   0.122  0.9646  0.3588 -0.6509
    1MPD1    H714047   1.708   4.325   0.263 -0.1222  0.7763  0.0809
    2MPD1     C14048   1.564   4.323  16.729 -0.6821 -0.2079  0.2866
    2MPD1    C114049   1.647   4.351  16.831 -0.2436  0.6560  0.7246
    2MPD1    C214050   1.585   4.404  16.946  0.2363  0.2016 -0.2522
    2MPD1    C314051   1.458   4.444  16.953 -0.6125  0.6159 -0.7739
    2MPD1    C414052   1.372   4.405  16.860  0.0377 -0.1011 -0.0927
    2MPD1    C514053   1.426   4.334  16.753 -0.4915  0.5048 -0.0099
    2MPD1     H14054   1.649   4.425  17.031  0.5934 -0.9732 -0.2288
    2MPD1    H114055   1.264   4.412  16.868  0.1775  1.1117  0.6886
    2MPD1    H214056   1.581   4.269  16.636 -0.5131 -0.6948  0.6012
    2MPD1    H314057   1.358   4.291  16.681  1.3786 -0.0930 -1.4038
    2MPD1     N14058   1.411   4.515  17.066  0.2239 -0.1762 -0.2351
    2MPD1    H514059   1.465   4.539  17.149  0.5668 -1.8195  0.0168
    2MPD1    N114060   1.786   4.320  16.827  0.7142 -0.4243  0.0021
    2MPD1    H614061   1.840   4.388  16.880 -0.3978  0.1454  0.4047
    2MPD1    H714062   1.814   4.313  16.730 -0.5425 -0.6373 -0.3434
    3TMC3    C114063   1.278   4.635  17.209 -0.5988 -0.2481  0.5468
    3TMC3    C214064   1.165   4.712  17.225 -0.1157 -0.5097  0.3136
    3TMC3    C314065   1.124   4.731  17.349 -0.5300 -0.2776 -0.0716
    3TMC3    C414066   1.354   4.602  17.316 -0.2414 -0.6987  0.7116
    3TMC3    C514067   1.316   4.627  17.440  0.2916  0.4697 -1.0170
    3TMC3    C614068   1.195   4.684  17.464 -0.1542 -0.1463  0.1424
    3TMC3     C14069   1.289   4.576  17.078  0.0854  0.9993  0.0867
    3TMC3     O14070   1.212   4.596  16.986  0.0730  0.2308 -0.0449
    3TMC3     H14071   1.107   4.733  17.136  0.4354  0.6092  0.2161
    3TMC3    H114072   1.438   4.536  17.303  0.0284 -0.2573  0.2320
    3TMC3    H214073   1.156   4.687  17.565  3.8723  0.7073  1.6591
    3TMC3    C714074   1.389   4.568  17.542  0.9770  0.0712 -0.5015
    3TMC3    C814075   0.987   0.033  17.375  0.6028  0.0219 -0.4744
    3TMC3    O114076   1.446   4.461  17.516 -0.3923  1.0388 -0.0595
    3TMC3    O214077   0.949   0.009  17.487 -0.1964  0.0535  0.1018
    4MPD1     C14078   0.574   0.330  17.263 -0.1855 -0.0012  0.4996
    4MPD1    C114079   0.656   0.316  17.152 -0.2256  0.1841 -0.9286
    4MPD1    C214080   0.766   0.231  17.152  0.2281 -0.2362  0.4701
    4MPD1    C314081   0.805   0.171  17.267  0.7118  0.3017  0.5371
    4MPD1    C414082   0.722   0.178  17.379 -0.0983 -0.3902 -0.6679
    4MPD1    C514083   0.608   0.256  17.375  0.0243 -0.0097 -0.8399
    4MPD1     H14084   0.824   0.217  17.061 -1.2914  0.3945 -0.6089
    4MPD1    H114085   0.749   0.133  17.473 -2.0334  0.4203  0.2818
    4MPD1    H214086   0.494   0.402  17.275  0.2888  0.7518 -0.8571
    4MPD1    H314087   0.550   0.256  17.467  1.5241  0.6206  0.1112
    4MPD1     N14088   0.929   0.100  17.269  0.1718 -0.6676 -0.1739
    4MPD1    H514089   0.988   0.109  17.188  1.7273  1.9666  1.2732
    4MPD1    N114090   0.622   0.389  17.038 -0.1641 -0.0212  0.4318
    4MPD1    H614091   0.527   0.424  17.042 -0.5762 -0.8387 -3.0482
    4MPD1    H714092   0.661   0.347  16.954  0.7700  0.4633  0.6209
    1TCq1    O114093   1.055   3.892  12.020 -0.1620 -0.5955 -1.0988
    1TCq1    C114094   1.027   3.791  12.102 -0.1779 -0.2272 -0.0674
    1TCq1    O214095   0.914   3.745  12.115  0.3299  0.2011  0.2436
    1TCq1    C214096   1.143   3.701  12.119  0.1415 -0.7359 -0.7173
    1TCq1    C314097   1.267   3.758  12.122  0.1669  0.0047 -0.7497
    1TCq1    C414098   1.377   3.683  12.118 -0.0644 -0.3594 -0.1962
    1TCq1    C514099   1.376   3.549  12.080 -0.3798 -0.8391 -0.2945
    1TCq1    C614100   1.250   3.495  12.073 -0.0457  0.0008  1.0009
    1TCq1    C714101   1.135   3.566  12.093  0.5440  0.3230 -0.2378
    1TCq1    C814102   1.236   3.362  12.019  0.1350  0.0153 -0.2238
    1TCq1    O414103   1.135   3.294  12.036 -0.2877  0.1725  0.3592
    1TCq1    C914104   1.499   3.745  12.086 -0.7056 -0.2725 -0.4240
    1TCq1    O514105   1.594   3.669  12.044  0.5955  0.2161 -0.2924
    1TCq1    O614106   1.492   3.867  12.055 -0.1001  0.6340  0.0006
    1TCq1    H114107   1.148   3.891  11.989  0.7004  1.0986  1.4418
    1TCq1    H214108   1.279   3.865  12.138  3.9972 -0.5438  0.1317
    1TCq1    H314109   1.464   3.488  12.068  0.1936  0.2306 -1.5415
    1TCq1    H414110   1.042   3.511  12.082  0.3980  0.6007 -0.4136
    2MPD1     C14111   1.404   2.955  11.757  0.7233  0.3809  0.3268
    2MPD1    C114112   1.503   3.044  11.779 -0.0102 -0.2913  0.0200
    2MPD1    C214113   1.473   3.156  11.847  0.0119  0.0372 -0.8338
    2MPD1    C314114   1.350   3.189  11.893 -0.0484 -0.0740 -0.4212
    2MPD1    C414115   1.249   3.093  11.863 -0.2988  0.3436 -0.0183
    2MPD1    C514116   1.278   2.977  11.801  0.8292  0.2540 -0.2741
    2MPD1     H14117   1.552   3.230  11.847  2.7554 -2.8824  1.4973
    2MPD1    H114118   1.144   3.103  11.886 -0.3712 -0.7932  0.1611
    2MPD1    H214119   1.424   2.862  11.705  3.7248  1.0051  0.3653
    2MPD1    H314120   1.209   2.898  11.775  1.8501 -1.1264  1.1652
    2MPD1     N14121   1.350   3.319  11.954  0.4649  0.2083 -0.1554
    2MPD1    H514122   1.431   3.379  11.949  0.6982 -0.2322 -1.4397
    2MPD1    N114123   1.630   3.010  11.735 -0.5346  0.0399 -0.7343
    2MPD1    H614124   1.710   3.057  11.776 -0.5079 -0.2343 -0.4769
    2MPD1    H714125   1.642   2.909  11.727 -0.9463 -0.0359 -0.4483
    1TMC1    C114126   0.047   0.639   0.456  0.2285 -0.0603 -0.8803
    1TMC1    C214127   4.716   0.669   0.340 -0.4262  0.4124  0.1792
    1TMC1    C314128   0.033   0.641   0.219 -0.6758  0.2200  0.3772
    1TMC1    C414129   0.175   0.592   0.453 -0.2343  0.0784 -0.2546
    1TMC1    C514130   0.225   0.569   0.329 -0.0913 -0.5209 -0.3539
    1TMC1    C614131   0.160   0.590   0.213  0.0054 -0.1361  0.9060
    1TMC1     C14132   4.737   0.668   0.581 -0.3084 -0.1178 -0.5028
    1TMC1     O14133   0.075   0.694   0.673  0.6193 -1.2048  0.2052
    1TMC1     H14134   4.613   0.702   0.334 -1.0573 -2.2237 -3.9042
    1TMC1    H114135   0.223   0.568   0.547 -1.0720  0.3684  0.2453
    1TMC1    H214136   0.216   0.575   0.121 -0.2672 -1.6688  0.9971
    1TMC1    C714137   0.342   0.485   0.307 -0.3785  1.0584 -0.5922
    1TMC1    C814138   4.691   0.646   0.096  0.3282 -0.5640  0.0464
    1TMC1    O114139   0.358   0.409   0.215  0.3929  0.2843  0.1843
    1TMC1    O214140   4.587   0.708   0.099  0.2258  0.2889 -0.2941
    1TMC1    O314141   0.441   0.511   0.396 -0.0756 -0.4159 -0.4457
    1TMC1    H314142   0.431   0.598   0.440  0.9164 -1.2833  1.5415
    1TMC1    O514143   4.713   0.536   0.028  0.0736 -0.1512 -0.1356
    1TMC1    H514144   0.050   0.479   0.055 -1.4119 -0.8002  2.7482
    2MPD1     C14145   4.371   0.847   0.894  0.7193  0.0923 -0.1016
    2MPD1    C114146   4.312   0.812   0.779  0.1745 -0.0711  0.3718
    2MPD1    C214147   4.400   0.764   0.680  0.1441 -0.5612  0.2333
    2MPD1    C314148   4.531   0.741   0.690  0.4702  0.6951  0.2205
    2MPD1    C414149   4.586   0.771   0.816 -0.0091  0.9991 -0.6456
    2MPD1    C514150   4.503   0.821   0.909 -0.1088  0.0641  0.0569
    2MPD1     H14151   4.360   0.759   0.579  1.4030 -0.6323 -0.2587
    2MPD1    H114152   4.693   0.780   0.832 -0.0185  1.9092 -1.1199
    2MPD1    H214153   4.319   0.901   0.972 -0.7360  3.0790 -3.1476
    2MPD1    H314154   4.545   0.849   1.005 -1.4650 -0.9349  0.9597
    2MPD1     N14155   4.604   0.689   0.581 -0.0502  1.4855 -0.6656
    2MPD1    H514156   4.555   0.663   0.495 -1.0581  1.2797 -0.0324
    2MPD1    N114157   4.176   0.860   0.747  0.5992  0.5106 -0.1812
    2MPD1    H614158   4.124   0.803   0.681 -2.6314  1.3511  1.6458
    2MPD1    H714159   4.112   0.861   0.826  1.3858 -3.2878  0.5026
    1MPD1     C14160   2.237   4.657  11.815  0.0718  0.2663  0.3182
    1MPD1    C114161   2.363   4.697  11.784 -0.2288  0.4551 -0.9822
    1MPD1    C214162   2.377   0.086  11.731 -0.3002 -0.3857  0.5825
    1MPD1    C314163   2.269   0.159  11.687  0.1633  0.1334  0.4412
    1MPD1    C414164   2.140   0.102  11.710 -0.2822  0.0759  0.5876
    1MPD1    C514165   2.130   4.726  11.782  0.2717 -0.0257 -0.0652
    1MPD1     H14166   2.470   0.141  11.733  0.5617 -1.6761 -2.9842
    1MPD1    H114167   2.046   0.156  11.695  1.1589  2.3532 -0.2479
    1MPD1    H214168   2.213   4.568  11.872 -2.0490  2.2071  2.4515
    1MPD1    H314169   2.032   4.696  11.819 -0.3555  1.8005 -0.2350
    1MPD1     N14170   2.291   0.282  11.620 -0.4769 -0.5439  0.1117
    1MPD1    H514171   2.389   0.305  11.611 -0.5570  1.0465  3.3756
    1MPD1    N114172   2.474   4.618  11.823 -0.1968 -0.1956 -0.2793
    1MPD1    H614173   2.458   4.518  11.815 -2.1103  0.1126 -0.3836
    1MPD1    H714174   2.563   4.645  11.783  0.2414 -1.0685  0.1106
    2MPD1     C14175   2.182   0.506  10.666 -0.6578  0.7079 -0.3765
    2MPD1    C114176   2.104   0.400  10.630 -0.1034 -0.3334 -0.6745
    2MPD1    C214177   2.169   0.278  10.616  0.7490 -0.0532  0.4453
    2MPD1    C314178   2.295   0.256  10.669 -0.1564  0.1510 -0.0818
    2MPD1    C414179   2.366   0.372  10.705 -0.1226  0.3148 -0.1683
    2MPD1    C514180   2.313   0.496  10.702  0.4227 -0.3914  0.6477
    2MPD1     H14181   2.119   0.191  10.576 -0.8060  1.6074 -1.1749
    2MPD1    H114182   2.473   0.368  10.718  0.2421  0.2789 -3.3670
    2MPD1    H214183   2.150   0.609  10.682 -1.0843  0.1006  2.7571
    2MPD1    H314184   2.371   0.581  10.735 -1.7428  1.9375 -1.5358
    2MPD1     N14185   2.372   0.128  10.652  0.0396  0.6711 -0.8602
    2MPD1    H514186   2.470   0.118  10.679  0.0905  1.4149 -0.7751
    2MPD1    N114187   1.967   0.417  10.589 -0.5879  0.0271 -0.4083
    2MPD1    H614188   1.925   0.499  10.633 -1.1534 -0.3287 -0.2824
    2MPD1    H714189   1.911   0.333  10.604  0.0295 -0.3336 -0.1166
    3MPD1     C14190   2.289   3.957  10.189  0.0893  0.1070 -1.0056
    3MPD1    C114191   2.204   4.062  10.196  0.2773  0.7406 -0.2614
    3MPD1    C214192   2.242   4.176  10.264 -0.5247  0.2621 -0.5298
    3MPD1    C314193   2.371   4.182  10.316  0.2676  0.1580  0.1698
    3MPD1    C414194   2.458   4.068  10.310 -0.2886 -0.0956  1.1180
    3MPD1    C514195   2.424   3.968  10.231 -0.0062 -0.0689 -0.3490
    3MPD1     H14196   2.181   4.266  10.268 -0.9452 -0.0511  0.2275
    3MPD1    H114197   2.557   4.069  10.353  0.8241 -0.8716 -1.4437
    3MPD1    H214198   2.260   3.864  10.143  3.8649 -0.5767 -2.0137
    3MPD1    H314199   2.494   3.885  10.227  0.4888  0.3278  0.1797
    3MPD1     N14200   2.407   4.299  10.390 -0.0041 -0.4587  0.4292
    3MPD1    H514201   2.341   4.375  10.374 -0.5888 -1.2674 -1.0366
    3MPD1    N114202   2.073   4.039  10.154  0.3227 -0.3736 -0.6065
    3MPD1    H614203   2.018   4.123  10.141 -0.6032 -0.4950  2.5346
    3MPD1    H714204   2.069   3.973  10.077  1.4753  1.8946 -2.5924
    4MPD2     C14205   2.246   0.825  10.991  0.1359  0.7629  0.7115
    4MPD2    C114206   2.344   0.804  11.092 -0.3793 -0.9922 -0.1312
    4MPD2    C214207   2.475   0.819  11.047 -0.0263 -0.4734 -0.1791
    4MPD2    C314208   2.516   0.845  10.918  0.3472  0.0455  0.5865
    4MPD2    C414209   2.419   0.867  10.824 -0.7583  0.7394  0.2005
    4MPD2    C514210   2.284   0.857  10.865 -0.0330 -0.1801  0.0972
    4MPD2     H14211   2.556   0.799  11.116  1.9605  1.5766 -1.9227
    4MPD2    H114212   2.440   0.870  10.718 -0.9544  1.6144  0.1880
    4MPD2    H214213   2.140   0.818  11.014 -0.2622 -0.9289 -1.6751
    4MPD2    H314214   2.207   0.873  10.790  0.4214  1.0271 -0.1206
    4MPD2     N14215   2.655   0.839  10.895 -0.0347 -0.6912 -0.0595
    4MPD2    H514216   2.716   0.832  10.976 -0.2815  0.0312  0.1948
    4MPD2    N114217   2.315   0.770  11.224 -0.1621 -0.6512 -0.0246
    4MPD2    H714218   2.394   0.764  11.288  0.3172 -2.9583 -0.8395
    5TMC3    C114219   2.233   0.694  11.428  0.1647 -0.6186  0.7564
    5TMC3    C214220   2.179   0.575  11.459  0.2851  0.2015  0.4136
    5TMC3    C314221   2.251   0.495  11.542 -0.9034  0.0036  0.3881
    5TMC3    C414222   2.355   0.734  11.480 -0.9270 -0.4209  0.1954
    5TMC3    C514223   2.427   0.645  11.548  0.5985  0.1212 -1.0611
    5TMC3    C614224   2.368   0.529  11.597  0.6996  0.2145 -0.6725
    5TMC3     C14225   2.196   0.734  11.291 -0.0141 -0.1168 -1.0875
    5TMC3     O14226   2.082   0.711  11.251 -0.2550  0.1429 -0.5258
    5TMC3     H14227   2.083   0.546  11.420 -0.0144  0.8731  0.6644
    5TMC3    H114228   2.404   0.827  11.454  0.1675 -1.3243 -0.9381
    5TMC3    H214229   2.435   0.464  11.652  0.9790  1.1209  0.0657
    5TMC3    C714230   2.545   0.617  11.468 -0.3878  0.5720  0.4932
    5TMC3    C814231   2.197   0.365  11.575 -0.9678  0.4249  0.1285
    5TMC3    O114232   2.541   0.673  11.358 -0.0283 -0.4318  0.0224
    5TMC3    O214233   2.080   0.334  11.560  0.5859 -0.6022  0.1307
    6TMC3    C114234   2.426   4.646  10.632 -0.0562  0.3942 -0.2284
    6TMC3    C214235   2.417   4.539  10.548  0.2700 -0.5767 -0.4277
    6TMC3    C314236   2.518   4.442  10.553  0.7725 -0.4588 -0.5118
    6TMC3    C414237   2.540   4.681  10.700 -0.1290  0.2896  0.0652
    6TMC3    C514238   2.643   4.595  10.686  0.0385 -0.3771  0.4945
    6TMC3    C614239   2.630   4.472  10.628  0.1354  0.6475 -0.2820
    6TMC3     C14240   2.323   0.008  10.616 -0.1190  0.5673  0.6380
    6TMC3     O14241   2.221   4.720  10.551 -0.1779  0.6191  0.4628
    6TMC3     H14242   2.330   4.520  10.486 -0.5718 -2.6882  1.3828
    6TMC3    H114243   2.547   0.018  10.777 -0.8567  0.5663 -0.1371
    6TMC3    H214244   2.708   4.397  10.634 -2.8616 -2.4980 -0.5306
    6TMC3    C714245   2.762   4.624  10.766  0.5253 -0.5225 -0.7543
    6TMC3    C814246   2.519   4.319  10.476 -0.8072 -0.0859  0.4278
    6TMC3    O114247   2.821   4.533  10.813  0.2106  0.1045  0.2149
    6TMC3    O214248   2.607   4.244  10.510  0.3229 -0.2722  0.2056
    7MPD2     C14249   3.037   0.512  11.377  0.5346 -0.1586  0.5258
    7MPD2    C114250   2.944   0.579  11.301 -0.6084 -0.4304  0.1311
    7MPD2    C214251   2.812   0.582  11.343  0.5384  0.2964  0.5655
    7MPD2    C314252   2.774   0.526  11.465  0.2855 -0.5806 -0.3995
    7MPD2    C414253   2.869   0.453  11.529 -0.0643 -0.3150  0.2991
    7MPD2    C514254   2.992   0.438  11.486 -0.2784 -0.4116  0.5764
    7MPD2     H14255   2.743   0.624  11.271  0.2944  1.4571  1.4798
    7MPD2    H114256   2.857   0.425  11.633  0.2900  0.0676  0.4433
    7MPD2    H214257   3.139   0.505  11.341  0.2226  0.5301 -0.4940
    7MPD2    H314258   3.064   0.374  11.537  0.0321 -0.0526  0.5824
    7MPD2     N14259   2.648   0.553  11.532  0.1455 -0.2920 -0.4514
    7MPD2    H514260   2.650   0.526  11.629  0.3924 -1.8033 -0.8751
    7MPD2    N114261   2.986   0.634  11.183 -0.5827 -0.2208  0.2709
    7MPD2    H714262   3.082   0.621  11.153 -0.8333  2.4769 -1.6480
    8TMC3    C114263   2.974   0.760  10.980 -0.6207  0.1059 -0.7160
    8TMC3    C214264   3.028   0.655  10.911  0.3098 -0.0570 -0.5173
    8TMC3    C314265   2.990   0.630  10.782 -0.0370 -0.1646  0.2383
    8TMC3    C414266   2.895   0.848  10.909  0.0046 -0.4883  0.6323
    8TMC3    C514267   2.858   0.824  10.776  0.5582 -0.3254 -0.0807
    8TMC3    C614268   2.904   0.713  10.711  0.3166 -0.2413  0.0282
    8TMC3     C14269   2.920   0.728  11.110 -0.2025  0.1870  0.1419
    8TMC3     O14270   2.829   0.803  11.141 -0.1410  0.4663  0.0225
    8TMC3     H14271   3.088   0.578  10.960  0.1154  0.5038  0.6102
    8TMC3    H114272   2.865   0.938  10.960  2.0497 -0.1990  1.3220
    8TMC3    H214273   2.858   0.684  10.617 -1.7099 -0.7319  1.1662
    8TMC3    C714274   2.714   0.850  10.770 -0.0555 -0.5544  0.2097
    8TMC3    C814275   2.982   0.493  10.732  0.6345 -0.2472  0.1282
    8TMC3    O114276   2.667   0.856  10.659 -0.0617  0.2916  0.6211
    8TMC3    O214277   2.903   0.479  10.637 -0.4156 -0.0390  0.0490
    9MPD2     C14278   3.172   0.195  10.853  0.1932  0.7014 -0.3224
    9MPD2    C114279   3.062   0.271  10.810  0.6876  0.4656 -0.1928
    9MPD2    C214280   2.941   0.207  10.784  0.5187 -0.0582  0.3322
    9MPD2    C314281   2.922   0.071  10.798  0.4435  0.5484 -0.0551
    9MPD2    C414282   3.035   4.737  10.839 -0.0417  0.2168  0.0623
    9MPD2    C514283   3.159   0.062  10.858 -0.0813  0.1028 -0.1917
    9MPD2     H14284   2.858   0.273  10.760 -0.3318 -1.5352 -0.7590
    9MPD2    H114285   3.027   4.629  10.829 -0.9860  0.5700 -3.0198
    9MPD2    H214286   3.269   0.242  10.868 -0.0560  1.1068  0.0006
    9MPD2    H314287   3.244   0.000  10.883 -1.5698 -0.9576  2.2191
    9MPD2     N14288   2.798   0.018  10.759 -0.2616 -0.0277  0.1378
    9MPD2    H514289   2.738   0.087  10.715 -3.1485 -2.7411 -0.1544
    9MPD2    N114290   3.072   0.409  10.799 -0.5283 -0.1611 -0.6578
    9MPD2    H714291   3.151   0.448  10.850  0.1715 -0.8372 -1.2323
    1MPD1     C14292   2.881   2.443  16.248 -0.9952 -0.7236  0.5556
    1MPD1    C114293   2.886   2.582  16.261 -0.9324 -0.0142 -0.3196
    1MPD1    C214294   2.878   2.661  16.151 -0.0593  0.1427 -0.2438
    1MPD1    C314295   2.848   2.611  16.029 -1.0795 -0.5132 -0.2728
    1MPD1    C414296   2.844   2.474  16.019 -0.2661  0.2259  0.6617
    1MPD1    C514297   2.865   2.385  16.123 -0.1165  0.1945  0.6192
    1MPD1     H14298   2.891   2.768  16.155  0.9181  0.0257 -0.3500
    1MPD1    H114299   2.819   2.443  15.918 -0.9077 -0.6425  1.0852
    1MPD1    H214300   2.889   2.380  16.336  2.1924 -0.3169  0.5389
    1MPD1    H314301   2.847   2.279  16.105 -3.0792  0.8028  0.0398
    1MPD1     N14302   2.823   2.696  15.915 -0.4159 -0.4581  0.8121
    1MPD1    H514303   2.813   2.650  15.825  0.8276 -0.3702  0.6270
    1MPD1    N114304   2.929   2.644  16.382 -0.4673 -0.0248  0.0887
    1MPD1    H614305   2.897   2.741  16.381 -1.6329 -0.4365 -1.5437
    1MPD1    H714306   2.879   2.600  16.460 -0.7225  1.0603  0.5398
    2TMC2    C114307   2.677   3.092  15.706 -0.1756  0.1023  0.0694
    2TMC2    C214308   2.745   3.069  15.590  0.7903  0.4838 -0.0763
    2TMC2    C314309   2.812   2.954  15.573 -0.1165  0.1018 -0.4432
    2TMC2    C414310   2.684   3.013  15.818 -0.1798 -0.7959 -0.4320
    2TMC2    C514311   2.752   2.895  15.799  0.1466  0.2773 -0.2533
    2TMC2    C614312   2.818   2.870  15.684  0.7166  0.0551 -0.2882
    2TMC2     C14313   2.597   3.213  15.715  0.2645 -0.0404  0.0823
    2TMC2     O14314   2.547   3.259  15.612  0.1949 -0.0831  0.0438
    2TMC2     H14315   2.732   3.138  15.508  0.9072  2.0786  1.2364
    2TMC2    H114316   2.627   3.032  15.908 -1.1766 -2.5290 -0.6929
    2TMC2    H214317   2.883   2.784  15.675 -1.6294 -1.5733 -1.6207
    2TMC2    C714318   2.786   2.825  15.921  0.5206 -0.7075 -0.3007
    2TMC2    C814319   2.925   2.957  15.481  0.1703 -0.3568  0.3223
    2TMC2    O114320   2.763   2.895  16.019 -0.0856 -0.8591  0.2502
    2TMC2    O214321   3.010   3.045  15.484  0.5300  0.7828  0.7482
    2TMC2    O514322   2.880   2.893  15.374  0.5725  0.1025  0.1183
    2TMC2    H514323   2.802   2.835  15.387 -0.5475  1.6965  0.5244
    3MPD1     C14324   2.381   3.599  15.961  0.2318 -0.3923 -0.8494
    3MPD1    C114325   2.454   3.534  16.053 -0.4776  0.1665 -0.4971
    3MPD1    C214326   2.519   3.419  16.010 -0.6213  0.3651 -0.3363
    3MPD1    C314327   2.514   3.373  15.880  0.1624  0.1309 -0.3757
    3MPD1    C414328   2.438   3.446  15.793 -0.0887  0.0754 -0.5190
    3MPD1    C514329   2.369   3.551  15.840  0.1795  0.6736 -0.3774
    3MPD1     H14330   2.553   3.353  16.089 -2.3804 -1.7929 -1.3794
    3MPD1    H114331   2.424   3.424  15.688 -2.2304  1.7814 -0.5946
    3MPD1    H214332   2.321   3.687  15.983  0.2535 -0.4691 -0.4854
    3MPD1    H314333   2.294   3.591  15.772 -1.1073 -2.0823 -0.5728
    3MPD1     N14334   2.588   3.259  15.843 -0.3099  0.7208  0.0576
    3MPD1    H514335   2.653   3.216  15.908 -0.5004  1.6404  0.8470
    3MPD1    N114336   2.454   3.570  16.192 -0.3838 -0.5986  0.0220
    3MPD1    H614337   2.443   3.671  16.194  0.9042 -0.5111  1.9789
    3MPD1    H714338   2.537   3.541  16.242 -0.4177  0.1581  0.5087
    1TMC1    C114339   0.950   2.432  13.367 -0.2564  0.1359  0.5486
    1TMC1    C214340   0.918   2.390  13.492  0.2610 -0.3120 -0.1841
    1TMC1    C314341   0.785   2.391  13.521 -0.0474  0.2411  0.0374
    1TMC1    C414342   0.860   2.465  13.269  0.2211 -0.0855  0.3896
    1TMC1    C514343   0.731   2.461  13.302 -0.3587  0.0385 -0.1890
    1TMC1    C614344   0.691   2.420  13.430  0.3858  0.1865 -0.7059
    1TMC1     C14345   1.088   2.461  13.344 -0.0949  0.0840  0.1749
    1TMC1     O14346   1.102   2.571  13.291 -0.0008 -0.2507  0.2073
    1TMC1     H14347   0.985   2.397  13.577 -0.3454  2.2987  0.0740
    1TMC1    H114348   0.899   2.497  13.173  0.0680  1.5963  0.8919
    1TMC1    H214349   0.587   2.417  13.460  1.3113  3.1684  2.7431
    1TMC1    C714350   0.638   2.479  13.195 -0.3820 -0.6994 -0.7943
    1TMC1    C814351   0.741   2.373  13.654 -0.3075 -0.8696  0.0041
    1TMC1    O114352   0.670   2.501  13.081 -0.1772 -0.1160 -0.6994
    1TMC1    O214353   0.810   2.321  13.740 -0.1024  0.2890 -0.3169
    1TMC1    O314354   0.521   2.418  13.229  0.1885 -0.8614  0.0022
    1TMC1    H314355   0.523   2.382  13.320 -1.6608 -1.1791 -0.0825
    1TMC1    O514356   0.645   2.468  13.670 -0.3504  0.2082  0.6098
    1TMC1    H514357   0.635   2.534  13.597 -0.5161 -2.9636 -2.2112
    2MPD2     C14358   1.393   2.504  13.346 -0.0075 -0.5983  0.2993
    2MPD2    C114359   1.322   2.408  13.429 -0.4358 -0.2574  0.5270
    2MPD2    C214360   1.400   2.320  13.509 -0.4808  0.2674 -0.2071
    2MPD2    C314361   1.545   2.339  13.512 -0.1345  0.2128  0.0229
    2MPD2    C414362   1.604   2.437  13.435  0.1252 -0.7456  0.1192
    2MPD2    C514363   1.530   2.514  13.352 -0.1549  0.1120 -0.2194
    2MPD2     H14364   1.361   2.239  13.569  0.0861  0.2447  0.1402
    2MPD2    H114365   1.711   2.457  13.438  0.0020 -0.3718  1.9431
    2MPD2    H214366   1.335   2.577  13.291 -0.7692 -0.1764  1.6602
    2MPD2    H314367   1.580   2.595  13.301  0.2750  0.9632  1.5315
    2MPD2     N14368   1.621   2.260  13.604  0.4745 -0.1084 -0.1842
    2MPD2    H514369   1.562   2.191  13.649 -1.5465  3.3260  2.4820
    2MPD2    N114370   1.179   2.385  13.415 -0.1018 -0.2595 -0.2817
    2MPD2    H714371   1.135   2.309  13.465 -3.2558  0.6687 -1.6316
    3TCq1    O114372   2.196   2.055  13.721  0.1845  0.2240  0.3054
    3TCq1    C114373   2.111   1.997  13.810  0.4678  0.1004 -0.7281
    3TCq1    O214374   2.153   1.928  13.901 -0.4327 -0.3209 -0.1278
    3TCq1    C214375   1.992   2.080  13.821  0.1621 -0.1738 -0.0281
    3TCq1    C314376   1.932   2.102  13.943  0.3913  0.0189 -0.7281
    3TCq1    C414377   1.812   2.160  13.951 -0.2588  0.6647  0.4887
    3TCq1    C514378   1.747   2.193  13.836 -0.8524  0.2534  0.3311
    3TCq1    C614379   1.808   2.174  13.715  0.2385  0.4770  0.2353
    3TCq1    C714380   1.940   2.128  13.704 -0.6003  0.6178 -0.5462
    3TCq1    C814381   1.760   2.251  13.606  0.3853  0.1912  0.6568
    3TCq1    O414382   1.847   2.300  13.537  0.1637  0.3168  0.6150
    3TCq1    C914383   1.762   2.201  14.079  0.0456  0.2257 -0.2470
    3TCq1    O514384   1.671   2.280  14.079  0.6383  0.1895  0.8180
    3TCq1    O614385   1.805   2.129  14.177 -0.0730 -0.7523  0.1309
    3TCq1    H114386   2.171   2.136  13.671 -0.7041 -0.5052 -0.4289
    3TCq1    H214387   1.989   2.083  14.033 -1.1076 -0.5397  0.1129
    3TCq1    H314388   1.650   2.241  13.839 -1.5482 -1.0604 -0.7985
    3TCq1    H414389   1.989   2.128  13.607  1.9001 -1.4363  0.7251
    1MPD2     C14390   0.659   3.508  14.638  0.1676  0.2292 -0.0894
    1MPD2    C114391   0.545   3.442  14.598  0.6977  0.2197  0.2427
    1MPD2    C214392   0.494   3.354  14.691  0.4408  0.0099 -0.1268
    1MPD2    C314393   0.546   3.325  14.816 -0.1652  0.1991  0.1341
    1MPD2    C414394   0.657   3.406  14.850  0.5574 -0.4603  0.1177
    1MPD2    C514395   0.708   3.496  14.765  0.9100 -0.6960  0.4609
    1MPD2     H14396   0.399   3.306  14.670  0.6914 -0.7079  0.3805
    1MPD2    H114397   0.712   3.380  14.940  0.1398 -2.6696 -0.2656
    1MPD2    H214398   0.701   3.580  14.569  0.8587  0.8935  1.0094
    1MPD2    H314399   0.803   3.539  14.794  0.0530  0.7153  1.1888
    1MPD2     N14400   0.492   3.230  14.908  0.1764  0.4239  0.0923
    1MPD2    H514401   0.541   3.223  14.996  0.9739 -1.3915 -0.5083
    1MPD2    N114402   0.491   3.464  14.466 -0.2730  0.4326  0.1920
    1MPD2    H714403   0.535   3.538  14.412 -2.6709  1.0050 -0.9848
    2TMC3    C114404   0.358   3.406  14.279 -0.2441 -0.1052  0.6285
    2TMC3    C214405   0.279   3.301  14.234 -0.0766 -0.4901  0.6979
    2TMC3    C314406   0.159   3.322  14.175  0.3754 -0.4756  0.3760
    2TMC3    C414407   0.317   3.537  14.261  0.0759  0.3240 -0.1122
    2TMC3    C514408   0.198   3.559  14.187  0.6317  0.6037  0.4632
    2TMC3    C614409   0.123   3.450  14.148 -0.4559 -0.2921 -0.4595
    2TMC3     C14410   0.395   3.379  14.411  0.0856 -0.9389 -0.1992
    2TMC3     O14411   0.320   3.298  14.467  0.1175  0.0624 -0.0887
    2TMC3     H14412   0.312   3.203  14.267  3.0906 -0.0625 -1.2032
    2TMC3    H114413   0.391   3.609  14.293 -0.9642  1.8596 -1.1254
    2TMC3    H214414   0.030   3.474  14.097 -0.1788  2.4194  0.3034
    2TMC3    C714415   0.198   3.667  14.085  0.6623 -0.0166  0.3478
    2TMC3    C814416   0.048   3.250  14.236 -0.2998  0.2192  0.3546
    2TMC3    O114417   0.130   3.666  13.985  0.5588  0.0174 -0.1115
    2TMC3    O214418   4.679   3.249  14.182 -0.0362  0.3780  0.2569
    3TCq1    O114419   0.897   4.666  13.933  0.0182 -0.4640 -0.2151
    3TCq1    C114420   0.954   4.600  14.034  0.1896  0.0551 -0.2237
    3TCq1    O214421   1.062   4.632  14.084  0.4350  0.5341  0.5357
    3TCq1    C214422   0.854   4.508  14.092 -0.2449 -0.1731 -0.0487
    3TCq1    C314423   0.864   4.488  14.226  0.3335 -0.5078 -0.2990
    3TCq1    C414424   0.795   4.391  14.282 -0.3792  0.5205  0.1355
    3TCq1    C514425   0.713   4.308  14.213 -0.1861 -0.3121 -0.0572
    3TCq1    C614426   0.703   4.342  14.078  0.0618  0.3555  0.4043
    3TCq1    C714427   0.774   4.440  14.016 -0.1735  0.0362 -0.4696
    3TCq1    C814428   0.627   4.259  13.990  0.0989  0.6847 -0.4001
    3TCq1    O414429   0.627   4.289  13.871 -0.7933  0.1737 -0.0602
    3TCq1    C914430   0.829   4.369  14.422 -0.6484  0.0379  0.8095
    3TCq1    O514431   0.739   4.303  14.485  0.0388 -0.1625 -0.6088
    3TCq1    O614432   0.924   4.430  14.467  0.1891  0.1405 -0.7042
    3TCq1    H114433   0.803   4.645  13.911  0.0121 -0.3296 -0.3194
    3TCq1    H214434   0.928   4.550  14.288 -1.1797 -1.8059  2.5873
    3TCq1    H314435   0.690   4.213  14.260 -2.2356  0.7899  1.1624
    3TCq1    H414436   0.778   4.444  13.907  0.9988  1.3229 -0.3759
    4MPD2     C14437   0.418   4.095  13.885 -1.1051 -0.9086  0.0516
    4MPD2    C114438   0.473   4.066  14.004  0.4825  0.0496  0.4754
    4MPD2    C214439   0.432   3.955  14.080 -0.3892 -0.4261  0.5495
    4MPD2    C314440   0.335   3.869  14.032 -0.4716  0.2371  0.0340
    4MPD2    C414441   0.277   3.898  13.909  0.0436  0.6181 -0.7479
    4MPD2    C514442   0.318   4.013  13.843  0.2145 -0.6221 -0.6071
    4MPD2     H14443   0.477   3.924  14.174  1.5458 -0.4957 -0.3972
    4MPD2    H114444   0.202   3.843  13.854 -0.4945 -1.2337  1.8491
    4MPD2    H214445   0.431   4.186  13.827  0.4882 -0.8633  0.4977
    4MPD2    H314446   0.273   4.030  13.746 -1.0549  0.6095  0.2020
    4MPD2     N14447   0.292   3.758  14.114  0.2639  0.2000  0.3961
    4MPD2    H514448   0.333   3.738  14.204 -1.3097 -0.8674  0.8716
    4MPD2    N114449   0.579   4.145  14.054 -0.6607 -0.3467  0.1779
    4MPD2    H714450   0.626   4.114  14.138  1.3199  1.3363 -0.2907
    5TMC2    C114451   0.158   2.913  14.988  0.8110 -0.0395 -0.7973
    5TMC2    C214452   0.119   2.971  15.102 -0.1080  0.2398 -0.2993
    5TMC2    C314453   0.205   3.070  15.153 -0.5923 -0.5972 -0.8834
    5TMC2    C414454   0.275   2.947  14.922 -0.1333  0.6507 -0.1430
    5TMC2    C514455   0.355   3.047  14.974 -0.5122  0.9219  0.2199
    5TMC2    C614456   0.314   3.117  15.084  0.4187  0.5803  0.5232
    5TMC2     C14457   0.051   2.889  14.884  0.3857  0.4937 -0.4049
    5TMC2     O14458   4.679   2.855  14.927  0.1516  0.7857 -0.0656
    5TMC2     H14459   0.022   2.959  15.149  0.1422 -0.1145  0.1182
    5TMC2    H114460   0.305   2.884  14.840  0.3229  0.8020 -0.0941
    5TMC2    H214461   0.370   3.197  15.132  0.4624  1.7877 -1.5040
    5TMC2    C714462   0.397   3.136  14.871 -0.2361  0.3090  0.2475
    5TMC2    C814463   0.161   3.151  15.259  0.3313  0.1406  0.5226
    5TMC2    O114464   0.334   3.109  14.772 -0.2100  0.5944 -0.6005
    5TMC2    O214465   0.236   3.190  15.348  0.3384 -0.1634  0.5152
    5TMC2    O514466   0.039   3.207  15.235 -0.6322 -0.3786 -0.5157
    5TMC2    H514467   4.716   3.161  15.174 -2.0947 -1.3751  1.7220
    6MPD2     C14468   4.633   3.053  14.413 -0.6094 -0.4082  0.1352
    6MPD2    C114469   0.010   3.119  14.451 -0.4365  0.3050  0.2707
    6MPD2    C214470   0.065   3.096  14.575  0.7356 -0.6378  0.2393
    6MPD2    C314471   0.007   3.005  14.660 -0.2631  0.0355  0.2329
    6MPD2    C414472   4.621   2.948  14.634 -0.1568 -0.1809  0.3234
    6MPD2    C514473   4.565   2.972  14.504 -0.3668  1.0459 -0.0612
    6MPD2     H14474   0.162   3.136  14.605 -0.0790  2.0637 -0.7438
    6MPD2    H114475   4.575   2.868  14.692 -0.0740 -1.5134 -1.4561
    6MPD2    H214476   4.588   3.070  14.316 -0.3077 -0.4604 -0.0130
    6MPD2    H314477   4.480   2.912  14.475  1.4852 -0.1721 -3.0111
    6MPD2     N14478   0.086   2.970  14.774  0.5371 -0.0997  0.0429
    6MPD2    H514479   0.177   3.015  14.774  0.8092 -0.6354  2.0305
    6MPD2    N114480   0.086   3.204  14.363 -0.3014 -0.3433 -0.8562
    6MPD2    H714481   0.174   3.245  14.392 -0.4381  1.9075 -3.5857
  945NH3     N114482   0.272   3.545   2.333 -0.2294 -0.3795  0.2955
  945NH3     H214483   0.355   3.488   2.320 -0.7421 -1.5314  1.9904
  945NH3     H314484   0.208   3.506   2.265 -0.4558 -0.8930  0.8000
  945NH3     H414485   0.236   3.502   2.418  1.5437 -1.8983  0.2857
  946SOD     NA14486   2.579   3.916  15.167  0.1860 -0.0590 -0.2833
  947SOD     NA14487   2.407   2.452   1.826  0.3267 -0.4209  0.2256
  948SOD     NA14488   1.111   2.787  13.343  0.0746  0.0957 -0.0638
  949SOD     NA14489   1.628   2.603  10.354 -0.1598 -0.2206 -0.1145
  950SOD     NA14490   3.302   1.800  12.914  0.7276  0.0688 -0.1927
  951SOD     NA14491   4.403   1.541   8.529  0.0059 -0.0907  0.4671
  952SOD     NA14492   0.942   2.903   2.036 -0.0632  0.8566  0.0519
  953SOD     NA14493   1.570   2.070  14.555  0.2996  0.1672 -0.0276
  954SOL     OW14494   3.395   4.246  13.612  0.0167 -0.1445 -0.2570
  954SOL    HW114495   3.408   4.189  13.688 -1.2887  1.7085  1.3614
  954SOL    HW214496   3.469   4.306  13.616 -0.7178  0.6480  1.4171
  955SOL     OW14497   1.318   0.265  15.113 -0.0753  0.1787 -0.5077
  955SOL    HW114498   1.250   0.213  15.071  0.1140  1.2458 -2.0997
  955SOL    HW214499   1.268   0.292  15.190  0.9960 -0.7166  0.5212
  956SOL     OW14500   2.625   2.627   6.529 -0.0724  0.2015 -0.5706
  956SOL    HW114501   2.694   2.668   6.581 -1.2759  1.2276  0.2013
  956SOL    HW214502   2.541   2.662   6.559  0.3930  1.3968 -0.6885
  957SOL     OW14503   0.753   3.976  16.628 -0.3005  0.1335 -0.1776
  957SOL    HW114504   0.679   4.036  16.624 -0.3529  0.0605 -0.2948
  957SOL    HW214505   0.723   3.911  16.565 -1.7135 -0.0314  0.6698
  958SOL     OW14506   1.050   4.503  16.646 -0.1926 -0.2169 -0.7077
  958SOL    HW114507   1.124   4.551  16.608 -0.6145  0.9351 -0.0721
  958SOL    HW214508   1.009   4.558  16.713  0.7651  0.8007 -0.9536
  959SOL     OW14509   3.799   2.709   7.183  0.5812  0.2108 -0.1384
  959SOL    HW114510   3.711   2.689   7.152  0.8022 -2.1899  0.8137
  959SOL    HW214511   3.847   2.665   7.113 -0.3741 -1.4267  0.2427
  960SOL     OW14512   2.002   4.731   6.297 -0.0171  0.5016  0.3256
  960SOL    HW114513   1.931   4.677   6.331 -0.2712 -0.7130 -2.1288
  960SOL    HW214514   1.950   0.030   6.225  1.0306  1.8721  0.2920
  961SOL     OW14515   1.862   2.549   9.169  0.3934  0.1650 -0.5844
  961SOL    HW114516   1.876   2.456   9.154 -0.9801 -0.0935 -0.1736
  961SOL    HW214517   1.770   2.542   9.194  0.6809 -0.7155  0.2492
  962SOL     OW14518   0.674   1.512   5.505 -0.3332  0.2571  0.2604
  962SOL    HW114519   0.742   1.565   5.463 -0.4481 -0.2401 -0.5360
  962SOL    HW214520   0.631   1.480   5.426  0.1185 -1.6778  0.7978
  963SOL     OW14521   1.920   0.237   8.786 -0.5565  0.7215  0.0449
  963SOL    HW114522   1.850   0.238   8.852 -0.3003 -0.5260  0.3373
  963SOL    HW214523   1.987   0.180   8.824 -1.4961 -0.2367  0.2539
  964SOL     OW14524   2.489   2.154   2.403  0.6113 -0.1135  0.1851
  964SOL    HW114525   2.475   2.198   2.487  0.1576  1.0558 -0.5050
  964SOL    HW214526   2.536   2.078   2.437 -1.1186 -0.7472  1.1856
  965SOL     OW14527   3.567   0.198   6.961  0.2647 -0.4208  0.4914
  965SOL    HW114528   3.589   0.280   6.916  3.5669 -1.6120 -0.0549
  965SOL    HW214529   3.654   0.168   6.988  1.1150 -0.3870 -2.2678
  966SOL     OW14530   2.212   2.890  12.626 -0.1833 -0.3833  0.3725
  966SOL    HW114531   2.301   2.868  12.599 -0.3476  1.4900 -1.7055
  966SOL    HW214532   2.234   2.950  12.697 -0.6902  0.7758 -0.4500
  967SOL     OW14533   3.682   3.889  14.062  0.3164  0.2519  0.3485
  967SOL    HW114534   3.740   3.954  14.022 -1.1749  1.0499 -0.4973
  967SOL    HW214535   3.745   3.821  14.085 -0.6642 -0.5697  0.5795
  968SOL     OW14536   3.559   4.150   8.736  0.3495  0.2896 -0.2585
  968SOL    HW114537   3.567   4.177   8.645  0.6353  0.9983 -0.0231
  968SOL    HW214538   3.649   4.153   8.767  0.5715 -0.1846 -0.8545
  969SOL     OW14539   1.265   3.022  10.991  0.1422  0.2767 -0.3641
  969SOL    HW114540   1.356   3.042  11.013 -0.1219  0.1028  0.9230
  969SOL    HW214541   1.226   3.107  10.972 -1.0133  0.1150  1.2103
  970SOL     OW14542   0.001   2.020   3.514  0.2284 -0.1581  0.3603
  970SOL    HW114543   4.735   1.966   3.593  1.3249  1.0736  1.2580
  970SOL    HW214544   0.069   1.975   3.464 -0.6634  0.6417 -1.5714
  971SOL     OW14545   3.813   2.282   7.063 -0.5595 -0.1421  0.1122
  971SOL    HW114546   3.830   2.372   7.036  2.5866 -0.2453  1.7709
  971SOL    HW214547   3.791   2.254   6.974 -2.1224 -1.9818  1.0683
  972SOL     OW14548   3.565   1.483   6.156 -0.5170  0.6475  0.0264
  972SOL    HW114549   3.629   1.451   6.219 -1.8808 -0.0557  1.0530
  972SOL    HW214550   3.612   1.536   6.091  1.5961  2.5303  3.0799
  973SOL     OW14551   2.868   1.959   7.660  0.9885  0.0358  0.0482
  973SOL    HW114552   2.947   1.927   7.616  0.4770 -0.0297 -0.8243
  973SOL    HW214553   2.890   2.051   7.676 -0.3953  0.4538 -0.4333
  974SOL     OW14554   3.492   3.066   1.203 -0.5062  0.5045  0.0210
  974SOL    HW114555   3.563   3.121   1.172  0.9545 -0.6179  1.4005
  974SOL    HW214556   3.419   3.119   1.171  0.0263  1.0546 -0.2905
  975SOL     OW14557   0.555   3.781   3.076 -0.0637  0.0266  0.1497
  975SOL    HW114558   0.584   3.871   3.093 -1.6552  0.7633 -1.0411
  975SOL    HW214559   0.595   3.756   2.993  0.3404  1.8772 -0.2264
  976SOL     OW14560   3.781   4.309   5.470  0.5335 -0.5810  0.0483
  976SOL    HW114561   3.756   4.373   5.537 -0.0939 -1.2188  0.4271
  976SOL    HW214562   3.849   4.253   5.509 -0.2242 -1.8767 -0.4798
  977SOL     OW14563   2.294   2.230   1.869  0.0828  0.9244 -0.3041
  977SOL    HW114564   2.320   2.152   1.917 -0.5211  0.1001 -1.3000
  977SOL    HW214565   2.198   2.232   1.873  0.1142  2.1810 -0.2373
  978SOL     OW14566   1.092   3.523  11.764 -0.1882 -0.3265 -0.1385
  978SOL    HW114567   1.027   3.586  11.734  0.4063  0.0563 -0.6292
  978SOL    HW214568   1.047   3.441  11.741 -1.6512  0.4961 -0.1684
  979SOL     OW14569   0.261   3.288  10.677 -0.1105 -0.3841 -0.3512
  979SOL    HW114570   0.250   3.241  10.760 -0.2050  2.5994  1.3239
  979SOL    HW214571   0.353   3.265  10.662 -0.3943 -1.3009 -0.7174
  980SOL     OW14572   2.616   3.386   6.454  0.3542 -0.1102  0.0472
  980SOL    HW114573   2.581   3.302   6.425 -2.4741  1.0308  0.1986
  980SOL    HW214574   2.614   3.436   6.373 -0.6068 -0.4273 -0.1257
  981SOL     OW14575   3.419   0.326   5.062 -0.6496  0.1554 -0.0039
  981SOL    HW114576   3.464   0.409   5.081  2.8984 -1.4037 -1.7103
  981SOL    HW214577   3.333   0.355   5.094 -0.2051 -0.9250  2.1484
  982SOL     OW14578   2.515   2.434   3.572  0.1362 -0.1552 -0.2881
  982SOL    HW114579   2.583   2.477   3.520  1.0621 -1.5576 -0.2460
  982SOL    HW214580   2.435   2.452   3.524  0.2504  0.5565 -0.1990
  983SOL     OW14581   0.522   3.221   3.698  0.2632  0.1579 -0.4023
  983SOL    HW114582   0.458   3.156   3.668 -0.4786  1.2702 -1.2352
  983SOL    HW214583   0.470   3.296   3.728  1.4138  1.5798 -1.9541
  984SOL     OW14584   3.261   1.595   8.733 -0.1534 -0.1495 -0.3925
  984SOL    HW114585   3.281   1.597   8.826  0.6646  2.2667 -0.6282
  984SOL    HW214586   3.201   1.668   8.719 -0.2026 -0.0350  0.4350
  985SOL     OW14587   1.556   1.088   6.577  0.1640 -0.0734  0.0830
  985SOL    HW114588   1.526   1.176   6.556  1.7764  0.8890  1.8005
  985SOL    HW214589   1.594   1.071   6.491  0.4633  1.8190 -0.1623
  986SOL     OW14590   0.330   1.661   0.505  0.1495 -0.3784  0.0802
  986SOL    HW114591   0.288   1.745   0.486 -0.0771 -0.3010  0.9395
  986SOL    HW214592   0.324   1.618   0.420 -2.6764  0.3412 -0.0900
  987SOL     OW14593   3.710   4.491   8.724 -0.1178 -1.2943  0.3525
  987SOL    HW114594   3.738   4.399   8.728 -0.5936 -1.4997 -1.1076
  987SOL    HW214595   3.718   4.514   8.817 -2.4710  0.9824 -0.0003
  988SOL     OW14596   4.124   4.443  12.231 -0.5503 -0.0852 -0.1106
  988SOL    HW114597   4.158   4.394  12.305  1.1063  2.9812  1.1517
  988SOL    HW214598   4.112   4.364  12.178  2.6126  0.7065 -2.0270
  989SOL     OW14599   0.375   4.200   6.321  0.3685 -0.4896  0.0766
  989SOL    HW114600   0.283   4.174   6.327  0.0915  0.8294  1.4471
  989SOL    HW214601   0.391   4.272   6.382 -0.6940 -0.6215  0.5071
  990SOL     OW14602   2.092   4.102   9.204  0.3987 -0.1531 -0.0973
  990SOL    HW114603   2.117   4.194   9.214  1.4146 -0.5756  1.2657
  990SOL    HW214604   2.091   4.072   9.295 -1.2006 -2.5233 -0.8970
  991SOL     OW14605   1.626   0.596   5.001  0.2079 -0.1645  0.5083
  991SOL    HW114606   1.671   0.593   4.917 -0.7708  0.6161 -0.0447
  991SOL    HW214607   1.640   0.688   5.026 -0.8589 -0.4365  2.1613
  992SOL     OW14608   0.351   2.869   8.570 -0.0648  0.0277  0.4154
  992SOL    HW114609   0.422   2.926   8.541 -0.2638  0.8526  1.5413
  992SOL    HW214610   0.286   2.870   8.499  0.5670 -0.7390 -0.1603
  993SOL     OW14611   3.340   4.654   1.661  0.2019 -0.4883  0.6921
  993SOL    HW114612   3.258   4.697   1.683  0.1018 -0.1211 -0.3825
  993SOL    HW214613   3.382   4.675   1.744  2.0234  1.0058 -0.6115
  994SOL     OW14614   3.695   0.595   3.499 -0.0906 -0.0549  0.8530
  994SOL    HW114615   3.660   0.672   3.543  0.1553 -0.4376  1.7237
  994SOL    HW214616   3.738   0.545   3.568  2.6900  1.9262  0.5329
  995SOL     OW14617   3.978   2.383   4.447 -0.8456  0.2496  0.2418
  995SOL    HW114618   3.974   2.320   4.520 -3.5514 -1.0744 -1.0440
  995SOL    HW214619   4.065   2.364   4.413 -0.8278  0.0518  0.3926
  996SOL     OW14620   0.327   3.029   3.700  0.6412 -0.0075  0.1126
  996SOL    HW114621   0.367   2.964   3.642  1.8672 -0.4043  1.3859
  996SOL    HW214622   0.317   2.970   3.775  2.5702 -1.4529 -0.7579
  997SOL     OW14623   0.923   2.112   5.048 -0.1113  0.0103  0.8986
  997SOL    HW114624   0.885   2.053   5.113  0.0912 -0.0435  0.9644
  997SOL    HW214625   1.010   2.072   5.046 -0.6533 -1.1050 -1.5459
  998SOL     OW14626   1.154   2.084   3.549  0.3045 -0.2113 -1.0373
  998SOL    HW114627   1.230   2.142   3.542  0.8115 -0.7495 -0.0872
  998SOL    HW214628   1.206   2.006   3.571  0.7770  0.3365 -0.2205
  999SOL     OW14629   0.342   2.894  12.794  0.3126  0.0484 -0.4698
  999SOL    HW114630   0.351   2.868  12.702  0.5131  0.1876 -0.4906
  999SOL    HW214631   0.348   2.989  12.794  0.3459  0.0466  2.4895
 1000SOL     OW14632   0.642   1.459  16.344  0.0534  0.0423 -0.0176
 1000SOL    HW114633   0.580   1.387  16.351 -0.4072  0.3347 -1.1456
 1000SOL    HW214634   0.591   1.537  16.365 -0.3500  0.0385 -1.0221
 1001SOL     OW14635   3.851   1.684   4.144  0.1665 -0.1681  0.0769
 1001SOL    HW114636   3.849   1.653   4.235  1.7106  2.0343  0.8304
 1001SOL    HW214637   3.922   1.628   4.113 -0.2058 -0.5374 -0.1164
 1002SOL     OW14638   4.258   2.448   0.862 -0.2900 -0.0776  0.0342
 1002SOL    HW114639   4.342   2.406   0.877 -0.9765 -0.5164  2.6721
 1002SOL    HW214640   4.201   2.373   0.846  0.1375 -0.2946 -0.4297
 1003SOL     OW14641   3.346   2.860   1.856 -0.3621 -0.4974 -0.4259
 1003SOL    HW114642   3.399   2.784   1.882  0.0996  0.9264  2.7534
 1003SOL    HW214643   3.256   2.832   1.876 -0.5249 -0.5329 -1.2140
 1004SOL     OW14644   2.341   1.971   5.421  0.5656 -0.6531 -0.1351
 1004SOL    HW114645   2.338   2.055   5.466 -0.0334 -0.5517 -0.3729
 1004SOL    HW214646   2.251   1.973   5.390  0.2032  0.2039  1.0063
 1005SOL     OW14647   2.323   4.196   0.137 -0.1559  0.2805  0.7824
 1005SOL    HW114648   2.241   4.240   0.112 -0.0149  1.0620  1.6964
 1005SOL    HW214649   2.375   4.226   0.063 -2.6354  0.5303 -0.8746
 1006SOL     OW14650   0.456   3.266   3.225  0.1085 -0.6145 -0.0314
 1006SOL    HW114651   0.441   3.207   3.151  1.5731 -2.1478  0.8793
 1006SOL    HW214652   0.542   3.303   3.205  0.3717 -0.8124  0.7558
 1007SOL     OW14653   1.328   0.292   3.188 -0.4660 -0.1326  0.1360
 1007SOL    HW114654   1.321   0.199   3.165 -1.3812  0.1416 -0.6976
 1007SOL    HW214655   1.250   0.295   3.244  0.1278  2.6165  0.8271
 1008SOL     OW14656   0.308   3.023   6.160  0.5097 -0.4712  0.3029
 1008SOL    HW114657   0.345   2.935   6.153 -1.0934 -1.0360 -0.9931
 1008SOL    HW214658   0.328   3.045   6.251 -0.6872 -0.0055  0.4446
 1009SOL     OW14659   2.924   3.135   6.667 -0.1379  0.4351  0.8606
 1009SOL    HW114660   2.907   3.222   6.703  1.2837  0.3009  1.8595
 1009SOL    HW214661   2.949   3.090   6.748  0.6699  1.1955  1.0321
 1010SOL     OW14662   3.818   2.209   4.098  0.1870 -0.4179  0.0993
 1010SOL    HW114663   3.794   2.116   4.103  1.9780 -0.7741  1.9105
 1010SOL    HW214664   3.758   2.253   4.159  1.8455  1.9877 -0.0066
 1011SOL     OW14665   3.355   2.808   2.298 -0.1763 -0.2571 -0.2349
 1011SOL    HW114666   3.340   2.723   2.340  1.4795 -0.2250  0.4132
 1011SOL    HW214667   3.372   2.859   2.378  0.5994 -2.4406  1.0040
 1012SOL     OW14668   0.744   2.552  11.190  0.7571 -0.3623 -0.2826
 1012SOL    HW114669   0.769   2.564  11.098  0.6501  1.8484 -0.0234
 1012SOL    HW214670   0.822   2.510  11.227 -0.5873 -0.0554  2.8714
 1013SOL     OW14671   1.846   2.056   9.848 -0.0883 -0.5443 -0.0171
 1013SOL    HW114672   1.823   2.073   9.756 -1.9295  0.8120  0.6827
 1013SOL    HW214673   1.935   2.021   9.844 -0.2607 -0.7885 -1.7388
 1014SOL     OW14674   1.547   2.298   4.792  0.4759  0.1137  0.3172
 1014SOL    HW114675   1.536   2.310   4.697  1.8646 -2.6638 -0.2044
 1014SOL    HW214676   1.631   2.338   4.812  0.5221 -0.2970  0.9168
 1015SOL     OW14677   1.899   0.705   2.398 -0.1325  0.2795 -0.4614
 1015SOL    HW114678   1.911   0.714   2.304 -2.2338 -1.6335 -0.9116
 1015SOL    HW214679   1.842   0.629   2.414  1.6046 -0.7142  1.0425
 1016SOL     OW14680   4.377   2.644   5.504 -0.4108  0.2791  0.2451
 1016SOL    HW114681   4.413   2.699   5.573 -0.4988 -0.1287  0.6183
 1016SOL    HW214682   4.444   2.660   5.437 -1.3621  1.0843 -0.5200
 1017SOL     OW14683   4.305   2.732   9.665 -0.1167  0.1424  0.3835
 1017SOL    HW114684   4.348   2.746   9.581  1.5141  0.1628  1.2259
 1017SOL    HW214685   4.277   2.641   9.653 -0.0934  0.1161  0.5227
 1018SOL     OW14686   2.988   1.200   5.894 -0.0423  0.1071  0.1337
 1018SOL    HW114687   2.924   1.148   5.846  1.3735 -2.2486  0.8314
 1018SOL    HW214688   2.939   1.280   5.916 -0.0635  0.5349 -1.4651
 1019SOL     OW14689   0.073   1.625   4.183  0.3657 -0.0848 -0.4941
 1019SOL    HW114690   0.135   1.640   4.255  1.0180 -0.4293 -0.9824
 1019SOL    HW214691   0.134   1.591   4.118  0.3232 -1.4151  0.1494
 1020SOL     OW14692   0.628   2.690   7.488  0.7720  0.3913  0.1568
 1020SOL    HW114693   0.537   2.666   7.471  1.8221 -2.0641 -2.0284
 1020SOL    HW214694   0.667   2.667   7.403 -0.9735 -1.2510 -0.2006
 1021SOL     OW14695   4.373   0.132   8.281 -0.0584  0.7025 -0.4245
 1021SOL    HW114696   4.395   0.222   8.258  1.5511  0.8271  1.5712
 1021SOL    HW214697   4.448   0.121   8.340  0.7491 -1.1221 -1.8182
 1022SOL     OW14698   0.626   2.665   6.998 -0.6121  0.4624 -0.5009
 1022SOL    HW114699   0.607   2.721   7.074  0.4755 -0.5564  0.5312
 1022SOL    HW214700   0.719   2.689   6.995 -0.0313 -1.6125  0.4450
 1023SOL     OW14701   2.792   3.971   3.236 -0.1981  0.3123  0.1523
 1023SOL    HW114702   2.847   3.924   3.173  0.2352  2.2276 -0.9046
 1023SOL    HW214703   2.714   3.999   3.189 -1.1013  0.8317  1.9609
 1024SOL     OW14704   4.662   3.713   9.244 -0.2135 -0.0650 -0.0204
 1024SOL    HW114705   4.734   3.651   9.251  0.2028  0.5734  1.3321
 1024SOL    HW214706   4.620   3.695   9.328 -1.5854  0.0251 -0.6841
 1025SOL     OW14707   1.432   2.617   1.548  0.2597 -0.2954  0.0241
 1025SOL    HW114708   1.456   2.552   1.483  1.5423 -0.6350  0.8485
 1025SOL    HW214709   1.363   2.667   1.504  2.3419  1.3319 -1.3958
 1026SOL     OW14710   1.670   1.990  16.605  1.0387  0.1280 -0.5358
 1026SOL    HW114711   1.621   1.945  16.536 -0.6401 -1.5526  1.7383
 1026SOL    HW214712   1.602   2.049  16.637  1.7667  0.7695 -0.1753
 1027SOL     OW14713   3.043   4.302   4.217 -0.1322 -0.2212 -0.0481
 1027SOL    HW114714   3.050   4.224   4.162  0.1834 -2.5149  3.2918
 1027SOL    HW214715   3.081   4.282   4.302  0.0472 -2.3820 -0.6347
 1028SOL     OW14716   1.306   3.137   0.697  0.5386 -0.1470 -0.0096
 1028SOL    HW114717   1.290   3.044   0.686 -0.6696 -0.1631  1.7019
 1028SOL    HW214718   1.332   3.144   0.789  0.3461  1.5740 -0.0830
 1029SOL     OW14719   2.065   2.252   9.278 -0.4709 -0.0611  0.3755
 1029SOL    HW114720   2.067   2.334   9.328  0.0150 -0.3348  0.8050
 1029SOL    HW214721   1.970   2.239   9.276 -0.6346  0.9752  1.5561
 1030SOL     OW14722   2.566   1.508   3.500 -0.0205 -0.5712 -0.2475
 1030SOL    HW114723   2.527   1.424   3.478 -2.7651  0.2467  1.4871
 1030SOL    HW214724   2.504   1.572   3.464 -0.4908 -1.0103 -0.2131
 1031SOL     OW14725   1.461   3.489  13.535 -0.1000  0.3498  0.1082
 1031SOL    HW114726   1.408   3.455  13.607 -0.1525 -0.9611 -0.5445
 1031SOL    HW214727   1.406   3.557  13.496  1.1297  1.7916  0.8846
 1032SOL     OW14728   2.566   3.711   7.891 -0.3019 -0.1113  0.2769
 1032SOL    HW114729   2.619   3.791   7.880 -1.2535  0.2056 -2.1623
 1032SOL    HW214730   2.481   3.751   7.907  1.0470  2.3874  1.3059
 1033SOL     OW14731   3.928   1.055   3.402  0.8205 -0.2796  0.1602
 1033SOL    HW114732   4.006   1.028   3.451  1.0879 -2.2464 -1.3645
 1033SOL    HW214733   3.933   1.150   3.409  1.5078 -0.1912 -1.4504
 1034SOL     OW14734   3.935   2.991  16.056  0.1185 -0.3968 -0.0814
 1034SOL    HW114735   3.848   3.029  16.045  0.4239  0.2228 -0.4131
 1034SOL    HW214736   3.981   3.075  16.064 -2.1353  0.8518 -0.2457
 1035SOL     OW14737   3.249   0.766   6.594 -0.2034 -0.6175 -0.3149
 1035SOL    HW114738   3.255   0.766   6.498  1.6135 -0.3655 -0.2083
 1035SOL    HW214739   3.343   0.769   6.612  0.0200 -1.4371 -1.3103
 1036SOL     OW14740   4.510   3.753   3.459 -0.0909 -0.2015 -0.1131
 1036SOL    HW114741   4.496   3.750   3.554  0.2831  0.7055 -0.0279
 1036SOL    HW214742   4.598   3.789   3.453 -0.1495 -0.1754 -0.8233
 1037SOL     OW14743   1.277   1.595   6.313  0.2745 -0.3526  0.0249
 1037SOL    HW114744   1.317   1.556   6.235 -0.2973 -1.1031  0.1073
 1037SOL    HW214745   1.219   1.660   6.274 -2.0774 -1.3712  1.8992
 1038SOL     OW14746   1.898   3.328   9.655  0.5284 -0.2826  0.3104
 1038SOL    HW114747   1.936   3.356   9.571  0.3575 -0.8040  0.0560
 1038SOL    HW214748   1.807   3.330   9.627  1.1946  0.3882 -1.8044
 1039SOL     OW14749   2.466   4.187   1.229  0.0880  0.2954 -0.3198
 1039SOL    HW114750   2.376   4.220   1.239  0.2021 -0.3928  2.7083
 1039SOL    HW214751   2.491   4.245   1.157  0.1991 -2.2351 -2.3403
 1040SOL     OW14752   0.979   3.891   4.891  0.1326 -0.2915 -0.0893
 1040SOL    HW114753   0.956   3.799   4.882 -0.9667  0.0104 -0.2991
 1040SOL    HW214754   0.928   3.939   4.826 -1.2333 -1.1930  0.3294
 1041SOL     OW14755   2.472   2.747   4.603  0.1226  0.5982  0.2693
 1041SOL    HW114756   2.532   2.819   4.582 -1.6552  1.3832 -2.1348
 1041SOL    HW214757   2.515   2.713   4.682  0.1781  0.8792  0.3622
 1042SOL     OW14758   1.145   1.045  10.468 -0.1508  0.0688  0.3213
 1042SOL    HW114759   1.086   1.042  10.392 -2.7573 -1.1419  2.3803
 1042SOL    HW214760   1.169   0.953  10.484 -1.9347 -0.7245 -1.4472
 1043SOL     OW14761   4.607   0.500   4.362 -0.3615 -0.3100  0.2266
 1043SOL    HW114762   4.619   0.563   4.433 -1.6547 -0.3713  0.4855
 1043SOL    HW214763   4.700   0.481   4.346 -0.0349  1.2028  0.3913
 1044SOL     OW14764   0.588   2.766   4.398 -0.2053  0.3189  0.6293
 1044SOL    HW114765   0.521   2.832   4.414  1.4124  1.5742  2.2194
 1044SOL    HW214766   0.608   2.738   4.488  1.3734  1.1960  0.5573
 1045SOL     OW14767   2.518   3.032  15.270  0.1069  0.5999 -0.0975
 1045SOL    HW114768   2.518   2.989  15.355 -0.5889  0.2668 -0.2665
 1045SOL    HW214769   2.520   2.960  15.207 -2.1810  2.8205 -2.7339
 1046SOL     OW14770   0.413   1.773   5.115 -0.1486  0.0300 -0.1845
 1046SOL    HW114771   0.415   1.868   5.103  0.9918  0.0058 -0.1622
 1046SOL    HW214772   0.404   1.773   5.210  1.9805 -1.8839  0.0190
 1047SOL     OW14773   2.229   1.158  17.543  0.2735 -0.2274  0.1586
 1047SOL    HW114774   2.229   1.087  17.478  0.4633 -0.4141  0.3616
 1047SOL    HW214775   2.323   1.175  17.541  0.1084  0.3662 -2.5994
 1048SOL     OW14776   4.734   2.869  10.038 -1.0905 -0.2314  0.0695
 1048SOL    HW114777   4.728   2.853  10.132  2.0847  0.2348  0.3262
 1048SOL    HW214778   0.031   2.784  10.012  1.5643  1.1066 -0.7036
 1049SOL     OW14779   2.396   2.471   4.979  0.4023  0.6885  0.5301
 1049SOL    HW114780   2.471   2.531   4.975  0.6066  0.4348  0.5454
 1049SOL    HW214781   2.369   2.478   5.070 -1.3067  1.7399 -0.0679
 1050SOL     OW14782   4.723   4.627   5.485  0.6001  0.1473 -0.4972
 1050SOL    HW114783   0.061   4.664   5.441 -0.3920 -1.3551 -3.5059
 1050SOL    HW214784   4.655   4.630   5.417 -0.9716 -2.2709  0.9697
 1051SOL     OW14785   2.257   2.005  15.526 -0.7262  0.6130  0.0549
 1051SOL    HW114786   2.203   1.998  15.447  0.9353 -1.1985 -0.9180
 1051SOL    HW214787   2.335   1.958  15.498 -2.6608 -1.7172 -1.5434
 1052SOL     OW14788   0.237   0.803   3.588 -0.3200 -0.0730 -0.2817
 1052SOL    HW114789   0.163   0.784   3.532  1.1472 -1.7901 -1.6208
 1052SOL    HW214790   0.217   0.889   3.625 -0.5506  0.2424 -1.1357
 1053SOL     OW14791   2.580   0.699   2.974  0.3027 -0.8008 -0.6203
 1053SOL    HW114792   2.523   0.768   3.005 -0.7606 -1.4315 -1.1860
 1053SOL    HW214793   2.642   0.693   3.047 -0.2588  2.6138  0.1120
 1054SOL     OW14794   3.524   2.029  15.660  0.6294 -0.3399  0.6990
 1054SOL    HW114795   3.481   2.088  15.722 -0.7810  1.4870 -1.9925
 1054SOL    HW214796   3.590   2.089  15.623  1.2060 -1.7888 -0.5980
 1055SOL     OW14797   0.661   3.083   5.662 -0.5181 -0.5432 -0.2673
 1055SOL    HW114798   0.648   3.141   5.737 -1.5155 -1.2954  0.1339
 1055SOL    HW214799   0.742   3.038   5.689 -0.2420  0.2513  0.2297
 1056SOL     OW14800   3.868   0.572   9.835 -0.1972 -0.1040 -0.4679
 1056SOL    HW114801   3.837   0.482   9.829 -1.3479  0.2951 -0.5413
 1056SOL    HW214802   3.958   0.569   9.804 -1.1378 -1.2776 -3.0550
 1057SOL     OW14803   0.694   4.553   5.014 -0.3762 -0.1939 -0.3174
 1057SOL    HW114804   0.674   4.583   4.925  0.0841 -2.0003 -1.0091
 1057SOL    HW214805   0.649   4.625   5.059 -0.1176 -0.9266  1.1110
 1058SOL     OW14806   0.087   2.209   3.946 -0.1902  0.8622  0.1382
 1058SOL    HW114807   0.082   2.241   3.856 -0.4060  0.2214 -0.0807
 1058SOL    HW214808   0.171   2.162   3.946 -0.1911  0.8714  1.4721
 1059SOL     OW14809   0.923   3.931   7.376  0.4798 -0.6916  0.8431
 1059SOL    HW114810   0.914   3.848   7.422 -0.0053  1.0228  3.8796
 1059SOL    HW214811   0.986   3.974   7.434  0.9269  0.6709 -0.6350
 1060SOL     OW14812   1.278   1.585   4.696  0.0913 -0.4616 -0.0479
 1060SOL    HW114813   1.342   1.516   4.715  1.1750  0.2683 -1.0231
 1060SOL    HW214814   1.196   1.546   4.726  0.3524 -0.9214  0.0643
 1061SOL     OW14815   2.948   3.725   6.455 -0.5026 -0.0294  0.5951
 1061SOL    HW114816   3.024   3.778   6.430 -1.9755  0.4373 -2.7959
 1061SOL    HW214817   2.945   3.728   6.551  0.7053 -3.3380  0.7365
 1062SOL     OW14818   3.672   4.517   9.398  0.2971  0.5298 -0.2576
 1062SOL    HW114819   3.736   4.449   9.377 -2.3673 -1.9098 -0.3153
 1062SOL    HW214820   3.732   4.592   9.395  0.6834  0.2675  0.6994
 1063SOL     OW14821   4.604   4.374  15.372 -0.4426  0.2713 -0.0057
 1063SOL    HW114822   4.588   4.342  15.461 -0.5966  1.8751  0.5357
 1063SOL    HW214823   4.637   4.462  15.391  1.7788 -1.1337  2.7821
 1064SOL     OW14824   4.716   3.653   2.949 -0.1571  0.1081  0.1122
 1064SOL    HW114825   0.067   3.629   2.972 -0.1442  0.9416  0.9335
 1064SOL    HW214826   4.667   3.595   3.008  1.0945 -0.9913  0.0625
 1065SOL     OW14827   2.327   3.767   3.306  0.1592 -0.0079 -0.5796
 1065SOL    HW114828   2.313   3.734   3.395  3.3736  2.3008  0.7915
 1065SOL    HW214829   2.416   3.803   3.313 -0.6352  1.7189  0.5127
 1066SOL     OW14830   2.822   2.082  14.421 -0.3022  0.3862 -0.1266
 1066SOL    HW114831   2.848   1.990  14.411 -1.6826 -0.0733  0.4836
 1066SOL    HW214832   2.781   2.084  14.507  0.5620 -1.5545  0.3402
 1067SOL     OW14833   1.506   2.394   4.517  0.0445  0.0246 -0.8937
 1067SOL    HW114834   1.422   2.406   4.561  0.3590  1.0757 -0.5736
 1067SOL    HW214835   1.500   2.307   4.478 -0.8470  0.0063 -0.7101
 1068SOL     OW14836   0.236   3.512   3.557  0.3137 -0.3857  0.9686
 1068SOL    HW114837   0.221   3.446   3.490  0.3244 -0.0283  0.6159
 1068SOL    HW214838   0.331   3.521   3.565  0.3850 -0.0423 -0.3150
 1069SOL     OW14839   4.495   4.602   5.303 -0.3904  0.1351 -0.2602
 1069SOL    HW114840   4.481   4.560   5.218 -0.6798 -0.2909 -0.0038
 1069SOL    HW214841   4.479   4.695   5.284  2.9897  1.2334  2.4007
 1070SOL     OW14842   4.056   0.520   3.627 -0.2848  0.7471  0.2231
 1070SOL    HW114843   4.047   0.455   3.558  1.2224 -0.8597  1.5390
 1070SOL    HW214844   3.970   0.511   3.669 -1.8205 -1.8737 -3.5389
 1071SOL     OW14845   1.224   4.177   5.133 -0.2423  0.0408 -0.0826
 1071SOL    HW114846   1.166   4.124   5.188 -0.7200 -0.2400 -0.8568
 1071SOL    HW214847   1.251   4.244   5.196 -1.4561 -0.0389  0.5213
 1072SOL     OW14848   1.821   3.005  12.581  0.3155 -0.0596  0.5119
 1072SOL    HW114849   1.876   3.060  12.637  1.5541 -1.7745  0.9709
 1072SOL    HW214850   1.888   2.943  12.551  0.0177  0.4888 -1.2953
 1073SOL     OW14851   1.012   2.020   2.033  0.0338 -0.2850  0.4492
 1073SOL    HW114852   0.996   2.085   1.965  3.5359  0.4975  0.3871
 1073SOL    HW214853   1.057   1.953   1.983  1.1933 -0.5505  1.8561
 1074SOL     OW14854   0.659   0.059  11.285 -0.4154  0.3454 -0.0017
 1074SOL    HW114855   0.620   4.728  11.338  0.7341 -0.5629 -0.3565
 1074SOL    HW214856   0.686   0.116  11.357  2.0654  1.2393 -1.6326
 1075SOL     OW14857   2.342   1.580   8.395  0.5250  0.2253 -0.3739
 1075SOL    HW114858   2.408   1.572   8.327 -0.2352 -2.1448 -0.8263
 1075SOL    HW214859   2.260   1.591   8.347 -0.3019 -0.8034  0.7916
 1076SOL     OW14860   3.785   2.996   5.250  0.2258  0.1437  0.1928
 1076SOL    HW114861   3.835   2.970   5.173  0.6525  1.4173  0.0456
 1076SOL    HW214862   3.757   3.083   5.223 -1.8811 -0.1852  1.2525
 1077SOL     OW14863   4.270   1.184   4.288 -0.2158  0.3105 -0.5902
 1077SOL    HW114864   4.325   1.210   4.362 -1.2877 -0.3579  0.4445
 1077SOL    HW214865   4.187   1.202   4.331  0.0499 -1.9421  0.8822
 1078SOL     OW14866   1.307   2.739   2.420 -0.6115 -0.2609 -0.1128
 1078SOL    HW114867   1.370   2.785   2.475 -0.4571 -0.3875 -0.1858
 1078SOL    HW214868   1.267   2.681   2.485  1.6245 -0.5345  1.0325
 1079SOL     OW14869   2.551   0.846   7.052 -0.3168 -0.1312 -0.0065
 1079SOL    HW114870   2.608   0.896   6.994 -0.1278 -1.6579 -1.1376
 1079SOL    HW214871   2.590   0.864   7.138 -2.3115  0.1616  0.8395
 1080SOL     OW14872   1.696   1.793   5.369 -0.3151  0.3939 -0.2915
 1080SOL    HW114873   1.627   1.852   5.340 -1.0827  0.6873  2.1599
 1080SOL    HW214874   1.755   1.815   5.297 -2.5397  3.9831 -1.0388
 1081SOL     OW14875   3.951   2.047   5.726 -0.1943 -0.1066  0.1363
 1081SOL    HW114876   3.965   2.091   5.809  1.6486  0.4625 -0.4802
 1081SOL    HW214877   3.857   2.035   5.739 -0.6229  2.1412 -0.8517
 1082SOL     OW14878   0.920   3.342   3.234  0.8945 -0.3211 -0.0313
 1082SOL    HW114879   1.001   3.303   3.269  0.7664 -0.8949 -0.3646
 1082SOL    HW214880   0.845   3.338   3.293  0.9222 -2.7542 -0.1637
 1083SOL     OW14881   3.670   0.741  16.408  0.4500 -0.3818 -0.1895
 1083SOL    HW114882   3.598   0.793  16.444  2.0769  0.4166  1.8841
 1083SOL    HW214883   3.706   0.689  16.480  1.0520 -0.4315 -0.5227
 1084SOL     OW14884   0.522   4.457   2.168 -0.0225  0.3942  0.8226
 1084SOL    HW114885   0.511   4.545   2.206  0.1481  1.0090 -0.5523
 1084SOL    HW214886   0.480   4.454   2.082  0.5762 -0.6167  0.5698
 1085SOL     OW14887   0.861   1.957   7.749  0.3561 -0.2466  0.3478
 1085SOL    HW114888   0.829   1.877   7.709 -0.1541 -0.4613  1.1906
 1085SOL    HW214889   0.783   1.987   7.796 -1.0730 -0.7033 -1.6962
 1086SOL     OW14890   0.475   0.413  15.886 -0.2188  0.2773 -0.4904
 1086SOL    HW114891   0.444   0.338  15.936  1.4901 -0.0740  0.0555
 1086SOL    HW214892   0.406   0.450  15.831  0.2833 -0.9041 -1.9200
 1087SOL     OW14893   3.864   4.463  16.103 -0.3315  0.2432 -0.2609
 1087SOL    HW114894   3.874   4.553  16.134  1.3619  0.1453 -0.5303
 1087SOL    HW214895   3.828   4.418  16.180 -0.1371 -0.6065 -0.6564
 1088SOL     OW14896   3.109   3.236   5.684 -0.2332 -0.1182  0.2544
 1088SOL    HW114897   3.114   3.171   5.614 -1.0686 -1.0523  1.0663
 1088SOL    HW214898   3.016   3.253   5.693  0.1106  1.1238  1.3731
 1089SOL     OW14899   2.905   1.093   4.502  0.4515  0.2354  0.0478
 1089SOL    HW114900   2.843   1.119   4.433  0.3644 -2.0330 -0.7429
 1089SOL    HW214901   2.918   1.172   4.553  1.6480 -0.8496  1.4152
 1090SOL     OW14902   4.644   4.657  12.793 -0.1116  0.2868 -0.4226
 1090SOL    HW114903   4.555   4.642  12.761  0.2723 -0.9188 -0.9147
 1090SOL    HW214904   4.651   0.012  12.809  0.0851 -0.0521  1.5776
 1091SOL     OW14905   1.490   2.838   2.604 -0.2413 -0.2109  0.2015
 1091SOL    HW114906   1.563   2.809   2.658  0.6031  3.3497  0.9793
 1091SOL    HW214907   1.438   2.884   2.671 -2.2391  1.4085 -2.4776
 1092SOL     OW14908   1.757   2.744  15.456  0.6232 -0.0955 -0.5056
 1092SOL    HW114909   1.718   2.712  15.537  0.2196  0.0606 -0.6353
 1092SOL    HW214910   1.687   2.747  15.390  0.8462  0.5361 -0.7173
 1093SOL     OW14911   2.847   1.907   2.890 -0.5122 -0.6962 -0.0676
 1093SOL    HW114912   2.837   1.825   2.843  1.5811 -0.3310 -1.1629
 1093SOL    HW214913   2.937   1.925   2.863 -0.4475 -1.7698 -0.5356
 1094SOL     OW14914   1.005   2.243   1.131  0.6732 -0.3363 -0.2099
 1094SOL    HW114915   0.956   2.161   1.138  1.1550 -0.5297  0.9807
 1094SOL    HW214916   1.038   2.248   1.041  0.9465 -0.4378 -0.1152
 1095SOL     OW14917   1.375   1.829   1.676 -0.1474  0.2138 -0.2364
 1095SOL    HW114918   1.336   1.862   1.757 -1.9949  0.1024 -1.0851
 1095SOL    HW214919   1.301   1.792   1.628 -0.5701  2.0311 -1.0020
 1096SOL     OW14920   3.650   1.646   2.963 -0.2607  0.6640 -0.2816
 1096SOL    HW114921   3.614   1.584   3.027 -0.0106  2.0282  1.1842
 1096SOL    HW214922   3.587   1.636   2.892 -2.0423  0.2110  1.3508
 1097SOL     OW14923   2.856   0.373   4.756  0.3102 -0.1239  0.0435
 1097SOL    HW114924   2.927   0.311   4.743  0.1742  0.0168 -1.3308
 1097SOL    HW214925   2.841   0.412   4.670  1.5996  0.4371  0.0773
 1098SOL     OW14926   0.782   0.447   6.147 -0.0695  0.5317  0.6619
 1098SOL    HW114927   0.865   0.408   6.118 -1.7298 -1.6860 -1.0804
 1098SOL    HW214928   0.803   0.541   6.140 -0.7813  0.5799 -1.0129
 1099SOL     OW14929   0.718   4.721   5.766  0.2240  0.1982 -0.0094
 1099SOL    HW114930   0.735   0.005   5.857 -1.6811  1.1900  0.1051
 1099SOL    HW214931   0.677   0.064   5.738 -0.3061 -0.3069 -0.7138
 1100SOL     OW14932   0.094   0.492   5.330 -0.4293  0.0921 -0.3491
 1100SOL    HW114933   0.009   0.489   5.286  0.3837 -1.1888 -1.8635
 1100SOL    HW214934   0.137   0.448   5.256 -0.6952  0.9758 -1.0248
 1101SOL     OW14935   4.241   3.213   4.436  0.0609  0.0881  0.1809
 1101SOL    HW114936   4.303   3.232   4.366  1.4703  0.1648  1.4560
 1101SOL    HW214937   4.288   3.251   4.510 -1.3314  0.3679  0.9213
 1102SOL     OW14938   3.225   1.508   8.991  0.1739  0.6207  0.0670
 1102SOL    HW114939   3.269   1.423   8.995 -0.2285  0.4209  0.2265
 1102SOL    HW214940   3.242   1.542   9.079  0.4656 -2.2101  1.1090
 1103SOL     OW14941   3.728   4.292   7.691  0.1920 -0.7574  0.1056
 1103SOL    HW114942   3.654   4.262   7.744 -0.5080  0.8815  0.0511
 1103SOL    HW214943   3.776   4.356   7.744  0.2260 -0.3499 -0.4146
 1104SOL     OW14944   3.598   3.497   2.415 -0.4335  0.7101 -0.0202
 1104SOL    HW114945   3.547   3.452   2.348  0.2766 -1.6626  1.0590
 1104SOL    HW214946   3.568   3.449   2.491  1.2707  0.8397  0.7400
 1105SOL     OW14947   2.859   4.400   9.774  0.0249 -0.0258 -0.0797
 1105SOL    HW114948   2.784   4.420   9.831  1.5003  4.1548  0.3810
 1105SOL    HW214949   2.893   4.489   9.764 -1.8336  0.5600 -1.1978
 1106SOL     OW14950   2.820   3.763   3.875  0.0238 -0.2034  0.0687
 1106SOL    HW114951   2.740   3.717   3.902 -0.3183  0.1005 -0.4467
 1106SOL    HW214952   2.781   3.832   3.822  1.5377  2.2702  2.1332
 1107SOL     OW14953   3.702   4.130   4.507  0.8086  0.1478 -0.1181
 1107SOL    HW114954   3.680   4.096   4.420  1.8647 -0.5607 -0.1081
 1107SOL    HW214955   3.794   4.103   4.506  0.4430 -1.0777 -1.0127
 1108SOL     OW14956   2.424   4.264   3.204 -0.4749 -0.0124 -0.4255
 1108SOL    HW114957   2.509   4.292   3.173 -0.3218 -3.2956 -3.0081
 1108SOL    HW214958   2.363   4.270   3.130 -2.1288  0.5261  0.9784
 1109SOL     OW14959   1.745   2.171   3.803  0.1281 -0.3519 -0.0410
 1109SOL    HW114960   1.691   2.092   3.806  0.7119 -0.8169 -1.4763
 1109SOL    HW214961   1.731   2.199   3.893  1.6598 -1.0481  0.4233
 1110SOL     OW14962   2.120   0.178   2.089 -0.9860 -0.3280 -0.6038
 1110SOL    HW114963   2.030   0.197   2.064 -1.2519 -0.4642  0.2462
 1110SOL    HW214964   2.173   0.212   2.016 -2.9461  0.6277 -1.5686
 1111SOL     OW14965   1.670   1.682  16.118  0.0276  0.1530 -0.8584
 1111SOL    HW114966   1.624   1.610  16.075 -1.4569  1.0282 -0.7265
 1111SOL    HW214967   1.591   1.723  16.152  0.1948 -0.8131  0.6874
 1112SOL     OW14968   1.559   2.014   6.058 -0.2877 -0.5072 -0.1442
 1112SOL    HW114969   1.579   1.939   6.002  0.4303  0.2360 -0.8729
 1112SOL    HW214970   1.642   2.017   6.105  0.9296  0.4271 -2.3513
 1113SOL     OW14971   0.381   2.356   9.516 -0.1687 -0.1561  0.1599
 1113SOL    HW114972   0.427   2.439   9.529 -1.8075  0.6510  0.7671
 1113SOL    HW214973   0.445   2.294   9.551 -0.1849  0.3226  1.0353
 1114SOL     OW14974   0.609   0.722   4.455  0.5973  0.0409  0.7926
 1114SOL    HW114975   0.701   0.697   4.448  0.1989 -1.4278  0.9385
 1114SOL    HW214976   0.586   0.680   4.537  4.0715 -0.3141  1.5947
 1115SOL     OW14977   0.863   3.874   6.692 -0.2912 -0.0711  0.4707
 1115SOL    HW114978   0.927   3.905   6.628 -1.5876 -0.2687 -0.9131
 1115SOL    HW214979   0.819   3.806   6.641  1.7452 -2.8694  2.5061
 1116SOL     OW14980   2.664   1.375   3.190 -0.6796 -0.2731  0.2482
 1116SOL    HW114981   2.629   1.404   3.275 -0.5817 -1.2925  0.6348
 1116SOL    HW214982   2.749   1.416   3.207 -1.1241  0.4393  0.7929
 1117SOL     OW14983   2.233   0.512   6.764 -0.2504 -0.3023  0.1889
 1117SOL    HW114984   2.325   0.511   6.791  0.5710  0.2869 -2.5554
 1117SOL    HW214985   2.197   0.456   6.833 -0.6531  1.4782  1.4132
 1118SOL     OW14986   2.560   1.518   9.870 -0.1835  0.1013  0.1120
 1118SOL    HW114987   2.642   1.496   9.913 -0.0373 -1.4530 -0.9518
 1118SOL    HW214988   2.556   1.432   9.830  0.1257 -0.3582  1.0651
 1119SOL     OW14989   2.266   2.114  17.003  0.4868  0.2718  0.1229
 1119SOL    HW114990   2.306   2.168  17.071  1.1635  0.8007 -0.7009
 1119SOL    HW214991   2.301   2.033  17.041  1.3741  0.6372  0.0794
 1120SOL     OW14992   1.176   4.466  10.644 -0.0514 -0.3731  0.2259
 1120SOL    HW114993   1.247   4.443  10.703 -0.2239  1.7045  1.2344
 1120SOL    HW214994   1.209   4.526  10.577  1.2240  0.5739  1.7082
 1121SOL     OW14995   2.624   3.363   7.387  0.5599 -0.0414  0.3373
 1121SOL    HW114996   2.592   3.424   7.321 -1.6395 -1.4617  0.0738
 1121SOL    HW214997   2.716   3.361   7.362  0.5493  0.1293  0.2843
 1122SOL     OW14998   4.292   0.602   2.123  0.3490  0.3714 -0.2209
 1122SOL    HW114999   4.210   0.567   2.156  1.6273 -1.6858  0.8067
 1122SOL    HW215000   4.293   0.695   2.145  1.9293  0.3393 -0.1307
 1123SOL     OW15001   0.529   0.317   6.965  0.4538 -0.4943 -0.3150
 1123SOL    HW115002   0.621   0.334   6.984  0.0227  0.8300  0.6026
 1123SOL    HW215003   0.490   0.353   7.045 -3.2223 -2.5284 -1.1638
 1124SOL     OW15004   0.374   0.787   9.604  0.1247 -0.0038 -0.2588
 1124SOL    HW115005   0.395   0.823   9.518 -0.2402  0.1518 -0.2819
 1124SOL    HW215006   0.465   0.777   9.633  0.2967 -0.0449 -0.8022
 1125SOL     OW15007   1.052   2.580   6.196  0.0784 -0.1011  0.1132
 1125SOL    HW115008   0.968   2.576   6.241  0.2003  0.1283  0.3589
 1125SOL    HW215009   1.096   2.540   6.271  1.4356 -1.1507 -1.2256
 1126SOL     OW15010   0.732   4.282   0.555 -0.2191 -0.2873 -0.5038
 1126SOL    HW115011   0.683   4.205   0.583  0.1910 -0.0570  0.8326
 1126SOL    HW215012   0.814   4.253   0.594 -0.6468 -0.1230  0.5118
 1127SOL     OW15013   4.540   1.601   4.795 -0.2114 -0.6513 -0.2268
 1127SOL    HW115014   4.563   1.660   4.723  1.3076 -0.1255  0.6707
 1127SOL    HW215015   4.451   1.582   4.767 -0.3599 -2.6649  1.6040
 1128SOL     OW15016   3.358   2.152  17.740 -0.5409 -0.1745  0.2977
 1128SOL    HW115017   3.291   2.221  17.738 -1.5337 -1.1731 -1.5718
 1128SOL    HW215018   3.310   2.083  17.694  1.1551 -0.6134 -0.7867
 1129SOL     OW15019   1.932   1.552  13.196  0.0687 -0.1137 -0.0045
 1129SOL    HW115020   1.839   1.557  13.175  0.2364 -0.9215 -0.9388
 1129SOL    HW215021   1.954   1.644  13.178  0.4682 -0.7003 -2.5194
 1130SOL     OW15022   2.063   1.877   7.663 -0.1317  0.4721  0.2562
 1130SOL    HW115023   1.995   1.902   7.601 -0.0823 -0.1213 -0.0365
 1130SOL    HW215024   2.019   1.806   7.710 -0.3269 -1.1435 -2.4260
 1131SOL     OW15025   0.174   2.704   3.683 -0.1155 -0.2738  0.8224
 1131SOL    HW115026   0.254   2.757   3.686 -0.1988 -0.0192 -1.2380
 1131SOL    HW215027   0.192   2.637   3.749  1.6218 -4.0816 -3.4757
 1132SOL     OW15028   4.671   2.521   8.831 -0.5403 -0.1990  0.6147
 1132SOL    HW115029   4.703   2.526   8.921  1.8633 -2.4503 -0.1256
 1132SOL    HW215030   4.587   2.567   8.828 -1.4171 -1.8423  0.0892
 1133SOL     OW15031   3.668   2.007   8.676  0.4547  0.1089 -0.0294
 1133SOL    HW115032   3.717   1.928   8.656 -0.8151 -1.3550  2.5541
 1133SOL    HW215033   3.587   1.964   8.705  0.2976  0.3359 -0.1319
 1134SOL     OW15034   2.399   0.453  11.211  0.4116  0.1747 -0.0776
 1134SOL    HW115035   2.397   0.542  11.246 -0.2262 -0.2481  0.9513
 1134SOL    HW215036   2.470   0.448  11.146 -0.1349  1.5884 -0.7675
 1135SOL     OW15037   1.068   0.191  14.973 -0.5399  0.3210  0.1200
 1135SOL    HW115038   1.036   0.105  14.945 -0.8879  0.4952 -0.0151
 1135SOL    HW215039   1.027   0.243  14.903  0.8620  0.4049 -0.6236
 1136SOL     OW15040   0.070   0.628   7.208 -0.0633 -0.6060  0.1684
 1136SOL    HW115041   4.716   0.651   7.198  0.2529  1.0330  0.9566
 1136SOL    HW215042   0.102   0.712   7.241 -4.4799  0.4707  1.6952
 1137SOL     OW15043   2.512   0.439  14.643 -0.2589 -0.1543 -0.3236
 1137SOL    HW115044   2.460   0.503  14.691 -0.0782 -0.3150  0.0829
 1137SOL    HW215045   2.502   0.359  14.694  1.6443  0.8262  1.5707
 1138SOL     OW15046   0.215   1.139   7.213  0.3281 -0.6370 -0.0140
 1138SOL    HW115047   0.228   1.210   7.276  0.0730 -1.9605  1.5373
 1138SOL    HW215048   0.164   1.172   7.139 -0.5280 -0.8700  0.4749
 1139SOL     OW15049   4.153   0.662   4.173  0.1292  0.3364 -0.2979
 1139SOL    HW115050   4.237   0.663   4.218 -0.9099 -0.2147  1.6442
 1139SOL    HW215051   4.172   0.585   4.120 -2.1744  0.2504 -1.0335
 1140SOL     OW15052   1.705   1.075  14.622  0.2606  0.5873  0.1034
 1140SOL    HW115053   1.711   1.014  14.548  1.8182 -2.8074  3.0679
 1140SOL    HW215054   1.676   1.012  14.688  0.2337 -1.3177 -1.7264
 1141SOL     OW15055   2.515   0.234   6.774 -0.4390  0.3860  0.6871
 1141SOL    HW115056   2.547   0.276   6.695  0.2147  1.0694  1.3155
 1141SOL    HW215057   2.557   0.148   6.777 -1.9480 -0.4341 -1.6562
 1142SOL     OW15058   0.190   1.139  17.631  0.0435 -0.6692 -0.2245
 1142SOL    HW115059   0.206   1.064  17.688  0.1063 -0.0141  0.6168
 1142SOL    HW215060   0.262   1.190  17.668 -0.2361  1.5065 -2.6982
 1143SOL     OW15061   1.921   0.255  12.563 -0.0285 -0.0293  0.0516
 1143SOL    HW115062   1.857   0.230  12.496 -0.3756  1.2251 -0.0905
 1143SOL    HW215063   1.921   0.349  12.543 -0.3781  0.3541  1.8713
 1144SOL     OW15064   0.081   3.496   9.244 -0.7104 -0.3025  0.3618
 1144SOL    HW115065   0.077   3.421   9.185 -0.4603 -0.8200  0.9903
 1144SOL    HW215066   0.114   3.469   9.330  0.5524 -0.5287 -0.1835
 1145SOL     OW15067   3.244   3.088  10.547 -0.2089 -0.1782  0.3220
 1145SOL    HW115068   3.248   3.069  10.641 -0.7653 -1.0731  0.1724
 1145SOL    HW215069   3.180   3.026  10.511  0.3820  0.6036 -2.0470
 1146SOL     OW15070   3.106   2.676   1.704 -0.5474 -0.3802 -0.4517
 1146SOL    HW115071   3.160   2.724   1.641  1.1287 -0.3010  1.0640
 1146SOL    HW215072   3.111   2.736   1.778  1.0893  0.6673 -1.3923
 1147SOL     OW15073   1.165   4.361   1.277 -0.2172  0.6587  1.1639
 1147SOL    HW115074   1.237   4.425   1.275  0.0508  0.3534  0.9282
 1147SOL    HW215075   1.097   4.411   1.321 -1.5094  0.5743 -0.7672
 1148SOL     OW15076   4.361   1.842  12.223 -0.0468  0.5395 -0.4489
 1148SOL    HW115077   4.349   1.819  12.131  2.4055  1.0317 -0.9013
 1148SOL    HW215078   4.454   1.825  12.236 -0.2645 -1.0170 -0.9504
 1149SOL     OW15079   2.283   1.537  13.886 -0.7489  0.0138  0.7688
 1149SOL    HW115080   2.318   1.625  13.872  0.0625 -0.3114  0.7175
 1149SOL    HW215081   2.191   1.536  13.859 -0.8327  0.3076  1.0495
 1150SOL     OW15082   0.017   3.864   2.730 -0.1325 -0.3114  0.2661
 1150SOL    HW115083   0.081   3.830   2.667 -0.4336 -0.1227 -0.1413
 1150SOL    HW215084   0.012   3.776   2.769  0.4549 -0.5325 -0.1650
 1151SOL     OW15085   1.408   1.484   6.702  0.2152 -0.1427 -0.2118
 1151SOL    HW115086   1.415   1.552   6.769 -0.3952 -1.5392  1.2626
 1151SOL    HW215087   1.322   1.449   6.724  0.9603 -0.9288  1.4977
 1152SOL     OW15088   3.326   0.561   7.295  0.0406  0.3621  0.4071
 1152SOL    HW115089   3.236   0.586   7.273  0.3278 -0.7877 -2.0595
 1152SOL    HW215090   3.351   0.534   7.207  2.2190 -1.9332  1.7357
 1153SOL     OW15091   0.293   0.199   0.401  0.2982 -0.0528 -0.1313
 1153SOL    HW115092   0.299   0.196   0.306  1.6443 -3.7177  0.0577
 1153SOL    HW215093   0.381   0.183   0.436  0.7128  1.5592 -0.4516
 1154SOL     OW15094   2.420   1.211   1.947 -0.4534 -0.0333  0.5008
 1154SOL    HW115095   2.396   1.251   2.031 -1.0838 -1.2784  0.9074
 1154SOL    HW215096   2.501   1.166   1.970 -1.3455 -0.9382  1.8916
 1155SOL     OW15097   0.937   1.395   3.625 -0.1175 -0.2648  0.3617
 1155SOL    HW115098   0.944   1.351   3.710  1.5944 -0.0427  0.3389
 1155SOL    HW215099   0.842   1.406   3.618 -0.2301 -1.1593  0.3850
 1156SOL     OW15100   0.031   4.436  11.018 -0.1455  0.3123 -0.4907
 1156SOL    HW115101   0.017   4.514  10.964  0.2276  0.9769  0.3692
 1156SOL    HW215102   0.090   4.464  11.088 -0.6299  1.2616 -0.4620
 1157SOL     OW15103   2.142   3.359  17.648  0.0637  0.2390 -0.0121
 1157SOL    HW115104   2.104   3.280  17.610  0.4478 -0.7228  1.6231
 1157SOL    HW215105   2.105   3.418  17.582 -1.8901  1.9109  2.5555
 1158SOL     OW15106   2.999   2.960   5.986  0.2803 -0.1384  0.2709
 1158SOL    HW115107   3.003   2.867   5.967 -0.4208 -0.2006  0.4135
 1158SOL    HW215108   3.065   2.956   6.055  1.0049 -2.5762 -0.5914
 1159SOL     OW15109   3.351   4.518   6.576 -0.4321 -0.1939 -0.1108
 1159SOL    HW115110   3.397   4.573   6.640  1.2253 -1.8091  0.1050
 1159SOL    HW215111   3.262   4.548   6.593  0.3303  2.3755 -0.6855
 1160SOL     OW15112   1.783   2.264  17.111  0.4122 -0.8014  0.1264
 1160SOL    HW115113   1.725   2.239  17.039 -1.0674  0.9568  0.7204
 1160SOL    HW215114   1.861   2.212  17.094  0.7483  0.7168 -2.9184
 1161SOL     OW15115   2.274   1.232   7.611 -0.3079  0.0568  0.1015
 1161SOL    HW115116   2.368   1.242   7.597 -0.5427  1.1479 -0.7606
 1161SOL    HW215117   2.273   1.165   7.679 -0.0907 -0.3942 -0.3363
 1162SOL     OW15118   0.903   3.833   3.243 -0.2143 -0.0186 -0.3088
 1162SOL    HW115119   0.864   3.781   3.172 -0.9748  1.8854 -1.2830
 1162SOL    HW215120   0.848   3.911   3.239  1.0893  0.8389 -1.7647
 1163SOL     OW15121   0.360   3.224   5.991 -0.5748  0.5049  0.1010
 1163SOL    HW115122   0.307   3.284   6.043 -2.2915 -0.6638 -0.3085
 1163SOL    HW215123   0.330   3.147   6.038 -0.8431  0.7111  0.2700
 1164SOL     OW15124   3.104   0.338   1.588 -0.3157  0.1508 -0.0126
 1164SOL    HW115125   3.137   0.417   1.545 -3.3878  0.4638 -1.7753
 1164SOL    HW215126   3.097   0.283   1.510 -0.4984  1.7274 -1.1217
 1165SOL     OW15127   0.728   1.335  14.371  0.0394  0.1349 -0.0787
 1165SOL    HW115128   0.786   1.385  14.428  0.9894 -2.2599  1.0640
 1165SOL    HW215129   0.757   1.359  14.282  0.9479 -2.8046 -0.5685
 1166SOL     OW15130   1.880   1.871   7.450 -0.3983 -0.1636  0.1741
 1166SOL    HW115131   1.939   1.812   7.402 -0.2604  1.4311 -1.6212
 1166SOL    HW215132   1.804   1.866   7.392  0.1326  2.8430 -0.7596
 1167SOL     OW15133   2.633   3.545  17.610  0.0443  0.1636  0.2640
 1167SOL    HW115134   2.636   3.605  17.684 -1.6387  1.4257 -0.6921
 1167SOL    HW215135   2.552   3.498  17.628  0.7330  0.2354  3.4604
 1168SOL     OW15136   2.511   2.422  17.415  0.2514  0.4739  0.1726
 1168SOL    HW115137   2.576   2.359  17.446 -0.9535 -1.2344 -0.8010
 1168SOL    HW215138   2.454   2.434  17.492 -0.4992  1.0458 -0.4685
 1169SOL     OW15139   0.999   1.600   8.885 -0.1103  0.5917  0.0699
 1169SOL    HW115140   1.067   1.624   8.948  0.6736  1.0802 -0.9583
 1169SOL    HW215141   0.975   1.512   8.914 -1.5543  1.0892  0.3434
 1170SOL     OW15142   0.110   2.321   6.426  0.2018  0.4171 -0.7365
 1170SOL    HW115143   0.061   2.239   6.437  0.8127  0.1801  0.2335
 1170SOL    HW215144   0.123   2.327   6.331 -0.8948 -1.6422 -1.0212
 1171SOL     OW15145   1.027   1.282   8.728 -0.1508  0.2121  0.3118
 1171SOL    HW115146   1.070   1.204   8.694 -0.4799  0.3177 -0.3548
 1171SOL    HW215147   0.942   1.285   8.683  1.3914 -3.3399 -2.7973
 1172SOL     OW15148   4.075   2.875  17.517  0.0720  0.2218  0.0057
 1172SOL    HW115149   4.030   2.881  17.602 -2.0570 -1.0940 -1.0154
 1172SOL    HW215150   4.077   2.966  17.489  1.0946  0.2903  0.2957
 1173SOL     OW15151   3.317   2.797   5.131  0.1547 -0.5913 -0.6927
 1173SOL    HW115152   3.282   2.721   5.085 -1.2348 -0.9744  0.9577
 1173SOL    HW215153   3.387   2.754   5.180 -0.1826 -0.1465  0.1872
 1174SOL     OW15154   0.715   1.336   3.437  0.4494  0.1313  0.0426
 1174SOL    HW115155   0.706   1.248   3.399  0.2406  0.0330  0.3241
 1174SOL    HW215156   0.799   1.363   3.400  0.2770 -0.8447 -1.0628
 1175SOL     OW15157   2.572   3.668   3.975  0.0541  0.1592  0.1917
 1175SOL    HW115158   2.521   3.741   3.939 -0.1372  0.1383  0.4210
 1175SOL    HW215159   2.515   3.656   4.051  0.1204 -0.0306  0.2105
 1176SOL     OW15160   4.237   0.235   7.558  0.7633 -0.3417 -0.4655
 1176SOL    HW115161   4.180   0.250   7.634 -0.5774 -0.3601 -1.4709
 1176SOL    HW215162   4.258   0.324   7.532 -1.3250  0.2019 -0.2351
 1177SOL     OW15163   0.268   2.850   3.092  0.1927 -0.1383 -0.1060
 1177SOL    HW115164   0.187   2.897   3.113  0.7919  1.3731 -1.2195
 1177SOL    HW215165   0.256   2.768   3.139 -0.2927 -1.2104 -2.0851
 1178SOL     OW15166   2.884   2.312  14.309 -0.5866  0.5613 -0.1221
 1178SOL    HW115167   2.860   2.232  14.357 -1.7977  0.4204 -0.9855
 1178SOL    HW215168   2.843   2.293  14.225 -1.0989  0.8106  0.0730
 1179SOL     OW15169   0.502   3.777   4.584  0.1821 -0.2091 -0.1402
 1179SOL    HW115170   0.535   3.857   4.543  1.9699  0.0595  1.7905
 1179SOL    HW215171   0.413   3.813   4.589  0.5838  0.7098  0.4576
 1180SOL     OW15172   0.863   1.632   3.269  0.5841  0.2243  0.2218
 1180SOL    HW115173   0.871   1.713   3.319  0.4920 -0.0792  0.7280
 1180SOL    HW215174   0.770   1.647   3.252  0.3866 -3.3563 -1.7488
 1181SOL     OW15175   3.255   3.428   8.736 -0.7451  0.1147 -0.0059
 1181SOL    HW115176   3.307   3.508   8.741  1.3253 -1.1500 -1.4902
 1181SOL    HW215177   3.330   3.370   8.746  0.0084  0.9418 -0.8941
 1182SOL     OW15178   2.778   2.118  15.558 -0.2127 -0.0129 -0.7799
 1182SOL    HW115179   2.780   2.023  15.553 -0.5042 -0.0822  0.5174
 1182SOL    HW215180   2.796   2.137  15.466 -2.1482  1.2488 -0.9026
 1183SOL     OW15181   2.971   0.831   5.811  0.2379  0.4530  0.1468
 1183SOL    HW115182   2.987   0.815   5.904 -0.3304 -2.2470 -0.2250
 1183SOL    HW215183   3.053   0.874   5.786  0.7200  0.5571  1.8815
 1184SOL     OW15184   3.025   4.043   8.795 -0.0265 -0.2885 -0.4671
 1184SOL    HW115185   3.092   3.977   8.811  1.4268  1.3499  0.2359
 1184SOL    HW215186   3.005   4.019   8.705 -0.6857  2.0093 -0.9428
 1185SOL     OW15187   2.087   3.509  17.386 -0.1465 -0.1026 -0.1174
 1185SOL    HW115188   2.044   3.452  17.322  1.0164 -1.1286  0.0093
 1185SOL    HW215189   2.178   3.518  17.356 -0.2539  0.9308 -0.1306
 1186SOL     OW15190   4.062   1.200  16.751  0.8820  0.0696 -0.0952
 1186SOL    HW115191   4.104   1.278  16.788 -0.3131 -0.7410  2.9123
 1186SOL    HW215192   4.067   1.215  16.656  2.0484 -1.2502 -0.2433
 1187SOL     OW15193   1.255   2.225   5.757  0.2680 -0.6086  0.2654
 1187SOL    HW115194   1.277   2.173   5.679 -0.2923 -0.7281  0.1836
 1187SOL    HW215195   1.345   2.234   5.788 -0.5647  4.6300  1.1331
 1188SOL     OW15196   0.542   1.679  13.443  0.2615  0.1274  0.7763
 1188SOL    HW115197   0.612   1.629  13.484  1.1135 -0.9096 -1.8860
 1188SOL    HW215198   0.518   1.620  13.371  0.8242  0.7871  0.0532
 1189SOL     OW15199   0.662   3.562   0.243 -0.8266  0.1145 -0.0675
 1189SOL    HW115200   0.614   3.557   0.326  1.3241 -0.0598  1.1836
 1189SOL    HW215201   0.693   3.652   0.254 -1.0309  0.3305 -1.2797
 1190SOL     OW15202   4.373   4.212   7.170  0.4376 -0.3068 -0.0601
 1190SOL    HW115203   4.292   4.227   7.121  0.9435  0.1827 -0.7368
 1190SOL    HW215204   4.328   4.173   7.245 -0.4459  1.9357  0.6010
 1191SOL     OW15205   3.711   0.322   8.496  0.1434  0.0519 -0.4681
 1191SOL    HW115206   3.656   0.278   8.431 -0.7620 -0.5476  0.7044
 1191SOL    HW215207   3.735   0.397   8.441  1.1977  0.9692  1.2553
 1192SOL     OW15208   2.238   2.133   2.252  0.4016 -0.2261  0.0376
 1192SOL    HW115209   2.242   2.222   2.217 -1.0032  0.1453  0.7923
 1192SOL    HW215210   2.319   2.133   2.303 -1.2593  1.5164  2.6825
 1193SOL     OW15211   4.156   3.724   0.799  0.1418  0.0757  0.1355
 1193SOL    HW115212   4.085   3.733   0.863  0.1558  1.4115 -0.0220
 1193SOL    HW215213   4.238   3.736   0.846 -0.4225  1.0040  0.8836
 1194SOL     OW15214   2.209   2.481   1.709 -0.1876  0.4967  0.4805
 1194SOL    HW115215   2.165   2.561   1.682  0.8645  0.2879 -1.8095
 1194SOL    HW215216   2.133   2.427   1.732  1.3560 -1.7598  0.3564
 1195SOL     OW15217   1.330   3.502   4.256 -0.2719  1.0770  0.1016
 1195SOL    HW115218   1.332   3.594   4.282 -1.3540  1.3620 -0.8203
 1195SOL    HW215219   1.243   3.504   4.215 -0.4437 -1.1074  0.3490
 1196SOL     OW15220   4.419   4.587   4.496 -0.0273  0.4075  0.5753
 1196SOL    HW115221   4.430   4.610   4.404  0.5085  0.7054  0.7190
 1196SOL    HW215222   4.353   4.646   4.534 -1.2297  0.0879 -1.0431
 1197SOL     OW15223   3.163   1.329   4.673 -0.0504 -0.2422 -0.1087
 1197SOL    HW115224   3.151   1.295   4.762 -0.4401 -0.0887 -0.1038
 1197SOL    HW215225   3.075   1.354   4.644 -0.3723 -1.6602 -0.3475
 1198SOL     OW15226   3.339   0.198   2.826  0.0590 -0.6031 -0.2288
 1198SOL    HW115227   3.383   0.280   2.805  0.5162 -1.1236 -1.3236
 1198SOL    HW215228   3.401   0.165   2.890  0.5071 -0.1846 -0.4500
 1199SOL     OW15229   3.354   1.773   2.765 -0.5697  0.1326  0.0776
 1199SOL    HW115230   3.369   1.679   2.755  0.9521  0.5164 -1.1114
 1199SOL    HW215231   3.441   1.798   2.794 -1.5735  1.3973  2.0574
 1200SOL     OW15232   2.298   3.830   5.919 -0.8966  0.0755  0.1090
 1200SOL    HW115233   2.289   3.821   5.824  0.4817  0.1535 -0.0351
 1200SOL    HW215234   2.282   3.924   5.928 -0.0841  0.3498 -1.2883
 1201SOL     OW15235   0.669   3.712  11.298  0.1742  0.5999 -0.2796
 1201SOL    HW115236   0.751   3.683  11.259  0.2687 -2.5794  2.2421
 1201SOL    HW215237   0.620   3.750  11.225  0.2550  1.0615 -0.0963
 1202SOL     OW15238   1.876   1.679   9.048  0.2015  0.1429 -0.4436
 1202SOL    HW115239   1.803   1.631   9.088  0.6192  0.5213  0.7604
 1202SOL    HW215240   1.936   1.605   9.043 -0.4842 -0.4715  0.3485
 1203SOL     OW15241   0.593   2.967   7.524 -0.3583  0.1148  0.5461
 1203SOL    HW115242   0.589   3.034   7.455 -0.1358 -1.1454 -0.6976
 1203SOL    HW215243   0.610   2.889   7.472 -2.8326 -0.3726  0.4419
 1204SOL     OW15244   3.628   0.473   5.580 -0.6791  0.3156 -0.1362
 1204SOL    HW115245   3.577   0.472   5.499 -0.6973 -3.4119 -0.0796
 1204SOL    HW215246   3.556   0.497   5.639  0.1024  1.2966  0.4165
 1205SOL     OW15247   4.545   1.964  13.086  0.5080 -0.2458 -0.2250
 1205SOL    HW115248   4.543   1.895  13.020  1.1862  0.6238 -1.1424
 1205SOL    HW215249   4.590   2.037  13.044  0.4581 -0.0049  0.1439
 1206SOL     OW15250   0.574   2.488   2.293  0.4628 -0.5735 -0.2388
 1206SOL    HW115251   0.535   2.562   2.340  1.9470 -0.2959  0.5565
 1206SOL    HW215252   0.627   2.455   2.365  1.7345 -0.9124 -1.3271
 1207SOL     OW15253   0.007   2.735  12.940  0.2852  0.1611 -0.2274
 1207SOL    HW115254   0.023   2.826  12.913 -2.7696  1.0944  0.9851
 1207SOL    HW215255   0.093   2.698  12.960 -0.6619 -2.3458 -0.7881
 1208SOL     OW15256   1.680   2.688  16.990  0.4514  0.2622 -0.0899
 1208SOL    HW115257   1.767   2.688  16.950 -0.0795 -0.8180 -1.2595
 1208SOL    HW215258   1.632   2.649  16.916 -0.4176  0.3729  0.4086
 1209SOL     OW15259   2.930   0.018   3.435  0.5831  0.4331  0.2217
 1209SOL    HW115260   2.845   4.714   3.431 -0.0131  1.4725  2.2232
 1209SOL    HW215261   2.989   4.688   3.404  0.0850 -1.1125  2.7389
 1210SOL     OW15262   0.876   2.622   2.320  0.4244 -0.0397  0.0650
 1210SOL    HW115263   0.903   2.676   2.394  0.9849  1.1608 -0.9993
 1210SOL    HW215264   0.916   2.539   2.345 -0.0054 -0.4880 -0.7175
 1211SOL     OW15265   2.372   4.460   8.273 -0.6430  0.2486 -0.1843
 1211SOL    HW115266   2.427   4.539   8.271  0.7645 -0.7458 -0.2376
 1211SOL    HW215267   2.444   4.400   8.293  1.0931  2.4600  0.2676
 1212SOL     OW15268   3.237   2.391   2.473  0.3072  0.1354  0.0398
 1212SOL    HW115269   3.332   2.405   2.471  0.0446  1.7639 -0.6478
 1212SOL    HW215270   3.211   2.482   2.487  0.3002  0.0369  0.7015
 1213SOL     OW15271   2.319   3.515   5.884  0.1481  0.0302 -0.6934
 1213SOL    HW115272   2.271   3.597   5.871  1.6039  1.1063  0.8004
 1213SOL    HW215273   2.404   3.555   5.902 -0.7871  1.3752  0.7134
 1214SOL     OW15274   0.763   2.191  11.394 -0.6159 -0.4527  0.3939
 1214SOL    HW115275   0.829   2.249  11.357  0.9264 -1.8968  0.8708
 1214SOL    HW215276   0.691   2.220  11.337  1.7295 -1.9087 -3.3418
 1215SOL     OW15277   2.944   2.227  10.133 -0.1312 -0.0243  0.1430
 1215SOL    HW115278   2.887   2.289  10.179 -1.5286 -0.3046 -1.2212
 1215SOL    HW215279   2.878   2.170  10.093  0.4717 -0.8718  0.3499
 1216SOL     OW15280   0.455   0.952  14.749  0.1463  0.3914  0.0837
 1216SOL    HW115281   0.494   0.865  14.753  0.2519  0.4573  0.5157
 1216SOL    HW215282   0.531   0.999  14.714 -0.7898  1.4622 -0.5193
 1217SOL     OW15283   1.214   1.960  16.026 -0.5916 -0.1847  0.2209
 1217SOL    HW115284   1.232   2.031  15.965  1.3744 -1.0139 -0.1680
 1217SOL    HW215285   1.128   1.989  16.056  0.6634  1.8474  1.8787
 1218SOL     OW15286   1.202   1.050   5.326  0.1285  0.3326  0.4078
 1218SOL    HW115287   1.140   0.988   5.364 -2.1915  2.6353  0.3057
 1218SOL    HW215288   1.273   0.995   5.292 -0.1317  0.3249 -0.1125
 1219SOL     OW15289   3.328   3.209   5.386 -0.1829  0.6639 -0.0146
 1219SOL    HW115290   3.244   3.170   5.412  0.5324  1.1657  3.1085
 1219SOL    HW215291   3.305   3.237   5.297 -0.0000 -0.2557 -0.3480
 1220SOL     OW15292   2.159   0.374  13.306  0.1978 -0.2086 -0.2720
 1220SOL    HW115293   2.206   0.341  13.382 -1.1081  1.5067  1.2896
 1220SOL    HW215294   2.146   0.298  13.250  2.2878 -0.7548 -0.0125
 1221SOL     OW15295   4.114   3.381  11.729  0.2629  0.0305  0.4982
 1221SOL    HW115296   4.131   3.430  11.648  1.6492 -0.5708  0.4221
 1221SOL    HW215297   4.193   3.401  11.780  1.0174  2.0060 -1.4531
 1222SOL     OW15298   2.007   1.427   9.021  0.2186  0.3929 -0.3825
 1222SOL    HW115299   2.011   1.406   9.114 -0.3992  1.7137 -0.0629
 1222SOL    HW215300   2.040   1.343   8.987  1.6259  1.5810 -1.9909
 1223SOL     OW15301   0.593   3.539   8.340 -0.1083 -0.4557 -0.5645
 1223SOL    HW115302   0.601   3.632   8.320  2.8297 -1.0392 -1.9455
 1223SOL    HW215303   0.510   3.548   8.388  0.2212  0.7379 -0.2287
 1224SOL     OW15304   2.831   1.712   9.023  0.1261  0.4706 -0.1147
 1224SOL    HW115305   2.820   1.741   9.114 -2.0816 -0.6903 -0.0108
 1224SOL    HW215306   2.742   1.722   8.989  0.4071 -2.4251 -1.6667
 1225SOL     OW15307   0.891   2.903  15.035 -0.4039 -0.1922 -0.3354
 1225SOL    HW115308   0.872   2.877  15.125  2.7793  0.5635  0.5623
 1225SOL    HW215309   0.914   2.993  15.058  1.9745 -0.8511 -0.0814
 1226SOL     OW15310   1.246   4.120  10.074  0.1206  0.2372 -0.1889
 1226SOL    HW115311   1.275   4.045  10.022  0.1732 -0.5101  0.9248
 1226SOL    HW215312   1.321   4.179  10.072  1.3169 -1.3594 -2.4350
 1227SOL     OW15313   1.593   2.956  16.899 -0.1411  0.5752  0.1114
 1227SOL    HW115314   1.618   2.920  16.814 -1.8483 -1.1728  0.3751
 1227SOL    HW215315   1.557   2.881  16.947  0.0806  0.9546  0.8803
 1228SOL     OW15316   2.892   3.089   5.139 -0.4467 -0.1931 -0.0121
 1228SOL    HW115317   2.865   3.151   5.206  1.3556  0.3507  0.2263
 1228SOL    HW215318   2.964   3.042   5.182 -0.6198 -1.7993 -1.4480
 1229SOL     OW15319   4.650   2.159  10.303  0.0835  0.1908  0.1440
 1229SOL    HW115320   0.001   2.126  10.296 -0.0793  0.0491 -1.2422
 1229SOL    HW215321   4.653   2.242  10.349 -3.8707  0.3221  0.1418
 1230SOL     OW15322   2.234   1.930   3.945  0.7361  0.0025 -0.5687
 1230SOL    HW115323   2.286   1.922   4.026 -1.1595 -0.3383  0.6210
 1230SOL    HW215324   2.259   2.018   3.917 -0.3832 -0.2912 -2.4676
 1231SOL     OW15325   4.347   2.413  11.786  0.2449  0.4821 -0.4943
 1231SOL    HW115326   4.440   2.401  11.766  0.5248  2.4681 -0.3620
 1231SOL    HW215327   4.298   2.366  11.718 -1.2417 -0.8115  1.4733
 1232SOL     OW15328   0.059   4.322  13.533  0.5593  0.3235  0.3426
 1232SOL    HW115329   0.149   4.289  13.526  0.1346 -1.0804  1.5388
 1232SOL    HW215330   0.075   4.411  13.565 -0.4059  0.5854  0.0918
 1233SOL     OW15331   3.398   3.309   6.746  0.3784  0.6110  0.4835
 1233SOL    HW115332   3.415   3.398   6.778 -0.7377  0.5911  1.1363
 1233SOL    HW215333   3.471   3.256   6.777  2.1680  2.5982 -0.3454
 1234SOL     OW15334   0.530   1.986   4.464  0.1607  0.2365 -0.3066
 1234SOL    HW115335   0.549   1.966   4.372 -0.3049  0.4255 -0.4404
 1234SOL    HW215336   0.435   1.973   4.471  0.2496 -0.8200 -0.9973
 1235SOL     OW15337   2.441   2.724   1.523 -0.0964  0.1579  0.4176
 1235SOL    HW115338   2.391   2.685   1.451  0.9745  0.7123 -0.6361
 1235SOL    HW215339   2.475   2.799   1.474 -0.3577  0.4301  0.6546
 1236SOL     OW15340   0.198   2.468   6.831 -0.2086 -0.0182  0.4526
 1236SOL    HW115341   0.179   2.374   6.836  1.3256 -0.2639  1.5530
 1236SOL    HW215342   0.290   2.475   6.858 -0.2382  0.7628  0.3462
 1237SOL     OW15343   0.525   3.931   5.874  0.9710  0.0909 -0.2352
 1237SOL    HW115344   0.466   3.917   5.949  0.9317 -2.7862 -0.8063
 1237SOL    HW215345   0.610   3.910   5.912  2.1331  1.2543 -2.1647
 1238SOL     OW15346   1.034   0.764   2.381 -0.2204 -0.0154  0.2289
 1238SOL    HW115347   1.097   0.710   2.429 -0.5105 -0.0951  0.5122
 1238SOL    HW215348   0.960   0.761   2.441 -1.5490  0.1728 -1.4052
 1239SOL     OW15349   1.860   4.614   6.664 -0.1696  0.6027  0.4933
 1239SOL    HW115350   1.843   4.700   6.702 -0.0565  0.5398  0.6849
 1239SOL    HW215351   1.824   4.628   6.576 -0.2541 -0.1677  0.4026
 1240SOL     OW15352   3.072   0.515   2.641  0.1207  0.4669 -0.1393
 1240SOL    HW115353   3.147   0.551   2.690  1.5086 -1.4277 -0.8632
 1240SOL    HW215354   3.001   0.529   2.703  0.6031  3.9664 -0.3559
 1241SOL     OW15355   3.872   1.075   0.738  0.1748 -0.2155 -0.0333
 1241SOL    HW115356   3.920   1.012   0.793 -1.7225 -0.9388  0.8220
 1241SOL    HW215357   3.800   1.018   0.709  0.7881 -1.6456  1.2463
 1242SOL     OW15358   1.915   3.778   2.146 -0.3386 -0.1383 -0.1741
 1242SOL    HW115359   1.840   3.750   2.093 -0.1958 -1.0857  0.1353
 1242SOL    HW215360   1.875   3.792   2.232 -0.9419 -1.5230 -0.2322
 1243SOL     OW15361   3.004   1.337   0.196 -0.2176 -0.3343  0.3464
 1243SOL    HW115362   2.937   1.295   0.249 -1.2867  0.7631 -0.1317
 1243SOL    HW215363   2.956   1.401   0.143 -1.0891 -1.1067  0.2060
 1244SOL     OW15364   2.082   3.668  15.514  0.9953 -0.2470 -0.0400
 1244SOL    HW115365   2.042   3.636  15.594  1.1835 -1.4023 -0.4093
 1244SOL    HW215366   2.094   3.583  15.471 -2.2844  0.7829 -2.9622
 1245SOL     OW15367   1.228   4.229   7.751  0.4774  0.4564 -0.2206
 1245SOL    HW115368   1.228   4.139   7.785  0.3196  1.4596  2.4065
 1245SOL    HW215369   1.315   4.266   7.765  0.2077  0.9881  0.0256
 1246SOL     OW15370   2.262   0.545   8.063  0.3840  0.4793  0.0424
 1246SOL    HW115371   2.247   0.463   8.109  0.1075  0.6471  0.2547
 1246SOL    HW215372   2.236   0.613   8.126  0.0579  0.5325 -0.1511
 1247SOL     OW15373   2.564   1.151   7.633  0.9977 -0.3691 -0.3814
 1247SOL    HW115374   2.652   1.113   7.636  0.7266 -0.9477  0.3915
 1247SOL    HW215375   2.513   1.083   7.679 -3.3332  0.9826 -3.1626
 1248SOL     OW15376   1.410   0.358   2.239  0.4266 -0.2260 -0.2060
 1248SOL    HW115377   1.433   0.423   2.305  2.1321 -1.8671  0.8148
 1248SOL    HW215378   1.484   0.359   2.179  2.0802  0.7146  1.8908
 1249SOL     OW15379   3.895   1.401   8.302  0.0421 -0.1242 -0.4522
 1249SOL    HW115380   3.946   1.474   8.338 -2.3883  2.5611 -2.4225
 1249SOL    HW215381   3.968   1.356   8.262 -0.9917 -1.2774 -1.0399
 1250SOL     OW15382   3.474   0.824  17.583  0.3695 -0.8602  0.0858
 1250SOL    HW115383   3.485   0.805  17.489 -2.8084  0.3707 -0.5239
 1250SOL    HW215384   3.447   0.740  17.619  0.0587  0.5584  3.1055
 1251SOL     OW15385   4.140   1.218   3.715 -0.0620  0.8641  0.5628
 1251SOL    HW115386   4.109   1.129   3.732 -0.3057  0.4920 -1.8407
 1251SOL    HW215387   4.092   1.234   3.634  0.6760  0.1359 -0.0191
 1252SOL     OW15388   2.687   3.061   8.758 -0.0580  0.2120 -0.6742
 1252SOL    HW115389   2.745   3.017   8.696 -0.8751 -0.8745 -0.6761
 1252SOL    HW215390   2.627   3.097   8.693 -0.4800 -0.4193 -0.6338
 1253SOL     OW15391   1.074   2.813   7.573  0.0594  0.1833 -0.0446
 1253SOL    HW115392   1.114   2.784   7.491 -1.6465 -0.5657 -0.6243
 1253SOL    HW215393   1.051   2.904   7.555  0.5591  0.0447 -1.3737
 1254SOL     OW15394   1.455   0.697  13.950  0.0755  0.1313 -0.3550
 1254SOL    HW115395   1.547   0.719  13.943  0.2106  0.1968  1.6186
 1254SOL    HW215396   1.468   0.651  14.033 -0.6516  0.8443  0.1558
 1255SOL     OW15397   3.554   3.728   4.633  0.3746  0.0707 -0.0485
 1255SOL    HW115398   3.476   3.690   4.676  0.8462 -1.2163 -0.3255
 1255SOL    HW215399   3.521   3.817   4.619  0.2035 -0.1192 -0.8425
 1256SOL     OW15400   4.192   0.443   3.992 -0.3111 -0.5891 -0.4114
 1256SOL    HW115401   4.256   0.394   3.941 -0.7819 -0.2730 -1.3086
 1256SOL    HW215402   4.158   0.370   4.043 -0.7119 -0.6007 -0.7002
 1257SOL     OW15403   0.015   4.464   6.962 -0.3408  0.5037  0.2622
 1257SOL    HW115404   0.012   4.553   6.926 -1.4894 -0.1930 -1.3888
 1257SOL    HW215405   4.667   4.448   6.998  0.1035 -2.1560  0.1056
 1258SOL     OW15406   1.691   4.215   3.262 -0.8370  0.1838 -0.1868
 1258SOL    HW115407   1.691   4.145   3.328  0.6421 -2.0505 -2.5680
 1258SOL    HW215408   1.636   4.281   3.305 -0.1428 -0.4775  1.7309
 1259SOL     OW15409   3.752   2.092   6.174 -0.2734  0.1383  0.6157
 1259SOL    HW115410   3.673   2.065   6.127  1.6858 -3.3841 -0.7002
 1259SOL    HW215411   3.810   2.108   6.100  2.7582 -1.1484  2.6752
 1260SOL     OW15412   2.761   1.423   0.111  0.0034  0.8665  0.2739
 1260SOL    HW115413   2.814   1.501   0.098 -1.1930  1.6117 -0.1357
 1260SOL    HW215414   2.706   1.424   0.032  0.3035 -0.7350  0.0325
 1261SOL     OW15415   2.719   2.163   5.294 -0.5507  0.4429 -0.2916
 1261SOL    HW115416   2.703   2.222   5.368  0.8868  1.0941 -0.5135
 1261SOL    HW215417   2.697   2.214   5.216  2.4599 -0.0682 -1.4504
 1262SOL     OW15418   1.392   3.347  10.805 -0.1523  0.1075  0.1279
 1262SOL    HW115419   1.463   3.309  10.857  1.5047 -0.9778 -2.8574
 1262SOL    HW215420   1.412   3.440  10.815  0.7032 -0.1760  1.0713
 1263SOL     OW15421   3.174   3.654  17.732  0.0016 -0.0243 -0.1306
 1263SOL    HW115422   3.201   3.731  17.683  2.3764 -1.0944 -0.5088
 1263SOL    HW215423   3.235   3.676   0.050 -0.6729 -0.2459  0.5170
 1264SOL     OW15424   0.127   2.156   8.704  0.0183 -0.1288  0.0959
 1264SOL    HW115425   0.119   2.084   8.641  3.6947  0.6341 -1.2578
 1264SOL    HW215426   0.067   2.146   8.777  0.2277 -0.3898  0.2286
 1265SOL     OW15427   3.747   2.589   8.140 -0.3885  0.3573 -0.1446
 1265SOL    HW115428   3.696   2.635   8.206  0.1921  2.9206 -1.4480
 1265SOL    HW215429   3.737   2.496   8.161  0.6037  1.0049  3.0752
 1266SOL     OW15430   0.014   2.956   2.855  0.4537  0.3915 -0.4986
 1266SOL    HW115431   0.008   2.861   2.865 -2.3280  0.7450  1.2534
 1266SOL    HW215432   0.002   2.987   2.945  1.4333  0.7305 -0.4812
 1267SOL     OW15433   2.366   0.120  17.421  0.5686 -0.2102 -0.2093
 1267SOL    HW115434   2.303   0.063  17.465  2.8073 -2.3003  0.2454
 1267SOL    HW215435   2.305   0.182  17.380 -0.4672 -0.9521  0.2062
 1268SOL     OW15436   3.692   2.948  17.099  0.3035 -0.0989 -0.8336
 1268SOL    HW115437   3.680   2.853  17.098  0.0668 -0.0662 -0.9921
 1268SOL    HW215438   3.738   2.958  17.182 -2.2036 -0.5881  0.6339
 1269SOL     OW15439   0.876   0.714   4.438 -0.0783 -0.1394  0.0586
 1269SOL    HW115440   0.969   0.713   4.463  0.6966 -1.2614 -2.8526
 1269SOL    HW215441   0.868   0.800   4.396 -1.3660 -0.1168  0.3672
 1270SOL     OW15442   1.031   2.927  14.801 -0.2852 -0.2263 -0.4440
 1270SOL    HW115443   0.984   2.924  14.885  0.2312  1.8098 -0.0613
 1270SOL    HW215444   0.967   2.974  14.747 -0.5545  1.0067  0.9198
 1271SOL     OW15445   1.651   3.121   6.829  0.2879  0.2702 -0.1606
 1271SOL    HW115446   1.587   3.057   6.798 -0.6537  0.9478  0.3544
 1271SOL    HW215447   1.711   3.059   6.870 -1.7683 -1.6035  0.0115
 1272SOL     OW15448   1.414   2.360   5.366  0.6146 -0.0412  0.0958
 1272SOL    HW115449   1.507   2.366   5.345  0.2415  1.5838 -1.0973
 1272SOL    HW215450   1.392   2.273   5.334  1.6515  0.6288 -2.4317
 1273SOL     OW15451   2.433   1.725   3.004 -0.1840  0.1671  0.8897
 1273SOL    HW115452   2.396   1.670   3.074 -0.4999  1.8066  2.0160
 1273SOL    HW215453   2.361   1.788   3.000 -1.4083 -1.3018 -0.5316
 1274SOL     OW15454   1.051   4.529   1.952 -0.2601 -0.0311 -0.6247
 1274SOL    HW115455   1.063   4.596   1.884 -0.0544 -0.2689 -0.8243
 1274SOL    HW215456   1.037   4.588   2.026  2.6863  0.2944 -0.3073
 1275SOL     OW15457   3.025   1.897   3.533 -0.2348 -0.3667  0.0098
 1275SOL    HW115458   3.054   1.971   3.586  1.2129 -1.9727  1.4576
 1275SOL    HW215459   2.929   1.897   3.536 -0.1905 -1.4727  1.3250
 1276SOL     OW15460   0.871   3.593  17.107 -0.1080  0.0007  0.4362
 1276SOL    HW115461   0.876   3.610  17.013 -2.8845  1.5048  0.5657
 1276SOL    HW215462   0.928   3.516  17.114  0.1165  0.1698  0.4828
 1277SOL     OW15463   1.241   4.044  12.264 -0.0275  0.2429 -0.0142
 1277SOL    HW115464   1.223   3.959  12.303  1.1276  1.5389  3.3625
 1277SOL    HW215465   1.162   4.092  12.289 -2.3451 -3.6412  0.0774
 1278SOL     OW15466   4.022   0.726   0.538  0.3684  0.3598  0.2027
 1278SOL    HW115467   4.088   0.680   0.487  0.8593  0.3764  0.8359
 1278SOL    HW215468   4.003   0.659   0.603  0.3392  0.7401  0.5849
 1279SOL     OW15469   3.433   4.015   4.816  0.6729  0.3237 -0.0688
 1279SOL    HW115470   3.402   4.056   4.897 -0.2596  0.9460 -0.7309
 1279SOL    HW215471   3.523   4.046   4.808  1.0443 -0.5570  0.6776
 1280SOL     OW15472   0.967   3.218   3.559  0.5465  0.2436 -0.1086
 1280SOL    HW115473   0.886   3.255   3.594  0.5466  1.5069 -1.4406
 1280SOL    HW215474   0.942   3.141   3.507 -0.8492  0.8642 -0.3520
 1281SOL     OW15475   3.543   0.261  16.835 -0.6287  0.0701  0.6581
 1281SOL    HW115476   3.512   0.308  16.758 -0.7463 -1.1145 -0.0068
 1281SOL    HW215477   3.573   0.334  16.890 -3.2863  0.6870  1.2702
 1282SOL     OW15478   1.392   2.664   7.726 -0.2776 -0.4132 -0.6540
 1282SOL    HW115479   1.325   2.718   7.685 -0.9591 -1.5799 -1.0806
 1282SOL    HW215480   1.468   2.685   7.672  0.4054  0.6335  0.6989
 1283SOL     OW15481   2.616   0.610   7.580  0.0969  0.1471 -0.4304
 1283SOL    HW115482   2.583   0.574   7.498  0.3846 -1.1896  0.0237
 1283SOL    HW215483   2.541   0.585   7.634 -0.4638 -0.9720 -1.7284
 1284SOL     OW15484   2.381   2.747   2.611 -0.3342 -0.0724  0.6723
 1284SOL    HW115485   2.318   2.763   2.541  0.8544  0.0932 -0.3621
 1284SOL    HW215486   2.368   2.658   2.643  0.9762  0.6354  3.1893
 1285SOL     OW15487   4.509   2.629  10.558 -0.1246 -0.2241  0.3673
 1285SOL    HW115488   4.472   2.702  10.508 -0.6195 -0.4982  0.3288
 1285SOL    HW215489   4.447   2.624  10.631 -0.5024  1.1961  0.1385
 1286SOL     OW15490   2.975   4.701   9.643 -0.5679 -0.7994  0.2309
 1286SOL    HW115491   3.057   4.697   9.592  0.0070 -1.9632  1.2220
 1286SOL    HW215492   2.905   4.685   9.580  0.3667  0.9626 -1.2529
 1287SOL     OW15493   3.903   1.885   0.682 -0.5140 -0.0762  0.3103
 1287SOL    HW115494   3.892   1.790   0.670 -0.3743  0.0349 -0.7315
 1287SOL    HW215495   3.853   1.908   0.604 -1.1268 -0.8464  0.4659
 1288SOL     OW15496   4.725   3.869  12.198  0.2556  0.6542 -0.3193
 1288SOL    HW115497   4.726   3.956  12.159 -0.1871  1.0185  0.4672
 1288SOL    HW215498   0.065   3.830  12.160  1.4171  0.2667  2.4622
 1289SOL     OW15499   2.861   1.602   6.804 -0.2219  0.0052 -0.0244
 1289SOL    HW115500   2.905   1.550   6.871 -0.1748 -0.2353 -0.2435
 1289SOL    HW215501   2.904   1.570   6.724 -0.2743  0.0827 -0.0838
 1290SOL     OW15502   2.664   2.524   0.226  0.1199  0.4381 -0.3325
 1290SOL    HW115503   2.737   2.568   0.271 -0.0180  0.4665 -0.1352
 1290SOL    HW215504   2.606   2.599   0.213 -0.2897  0.0946 -0.4928
 1291SOL     OW15505   3.941   1.626   4.655 -0.0256  0.5780  0.2573
 1291SOL    HW115506   4.008   1.558   4.662 -0.4171  0.1003 -0.7321
 1291SOL    HW215507   3.977   1.692   4.714  1.4822 -0.6719  0.7147
 1292SOL     OW15508   4.206   1.303   8.906  0.4345 -0.0900  0.1254
 1292SOL    HW115509   4.229   1.213   8.883  0.8208  0.5895 -2.2069
 1292SOL    HW215510   4.224   1.306   9.000 -0.6666 -0.9847  0.3646
 1293SOL     OW15511   3.941   2.653  17.383 -0.2936  0.2613 -0.3004
 1293SOL    HW115512   3.948   2.741  17.419 -0.3029  0.6151 -1.1800
 1293SOL    HW215513   3.859   2.627  17.427 -0.0481  0.0128  0.0117
 1294SOL     OW15514   4.733   2.592   6.176  0.4192  0.3477  0.4789
 1294SOL    HW115515   0.059   2.522   6.171  0.2999  0.4821 -3.3534
 1294SOL    HW215516   0.001   2.629   6.088  0.4619  0.9549  0.7385
 1295SOL     OW15517   0.109   4.043   9.434  0.5345  0.0687  0.4001
 1295SOL    HW115518   0.084   4.123   9.480  0.8433  0.3000  0.1634
 1295SOL    HW215519   0.058   3.982   9.487 -0.3260 -1.4798 -2.2243
 1296SOL     OW15520   0.631   1.111   7.848  0.2374  0.5334  0.0345
 1296SOL    HW115521   0.679   1.032   7.873  2.3208  1.9536  0.4906
 1296SOL    HW215522   0.541   1.077   7.850  0.2553  0.4866  0.0332
 1297SOL     OW15523   3.318   1.721   6.814 -0.0996 -0.2100  0.2439
 1297SOL    HW115524   3.346   1.805   6.849 -0.7247  0.0311  0.1628
 1297SOL    HW215525   3.231   1.754   6.794 -0.5986 -1.0029  1.1279
 1298SOL     OW15526   3.605   3.196   6.894 -0.0501 -0.4756 -0.3392
 1298SOL    HW115527   3.694   3.232   6.896 -0.1492 -0.2741  0.4853
 1298SOL    HW215528   3.625   3.105   6.919  0.9319  0.1997  1.3847
 1299SOL     OW15529   1.758   2.305  12.055 -1.0652 -0.8692  0.4491
 1299SOL    HW115530   1.692   2.297  11.986 -0.3721  0.1871 -0.3367
 1299SOL    HW215531   1.743   2.221  12.097 -0.4120 -1.3412 -0.2653
 1300SOL     OW15532   3.151   1.362   7.932 -0.2198  0.1625  0.0538
 1300SOL    HW115533   3.128   1.452   7.909 -2.8082 -0.1430  1.4540
 1300SOL    HW215534   3.092   1.306   7.882 -1.6209  1.4370  0.2717
 1301SOL     OW15535   0.595   2.085  12.044 -0.4674  0.5476 -0.1944
 1301SOL    HW115536   0.598   2.008  12.101 -1.5073 -0.5281 -1.5891
 1301SOL    HW215537   0.584   2.157  12.105 -0.4997  0.4900 -0.1322
 1302SOL     OW15538   0.141   1.199   9.371  0.0888 -0.3069  0.7106
 1302SOL    HW115539   0.135   1.294   9.377  1.1309  0.0080 -3.2666
 1302SOL    HW215540   0.063   1.177   9.319 -0.3899  2.6297  0.2064
 1303SOL     OW15541   0.553   1.950  12.284  0.3466 -0.5213 -0.0244
 1303SOL    HW115542   0.466   1.975  12.315  1.4616 -0.6740  3.1551
 1303SOL    HW215543   0.613   1.954  12.359  0.9464 -0.8857 -0.4803
 1304SOL     OW15544   3.234   0.439  15.468  0.3699  0.0609  0.1717
 1304SOL    HW115545   3.209   0.350  15.444 -0.6836  0.1280  1.0058
 1304SOL    HW215546   3.301   0.444  15.400 -1.1740  0.5130 -1.3312
 1305SOL     OW15547   1.474   4.295  10.077 -0.2280  0.2447  0.0238
 1305SOL    HW115548   1.539   4.332  10.017  0.9282  1.0562  1.7920
 1305SOL    HW215549   1.525   4.222  10.112 -0.2248 -0.1574 -0.8130
 1306SOL     OW15550   4.147   3.441   4.702  0.6272  0.1316 -0.0024
 1306SOL    HW115551   4.169   3.517   4.755 -0.2143 -0.7729  1.6320
 1306SOL    HW215552   4.229   3.441   4.652  0.4581  1.2469 -0.2689
 1307SOL     OW15553   4.713   2.584   7.199 -0.1101 -0.0272  0.0807
 1307SOL    HW115554   4.717   2.490   7.216  0.7797 -0.3310 -1.8470
 1307SOL    HW215555   4.649   2.587   7.128 -1.1306  2.0863  1.1017
 1308SOL     OW15556   1.013   4.420   6.771  0.3456  0.0658 -0.4049
 1308SOL    HW115557   0.992   4.459   6.856  1.8426 -2.4845  1.1319
 1308SOL    HW215558   0.926   4.422   6.731 -0.8478  1.3223  2.2739
 1309SOL     OW15559   3.490   0.339  10.196  0.2634  0.6848  0.4330
 1309SOL    HW115560   3.570   0.303  10.158 -0.5634 -1.3559  0.6178
 1309SOL    HW215561   3.472   0.268  10.258 -0.8858  1.0806  0.5559
 1310SOL     OW15562   0.029   0.232  16.742 -0.3701 -0.4890  0.1663
 1310SOL    HW115563   0.024   0.311  16.795  1.5417 -0.8068  0.8135
 1310SOL    HW215564   4.716   0.255  16.665  0.4328  0.0059 -0.2175
 1311SOL     OW15565   2.820   1.857  15.604 -0.0909 -0.4740 -0.1152
 1311SOL    HW115566   2.772   1.787  15.560  0.2208  0.1721 -1.4591
 1311SOL    HW215567   2.912   1.835  15.591 -0.3341 -0.5432 -1.6589
 1312SOL     OW15568   1.809   2.630   3.390 -0.3495  0.6441  0.1743
 1312SOL    HW115569   1.788   2.640   3.483  1.8718  0.1027  0.7349
 1312SOL    HW215570   1.900   2.604   3.401  0.0924  1.5764 -1.3537
 1313SOL     OW15571   2.358   3.699  10.955 -0.0920  0.4319  0.1355
 1313SOL    HW115572   2.414   3.691  10.878 -2.0304  0.1276 -1.2471
 1313SOL    HW215573   2.270   3.709  10.917 -0.5114  0.5306  1.1376
 1314SOL     OW15574   2.468   3.121   0.475 -0.5582  0.1802  0.0480
 1314SOL    HW115575   2.495   3.106   0.566  0.8448 -1.8686 -0.6844
 1314SOL    HW215576   2.507   3.208   0.466  1.2980 -0.4473  1.7954
 1315SOL     OW15577   3.935   0.924   7.555 -0.1439 -0.4253 -0.5526
 1315SOL    HW115578   3.888   0.997   7.516 -0.7493 -0.9184 -0.7476
 1315SOL    HW215579   3.883   0.919   7.636  0.3344 -2.6855 -0.3828
 1316SOL     OW15580   3.656   4.268   2.879  0.1675 -0.2497 -0.6313
 1316SOL    HW115581   3.704   4.201   2.928  2.3258  0.5312 -1.6716
 1316SOL    HW215582   3.566   4.251   2.907  0.2245  2.6117  1.3395
 1317SOL     OW15583   0.947   4.141  16.468 -0.2939  0.0193 -1.1270
 1317SOL    HW115584   0.889   4.213  16.488 -0.3986 -0.1644 -0.7791
 1317SOL    HW215585   0.893   4.075  16.423  1.0252 -2.5476  1.0531
 1318SOL     OW15586   1.847   3.208   5.219  0.7847  0.2194 -0.7142
 1318SOL    HW115587   1.892   3.241   5.142 -1.9236  0.3689 -2.2107
 1318SOL    HW215588   1.908   3.231   5.289  0.2629  0.0902 -0.2174
 1319SOL     OW15589   1.298   2.123   8.114  0.0002  0.2807 -0.0362
 1319SOL    HW115590   1.279   2.204   8.161  1.2809 -0.0873  1.1178
 1319SOL    HW215591   1.216   2.074   8.121  0.7055 -0.5414  2.4766
 1320SOL     OW15592   0.528   0.609   8.064 -0.4623  0.6019  0.0906
 1320SOL    HW115593   0.537   0.548   8.136  0.0197  0.7509  0.1615
 1320SOL    HW215594   0.520   0.550   7.989 -0.1185  1.1931 -0.4163
 1321SOL     OW15595   3.665   0.133   3.400 -0.2402  0.1938 -0.6157
 1321SOL    HW115596   3.583   0.098   3.434 -1.0191  2.8427  0.2636
 1321SOL    HW215597   3.685   0.075   3.327  0.9016 -0.8285  0.5077
 1322SOL     OW15598   1.453   0.164   5.644 -0.1326 -0.0673 -0.3873
 1322SOL    HW115599   1.384   0.098   5.635 -1.5212  1.4452 -0.8311
 1322SOL    HW215600   1.409   0.249   5.645  1.6362  0.8484  0.5355
 1323SOL     OW15601   3.373   2.463   3.158 -0.0881 -0.2249  0.3873
 1323SOL    HW115602   3.325   2.399   3.211  0.0923 -0.9289 -0.3135
 1323SOL    HW215603   3.342   2.541   3.204  0.3941  0.8375 -1.0921
 1324SOL     OW15604   0.241   0.075   5.412 -0.3190  0.0178  0.0854
 1324SOL    HW115605   0.273   0.162   5.437  0.5131 -0.0442 -0.7535
 1324SOL    HW215606   0.243   0.025   5.494  0.2471 -1.5026 -0.8422
 1325SOL     OW15607   3.552   1.239  15.791 -0.0778  0.2328  0.3962
 1325SOL    HW115608   3.522   1.327  15.812 -1.0983  1.1054 -4.7575
 1325SOL    HW215609   3.646   1.258  15.789  0.2175 -1.0021  3.0207
 1326SOL     OW15610   3.309   2.262  14.063  0.3383  0.4070 -0.0426
 1326SOL    HW115611   3.364   2.339  14.078 -1.9675  2.1912 -0.9079
 1326SOL    HW215612   3.303   2.265  13.968 -0.0965 -0.9878 -0.0490
 1327SOL     OW15613   1.218   0.677  11.385  0.0317 -0.5342 -0.0239
 1327SOL    HW115614   1.264   0.719  11.312  0.6139 -0.4577  0.3886
 1327SOL    HW215615   1.171   0.755  11.414  1.1262 -0.2183  0.8930
 1328SOL     OW15616   2.835   4.678   5.791  0.1499 -0.3680 -1.3411
 1328SOL    HW115617   2.813   0.030   5.772 -1.2933 -0.1735  1.2593
 1328SOL    HW215618   2.786   4.633   5.723 -1.4638  0.1654 -0.5380
 1329SOL     OW15619   1.122   3.191  17.431 -0.0096 -0.2567  0.0084
 1329SOL    HW115620   1.049   3.140  17.398 -2.1003  2.2869  0.6572
 1329SOL    HW215621   1.120   3.269  17.375 -1.7057  0.8790  1.6295
 1330SOL     OW15622   1.982   1.455   5.949 -0.4219  0.7950  0.5570
 1330SOL    HW115623   2.069   1.493   5.942  0.1826 -0.9360 -1.2294
 1330SOL    HW215624   2.014   1.365   5.952 -0.3173  0.8350  0.6170
 1331SOL     OW15625   2.913   2.478   0.951 -0.0212 -0.6782  0.8186
 1331SOL    HW115626   2.938   2.391   0.981 -0.2237 -1.5039 -1.4350
 1331SOL    HW215627   2.830   2.451   0.911  1.3179  0.7398 -2.9072
 1332SOL     OW15628   2.897   0.788   4.225  1.0584 -0.0057  0.3481
 1332SOL    HW115629   2.851   0.820   4.148  1.0150 -1.0406 -0.0597
 1332SOL    HW215630   2.934   0.707   4.188 -1.3819 -0.4955 -0.9913
 1333SOL     OW15631   0.745   4.399   4.030 -0.0069 -0.6778 -0.1616
 1333SOL    HW115632   0.757   4.352   3.947  1.5348  1.5437 -1.1918
 1333SOL    HW215633   0.687   4.340   4.078  1.5528 -2.0005  0.1171
 1334SOL     OW15634   3.983   3.270   1.685  0.5341  0.5245  0.5898
 1334SOL    HW115635   4.017   3.242   1.770  0.3400 -1.9800 -0.1589
 1334SOL    HW215636   3.892   3.291   1.708  1.0063  2.9653  0.3043
 1335SOL     OW15637   1.590   2.967   2.235  0.7920 -0.0095 -0.6382
 1335SOL    HW115638   1.639   2.884   2.231 -0.1910 -0.6567  0.9889
 1335SOL    HW215639   1.623   3.009   2.314  1.2136 -0.1552 -0.7329
 1336SOL     OW15640   0.522   3.268   5.529 -0.8029  0.0279  0.3811
 1336SOL    HW115641   0.587   3.200   5.550  1.0796  1.5381 -0.5594
 1336SOL    HW215642   0.473   3.224   5.459  1.2987  0.8339 -1.5855
 1337SOL     OW15643   1.737   0.373   3.478  0.6830  0.1166 -0.5899
 1337SOL    HW115644   1.786   0.388   3.398 -0.7566 -1.6887 -1.8142
 1337SOL    HW215645   1.769   0.287   3.505  2.4762  0.5834 -1.2494
 1338SOL     OW15646   3.793   1.002   9.040 -0.4508  0.3376  0.3416
 1338SOL    HW115647   3.750   1.005   8.955  0.6550 -3.1206 -0.3246
 1338SOL    HW215648   3.795   1.092   9.073  0.3767  0.6506 -0.5954
 1339SOL     OW15649   0.749   3.088   8.081 -0.1303 -0.6794 -0.2290
 1339SOL    HW115650   0.764   3.180   8.101  0.2772 -1.0896  1.3349
 1339SOL    HW215651   0.685   3.069   8.150 -0.8245 -0.7874 -0.8967
 1340SOL     OW15652   1.261   1.480   8.737 -0.8048 -0.0113 -0.2064
 1340SOL    HW115653   1.165   1.486   8.743 -0.7090  0.2544  1.0554
 1340SOL    HW215654   1.280   1.414   8.803  1.6339 -0.8786 -1.7886
 1341SOL     OW15655   3.599   4.641  12.549  0.2170  0.1041  0.2035
 1341SOL    HW115656   3.524   4.699  12.553 -0.9453 -1.1999 -2.4098
 1341SOL    HW215657   3.664   4.704  12.517  0.0641 -0.1201 -0.5420
 1342SOL     OW15658   4.635   2.956   5.037  0.1843  0.3242 -0.7378
 1342SOL    HW115659   4.665   2.868   5.058  0.7897  0.6512 -0.2344
 1342SOL    HW215660   4.635   2.945   4.942 -2.5209 -0.7471 -0.6186
 1343SOL     OW15661   1.646   4.168  15.302  0.3532 -0.6521  0.1160
 1343SOL    HW115662   1.731   4.147  15.341  1.9365  2.8027 -1.5042
 1343SOL    HW215663   1.669   4.219  15.224  1.4651 -0.9963  0.2215
 1344SOL     OW15664   1.965   0.119   3.633  0.3113  0.3755  0.2660
 1344SOL    HW115665   2.002   0.041   3.592  1.0646  1.1820 -0.5594
 1344SOL    HW215666   1.873   0.093   3.625  0.6023 -0.5380 -0.0870
 1345SOL     OW15667   3.050   3.532  12.585  0.2327  0.3474  0.1814
 1345SOL    HW115668   3.092   3.489  12.511  1.3569  0.1745  0.9135
 1345SOL    HW215669   2.989   3.466  12.620 -0.1853 -0.2195 -1.6108
 1346SOL     OW15670   4.560   2.372   2.892 -0.7007  0.0754 -0.2440
 1346SOL    HW115671   4.493   2.317   2.853  0.2239 -1.2845  0.0901
 1346SOL    HW215672   4.551   2.455   2.845 -1.9331 -0.3925 -0.8345
 1347SOL     OW15673   3.453   3.152   0.325 -0.5551 -0.4822 -0.0191
 1347SOL    HW115674   3.466   3.240   0.290  2.4877 -0.4137  1.2801
 1347SOL    HW215675   3.373   3.157   0.378 -0.9189 -2.1345 -0.4046
 1348SOL     OW15676   0.894   2.915   6.906 -0.0600 -0.7282  0.1364
 1348SOL    HW115677   0.905   2.881   6.995 -0.7088  1.2070  0.9650
 1348SOL    HW215678   0.900   2.835   6.853 -3.1677  0.7164 -2.3719
 1349SOL     OW15679   1.363   0.474   7.596 -0.1286 -0.0268  0.6147
 1349SOL    HW115680   1.328   0.387   7.575  3.5101 -1.5344  0.8356
 1349SOL    HW215681   1.426   0.439   7.659  0.2478 -1.8661 -0.7759
 1350SOL     OW15682   2.546   1.149   3.061 -0.0490 -0.0012 -0.0889
 1350SOL    HW115683   2.579   1.225   3.110 -1.4250 -0.0842  0.9844
 1350SOL    HW215684   2.500   1.196   2.992 -0.0776 -0.1730 -0.1877
 1351SOL     OW15685   3.501   2.020   2.247  0.0043 -0.0374  0.1792
 1351SOL    HW115686   3.525   1.934   2.213 -1.0496 -0.8686  1.5089
 1351SOL    HW215687   3.462   2.054   2.166  0.0192 -1.0983 -0.2682
 1352SOL     OW15688   2.086   0.214   1.552 -0.7325  0.1831 -0.4324
 1352SOL    HW115689   2.019   0.162   1.509 -0.3761 -0.9257  0.3590
 1352SOL    HW215690   2.160   0.155   1.539  0.0962  1.1205 -0.0205
 1353SOL     OW15691   3.206   0.089   7.511 -0.1827  0.5171 -0.1515
 1353SOL    HW115692   3.250   0.167   7.478  0.1996  0.4448  0.1874
 1353SOL    HW215693   3.202   0.119   7.602  1.0160  0.4984 -0.0904
 1354SOL     OW15694   0.475   3.444   7.139  0.0520 -0.1471 -0.3722
 1354SOL    HW115695   0.395   3.485   7.106  0.8455  1.8113  0.1095
 1354SOL    HW215696   0.525   3.522   7.162  0.1911  0.0830 -1.4227
 1355SOL     OW15697   3.531   3.331  16.805  0.1868 -0.1664 -0.3474
 1355SOL    HW115698   3.587   3.360  16.877 -1.7009  0.3466  0.9230
 1355SOL    HW215699   3.514   3.412  16.757 -0.9639 -0.1654  0.0504
 1356SOL     OW15700   1.120   3.819   5.455  0.0279  0.4656  0.1133
 1356SOL    HW115701   1.092   3.892   5.401  0.4460 -0.8012 -1.8331
 1356SOL    HW215702   1.033   3.781   5.469 -0.6688  2.1206  0.3206
 1357SOL     OW15703   0.782   3.072   2.619  0.6460  0.3579 -0.2518
 1357SOL    HW115704   0.864   3.116   2.642 -0.9264  2.9215  0.4508
 1357SOL    HW215705   0.716   3.103   2.681  0.5952 -1.0006  0.3552
 1358SOL     OW15706   4.687   0.216   2.685 -0.3425  0.2239 -0.2472
 1358SOL    HW115707   4.655   0.152   2.749  1.1557  0.2948  0.5576
 1358SOL    HW215708   4.656   0.298   2.725 -1.9750  0.0325 -1.0978
 1359SOL     OW15709   3.597   3.318   2.623 -0.2300 -0.4179 -0.5517
 1359SOL    HW115710   3.641   3.300   2.706 -0.9361 -2.0732 -0.5533
 1359SOL    HW215711   3.583   3.230   2.590  2.0018 -0.6540 -0.8878
 1360SOL     OW15712   3.367   1.815  15.651  0.3120  0.1366  0.9750
 1360SOL    HW115713   3.439   1.878  15.652  0.8168 -0.4490  0.7606
 1360SOL    HW215714   3.421   1.750  15.607 -1.5631  0.9938 -2.5678
 1361SOL     OW15715   2.071   4.296   2.165 -0.1273  0.5777  0.0482
 1361SOL    HW115716   2.082   4.309   2.259 -0.9307 -2.5298  0.5507
 1361SOL    HW215717   2.010   4.225   2.150  1.4906 -0.9512  0.6808
 1362SOL     OW15718   1.733   4.180   6.512 -0.4018 -0.1898 -0.0285
 1362SOL    HW115719   1.650   4.153   6.552  0.1614 -1.2217  0.4476
 1362SOL    HW215720   1.716   4.269   6.482  2.0420  0.1632 -0.3599
 1363SOL     OW15721   1.227   3.395   9.609 -0.3362  0.0822  0.1846
 1363SOL    HW115722   1.231   3.373   9.702  1.5256 -0.9254 -0.1332
 1363SOL    HW215723   1.240   3.309   9.569  0.4622 -0.7813  2.2803
 1364SOL     OW15724   2.025   3.425   9.397  0.1718  0.0977 -0.3873
 1364SOL    HW115725   2.088   3.496   9.388  1.1065 -0.9249 -1.9018
 1364SOL    HW215726   2.039   3.381   9.314 -4.2021  1.6947 -1.9903
 1365SOL     OW15727   3.049   0.541   6.990  0.5814 -0.5265 -0.2006
 1365SOL    HW115728   3.100   0.543   6.909  0.3312  0.8922 -0.3367
 1365SOL    HW215729   2.995   0.620   6.993  1.2900 -0.0002 -1.2112
 1366SOL     OW15730   4.600   0.996   7.899  0.2512 -0.2795  0.1977
 1366SOL    HW115731   4.553   1.035   7.825 -1.5610 -0.3530  1.3136
 1366SOL    HW215732   4.682   0.957   7.869  0.6237 -0.3911  1.3818
 1367SOL     OW15733   2.021   1.578  13.810  0.5419  0.0984  0.6451
 1367SOL    HW115734   1.966   1.621  13.876 -1.6403  1.4576 -2.0423
 1367SOL    HW215735   1.968   1.507  13.774  0.5839  1.1647 -1.5346
 1368SOL     OW15736   1.696   1.885   5.629 -0.2239  0.7394 -0.0175
 1368SOL    HW115737   1.764   1.856   5.568 -0.0853 -1.6970  1.2883
 1368SOL    HW215738   1.693   1.974   5.594  1.2733  0.7033 -0.2626
 1369SOL     OW15739   1.918   1.168   8.363  0.2376 -0.0887  0.4953
 1369SOL    HW115740   1.969   1.169   8.443  1.3389 -0.6194 -0.2081
 1369SOL    HW215741   1.854   1.100   8.385  2.4495 -1.8899  1.3378
 1370SOL     OW15742   0.204   1.055  14.500 -0.5989  0.1266 -0.5640
 1370SOL    HW115743   0.132   0.993  14.496 -0.7827  0.3216 -0.2767
 1370SOL    HW215744   0.200   1.055  14.596  2.5040  2.7605 -0.4462
 1371SOL     OW15745   0.010   1.467   3.600 -0.1127 -0.6127  0.1211
 1371SOL    HW115746   0.102   1.494   3.603  0.0589 -0.9582 -1.8938
 1371SOL    HW215747   4.727   1.498   3.688  0.1659  1.9641 -0.7422
 1372SOL     OW15748   2.494   1.297  14.916 -0.4170  0.6322 -0.1520
 1372SOL    HW115749   2.435   1.300  14.841  0.0452  1.6716 -0.4775
 1372SOL    HW215750   2.494   1.202  14.926 -0.4324  0.4735 -1.6219
 1373SOL     OW15751   3.431   4.612  10.033  0.4287 -0.0319 -0.0704
 1373SOL    HW115752   3.428   4.706  10.013  1.1905 -0.8876 -4.2370
 1373SOL    HW215753   3.361   4.606  10.098 -1.4576 -0.8933 -2.2119
 1374SOL     OW15754   1.061   2.817   1.210  0.0730  0.0219  0.3900
 1374SOL    HW115755   1.023   2.869   1.139  2.0649  0.1343 -0.5677
 1374SOL    HW215756   0.983   2.773   1.245 -0.8346 -1.8114 -3.8750
 1375SOL     OW15757   0.075   0.826   4.831  0.8564  0.1552  0.1753
 1375SOL    HW115758   0.084   0.890   4.760 -1.0480 -0.0583 -0.2550
 1375SOL    HW215759   0.051   0.884   4.904  1.4478 -0.0029  0.4975
 1376SOL     OW15760   0.422   4.618  11.048  0.0349  0.7354 -0.2270
 1376SOL    HW115761   0.375   4.603  11.130  1.0653 -1.5726 -0.0611
 1376SOL    HW215762   0.495   4.557  11.059 -0.0016  1.2327  2.9147
 1377SOL     OW15763   3.683   1.779   4.899  0.4815 -0.1534 -0.4225
 1377SOL    HW115764   3.685   1.805   4.806 -0.1082 -1.4350 -0.8024
 1377SOL    HW215765   3.592   1.763   4.923  0.4688 -2.0375 -1.7181
 1378SOL     OW15766   0.536   4.347   4.756  0.1703 -0.3157  0.3197
 1378SOL    HW115767   0.606   4.282   4.750 -0.1499 -0.5301 -1.2439
 1378SOL    HW215768   0.580   4.425   4.723 -0.0003  0.4786  1.9710
 1379SOL     OW15769   0.696   4.109   6.866 -0.1692  0.0387 -0.0561
 1379SOL    HW115770   0.746   4.030   6.885 -0.5642 -0.0514  0.6265
 1379SOL    HW215771   0.618   4.101   6.922  0.6593 -1.3635  0.8930
 1380SOL     OW15772   1.029   3.632   0.570 -0.3367  0.4529  0.3842
 1380SOL    HW115773   1.058   3.637   0.479  1.0688  1.7844  0.8905
 1380SOL    HW215774   0.945   3.678   0.570  0.3443  1.7241  1.8831
 1381SOL     OW15775   0.962   4.237   3.382  0.2799  0.1811  0.2879
 1381SOL    HW115776   0.952   4.314   3.439  1.5816  1.1701 -0.8224
 1381SOL    HW215777   1.056   4.225   3.371 -0.0410 -1.2186 -0.8502
 1382SOL     OW15778   1.380   2.730   5.303  0.0029 -0.0522 -0.4399
 1382SOL    HW115779   1.297   2.762   5.266 -0.5044  0.2274  0.9565
 1382SOL    HW215780   1.354   2.644   5.337 -0.9133 -0.2977 -1.7332
 1383SOL     OW15781   1.842   1.124   9.272 -0.8403 -0.8459  0.2929
 1383SOL    HW115782   1.884   1.210   9.278  0.9175 -1.5628 -1.5232
 1383SOL    HW215783   1.750   1.123   9.299 -0.8244  0.1154  0.3849
 1384SOL     OW15784   2.812   0.961   2.545  0.7280 -0.3861  0.7204
 1384SOL    HW115785   2.778   0.983   2.459  1.8361  3.3343  1.2625
 1384SOL    HW215786   2.736   0.911   2.576  2.0128 -1.4721  2.1554
 1385SOL     OW15787   2.222   3.266   6.004  0.2738  0.3606  0.5452
 1385SOL    HW115788   2.267   3.345   5.971 -2.8813  1.6626 -0.6154
 1385SOL    HW215789   2.140   3.270   5.954 -1.1997 -0.1790  2.9297
 1386SOL     OW15790   4.157   1.859   5.752 -0.0051  0.3842  0.0520
 1386SOL    HW115791   4.147   1.819   5.839 -0.2946  2.6663  1.0776
 1386SOL    HW215792   4.066   1.887   5.747  0.3792  1.5938 -0.1827
 1387SOL     OW15793   3.423   4.077   5.589 -0.3934  0.5082 -0.2620
 1387SOL    HW115794   3.395   4.008   5.529  1.1520  0.4031 -0.8726
 1387SOL    HW215795   3.515   4.078   5.563  0.2148 -0.9202  1.8539
 1388SOL     OW15796   2.541   1.136  14.521  0.3598  0.0697 -0.0864
 1388SOL    HW115797   2.565   1.168  14.434 -0.5083  1.4509  0.1809
 1388SOL    HW215798   2.448   1.112  14.520  0.7381 -1.5457  2.2150
 1389SOL     OW15799   0.941   3.167  17.058 -0.0723  0.1446 -0.5379
 1389SOL    HW115800   0.951   3.261  17.040  0.3706 -0.1351 -1.7472
 1389SOL    HW215801   0.936   3.114  16.978 -1.2724 -0.2060 -0.2313
 1390SOL     OW15802   0.619   3.717  14.334  0.1773  0.3123 -0.0664
 1390SOL    HW115803   0.649   3.745  14.248 -3.1693  0.7894 -1.0674
 1390SOL    HW215804   0.543   3.771  14.355  0.6981  1.9747 -2.4463
 1391SOL     OW15805   2.028   3.445   0.489  0.2007 -0.2742 -0.4824
 1391SOL    HW115806   2.077   3.372   0.526 -0.7132 -0.4160  0.4314
 1391SOL    HW215807   2.099   3.500   0.456  0.9673  0.5783  2.5896
 1392SOL     OW15808   1.004   3.060   7.457 -0.1225 -0.6184  0.3209
 1392SOL    HW115809   1.023   3.097   7.370 -0.4033  1.0880  0.9758
 1392SOL    HW215810   0.934   3.114   7.493  0.4846  0.0257  0.5556
 1393SOL     OW15811   2.541   3.283   2.998 -0.3568 -0.3753  0.2579
 1393SOL    HW115812   2.473   3.239   3.049  0.3435 -0.6374  0.9736
 1393SOL    HW215813   2.615   3.260   3.055 -0.1374 -0.7410 -0.1672
 1394SOL     OW15814   2.217   1.123   4.620 -0.2130  0.7473 -0.7023
 1394SOL    HW115815   2.266   1.063   4.676 -0.3731  1.3093  0.0491
 1394SOL    HW215816   2.233   1.087   4.533  3.4755 -0.8914  0.6772
 1395SOL     OW15817   3.474   2.495   7.578 -0.0962 -0.2077 -0.3004
 1395SOL    HW115818   3.510   2.458   7.658  0.9913  0.6274 -0.4086
 1395SOL    HW215819   3.546   2.556   7.559 -1.2723  0.9728 -0.9807
 1396SOL     OW15820   0.505   4.451   6.450 -0.6382  0.0136 -0.2834
 1396SOL    HW115821   0.495   4.506   6.527 -1.6130 -0.3918 -0.1207
 1396SOL    HW215822   0.459   4.506   6.386  0.5187  2.5484  1.0559
 1397SOL     OW15823   2.985   1.014   9.356 -0.4286 -0.7539  0.4464
 1397SOL    HW115824   3.064   1.014   9.408 -0.5684  0.2051  0.6560
 1397SOL    HW215825   2.968   1.107   9.344  0.3945 -0.5071  1.2919
 1398SOL     OW15826   2.491   4.316   6.709 -0.0596 -0.3771  0.3560
 1398SOL    HW115827   2.560   4.347   6.768 -0.3091  1.7890 -0.4780
 1398SOL    HW215828   2.408   4.336   6.753  0.2474 -0.5579  1.0107
 1399SOL     OW15829   4.390   2.095   4.434 -0.3810 -0.3050  0.0145
 1399SOL    HW115830   4.443   2.119   4.359  0.4430 -1.8037  0.1207
 1399SOL    HW215831   4.386   2.000   4.433  1.4843 -0.3569 -1.2295
 1400SOL     OW15832   4.698   1.791   3.680 -0.7066 -0.9392 -0.0354
 1400SOL    HW115833   0.036   1.752   3.722 -1.9448 -1.1835  2.0321
 1400SOL    HW215834   4.634   1.790   3.751 -2.0225 -0.4368 -1.2120
 1401SOL     OW15835   1.765   1.569   8.170  0.3147  0.5523  0.6151
 1401SOL    HW115836   1.766   1.568   8.266  3.0928 -0.4618  0.6050
 1401SOL    HW215837   1.693   1.629   8.152  0.0482 -0.6995 -2.3954
 1402SOL     OW15838   2.225   3.051   3.324 -0.8023  0.4367 -0.3190
 1402SOL    HW115839   2.260   3.029   3.411 -1.6471  0.5257  0.0404
 1402SOL    HW215840   2.253   2.973   3.276  0.4556  0.1470  0.8756
 1403SOL     OW15841   0.222   1.563   0.972  0.4129  0.0827 -0.3486
 1403SOL    HW115842   0.172   1.491   0.934 -0.3532 -0.3783  1.5725
 1403SOL    HW215843   0.185   1.640   0.929  1.1389 -0.0255 -1.1624
 1404SOL     OW15844   1.122   2.842   2.169 -0.6391  0.0512 -0.4130
 1404SOL    HW115845   1.174   2.762   2.178 -2.3780 -1.0626 -0.1928
 1404SOL    HW215846   1.108   2.874   2.258  0.1741 -0.3836 -0.1299
 1405SOL     OW15847   4.224   3.184   7.826 -0.2507 -0.2247 -0.6145
 1405SOL    HW115848   4.315   3.161   7.807 -0.3926 -1.4772  0.2717
 1405SOL    HW215849   4.225   3.165   7.919  0.4795 -0.9498 -0.7656
 1406SOL     OW15850   4.101   0.252   9.381  0.2643  0.0942  0.0013
 1406SOL    HW115851   4.089   0.260   9.286 -1.0033  1.4603  0.2757
 1406SOL    HW215852   4.197   0.255   9.386  0.2907 -0.8745  0.1191
 1407SOL     OW15853   3.627   0.043   9.166  0.2469 -0.0916 -0.2219
 1407SOL    HW115854   3.627   4.688   9.183 -0.3611 -0.4590 -2.2004
 1407SOL    HW215855   3.708   0.070   9.209  0.7307 -0.0004 -1.1918
 1408SOL     OW15856   4.265   1.713  13.113  0.2375 -0.4462 -0.0762
 1408SOL    HW115857   4.170   1.719  13.107  0.3372 -0.5952 -1.8305
 1408SOL    HW215858   4.282   1.801  13.147 -1.3512 -0.6374  1.1854
 1409SOL     OW15859   2.375   4.142   3.773  0.3866  0.3203  0.1118
 1409SOL    HW115860   2.302   4.117   3.717  0.9838  0.0245 -0.5252
 1409SOL    HW215861   2.425   4.197   3.712 -0.0658 -1.4328 -1.8339
 1410SOL     OW15862   1.890   4.238  17.642  0.0692  0.5710  0.0471
 1410SOL    HW115863   1.815   4.286  17.606 -0.5492  0.9576  1.8440
 1410SOL    HW215864   1.924   4.193  17.565 -0.0748  0.8873 -0.1956
 1411SOL     OW15865   2.686   2.663   0.689 -0.5702 -0.3239 -0.0601
 1411SOL    HW115866   2.736   2.700   0.761 -2.1341  0.7031  0.5030
 1411SOL    HW215867   2.748   2.655   0.617  0.7956 -1.9280  1.2889
 1412SOL     OW15868   4.419   1.605   1.753 -0.3933 -0.0819  0.0302
 1412SOL    HW115869   4.365   1.674   1.715 -0.9536 -1.1685 -1.1504
 1412SOL    HW215870   4.472   1.574   1.680  2.7793  1.8801  1.4741
 1413SOL     OW15871   4.199   2.206   8.199 -0.1542 -0.3614  0.3272
 1413SOL    HW115872   4.291   2.215   8.177 -0.3225  3.7168  1.1706
 1413SOL    HW215873   4.184   2.220   8.293 -1.2088  1.1644 -0.0528
 1414SOL     OW15874   3.150   2.754   7.112  0.2364 -0.6782  0.2878
 1414SOL    HW115875   3.177   2.742   7.203 -1.2405  0.1896  0.8337
 1414SOL    HW215876   3.230   2.793   7.077 -1.2951  2.0972 -0.1082
 1415SOL     OW15877   4.427   3.656  10.691 -0.4307 -0.4577  0.2230
 1415SOL    HW115878   4.463   3.612  10.614 -2.9054  2.0408 -2.3627
 1415SOL    HW215879   4.468   3.741  10.676  0.1854 -0.8567 -0.3351
 1416SOL     OW15880   0.662   2.394  17.720 -0.3902 -0.1095  0.1628
 1416SOL    HW115881   0.689   2.444  17.643 -1.2232  1.2272  0.7225
 1416SOL    HW215882   0.570   2.415  17.738 -0.3909  0.7087 -0.8272
 1417SOL     OW15883   1.998   2.633   9.860  0.1609  0.3314 -0.4359
 1417SOL    HW115884   2.074   2.638   9.802 -0.1521  0.9727 -0.8031
 1417SOL    HW215885   1.938   2.585   9.802  0.2139  0.3233 -0.4836
 1418SOL     OW15886   1.627   2.883   8.005 -0.6439  0.3321 -0.1269
 1418SOL    HW115887   1.633   2.863   8.098 -0.4001  2.3003  0.2820
 1418SOL    HW215888   1.543   2.849   7.972  0.6430 -1.0936 -1.9441
 1419SOL     OW15889   2.778   0.378   0.843  0.1122 -0.2596  0.6832
 1419SOL    HW115890   2.789   0.284   0.831 -0.0042 -0.0449 -1.0077
 1419SOL    HW215891   2.854   0.396   0.899  0.1357  1.9026 -0.0295
 1420SOL     OW15892   3.616   4.371   5.900 -0.1147  0.2958 -0.3730
 1420SOL    HW115893   3.568   4.290   5.915  0.6242 -0.1118 -0.2219
 1420SOL    HW215894   3.638   4.391   5.991  1.5799  0.0128 -0.7241
 1421SOL     OW15895   2.520   4.456   6.454 -0.2332  0.3415  0.3048
 1421SOL    HW115896   2.495   4.417   6.538 -0.7421 -0.3028 -0.1456
 1421SOL    HW215897   2.443   4.431   6.403  0.0205  0.0330  0.0766
 1422SOL     OW15898   1.216   0.518   8.167  0.1590 -0.2154  0.4164
 1422SOL    HW115899   1.156   0.581   8.206  0.1832  0.6039 -0.8735
 1422SOL    HW215900   1.197   0.528   8.073  0.2467  1.1952  0.5507
 1423SOL     OW15901   2.542   1.162   9.272 -0.0732  0.8890  0.1531
 1423SOL    HW115902   2.568   1.227   9.207  0.0232 -0.1446 -0.8432
 1423SOL    HW215903   2.540   1.075   9.232 -1.3652  1.3281 -0.7583
 1424SOL     OW15904   4.156   1.157   7.515 -0.0598 -0.7384  0.2808
 1424SOL    HW115905   4.077   1.103   7.510  1.6115 -3.0883 -0.6515
 1424SOL    HW215906   4.124   1.224   7.576  3.0703  0.6359  0.3767
 1425SOL     OW15907   0.538   4.044   4.508  0.7154 -0.7091  0.1787
 1425SOL    HW115908   0.613   4.079   4.460 -1.0142  1.0899 -1.2440
 1425SOL    HW215909   0.474   4.113   4.491  1.4289 -0.0634  0.1068
 1426SOL     OW15910   1.944   2.888   8.802  0.0216  0.8973  0.5928
 1426SOL    HW115911   2.000   2.829   8.853  0.0574  0.2136 -0.2357
 1426SOL    HW215912   1.960   2.861   8.712 -1.2764  0.9912  0.3292
 1427SOL     OW15913   1.388   1.693   4.479  0.1370  0.4195 -0.3566
 1427SOL    HW115914   1.363   1.784   4.464 -1.5120 -0.5064 -3.0094
 1427SOL    HW215915   1.335   1.663   4.553 -1.5226 -0.2359 -1.8489
 1428SOL     OW15916   3.505   2.598   2.947 -0.5795  0.5203 -0.1734
 1428SOL    HW115917   3.536   2.665   3.009 -1.3506 -0.0171  0.8058
 1428SOL    HW215918   3.457   2.534   2.999  2.4571  1.8545  4.2671
 1429SOL     OW15919   1.449   3.032   1.816  0.5356  0.0756  0.0378
 1429SOL    HW115920   1.416   3.059   1.901  2.6877 -1.0474  1.2251
 1429SOL    HW215921   1.371   3.070   1.776 -1.0514 -1.4775  1.6302
 1430SOL     OW15922   1.025   2.653   3.977  0.3886 -0.6053  0.1545
 1430SOL    HW115923   1.091   2.687   4.037  1.0940  0.5054 -1.2689
 1430SOL    HW215924   1.086   2.641   3.904  2.0309  1.1453  1.2358
 1431SOL     OW15925   3.554   0.386   8.177 -0.0164  0.1779 -0.1817
 1431SOL    HW115926   3.495   0.324   8.221  0.1244 -0.4820 -0.9344
 1431SOL    HW215927   3.555   0.475   8.212 -1.3410  0.8497 -1.8387
 1432SOL     OW15928   4.019   3.268   4.207  0.6089  0.0083 -0.4652
 1432SOL    HW115929   4.045   3.190   4.158  0.1957 -1.1320  1.1371
 1432SOL    HW215930   4.026   3.347   4.153 -2.2426  0.0190 -0.7894
 1433SOL     OW15931   4.301   4.056   8.588  0.0290  0.1775  0.1909
 1433SOL    HW115932   4.369   4.051   8.656  0.9335 -0.4984 -0.7559
 1433SOL    HW215933   4.327   3.981   8.534 -0.0356 -1.1363  2.0092
 1434SOL     OW15934   4.072   2.968   3.523 -0.9493 -0.2006  0.1578
 1434SOL    HW115935   4.055   2.885   3.478 -2.1624  0.0684  0.1303
 1434SOL    HW215936   3.994   2.968   3.578 -1.0003  2.6213  0.0823
 1435SOL     OW15937   2.445   3.943  15.357  0.4163  0.2657 -0.2463
 1435SOL    HW115938   2.386   3.904  15.421 -0.3020  1.2025 -0.3341
 1435SOL    HW215939   2.454   4.027  15.403  1.8088  0.4301 -0.8206
 1436SOL     OW15940   3.203   4.589   3.846 -0.1309 -0.1260  0.4200
 1436SOL    HW115941   3.215   4.573   3.940  1.1262  0.3779  0.3374
 1436SOL    HW215942   3.265   4.522   3.816 -0.4727 -0.0332 -0.4902
 1437SOL     OW15943   1.258   3.701   7.993 -0.1513  0.2520 -0.0575
 1437SOL    HW115944   1.323   3.638   8.022 -0.1067 -0.3803 -1.5185
 1437SOL    HW215945   1.303   3.785   8.004  0.5943 -0.4824  2.3162
 1438SOL     OW15946   1.985   0.296   6.327 -0.3442 -0.0256  0.0408
 1438SOL    HW115947   2.021   0.219   6.370 -0.6038 -0.1326  0.0646
 1438SOL    HW215948   1.934   0.257   6.256 -2.1079 -0.1220  1.3893
 1439SOL     OW15949   2.469   3.036   1.920 -0.1387  0.0365 -0.0094
 1439SOL    HW115950   2.500   3.052   2.009  0.6600 -0.4391 -0.1970
 1439SOL    HW215951   2.549   2.994   1.888 -0.1250 -0.3628  0.5533
 1440SOL     OW15952   1.979   0.716   8.426 -0.1882 -0.1369  0.6253
 1440SOL    HW115953   2.052   0.691   8.484  2.9951 -0.8929 -3.6887
 1440SOL    HW215954   1.982   0.639   8.370 -0.3986 -1.8648  2.9605
 1441SOL     OW15955   0.792   1.092  13.475 -0.1172 -0.3930  0.7410
 1441SOL    HW115956   0.875   1.104  13.429 -1.1305 -1.5652 -1.3890
 1441SOL    HW215957   0.798   1.003  13.510 -0.2835  0.2096  2.3002
 1442SOL     OW15958   1.289   3.037   5.942 -0.2692 -0.3964  0.2686
 1442SOL    HW115959   1.277   2.952   5.900  0.6831 -0.7575  0.7184
 1442SOL    HW215960   1.283   3.098   5.868 -0.0620 -1.1576 -0.3837
 1443SOL     OW15961   2.519   1.037  14.886 -0.3468  0.1034 -0.2814
 1443SOL    HW115962   2.550   1.026  14.976 -2.8842 -1.3595  0.4198
 1443SOL    HW215963   2.596   1.020  14.832  0.1501 -1.2525  0.8470
 1444SOL     OW15964   4.004   0.738   3.474 -0.0647 -0.1266  0.0161
 1444SOL    HW115965   4.021   0.651   3.512 -0.0135  0.7639  2.0393
 1444SOL    HW215966   4.058   0.793   3.531  0.1106  0.5051 -0.7714
 1445SOL     OW15967   2.939   3.980   4.346 -0.1486 -0.1327  0.3766
 1445SOL    HW115968   2.970   3.889   4.348 -0.4329 -0.2611 -0.7886
 1445SOL    HW215969   3.012   4.031   4.378 -0.5498  0.7344 -0.0916
 1446SOL     OW15970   4.029   0.367   2.904  0.0199 -0.6060 -0.2757
 1446SOL    HW115971   4.018   0.389   2.812 -1.7097 -0.0107  0.0835
 1446SOL    HW215972   4.123   0.350   2.892 -0.2774 -3.2468  1.0410
 1447SOL     OW15973   1.619   0.105   3.334  0.2373  0.2436  0.3324
 1447SOL    HW115974   1.524   0.108   3.325  0.0931  0.2915  1.8002
 1447SOL    HW215975   1.634   0.043   3.263 -0.3932  0.7987 -0.2755
 1448SOL     OW15976   0.234   3.322   3.356  0.4551 -0.1342 -0.5707
 1448SOL    HW115977   0.323   3.318   3.320  0.1288  0.4314 -1.4425
 1448SOL    HW215978   0.194   3.246   3.313 -2.1457  0.4566  0.8048
 1449SOL     OW15979   2.912   3.069   3.578 -0.4887  0.2324  0.5066
 1449SOL    HW115980   2.895   3.162   3.593  1.2948  1.0902 -2.8156
 1449SOL    HW215981   2.936   3.064   3.485  0.1295  0.1014  0.6748
 1450SOL     OW15982   4.640   0.223   3.899  0.0558  0.4453  0.2019
 1450SOL    HW115983   4.649   0.139   3.944 -1.7904 -0.0151 -0.2860
 1450SOL    HW215984   4.545   0.222   3.886  0.1779 -1.8510 -0.4200
 1451SOL     OW15985   2.982   1.714   5.849 -0.0069  0.8337 -0.4391
 1451SOL    HW115986   3.072   1.691   5.872 -1.7041 -0.7704  4.8321
 1451SOL    HW215987   2.940   1.690   5.932 -1.6401 -1.5289 -1.9201
 1452SOL     OW15988   1.254   4.363   6.400  0.4110 -0.7974 -0.0601
 1452SOL    HW115989   1.246   4.316   6.317 -1.8750 -0.2445 -0.1498
 1452SOL    HW215990   1.286   4.292   6.456  1.7251  1.3424  1.8679
 1453SOL     OW15991   1.474   2.159   4.421 -0.2107 -0.0685 -0.0006
 1453SOL    HW115992   1.403   2.155   4.357  1.3118 -2.3923 -1.5280
 1453SOL    HW215993   1.424   2.120   4.492 -1.3974  0.9515 -0.2874
 1454SOL     OW15994   2.850   2.958   9.457 -0.1376  0.7069  0.1552
 1454SOL    HW115995   2.851   3.017   9.532 -0.4125  2.0737 -0.9284
 1454SOL    HW215996   2.815   2.877   9.496  0.1584  0.3942 -0.2292
 1455SOL     OW15997   0.362   1.709   2.163 -0.8922  0.2785 -0.2938
 1455SOL    HW115998   0.355   1.615   2.143 -0.2985 -0.6373  3.8093
 1455SOL    HW215999   0.293   1.747   2.109  1.8354  1.2464 -3.0595
 1456SOL     OW16000   2.601   0.771  14.363 -0.0161 -0.0716 -0.1853
 1456SOL    HW116001   2.658   0.718  14.307 -2.5235 -2.1644 -0.7425
 1456SOL    HW216002   2.550   0.807  14.290  1.8095  2.3943 -0.2283
 1457SOL     OW16003   3.411   2.492   0.014  0.1941  0.1731  0.1540
 1457SOL    HW116004   3.506   2.498   0.024  0.3447  0.7886 -1.6248
 1457SOL    HW216005   3.386   2.494   0.106 -0.4463 -1.1073  0.0216
 1458SOL     OW16006   1.263   4.584   8.391 -0.2011  0.4460  0.1367
 1458SOL    HW116007   1.273   4.495   8.426 -0.4784  0.1826 -0.4502
 1458SOL    HW216008   1.195   4.613   8.451 -0.5953  0.6942 -0.4236
 1459SOL     OW16009   3.505   4.439   9.206 -0.0535  0.1744 -0.5855
 1459SOL    HW116010   3.549   4.488   9.275  0.8857  0.3937 -1.3283
 1459SOL    HW216011   3.448   4.376   9.250 -0.0160  0.2587 -0.4180
 1460SOL     OW16012   4.403   0.905   2.814 -0.4222  0.6391 -0.3874
 1460SOL    HW116013   4.314   0.899   2.850 -0.4537 -0.8040 -0.7140
 1460SOL    HW216014   4.402   0.996   2.784  3.3384 -0.0080 -2.5401
 1461SOL     OW16015   0.895   0.916   3.116 -0.5633  0.1345  0.2733
 1461SOL    HW116016   0.801   0.905   3.130 -0.4611 -0.2702  0.6623
 1461SOL    HW216017   0.898   1.011   3.123  1.0607 -0.1245  3.0719
 1462SOL     OW16018   1.394   4.587   8.048 -0.8257 -0.0295 -0.2691
 1462SOL    HW116019   1.442   4.585   8.130 -1.1059  0.4070 -0.0908
 1462SOL    HW216020   1.423   4.506   8.007 -0.5665 -0.2245  0.3177
 1463SOL     OW16021   4.184   0.932  17.202 -0.1546 -0.2372  0.1300
 1463SOL    HW116022   4.179   0.839  17.223 -2.1664 -0.3375 -0.7669
 1463SOL    HW216023   4.220   0.915  17.115 -0.1224  0.1780  0.0620
 1464SOL     OW16024   4.369   2.967  15.830 -0.1981 -0.1681 -0.6381
 1464SOL    HW116025   4.332   2.912  15.899  2.1546  1.7890  2.1752
 1464SOL    HW216026   4.400   3.043  15.879 -1.9435  0.8124 -1.0259
 1465SOL     OW16027   2.788   3.173  16.041 -0.2859  0.2653 -0.0752
 1465SOL    HW116028   2.875   3.213  16.038 -1.0579  2.1702  2.2350
 1465SOL    HW216029   2.816   3.082  16.038 -0.0951  0.3615 -1.1342
 1466SOL     OW16030   0.785   2.250   2.506 -0.3733 -0.3890 -0.2752
 1466SOL    HW116031   0.797   2.228   2.599  1.4389  0.6443 -0.2559
 1466SOL    HW216032   0.864   2.295   2.477  1.0834 -2.6599  0.1280
 1467SOL     OW16033   0.572   1.663   3.250  0.3634 -0.4447 -0.0966
 1467SOL    HW116034   0.528   1.634   3.170 -0.0505 -0.3665  0.1039
 1467SOL    HW216035   0.510   1.622   3.311  0.2889  1.0489  0.8397
 1468SOL     OW16036   0.316   1.918   6.750  0.0323 -0.5094  0.5893
 1468SOL    HW116037   0.332   1.825   6.731  1.0293 -0.4453  1.1219
 1468SOL    HW216038   0.331   1.921   6.845 -0.4577 -2.4041  0.7340
 1469SOL     OW16039   3.048   3.937  16.592  0.1435 -0.2641 -0.0949
 1469SOL    HW116040   3.011   4.018  16.555 -1.5306 -0.3444  1.3519
 1469SOL    HW216041   2.996   3.924  16.672 -1.9273  0.2966 -1.3317
 1470SOL     OW16042   4.509   3.596   7.419 -0.2698  0.3124  0.4717
 1470SOL    HW116043   4.500   3.681   7.377 -1.2033 -1.8862 -3.8085
 1470SOL    HW216044   4.531   3.536   7.347 -1.1857 -1.3454  1.5717
 1471SOL     OW16045   2.047   0.898   5.755 -0.2075  0.0645 -0.5929
 1471SOL    HW116046   2.123   0.909   5.812 -0.5587 -2.6256  0.4046
 1471SOL    HW216047   2.072   0.931   5.668 -1.6259  5.5842  1.1150
 1472SOL     OW16048   2.200   4.224  14.998 -0.1112 -0.4310 -0.5938
 1472SOL    HW116049   2.208   4.319  15.010 -0.6295 -0.3690 -0.7309
 1472SOL    HW216050   2.271   4.206  14.937 -2.1651 -1.1153 -2.7987
 1473SOL     OW16051   2.129   3.162   9.981 -0.0419 -0.4740 -0.4011
 1473SOL    HW116052   2.115   3.251   9.949  0.7758 -0.0015  0.5241
 1473SOL    HW216053   2.069   3.111   9.927 -1.8338 -0.3780  1.4999
 1474SOL     OW16054   3.284   4.460   8.352  0.3777 -0.4236 -0.0255
 1474SOL    HW116055   3.336   4.484   8.428 -3.6636  2.1802  1.9151
 1474SOL    HW216056   3.299   4.366   8.345  2.8419  0.1358 -2.1646
 1475SOL     OW16057   0.224   1.618   1.239 -0.5009  0.1346  0.1395
 1475SOL    HW116058   0.268   1.542   1.277 -1.5137 -1.0071 -0.9861
 1475SOL    HW216059   0.215   1.595   1.146 -3.2497  0.3119  0.3501
 1476SOL     OW16060   1.675   1.149   7.266  0.1603  1.1415 -0.1805
 1476SOL    HW116061   1.757   1.147   7.316 -0.5826 -0.9523  0.9504
 1476SOL    HW216062   1.682   1.065   7.219  1.4103  0.1078  1.8670
 1477SOL     OW16063   2.872   3.516   5.926 -0.1268 -0.3152  0.0423
 1477SOL    HW116064   2.945   3.537   5.867  1.7566 -1.6435  1.8994
 1477SOL    HW216065   2.876   3.595   5.981  1.4660 -1.3600  1.4388
 1478SOL     OW16066   0.548   0.067  10.895 -0.1512 -0.4427  0.5600
 1478SOL    HW116067   0.510   0.003  10.956 -1.4199  0.2850  0.5371
 1478SOL    HW216068   0.611   0.009  10.852 -1.8086 -0.8962 -1.2689
 1479SOL     OW16069   3.372   4.353   5.408 -0.1735 -0.2297 -0.2842
 1479SOL    HW116070   3.375   4.441   5.372  0.3334  0.3524  1.1714
 1479SOL    HW216071   3.286   4.353   5.450 -1.2200 -0.7451 -2.4363
 1480SOL     OW16072   2.695   3.719  10.939  0.5098 -0.0419  0.0163
 1480SOL    HW116073   2.735   3.694  10.856 -0.1499  0.4969 -0.4585
 1480SOL    HW216074   2.757   3.678  11.000  0.9741  0.9691  0.2265
 1481SOL     OW16075   1.554   3.575   0.114 -0.0507  0.2697  0.2907
 1481SOL    HW116076   1.526   3.484   0.127 -3.7641  1.4033  0.4264
 1481SOL    HW216077   1.483   3.619   0.162 -1.6242 -1.7126 -0.2151
 1482SOL     OW16078   0.921   3.344  11.622  0.7090  0.2334  0.3614
 1482SOL    HW116079   0.925   3.326  11.716  0.2098 -1.1108  0.1241
 1482SOL    HW216080   0.831   3.372  11.610  0.9850 -0.0041 -2.3547
 1483SOL     OW16081   2.671   4.480   6.860  0.0609 -0.4985 -0.0334
 1483SOL    HW116082   2.650   4.501   6.950 -0.9622 -1.1283 -0.1226
 1483SOL    HW216083   2.632   4.555   6.816  0.9026  0.6072  1.1023
 1484SOL     OW16084   0.623   3.746  10.071 -0.2150 -0.1123  0.0018
 1484SOL    HW116085   0.537   3.779  10.044  1.1880  0.8355 -3.3161
 1484SOL    HW216086   0.648   3.816  10.131  0.3762 -0.1506 -0.2051
 1485SOL     OW16087   2.587   2.269   0.153  0.4870 -0.2814  0.1049
 1485SOL    HW116088   2.491   2.276   0.149  0.6550  2.0777  0.2201
 1485SOL    HW216089   2.621   2.355   0.176  4.7188 -1.6521 -1.1063
 1486SOL     OW16090   0.513   3.405   1.750  0.1779 -0.2432 -0.0228
 1486SOL    HW116091   0.553   3.382   1.834  0.5147 -1.9498 -0.6603
 1486SOL    HW216092   0.547   3.494   1.742  1.1137 -0.4665  1.4323
 1487SOL     OW16093   0.909   1.307  11.840 -0.2777  0.6709  0.2418
 1487SOL    HW116094   0.924   1.347  11.755 -0.5933  1.1919  0.4277
 1487SOL    HW216095   0.960   1.226  11.838 -2.1812 -0.5044 -0.8724
 1488SOL     OW16096   4.349   1.140  17.260 -0.6195 -0.0477 -0.3770
 1488SOL    HW116097   4.383   1.157  17.348 -1.6093  2.6721 -0.5126
 1488SOL    HW216098   4.294   1.063  17.275  0.7776 -0.8307  0.7692
 1489SOL     OW16099   2.615   3.776   0.491  0.5447  0.7034  0.7293
 1489SOL    HW116100   2.682   3.746   0.430 -0.7994  0.0087 -0.4035
 1489SOL    HW216101   2.661   3.800   0.572  2.8806 -0.2704 -0.3083
 1490SOL     OW16102   0.621   3.703  17.728 -0.0842 -0.1880 -0.2741
 1490SOL    HW116103   0.641   3.760  17.654  1.8371  1.2615  1.3677
 1490SOL    HW216104   0.592   3.768   0.039 -1.2126 -2.3060  1.3956
 1491SOL     OW16105   2.111   4.217  16.408 -0.1316  0.0523  0.4057
 1491SOL    HW116106   2.053   4.237  16.334  1.6187  0.3826 -0.9045
 1491SOL    HW216107   2.168   4.294  16.405 -0.5085  0.2926 -0.6173
 1492SOL     OW16108   0.201   0.474   8.794  0.1234 -0.1018  0.4438
 1492SOL    HW116109   0.115   0.483   8.834 -1.3028  0.4943 -2.7332
 1492SOL    HW216110   0.233   0.393   8.833 -2.1572 -1.7254 -1.0611
 1493SOL     OW16111   4.643   3.626   5.054 -0.1231 -0.0602 -0.6974
 1493SOL    HW116112   4.597   3.613   4.971  3.3784 -1.9459 -2.3435
 1493SOL    HW216113   4.566   3.617   5.109  1.0656  0.2870  1.0227
 1494SOL     OW16114   4.078   0.841   3.926 -0.3264 -0.0050  0.5670
 1494SOL    HW116115   4.105   0.784   3.998  0.2835  1.7558  1.7380
 1494SOL    HW216116   4.164   0.844   3.885 -0.1740  0.7204  0.9348
 1495SOL     OW16117   0.165   4.660   8.889  0.6096  0.1909 -0.0355
 1495SOL    HW116118   0.142   4.721   8.819  2.4605  1.6485  0.6291
 1495SOL    HW216119   0.084   4.610   8.893 -0.1543  1.5464  1.2433
 1496SOL     OW16120   1.733   4.626   4.096  0.2863  0.2079 -0.3085
 1496SOL    HW116121   1.752   4.611   4.003  2.0486  2.4899 -0.3287
 1496SOL    HW216122   1.738   4.721   4.107 -0.0024  0.2678 -0.7056
 1497SOL     OW16123   0.035   2.857   7.115 -0.3902 -0.0653  0.4045
 1497SOL    HW116124   0.048   2.772   7.157  3.1352  0.4364  0.2905
 1497SOL    HW216125   4.680   2.868   7.132 -0.9892 -2.0905 -1.5839
 1498SOL     OW16126   1.564   1.795  14.861  0.8141 -0.0485 -0.3270
 1498SOL    HW116127   1.485   1.770  14.909  1.5951 -2.0732 -0.0943
 1498SOL    HW216128   1.609   1.714  14.837 -0.3315 -0.4144 -1.1946
 1499SOL     OW16129   1.584   0.474  14.999  0.5216  0.0981  0.3157
 1499SOL    HW116130   1.502   0.424  14.994  1.4576 -1.5922  1.7129
 1499SOL    HW216131   1.645   0.416  15.045  0.2037  0.1989  0.8669
 1500SOL     OW16132   2.292   2.380  15.366 -0.5938  0.6158  0.4286
 1500SOL    HW116133   2.227   2.353  15.432 -0.3749 -0.9292  0.0271
 1500SOL    HW216134   2.238   2.404  15.291 -0.7748  0.1270  0.4035
 1501SOL     OW16135   3.595   3.188   5.437 -0.0852  0.2484  0.3514
 1501SOL    HW116136   3.637   3.187   5.351  1.3036 -1.0132  1.0469
 1501SOL    HW216137   3.505   3.172   5.410  0.3658 -0.5069 -0.7202
 1502SOL     OW16138   4.187   2.643  11.705 -0.3798  0.4648  0.1337
 1502SOL    HW116139   4.256   2.576  11.706  1.6257  2.5427 -0.4863
 1502SOL    HW216140   4.134   2.609  11.633  0.8458  0.8294 -0.9459
 1503SOL     OW16141   0.136   4.189   4.653  0.5780 -0.0911 -0.2730
 1503SOL    HW116142   0.192   4.139   4.712  1.3129  1.6030  0.4481
 1503SOL    HW216143   0.081   4.240   4.712  2.8593  1.8532  0.1196
 1504SOL     OW16144   3.538   1.378   9.244  0.1653 -0.1273 -0.0612
 1504SOL    HW116145   3.566   1.288   9.262 -0.9443 -0.6383 -0.9194
 1504SOL    HW216146   3.597   1.445   9.280  0.7210  0.0580 -1.3119
 1505SOL     OW16147   2.468   3.976   3.149  0.5536  0.3326  0.2264
 1505SOL    HW116148   2.521   3.896   3.153 -0.4003 -0.3186 -0.3064
 1505SOL    HW216149   2.440   3.993   3.239 -3.0800 -1.1738 -0.6208
 1506SOL     OW16150   1.266   0.803   4.831 -0.2527 -0.0782 -0.4931
 1506SOL    HW116151   1.226   0.854   4.760  3.2532  0.2793 -2.2373
 1506SOL    HW216152   1.327   0.758   4.773 -0.2139  0.9090 -1.2245
 1507SOL     OW16153   2.323   3.454  16.703  0.1919  0.4797  0.4401
 1507SOL    HW116154   2.412   3.427  16.681 -0.2163 -0.0418 -0.6101
 1507SOL    HW216155   2.266   3.382  16.675 -1.1977  1.5587  0.5269
 1508SOL     OW16156   1.630   0.256   7.003 -0.0522 -0.1085 -0.7683
 1508SOL    HW116157   1.676   0.305   6.934 -0.7357  0.0536 -1.1075
 1508SOL    HW216158   1.645   0.313   7.079 -2.3843  0.3235 -0.6180
 1509SOL     OW16159   0.138   0.391   3.836  0.2208  0.6403 -0.0462
 1509SOL    HW116160   0.071   0.322   3.830  0.3095  0.6612 -1.1905
 1509SOL    HW216161   0.169   0.390   3.746  0.9562 -1.0354  0.2252
 1510SOL     OW16162   0.579   3.587   8.000 -0.1407 -0.5008  0.2709
 1510SOL    HW116163   0.530   3.668   7.990 -2.3938 -1.9671 -0.5459
 1510SOL    HW216164   0.657   3.612   8.049 -0.3306  3.8650 -1.6910
 1511SOL     OW16165   4.662   1.316  16.107  0.9349  0.1171  0.6552
 1511SOL    HW116166   4.582   1.352  16.069  1.2345 -1.1756 -1.1754
 1511SOL    HW216167   4.712   1.393  16.082 -0.0375  1.3855  2.6002
 1512SOL     OW16168   4.552   0.472   4.864 -0.2914  0.9071 -0.6286
 1512SOL    HW116169   4.636   0.508   4.835 -0.1555 -0.0930 -1.5247
 1512SOL    HW216170   4.494   0.489   4.789  1.3653 -3.0721 -2.8385
 1513SOL     OW16171   3.539   3.597   0.058 -0.6548 -0.0577 -0.1627
 1513SOL    HW116172   3.619   3.649   0.056  0.1135 -1.1472  1.5941
 1513SOL    HW216173   3.470   3.662   0.049 -0.6742  0.2285  1.9978
 1514SOL     OW16174   3.571   3.447   1.253  0.0067 -0.3708  0.5809
 1514SOL    HW116175   3.631   3.520   1.267  0.4186 -0.8830  1.4342
 1514SOL    HW216176   3.594   3.408   1.169  0.4965  1.4476 -0.1382
 1515SOL     OW16177   4.684   1.963   7.508 -0.0592  0.0855 -0.3560
 1515SOL    HW116178   4.615   2.021   7.540  0.6178  0.1244  1.0145
 1515SOL    HW216179   0.023   1.999   7.550 -0.9354 -0.7296  1.9965
 1516SOL     OW16180   3.202   2.068  12.546  0.2748  0.2931  0.1678
 1516SOL    HW116181   3.123   2.045  12.498  0.9682 -2.2090  0.2423
 1516SOL    HW216182   3.255   2.104  12.474 -2.7515  2.6151 -0.9151
 1517SOL     OW16183   2.124   3.274  14.579  0.4238 -0.5505  0.1815
 1517SOL    HW116184   2.084   3.240  14.659  0.2966 -0.5313  0.1260
 1517SOL    HW216185   2.213   3.274  14.616 -0.7689  1.6735  3.0872
 1518SOL     OW16186   2.693   1.423  13.396 -0.5496 -0.3609 -0.0523
 1518SOL    HW116187   2.683   1.494  13.333  0.2253  1.4019  1.8038
 1518SOL    HW216188   2.779   1.396  13.364 -0.1646  0.0268  0.6500
 1519SOL     OW16189   1.309   4.515  10.114 -0.4275  0.1379  0.0338
 1519SOL    HW116190   1.380   4.469  10.071 -1.6064 -2.1126  0.4952
 1519SOL    HW216191   1.283   4.448  10.177 -4.5001  0.8624 -0.8530
 1520SOL     OW16192   4.278   0.236   9.794  0.0158  0.1392 -0.1121
 1520SOL    HW116193   4.248   0.169   9.856 -1.3344 -1.0485 -2.0411
 1520SOL    HW216194   4.192   0.254   9.756 -0.7623  2.2034  2.6481
 1521SOL     OW16195   3.860   1.457  10.107 -0.5223  0.5519  0.1301
 1521SOL    HW116196   3.901   1.371  10.119 -0.5343  0.5118 -0.1093
 1521SOL    HW216197   3.769   1.432  10.089  0.1636 -0.8309 -1.4687
 1522SOL     OW16198   1.926   2.683   4.404  0.5883 -0.0844 -0.3033
 1522SOL    HW116199   1.997   2.651   4.459 -0.0269  0.4325  0.7967
 1522SOL    HW216200   1.873   2.604   4.397 -1.0251  1.0004 -0.3323
 1523SOL     OW16201   0.242   3.452  14.942  0.6351  0.3565  0.0712
 1523SOL    HW116202   0.287   3.443  15.027  0.0025  1.7994  0.5525
 1523SOL    HW216203   0.262   3.544  14.925 -2.9926  0.7901 -1.6610
 1524SOL     OW16204   0.125   1.224   4.208 -0.3426  0.1242  0.2061
 1524SOL    HW116205   0.203   1.271   4.179  0.0543 -0.0929  0.9157
 1524SOL    HW216206   0.058   1.238   4.141  1.3449 -0.6660 -1.6559
 1525SOL     OW16207   4.009   3.391   0.909  0.1929 -0.0920 -0.0560
 1525SOL    HW116208   3.991   3.312   0.960  2.5776 -0.3142  0.4214
 1525SOL    HW216209   4.051   3.446   0.976 -0.3595 -0.3324  0.4884
 1526SOL     OW16210   3.155   1.685   4.540  0.0702 -0.2547 -0.0606
 1526SOL    HW116211   3.237   1.682   4.589 -2.1108 -1.8858  3.4951
 1526SOL    HW216212   3.182   1.652   4.455  1.3811 -1.6968  0.9058
 1527SOL     OW16213   0.272   0.088   4.929  0.1900  0.5496  0.1121
 1527SOL    HW116214   0.319   0.166   4.899  0.3568  1.0715  1.7217
 1527SOL    HW216215   0.221   0.119   5.004 -1.4938 -2.6242  0.2864
 1528SOL     OW16216   3.227   0.926   3.087  0.1916  0.4446  0.0954
 1528SOL    HW116217   3.316   0.890   3.078  1.0826  1.6616  3.8194
 1528SOL    HW216218   3.215   0.937   2.993 -1.4745 -0.1295  0.2456
 1529SOL     OW16219   3.913   4.409   7.234  0.3587 -0.2151  0.0156
 1529SOL    HW116220   3.960   4.397   7.317  2.7146 -2.0091 -1.5764
 1529SOL    HW216221   3.843   4.344   7.242 -1.6446  1.9693 -0.0354
 1530SOL     OW16222   1.253   1.246   5.094 -0.3583 -0.1393 -0.4557
 1530SOL    HW116223   1.220   1.201   5.016 -0.7090 -2.0742  0.8160
 1530SOL    HW216224   1.286   1.175   5.149  0.9635 -0.2109 -1.3521
 1531SOL     OW16225   3.202   3.347   3.208  0.2208 -0.3896  0.2372
 1531SOL    HW116226   3.221   3.407   3.136  1.7754  1.5421  2.2540
 1531SOL    HW216227   3.205   3.404   3.284 -2.1939  0.3889 -0.2373
 1532SOL     OW16228   2.343   3.430  13.737  0.5294  0.0065 -0.3089
 1532SOL    HW116229   2.390   3.401  13.815 -0.9175 -1.4476  0.0097
 1532SOL    HW216230   2.272   3.482  13.774 -1.7693 -1.7011 -2.3264
 1533SOL     OW16231   3.884   3.143   2.628  0.2874 -0.1049 -0.0979
 1533SOL    HW116232   3.797   3.103   2.634  0.2771 -0.2801 -1.6028
 1533SOL    HW216233   3.902   3.123   2.537  0.4043  0.8890 -0.2963
 1534SOL     OW16234   2.835   2.823   3.725 -0.3311 -0.2856  0.2913
 1534SOL    HW116235   2.787   2.861   3.798  3.1265  3.3713  0.6635
 1534SOL    HW216236   2.860   2.901   3.676 -3.1957  0.2220 -0.3329
 1535SOL     OW16237   0.345   2.639   9.267 -0.4920 -0.6263 -0.0657
 1535SOL    HW116238   0.435   2.631   9.297 -0.0881 -0.7692 -1.3029
 1535SOL    HW216239   0.348   2.642   9.171 -0.0452  2.1853  0.0183
 1536SOL     OW16240   2.816   4.028  12.316  0.3263 -0.6609 -0.4919
 1536SOL    HW116241   2.752   3.984  12.260  0.1692 -1.2634  0.1680
 1536SOL    HW216242   2.821   4.122  12.298  0.9346 -0.5613  0.1749
 1537SOL     OW16243   4.563   0.645   8.303  0.4817 -0.3579 -0.1143
 1537SOL    HW116244   4.557   0.709   8.231 -0.0734 -0.1753  0.0939
 1537SOL    HW216245   4.491   0.685   8.352  0.7662  1.6964 -1.3577
 1538SOL     OW16246   2.860   3.343   1.706  0.3500  0.8486  0.3007
 1538SOL    HW116247   2.878   3.343   1.800 -0.5723  1.9170  0.4691
 1538SOL    HW216248   2.924   3.275   1.687  0.7907  0.9788  1.3106
 1539SOL     OW16249   1.611   2.671  15.687 -0.1764 -0.2459  0.1717
 1539SOL    HW116250   1.548   2.636  15.624 -1.1995 -1.4930  1.8816
 1539SOL    HW216251   1.608   2.614  15.764  0.3300 -2.1712 -1.2260
 1540SOL     OW16252   0.990   0.787  14.174 -0.2500 -0.0959  0.5453
 1540SOL    HW116253   1.061   0.804  14.112 -0.1710  0.7798  0.8834
 1540SOL    HW216254   0.959   0.709  14.127 -1.3890  0.2269  0.7684
 1541SOL     OW16255   3.970   3.524   0.589  0.0762 -0.1511 -0.1773
 1541SOL    HW116256   4.049   3.490   0.632 -0.8343 -2.0738 -0.0015
 1541SOL    HW216257   3.903   3.514   0.656 -0.7918  0.1740 -1.0035
 1542SOL     OW16258   3.829   4.156  16.951 -0.5189  0.1263 -0.0881
 1542SOL    HW116259   3.909   4.103  16.959 -1.1009 -1.0531 -2.2656
 1542SOL    HW216260   3.764   4.095  16.917 -0.9057 -0.1327  1.1266
 1543SOL     OW16261   1.509   3.600   8.066 -0.7571 -0.0469 -0.1679
 1543SOL    HW116262   1.573   3.598   8.137  0.7192 -4.5500 -1.5829
 1543SOL    HW216263   1.529   3.515   8.028 -0.5742  0.0393 -0.2601
 1544SOL     OW16264   3.511   0.837   3.668 -0.1477  0.2527  0.2328
 1544SOL    HW116265   3.480   0.902   3.731  0.8869 -0.2180  1.2402
 1544SOL    HW216266   3.575   0.892   3.622 -0.0922 -0.0788 -0.0881
 1545SOL     OW16267   1.662   4.477   5.988  0.0729 -0.3495 -0.0076
 1545SOL    HW116268   1.582   4.520   6.017 -1.2261 -1.0652 -2.4814
 1545SOL    HW216269   1.659   4.390   6.029 -1.2757 -0.2741  0.0537
 1546SOL     OW16270   1.929   1.468   3.452  0.1783 -0.4020 -0.0061
 1546SOL    HW116271   1.856   1.462   3.514  1.3330 -0.6572  1.3396
 1546SOL    HW216272   1.885   1.452   3.369 -3.2612  0.7953  1.6119
 1547SOL     OW16273   1.900   0.149   6.100 -0.0972  0.4291  0.2469
 1547SOL    HW116274   1.845   0.118   6.028  1.4973 -0.4784 -0.5723
 1547SOL    HW216275   1.979   0.168   6.050  0.3974  0.6316  1.1028
 1548SOL     OW16276   2.930   4.337  17.402  0.2631  0.2794  0.0131
 1548SOL    HW116277   2.961   4.252  17.371  3.5687  1.6819 -0.5730
 1548SOL    HW216278   2.898   4.317  17.490  0.8244 -0.9607 -0.0668
 1549SOL     OW16279   0.233   4.248   3.556  0.0755  0.8686  0.2366
 1549SOL    HW116280   0.226   4.303   3.478 -0.2433 -1.6716 -1.5097
 1549SOL    HW216281   0.325   4.223   3.564 -0.5942 -1.1850  1.4688
 1550SOL     OW16282   3.591   4.460  13.607  0.3790  0.5903 -0.4739
 1550SOL    HW116283   3.612   4.529  13.545 -1.6434  1.6729  0.0478
 1550SOL    HW216284   3.640   4.502  13.677 -0.8671  2.6822 -0.8677
 1551SOL     OW16285   0.703   2.179   7.548  0.2556  0.2923  0.3771
 1551SOL    HW116286   0.715   2.214   7.636 -1.6450  0.7930  0.4425
 1551SOL    HW216287   0.712   2.261   7.498 -3.4290 -0.3213 -1.3425
 1552SOL     OW16288   3.866   0.024   5.272  0.4140 -0.2773  0.0153
 1552SOL    HW116289   3.889   0.110   5.307 -3.5965  0.3713  1.0727
 1552SOL    HW216290   3.875   0.041   5.178 -0.3269 -1.0305 -0.1920
 1553SOL     OW16291   4.290   3.657   4.460 -0.3084  0.1577 -0.1025
 1553SOL    HW116292   4.297   3.672   4.366  1.7078  0.9035  0.1482
 1553SOL    HW216293   4.200   3.626   4.469 -1.0744  2.4368 -0.0525
 1554SOL     OW16294   1.306   3.225  11.523 -0.6192  0.1617  0.2014
 1554SOL    HW116295   1.322   3.197  11.613  2.1117 -0.8594 -0.6148
 1554SOL    HW216296   1.389   3.186  11.496 -1.7021 -0.9604 -1.5487
 1555SOL     OW16297   3.489   2.237   6.845  0.6298  0.2176  0.2664
 1555SOL    HW116298   3.582   2.233   6.820  0.6784  1.4287  0.2425
 1555SOL    HW216299   3.478   2.315   6.790 -2.0211 -0.0742  0.4171
 1556SOL     OW16300   0.462   3.397   7.503  0.5015  0.1550  0.8699
 1556SOL    HW116301   0.495   3.484   7.479 -1.5314  0.1581 -1.9246
 1556SOL    HW216302   0.368   3.396   7.484  0.8748  0.6045 -0.9970
 1557SOL     OW16303   3.632   0.880   4.932  0.1017 -0.5733  0.5391
 1557SOL    HW116304   3.636   0.826   4.853  4.0937 -0.2660  0.5790
 1557SOL    HW216305   3.718   0.875   4.972  1.5838  0.7395 -2.5188
 1558SOL     OW16306   3.254   0.715   4.069  0.2396 -0.2899 -0.1413
 1558SOL    HW116307   3.210   0.768   4.136  2.7481  2.4186 -0.6365
 1558SOL    HW216308   3.203   0.635   4.080 -1.7259  1.1394  1.2175
 1559SOL     OW16309   1.961   2.751   8.538 -0.5366  0.0555 -0.4166
 1559SOL    HW116310   1.881   2.701   8.523 -1.1495  1.5888 -2.3745
 1559SOL    HW216311   2.017   2.688   8.582 -2.1918 -1.0472  0.1075
 1560SOL     OW16312   4.268   2.821   6.559  0.0296  0.3152 -0.1904
 1560SOL    HW116313   4.293   2.750   6.500 -0.1325  0.7055 -0.7341
 1560SOL    HW216314   4.178   2.830   6.528  0.0688 -3.4644 -1.4025
 1561SOL     OW16315   1.792   0.487   7.449 -0.6083 -0.0769 -0.3295
 1561SOL    HW116316   1.761   0.486   7.540  2.6122 -2.4118  0.7599
 1561SOL    HW216317   1.837   0.402   7.442  0.4935  0.4735  0.0268
 1562SOL     OW16318   3.963   0.330   3.451  0.1973  0.7029 -0.9360
 1562SOL    HW116319   3.919   0.246   3.469 -0.6933  1.4203  0.2140
 1562SOL    HW216320   3.914   0.372   3.379 -1.6415 -0.0457 -0.1281
 1563SOL     OW16321   2.571   0.251  13.132 -0.1342  0.7210  0.6041
 1563SOL    HW116322   2.595   0.262  13.224  0.1016 -0.7353  0.7135
 1563SOL    HW216323   2.658   0.247  13.092  0.9044 -0.1458  2.9603
 1564SOL     OW16324   4.244   2.798   3.790  0.7997 -0.2123  0.8231
 1564SOL    HW116325   4.213   2.886   3.813  1.3966 -0.3468  2.1686
 1564SOL    HW216326   4.176   2.748   3.835 -0.9013  0.1824 -1.3444
 1565SOL     OW16327   1.543   3.876   0.887 -0.3582  0.5880  0.0491
 1565SOL    HW116328   1.597   3.919   0.954  0.0653  0.8928 -0.4905
 1565SOL    HW216329   1.517   3.948   0.830 -1.7276 -0.9908 -1.3301
 1566SOL     OW16330   2.074   2.687   8.963  0.6758 -0.4798 -0.8322
 1566SOL    HW116331   2.155   2.702   9.011  0.7788  0.3419 -1.2561
 1566SOL    HW216332   2.033   2.620   9.018  1.0979  1.1624  1.4474
 1567SOL     OW16333   1.898   2.080   6.708 -0.1275  0.3619  0.0684
 1567SOL    HW116334   1.816   2.036   6.733  0.1300 -1.2865 -1.9990
 1567SOL    HW216335   1.879   2.173   6.724 -2.2736 -0.2700  1.1658
 1568SOL     OW16336   2.395   3.247   7.270 -0.0442  0.5318  0.3675
 1568SOL    HW116337   2.430   3.206   7.191  1.1882 -1.5038  1.9483
 1568SOL    HW216338   2.474   3.265   7.321  0.9754 -0.8947 -0.7371
 1569SOL     OW16339   3.588   3.947   3.457  0.0057 -0.0981  0.4727
 1569SOL    HW116340   3.576   3.942   3.551 -1.5109  0.1972  0.2880
 1569SOL    HW216341   3.507   3.973   3.413  0.2749  2.0059  1.2244
 1570SOL     OW16342   3.404   0.813   5.280 -0.8083 -0.3622 -0.0266
 1570SOL    HW116343   3.387   0.765   5.199 -2.9257  2.8518 -1.4946
 1570SOL    HW216344   3.323   0.863   5.292 -1.3987 -1.4982  0.7767
 1571SOL     OW16345   2.810   0.569   9.652  0.3916 -1.0105 -0.3030
 1571SOL    HW116346   2.839   0.646   9.603  1.3043 -1.8786 -1.1191
 1571SOL    HW216347   2.894   0.543   9.689  0.1376 -0.5693  0.5722
 1572SOL     OW16348   0.497   1.531   4.993 -0.3732  0.4152 -0.1253
 1572SOL    HW116349   0.507   1.607   5.050  0.5347 -1.0933  1.7664
 1572SOL    HW216350   0.418   1.485   5.022  0.1452 -0.5008 -0.1651
 1573SOL     OW16351   2.607   3.833   1.446  0.3999  0.3198 -0.3628
 1573SOL    HW116352   2.695   3.837   1.484 -1.0309  1.5355  2.7890
 1573SOL    HW216353   2.579   3.924   1.448 -2.0978 -0.3899 -2.4107
 1574SOL     OW16354   2.103   2.540  17.561 -0.2969 -0.3480 -0.0630
 1574SOL    HW116355   2.043   2.502  17.625 -0.3457 -1.4933 -0.7804
 1574SOL    HW216356   2.126   2.609  17.623  0.8059  0.4559 -1.3948
 1575SOL     OW16357   0.181   3.389   9.488  0.4941  0.1123 -0.2051
 1575SOL    HW116358   0.170   3.454   9.557  1.0476 -0.6770  0.6195
 1575SOL    HW216359   0.142   3.312   9.530  1.4161 -0.9570 -1.3091
 1576SOL     OW16360   3.798   2.560  14.311  0.1092  0.1391 -0.4295
 1576SOL    HW116361   3.834   2.616  14.380 -1.5151 -0.9652  1.3262
 1576SOL    HW216362   3.815   2.468  14.334 -0.0339 -0.4952 -2.8519
 1577SOL     OW16363   1.394   3.460   5.643 -0.7053 -0.3067 -0.0239
 1577SOL    HW116364   1.437   3.536   5.606 -0.5789  0.7065  2.2345
 1577SOL    HW216365   1.305   3.495   5.650 -2.1554 -3.5188 -1.7673
 1578SOL     OW16366   1.167   3.298   2.242 -0.3843 -0.4513  0.3878
 1578SOL    HW116367   1.208   3.354   2.176 -1.1009 -1.1732 -0.6761
 1578SOL    HW216368   1.245   3.262   2.284  0.6448  2.0485  0.6205
 1579SOL     OW16369   1.590   2.054  14.328  0.0000  0.0913  0.6211
 1579SOL    HW116370   1.527   2.056  14.256 -1.0141 -0.1119  1.4964
 1579SOL    HW216371   1.667   2.077  14.276 -1.3607 -0.7361 -1.7495
 1580SOL     OW16372   0.688   1.413   0.970 -0.1033  0.1792  0.5393
 1580SOL    HW116373   0.757   1.395   0.906 -0.3497  0.0156  0.3188
 1580SOL    HW216374   0.627   1.343   0.944  1.2138 -1.0079  0.6567
 1581SOL     OW16375   0.236   2.656   4.171 -0.7804  0.2436  0.9045
 1581SOL    HW116376   0.249   2.600   4.248 -2.7781  0.0511  1.1137
 1581SOL    HW216377   0.329   2.665   4.152 -0.6758 -2.6862 -0.0651
 1582SOL     OW16378   4.418   2.033  10.093 -0.1320 -0.4417 -0.1597
 1582SOL    HW116379   4.482   2.094  10.130  0.7834 -1.7486  0.4044
 1582SOL    HW216380   4.365   2.033  10.173  1.1707 -1.1457  0.7057
 1583SOL     OW16381   3.941   4.194   5.864  0.6617  0.1518  0.2663
 1583SOL    HW116382   3.887   4.121   5.893  1.8772 -0.6381  0.5302
 1583SOL    HW216383   3.919   4.184   5.772  1.7130  3.1816 -0.3072
 1584SOL     OW16384   4.104   2.853   9.815  0.6811  0.3970  0.1906
 1584SOL    HW116385   4.165   2.798   9.766 -1.0215 -2.3423  1.0998
 1584SOL    HW216386   4.112   2.936   9.768  0.4273  1.7300  2.4995
 1585SOL     OW16387   0.678   2.925   3.937 -0.0006 -0.3053 -0.1193
 1585SOL    HW116388   0.701   2.950   3.848  1.1711 -0.3510  0.1656
 1585SOL    HW216389   0.696   2.831   3.948  0.4332  0.1349  3.1749
 1586SOL     OW16390   1.993   0.186  16.844 -0.3250  0.0745  0.0267
 1586SOL    HW116391   1.941   0.210  16.767 -0.9449 -0.5779  0.2384
 1586SOL    HW216392   1.934   0.123  16.886 -1.4749  1.1913  0.1010
 1587SOL     OW16393   2.524   2.982   4.161 -0.2767  0.4220 -0.0164
 1587SOL    HW116394   2.479   3.066   4.171 -0.6568  0.1012  0.9414
 1587SOL    HW216395   2.459   2.935   4.212  0.3776 -1.4056 -0.8811
 1588SOL     OW16396   2.112   0.160   7.769  0.2672 -0.0063  0.2103
 1588SOL    HW116397   2.084   0.127   7.854 -2.5762  0.0787 -0.6926
 1588SOL    HW216398   2.198   0.192   7.798 -0.0588 -0.8372  2.1127
 1589SOL     OW16399   3.235   1.661   5.940 -0.2511 -0.8554 -0.2177
 1589SOL    HW116400   3.277   1.668   6.026 -0.6780 -0.4064 -0.0489
 1589SOL    HW216401   3.216   1.569   5.919 -1.1856 -0.2790 -1.8307
 1590SOL     OW16402   2.467   2.112  14.487 -0.3585  0.2988  0.0656
 1590SOL    HW116403   2.540   2.099  14.547 -1.2838  0.3437  1.1831
 1590SOL    HW216404   2.419   2.184  14.526 -1.7705  0.2574 -1.5699
 1591SOL     OW16405   4.242   1.000   9.856  0.0880 -0.0652  0.1889
 1591SOL    HW116406   4.226   1.095   9.850 -1.7265 -0.3583  0.3260
 1591SOL    HW216407   4.295   1.001   9.935  0.7664  4.1958 -0.2740
 1592SOL     OW16408   3.653   3.594   5.532  0.4668 -0.6170 -0.0449
 1592SOL    HW116409   3.725   3.535   5.511  0.8193 -1.0059  2.3023
 1592SOL    HW216410   3.594   3.534   5.577  1.0477  0.4920  2.1573
 1593SOL     OW16411   1.521   0.383  13.567 -0.9960 -0.5597 -0.8709
 1593SOL    HW116412   1.538   0.475  13.588 -1.4832 -0.9356  1.1512
 1593SOL    HW216413   1.523   0.343  13.654  0.3691  0.6415 -0.3537
 1594SOL     OW16414   1.100   0.172   2.003 -0.4282  0.0204  0.2072
 1594SOL    HW116415   1.072   0.263   2.009 -0.0051  0.2107 -0.5979
 1594SOL    HW216416   1.068   0.158   1.914 -0.2457  1.5199 -0.0924
 1595SOL     OW16417   4.724   2.188   0.668 -0.3374 -0.2379  0.6260
 1595SOL    HW116418   0.038   2.232   0.601 -0.9965  0.9269  0.8731
 1595SOL    HW216419   0.030   2.213   0.749  3.3983 -1.8936 -0.9513
 1596SOL     OW16420   2.170   0.824   4.280  0.5158 -0.0134  0.5236
 1596SOL    HW116421   2.216   0.903   4.310 -2.2598  1.9732 -0.4291
 1596SOL    HW216422   2.181   0.831   4.185 -0.4009 -1.0283  0.3521
 1597SOL     OW16423   0.285   4.599   7.115  0.2937  0.0569 -0.6544
 1597SOL    HW116424   0.243   4.513   7.118 -1.3408  0.8641 -0.5045
 1597SOL    HW216425   0.282   4.627   7.024 -1.0944 -0.7615 -0.8631
 1598SOL     OW16426   1.793   2.401   8.727  0.0795  0.3331 -0.5912
 1598SOL    HW116427   1.817   2.318   8.685  1.4546  1.0337 -1.1572
 1598SOL    HW216428   1.783   2.471   8.662  4.8043 -0.2480 -1.9374
 1599SOL     OW16429   2.940   2.169   2.367 -0.0703  0.0390 -0.3709
 1599SOL    HW116430   3.006   2.224   2.323  1.7090  0.0277  2.2582
 1599SOL    HW216431   2.922   2.093   2.312 -1.0734  0.1111 -0.1282
 1600SOL     OW16432   4.244   0.089   1.952 -1.0896 -0.7050  0.0512
 1600SOL    HW116433   4.291   0.117   1.874 -1.4179  3.7261  1.4264
 1600SOL    HW216434   4.212   0.002   1.930  2.5263 -2.2684  0.9440
 1601SOL     OW16435   2.481   0.639  15.427 -0.0441  0.0655 -0.0671
 1601SOL    HW116436   2.401   0.618  15.475  1.0016  1.7998  2.4268
 1601SOL    HW216437   2.462   0.722  15.384  1.9149 -0.2798 -1.5745
 1602SOL     OW16438   4.500   4.458   6.432  0.4920  0.1306 -0.3172
 1602SOL    HW116439   4.463   4.471   6.346  2.3159  0.3267 -1.0816
 1602SOL    HW216440   4.495   4.546   6.470 -0.7047  0.2698 -0.8237
 1603SOL     OW16441   1.502   0.155   4.224 -0.2400 -0.3609  0.2485
 1603SOL    HW116442   1.505   0.132   4.317  0.3528  0.0694  0.3347
 1603SOL    HW216443   1.597   0.153   4.211 -0.4570 -0.1730 -1.4372
 1604SOL     OW16444   2.184   4.630  10.929  0.4447  0.1537 -0.2985
 1604SOL    HW116445   2.149   4.554  10.976  1.1525  1.4668  2.3490
 1604SOL    HW216446   2.159   4.618  10.837  1.7843  3.1783 -1.0701
 1605SOL     OW16447   4.108   3.510   2.598 -0.0352  0.3007  0.3208
 1605SOL    HW116448   4.190   3.496   2.551  0.4396 -0.1001  1.2725
 1605SOL    HW216449   4.045   3.515   2.525 -0.6689  0.0056  0.8455
 1606SOL     OW16450   3.088   4.395  15.729  0.2287  0.1652  0.1997
 1606SOL    HW116451   3.057   4.469  15.677  0.4930 -0.3753 -0.7277
 1606SOL    HW216452   3.109   4.341  15.652  1.1093  0.8373 -0.0267
 1607SOL     OW16453   0.281   0.851   6.555 -0.2138 -0.1944  0.1644
 1607SOL    HW116454   0.233   0.896   6.624  1.4347  1.4868  0.2429
 1607SOL    HW216455   0.369   0.888   6.567  0.4325 -2.0276  1.0347
 1608SOL     OW16456   3.797   4.722  15.934  0.4562 -0.4792 -0.6897
 1608SOL    HW116457   3.819   4.630  15.921  0.7117 -0.4768 -0.2650
 1608SOL    HW216458   3.736   4.718  16.008  0.9051 -0.7025 -0.3305
 1609SOL     OW16459   1.115   1.648   6.979 -0.5421  0.3312  0.3833
 1609SOL    HW116460   1.068   1.723   6.943 -0.1771  0.6825  0.6250
 1609SOL    HW216461   1.200   1.646   6.934 -1.4560 -0.9344 -1.2831
 1610SOL     OW16462   2.705   1.323   6.676 -0.4081 -0.1104  0.6028
 1610SOL    HW116463   2.645   1.303   6.747  0.7570  0.7410  1.8340
 1610SOL    HW216464   2.674   1.412   6.661 -0.8101 -0.4265 -0.5036
 1611SOL     OW16465   2.749   3.400  14.135 -0.1312  0.1581  0.1291
 1611SOL    HW116466   2.825   3.419  14.190  0.2961 -0.6759 -0.1778
 1611SOL    HW216467   2.716   3.489  14.132  0.6898  0.4303 -0.5587
 1612SOL     OW16468   4.130   0.907   2.776  0.0536  0.0368  0.2154
 1612SOL    HW116469   4.058   0.872   2.723  1.3414 -1.2421 -0.7288
 1612SOL    HW216470   4.136   0.996   2.742  0.5070 -0.5886 -1.3510
 1613SOL     OW16471   3.457   0.254   9.509  0.2108  0.4387 -0.4408
 1613SOL    HW116472   3.397   0.278   9.580 -0.8105  0.9832 -1.4852
 1613SOL    HW216473   3.531   0.313   9.522 -0.2208  0.8107  0.3106
 1614SOL     OW16474   3.984   3.993   7.202  0.3155  0.1317  0.0385
 1614SOL    HW116475   3.957   3.928   7.136 -1.8065 -0.3279  1.3448
 1614SOL    HW216476   4.033   3.933   7.259  0.2254  1.4629  1.5023
 1615SOL     OW16477   3.364   1.009   0.013  0.5709 -0.2499 -0.2607
 1615SOL    HW116478   3.424   0.962  17.708 -0.0749 -1.4962  0.0951
 1615SOL    HW216479   3.419   1.020   0.091  1.4621 -1.0576 -0.7724
 1616SOL     OW16480   2.331   1.014   7.756 -0.1388  0.0076  0.1777
 1616SOL    HW116481   2.322   0.919   7.743  2.0352 -0.2529  0.5990
 1616SOL    HW216482   2.278   1.024   7.835 -1.0413 -0.1111 -0.4053
 1617SOL     OW16483   1.647   2.217   2.034  0.2152  0.4904  0.3571
 1617SOL    HW116484   1.739   2.193   2.043 -0.5345 -2.0914  0.8805
 1617SOL    HW216485   1.624   2.225   1.941  0.0524  1.7918  0.5026
 1618SOL     OW16486   1.341   0.985   5.752  0.5721  0.1876 -0.1308
 1618SOL    HW116487   1.346   1.052   5.684 -1.2919  2.4423  1.9771
 1618SOL    HW216488   1.301   1.034   5.824  0.3448  0.2872 -0.3251
 1619SOL     OW16489   3.588   3.123   8.266 -0.1483 -0.1060  0.0951
 1619SOL    HW116490   3.658   3.060   8.253  0.2381  0.2827  0.2939
 1619SOL    HW216491   3.608   3.166   8.350  1.6103  1.3504 -1.0827
 1620SOL     OW16492   2.716   3.601   3.595 -0.1077 -0.2944 -0.1002
 1620SOL    HW116493   2.779   3.668   3.568 -1.4905  1.4523  0.9875
 1620SOL    HW216494   2.644   3.650   3.635 -0.0898  0.9904 -1.6119
 1621SOL     OW16495   3.264   2.873  10.807 -0.1454 -0.1914  0.4256
 1621SOL    HW116496   3.230   2.784  10.815 -2.7552  0.4485 -3.2101
 1621SOL    HW216497   3.352   2.858  10.772  0.8729  1.2137  2.3995
 1622SOL     OW16498   4.511   3.217   6.317  0.4010 -0.1908 -0.1000
 1622SOL    HW116499   4.564   3.282   6.362 -0.1097  0.6079 -0.6414
 1622SOL    HW216500   4.444   3.268   6.271  1.2128  0.7217 -0.2455
 1623SOL     OW16501   4.707   1.604   2.278  0.4029 -0.3316 -0.1306
 1623SOL    HW116502   0.035   1.582   2.213 -0.8566 -3.1170 -0.4621
 1623SOL    HW216503   4.623   1.583   2.236 -0.4973  0.5324  1.2313
 1624SOL     OW16504   3.806   0.714   8.048  0.5011 -0.1362  0.7057
 1624SOL    HW116505   3.790   0.657   8.123  1.3386 -1.3400 -0.0252
 1624SOL    HW216506   3.737   0.781   8.048 -0.7212 -1.3818 -3.0565
 1625SOL     OW16507   2.142   1.838   9.002  0.2275 -0.3668 -0.5038
 1625SOL    HW116508   2.184   1.816   9.085  1.8236  1.2794 -0.8867
 1625SOL    HW216509   2.158   1.932   9.007 -1.2840 -0.0642 -1.2613
 1626SOL     OW16510   3.828   3.537  15.923 -0.1469  0.7464 -0.7298
 1626SOL    HW116511   3.835   3.612  15.864  0.8555 -0.4825 -2.1480
 1626SOL    HW216512   3.766   3.479  15.879  1.9119 -1.3393 -0.8230
 1627SOL     OW16513   3.472   4.531   8.955 -0.2076  0.7931 -0.5071
 1627SOL    HW116514   3.451   4.450   8.909  0.0595  1.5081 -1.9016
 1627SOL    HW216515   3.478   4.490   9.041 -1.6936 -0.7672 -1.1379
 1628SOL     OW16516   3.370   1.998  14.094  0.4245 -0.2131  0.2817
 1628SOL    HW116517   3.293   1.976  14.042 -0.1526  0.9968  0.6198
 1628SOL    HW216518   3.351   2.087  14.122  0.8929  0.6026 -1.9610
 1629SOL     OW16519   3.195   1.071   2.551  0.1537 -0.3380  0.1449
 1629SOL    HW116520   3.101   1.084   2.553  0.3810  1.3260 -0.2763
 1629SOL    HW216521   3.213   1.154   2.508 -2.2980 -0.0435 -0.2836
 1630SOL     OW16522   4.091   0.435   8.755  0.4639 -0.2203 -0.1149
 1630SOL    HW116523   4.026   0.434   8.825  0.5049  0.8779 -0.0573
 1630SOL    HW216524   4.096   0.341   8.741 -0.8222 -0.3869  0.4781
 1631SOL     OW16525   2.618   2.874  10.840 -0.7719  0.1951  0.6010
 1631SOL    HW116526   2.555   2.941  10.864 -1.6786 -0.6872  0.6812
 1631SOL    HW216527   2.560   2.801  10.863 -1.0238  0.3218  0.3694
 1632SOL     OW16528   3.663   4.231   8.493  0.1954  0.1388 -0.7017
 1632SOL    HW116529   3.633   4.211   8.405  2.3193 -1.6787 -1.0163
 1632SOL    HW216530   3.754   4.258   8.483  0.5861 -1.6585 -2.0618
 1633SOL     OW16531   4.033   3.981   5.391 -0.1517  0.1453  1.0786
 1633SOL    HW116532   4.122   3.965   5.361 -0.5151  0.6668 -0.2567
 1633SOL    HW216533   3.996   3.893   5.394 -1.0411  0.5397  1.7582
 1634SOL     OW16534   3.938   4.126   4.213  0.2061 -0.1529  0.1658
 1634SOL    HW116535   3.959   4.071   4.288 -0.4829  0.1193  0.5519
 1634SOL    HW216536   3.933   4.056   4.147  2.9384 -1.1088  0.9583
 1635SOL     OW16537   1.652   3.813   9.220 -0.4414  0.4508  0.0950
 1635SOL    HW116538   1.653   3.878   9.149 -0.7526  0.6277  0.2550
 1635SOL    HW216539   1.573   3.833   9.270  0.3623  1.8750  0.8043
 1636SOL     OW16540   2.695   3.755   7.344  1.0963  0.1223 -0.1078
 1636SOL    HW116541   2.647   3.822   7.392 -0.0680 -0.8791  0.1173
 1636SOL    HW216542   2.762   3.807   7.299  3.5025 -2.3619  0.6199
 1637SOL     OW16543   2.399   0.028  11.018  0.0629  0.5960 -0.6069
 1637SOL    HW116544   2.326   4.726  10.972 -0.6709  0.7323  0.4374
 1637SOL    HW216545   2.443   4.687  11.046  1.5571  1.0056 -1.7174
 1638SOL     OW16546   1.112   1.977   6.777 -0.2033 -0.3447 -0.5066
 1638SOL    HW116547   1.170   2.053   6.784  0.2236 -0.4263 -3.1436
 1638SOL    HW216548   1.096   1.972   6.683  1.1050 -1.7144 -0.6448
 1639SOL     OW16549   3.918   4.102   3.826 -0.0956  0.4353  0.0701
 1639SOL    HW116550   3.899   4.189   3.862  0.9548  0.7024 -0.0000
 1639SOL    HW216551   4.011   4.117   3.807 -0.0973 -1.9636 -1.7759
 1640SOL     OW16552   4.417   0.760   9.390  0.2170 -0.5382  0.9825
 1640SOL    HW116553   4.349   0.697   9.368 -0.7325  1.2243 -1.0724
 1640SOL    HW216554   4.468   0.706   9.451  0.6318 -0.7904  0.4109
 1641SOL     OW16555   2.376   0.318   6.481  0.1078  0.4821  0.4688
 1641SOL    HW116556   2.329   0.370   6.416 -1.7472  0.2378  1.6330
 1641SOL    HW216557   2.307   0.291   6.541  0.9962  1.1556  1.7780
 1642SOL     OW16558   0.356   2.199   0.628  0.1012  0.2300 -0.3856
 1642SOL    HW116559   0.439   2.152   0.624 -1.2063 -2.3481  2.1426
 1642SOL    HW216560   0.351   2.259   0.554  0.8331 -2.1346 -2.3826
 1643SOL     OW16561   0.860   0.817   7.175  0.3703 -0.4903  0.0519
 1643SOL    HW116562   0.782   0.835   7.122 -0.2312 -1.5012  0.5980
 1643SOL    HW216563   0.826   0.814   7.264  0.9530  1.6592  0.3428
 1644SOL     OW16564   0.310   3.045   5.529  0.4908  0.9649 -0.1994
 1644SOL    HW116565   0.236   3.014   5.476 -0.6699  0.1265  1.8847
 1644SOL    HW216566   0.379   3.057   5.464  0.5666  0.2936 -0.2448
 1645SOL     OW16567   1.674   1.898   2.220 -0.2171 -0.0388  0.6561
 1645SOL    HW116568   1.701   1.972   2.166  0.5429 -1.9613 -1.6323
 1645SOL    HW216569   1.615   1.941   2.282  1.3980  1.8561  0.8816
 1646SOL     OW16570   0.913   2.867   2.843  0.3959  0.0212 -0.0719
 1646SOL    HW116571   0.918   2.805   2.771 -1.1885 -1.1613  0.8410
 1646SOL    HW216572   0.984   2.835   2.899 -1.0304 -0.8983  1.1956
 1647SOL     OW16573   2.947   3.623   3.380  0.3076  0.5796  0.0459
 1647SOL    HW116574   2.920   3.687   3.445  1.4965  1.9219 -0.7748
 1647SOL    HW216575   3.042   3.618   3.396  0.1121 -2.8446  0.1349
 1648SOL     OW16576   0.435   0.611   5.466  0.5810  0.3450  0.1343
 1648SOL    HW116577   0.501   0.645   5.405  0.8874 -1.3820 -0.5005
 1648SOL    HW216578   0.484   0.614   5.548  0.7127  1.1719  0.0205
 1649SOL     OW16579   1.551   3.367   4.302 -0.4176  0.0887 -0.2157
 1649SOL    HW116580   1.506   3.283   4.313 -0.1578  0.0220  0.3347
 1649SOL    HW216581   1.474   3.423   4.304 -2.1773 -2.3352 -0.1297
 1650SOL     OW16582   3.798   0.640   5.694  0.2292 -0.1049 -0.1245
 1650SOL    HW116583   3.860   0.643   5.621  0.6787  1.1649  0.2931
 1650SOL    HW216584   3.726   0.590   5.657  0.1816 -0.0077 -0.1634
 1651SOL     OW16585   0.977   0.246   8.167  0.4595 -0.3773 -0.1013
 1651SOL    HW116586   1.028   0.198   8.101  0.6990  0.5003 -0.5549
 1651SOL    HW216587   0.888   0.242   8.131  1.5451 -0.7380 -2.7340
 1652SOL     OW16588   0.618   3.260  17.403  0.2926  0.8760 -0.4306
 1652SOL    HW116589   0.621   3.352  17.428  0.9349  0.7470 -0.0079
 1652SOL    HW216590   0.578   3.222  17.482  2.0829  1.0649  0.5751
 1653SOL     OW16591   3.907   0.885   6.934 -0.0102 -0.5840 -0.0859
 1653SOL    HW116592   3.889   0.966   6.886  0.1677 -1.3755 -1.4998
 1653SOL    HW216593   3.864   0.820   6.879 -1.0009  1.0215 -1.2297
 1654SOL     OW16594   2.262   3.351   1.674  0.3992  0.3269  0.1089
 1654SOL    HW116595   2.221   3.346   1.587 -1.3678 -0.3697  0.9774
 1654SOL    HW216596   2.225   3.434   1.704  1.2604  0.2068  1.4973
 1655SOL     OW16597   1.934   4.437   9.010 -0.5550 -0.2646 -0.3775
 1655SOL    HW116598   2.010   4.398   8.967 -1.1968  0.8894 -2.5294
 1655SOL    HW216599   1.969   4.495   9.077 -1.3759  1.4051 -1.3990
 1656SOL     OW16600   2.006   3.297   8.556  0.1953  0.1287 -0.1317
 1656SOL    HW116601   2.063   3.319   8.482  0.2445 -2.3145 -0.8383
 1656SOL    HW216602   1.939   3.237   8.523  0.0907 -0.3736  1.0111
 1657SOL     OW16603   2.232   2.216   4.604  0.1370 -0.1546 -0.1061
 1657SOL    HW116604   2.321   2.220   4.568  0.2074 -1.3341 -0.0584
 1657SOL    HW216605   2.247   2.236   4.697  0.1925  1.0501 -0.3763
 1658SOL     OW16606   1.344   3.978   3.817 -0.2310 -0.9092  0.1591
 1658SOL    HW116607   1.410   3.963   3.750 -0.5523 -2.9615  0.2866
 1658SOL    HW216608   1.382   3.942   3.897 -0.2751 -0.3372  0.4396
 1659SOL     OW16609   3.889   3.572   4.289 -0.1169 -0.4725  0.4377
 1659SOL    HW116610   3.925   3.501   4.342  1.8714  1.4251  1.6322
 1659SOL    HW216611   3.942   3.567   4.210  0.2166 -0.8327  0.6865
 1660SOL     OW16612   0.809   3.420  11.159  0.5936  0.1800  0.0117
 1660SOL    HW116613   0.893   3.428  11.113  0.3073 -0.0508 -0.5400
 1660SOL    HW216614   0.842   3.375  11.237  1.4632 -1.2678 -1.1931
 1661SOL     OW16615   0.027   0.584   4.726 -0.2254 -0.8590  0.4359
 1661SOL    HW116616   0.045   0.672   4.760  0.2969 -0.3188 -1.2105
 1661SOL    HW216617   0.073   0.587   4.642 -1.3213  2.3459 -0.0453
 1662SOL     OW16618   1.749   0.702  16.070 -0.1562 -0.9521  0.0304
 1662SOL    HW116619   1.681   0.711  16.003  0.7016 -1.0684 -0.8549
 1662SOL    HW216620   1.688   0.712  16.143  0.8239  0.8527  0.5687
 1663SOL     OW16621   2.680   2.180   6.925  0.5636  0.0866 -0.4165
 1663SOL    HW116622   2.647   2.179   7.015 -0.3794  1.1972 -0.7446
 1663SOL    HW216623   2.600   2.190   6.873 -0.0285  2.1884  0.9262
 1664SOL     OW16624   4.357   3.284   9.600  0.5223 -0.2851 -0.6163
 1664SOL    HW116625   4.410   3.217   9.643 -0.2071 -0.0536  0.6269
 1664SOL    HW216626   4.273   3.243   9.579  0.5279 -0.1137 -0.9731
 1665SOL     OW16627   2.171   0.270   4.341 -0.4107 -0.1948  0.1960
 1665SOL    HW116628   2.136   0.326   4.271 -1.6636 -0.8418  0.2887
 1665SOL    HW216629   2.253   0.242   4.301  0.2063  0.5834  0.9278
 1666SOL     OW16630   4.016   3.974  17.035 -0.0793 -0.3476  0.1540
 1666SOL    HW116631   4.036   4.011  17.121  0.1801  1.2424 -0.5894
 1666SOL    HW216632   4.102   3.968  16.994  0.0213 -0.3848  0.3705
 1667SOL     OW16633   1.547   3.058   4.018 -0.1558 -0.0635 -0.1980
 1667SOL    HW116634   1.616   3.124   4.020 -1.4352  1.1831  1.7753
 1667SOL    HW216635   1.489   3.084   4.089  1.8901 -0.6776  1.6836
 1668SOL     OW16636   3.452   3.404   5.866  0.0040 -0.3049 -0.0576
 1668SOL    HW116637   3.544   3.381   5.881  0.0766 -0.3798 -0.6332
 1668SOL    HW216638   3.436   3.402   5.772 -2.2555 -2.0060  0.3613
 1669SOL     OW16639   3.628   2.774   5.324  0.4095  0.8001 -0.7573
 1669SOL    HW116640   3.674   2.852   5.293  1.4384 -0.2589 -1.9098
 1669SOL    HW216641   3.684   2.752   5.399 -2.8609 -0.5725  1.2791
 1670SOL     OW16642   3.619   0.318   4.127  0.5997 -0.0502 -0.0580
 1670SOL    HW116643   3.673   0.310   4.205 -0.8761  0.5805  1.0252
 1670SOL    HW216644   3.606   0.413   4.125 -2.4535 -0.4531  0.2265
 1671SOL     OW16645   3.688   3.494   7.893  0.4281  0.0919  0.4936
 1671SOL    HW116646   3.726   3.514   7.978 -3.0338 -2.6072  2.6515
 1671SOL    HW216647   3.701   3.577   7.847  2.8291  0.3317  1.5901
 1672SOL     OW16648   1.325   0.116  16.923  0.2146  0.2482 -0.4827
 1672SOL    HW116649   1.252   0.124  16.861  0.9532  2.9295 -1.0130
 1672SOL    HW216650   1.351   0.027  16.901 -0.4489 -0.1676  0.4390
 1673SOL     OW16651   2.554   2.516   6.207 -0.4626 -0.3164  0.4621
 1673SOL    HW116652   2.462   2.526   6.234 -0.6228  1.9945 -0.9972
 1673SOL    HW216653   2.581   2.467   6.285  0.5801  1.1336  1.0047
 1674SOL     OW16654   2.320   1.176  13.374 -0.5995 -0.4738 -0.0527
 1674SOL    HW116655   2.260   1.224  13.431  1.0607  0.5011  0.9161
 1674SOL    HW216656   2.304   1.085  13.399 -1.4584 -0.2961  0.0357
 1675SOL     OW16657   2.622   4.576   5.597  0.2310 -0.3720  0.2970
 1675SOL    HW116658   2.600   4.503   5.654 -0.1108 -1.1987 -0.8911
 1675SOL    HW216659   2.708   4.539   5.578 -0.2008 -0.9333 -0.5820
 1676SOL     OW16660   3.055   2.164  14.102  0.3757 -0.3332 -0.2753
 1676SOL    HW116661   3.019   2.233  14.045  2.8533 -0.2033 -1.6586
 1676SOL    HW216662   3.145   2.195  14.111  1.3164 -2.5818 -1.8824
 1677SOL     OW16663   3.522   4.450   7.919  0.1461 -0.0495 -0.1070
 1677SOL    HW116664   3.508   4.510   7.845 -1.0992 -0.2338 -0.0345
 1677SOL    HW216665   3.554   4.507   7.989  2.1365 -0.3909 -0.7629
 1678SOL     OW16666   1.061   1.019   8.582 -0.4573 -0.0161  0.3172
 1678SOL    HW116667   1.109   1.005   8.663 -0.6945  1.4814  0.7130
 1678SOL    HW216668   1.037   0.934   8.546  0.7498 -0.6691  1.0548
 1679SOL     OW16669   4.189   1.732   7.062  0.6376  0.1588  0.8516
 1679SOL    HW116670   4.095   1.731   7.080  0.2603 -3.5589 -1.2700
 1679SOL    HW216671   4.193   1.793   6.988 -1.2414 -0.3092  0.3621
 1680SOL     OW16672   0.887   0.717   9.284 -0.5172  0.3775  0.0274
 1680SOL    HW116673   0.817   0.681   9.339 -1.6324 -0.6070 -2.0508
 1680SOL    HW216674   0.844   0.796   9.250 -1.8355 -1.1528 -1.9011
 1681SOL     OW16675   2.817   2.017   8.129 -0.2492 -0.9255  0.2567
 1681SOL    HW116676   2.899   2.017   8.081  1.5467 -0.1638  3.3511
 1681SOL    HW216677   2.760   2.070   8.073 -1.6360 -1.5012  1.0995
 1682SOL     OW16678   0.753   1.183   2.320 -0.2061 -0.1733 -0.5855
 1682SOL    HW116679   0.835   1.138   2.340 -0.2311 -0.7091 -1.6669
 1682SOL    HW216680   0.726   1.125   2.249  1.3525 -2.9977  1.1533
 1683SOL     OW16681   2.085   0.750   5.214  0.4401  0.0115  0.6515
 1683SOL    HW116682   2.129   0.810   5.154 -1.7198  2.2291  1.2746
 1683SOL    HW216683   2.008   0.721   5.166  2.0847 -1.7438 -0.9145
 1684SOL     OW16684   0.450   3.006   0.051  0.2541  0.3040 -0.1077
 1684SOL    HW116685   0.493   3.077   0.003  1.0782 -0.3783 -0.3874
 1684SOL    HW216686   0.438   3.050   0.135  0.4285 -2.5214  1.3947
 1685SOL     OW16687   4.652   0.236  10.018 -0.7741  0.0641 -0.6973
 1685SOL    HW116688   4.689   0.276  10.096 -0.6739 -0.6874 -0.3573
 1685SOL    HW216689   4.666   0.311   9.961 -0.9282  0.2426 -0.4973
 1686SOL     OW16690   2.286   1.230   1.552 -0.2998  0.4416  0.1947
 1686SOL    HW116691   2.231   1.284   1.608  0.3535  0.3445  0.9253
 1686SOL    HW216692   2.224   1.160   1.529  1.3092 -0.3169 -1.8317
 1687SOL     OW16693   4.070   0.481   2.209 -0.1716 -0.1146 -0.0390
 1687SOL    HW116694   3.986   0.450   2.244  0.5668 -1.1833  0.7803
 1687SOL    HW216695   4.117   0.398   2.203 -0.3103 -0.5123  3.8009
 1688SOL     OW16696   0.960   3.908   1.454  0.4837 -0.2568 -0.4659
 1688SOL    HW116697   1.048   3.877   1.435  0.2121 -1.6639  0.4984
 1688SOL    HW216698   0.958   3.978   1.389  0.9055 -0.4831 -0.7234
 1689SOL     OW16699   3.339   3.854   5.433 -0.7868  0.3040  0.1960
 1689SOL    HW116700   3.386   3.824   5.355 -1.2753 -2.4371  0.9640
 1689SOL    HW216701   3.304   3.770   5.464 -0.7323  0.5676  0.9816
 1690SOL     OW16702   3.866   2.966   6.295 -0.4862  0.0204  0.3240
 1690SOL    HW116703   3.804   3.023   6.250 -0.1202  3.4645  4.1260
 1690SOL    HW216704   3.894   2.910   6.223 -1.6605  0.1070 -0.1940
 1691SOL     OW16705   1.526   3.669   5.501  0.3442 -0.1339  0.1423
 1691SOL    HW116706   1.460   3.705   5.443  2.4118 -1.1219 -2.8251
 1691SOL    HW216707   1.597   3.647   5.440 -0.5205  0.3857 -1.0244
 1692SOL     OW16708   1.981   2.617   5.725 -0.2133 -0.0940  0.3366
 1692SOL    HW116709   2.021   2.690   5.771  1.0735  0.3474 -1.4833
 1692SOL    HW216710   1.969   2.653   5.637 -0.8406 -0.1307  0.4065
 1693SOL     OW16711   0.189   4.665   3.671 -0.5021 -0.2811  0.7100
 1693SOL    HW116712   0.232   4.634   3.591 -0.0131  0.5585  0.6521
 1693SOL    HW216713   0.173   0.013   3.634 -0.5122  0.3238  2.1347
 1694SOL     OW16714   0.606   2.790   7.922 -0.3936 -0.5344 -0.3225
 1694SOL    HW116715   0.654   2.798   7.839  1.6553  1.7045  1.0753
 1694SOL    HW216716   0.542   2.860   7.913  1.6958  1.5825  1.1318
 1695SOL     OW16717   3.373   1.263   9.029  0.7834  0.2186 -0.1105
 1695SOL    HW116718   3.419   1.308   9.100  1.6154 -1.5246  0.4650
 1695SOL    HW216719   3.379   1.172   9.058  0.0503  0.1453 -0.2087
 1696SOL     OW16720   3.276   0.715   8.573 -0.1389  0.4848  0.3396
 1696SOL    HW116721   3.291   0.707   8.479 -0.7065  0.7362  0.2277
 1696SOL    HW216722   3.355   0.761   8.597 -0.3149  0.5012  0.8791
 1697SOL     OW16723   0.756   3.917  16.013 -0.4932  0.4769 -0.6027
 1697SOL    HW116724   0.705   3.898  15.934 -2.6633 -2.2489  1.4536
 1697SOL    HW216725   0.763   4.011  16.001  0.9089  0.4656  0.0759
 1698SOL     OW16726   4.083   2.565   8.375  0.3977 -0.5469  0.1416
 1698SOL    HW116727   4.076   2.573   8.279 -1.6889 -0.9417  0.2568
 1698SOL    HW216728   4.111   2.655   8.394 -0.0829 -0.2817 -0.3961
 1699SOL     OW16729   1.225   0.457   7.043 -0.3995 -0.3153  0.2717
 1699SOL    HW116730   1.252   0.446   6.952  2.6790  0.2657  1.1405
 1699SOL    HW216731   1.250   0.370   7.077 -3.0456 -1.4619 -0.6761
 1700SOL     OW16732   2.328   0.816   8.502 -0.0920 -0.0315  0.5257
 1700SOL    HW116733   2.266   0.830   8.573  0.1279 -1.4617  0.9994
 1700SOL    HW216734   2.382   0.894   8.514  0.0676 -0.3589  1.9618
 1701SOL     OW16735   2.770   1.174   8.595 -0.6259 -0.0048  0.0882
 1701SOL    HW116736   2.800   1.263   8.611 -1.6129  0.1680  0.9612
 1701SOL    HW216737   2.738   1.194   8.507 -0.2616 -0.3458 -0.1213
 1702SOL     OW16738   2.008   3.522  16.048  0.5048  0.1279  0.0671
 1702SOL    HW116739   2.040   3.603  16.087 -0.4621 -0.4965  2.1512
 1702SOL    HW216740   2.064   3.464  16.099 -0.3148 -2.0042 -1.4717
 1703SOL     OW16741   1.820   2.066   6.183 -0.1947 -0.2611 -0.2022
 1703SOL    HW116742   1.916   2.061   6.191 -0.3785 -2.2729  0.6971
 1703SOL    HW216743   1.801   2.152   6.221  1.0930 -0.4301  0.8530
 1704SOL     OW16744   4.334   0.903  14.524  0.3586 -0.0308 -0.3531
 1704SOL    HW116745   4.418   0.940  14.552  0.4765  0.0417 -0.7982
 1704SOL    HW216746   4.351   0.885  14.431 -1.4387  0.2888 -0.7389
 1705SOL     OW16747   1.042   1.544   8.453 -0.3025 -0.1116 -0.1681
 1705SOL    HW116748   0.998   1.603   8.391  1.7005  1.1220 -0.4509
 1705SOL    HW216749   1.069   1.468   8.401 -3.9316 -1.9710  0.6633
 1706SOL     OW16750   1.327   0.754  13.702  0.6268 -0.3618  0.3582
 1706SOL    HW116751   1.323   0.744  13.797  4.3661  2.7545  0.8615
 1706SOL    HW216752   1.387   0.680  13.692 -0.6088 -1.4006  0.5876
 1707SOL     OW16753   3.504   4.594   4.690 -0.3411  0.0490  0.4621
 1707SOL    HW116754   3.477   4.605   4.599 -0.5783 -0.9332  0.4126
 1707SOL    HW216755   3.476   4.676   4.729  0.3521  1.9823 -3.0714
 1708SOL     OW16756   4.251   1.059   3.126 -0.1706  0.2267  0.3026
 1708SOL    HW116757   4.178   0.998   3.134  2.8524 -3.4648  0.0391
 1708SOL    HW216758   4.207   1.142   3.107 -0.3373 -0.6222 -2.9822
 1709SOL     OW16759   0.415   1.548   4.620 -0.4871 -0.0512  0.1572
 1709SOL    HW116760   0.468   1.485   4.669  2.3959  1.2927 -1.2096
 1709SOL    HW216761   0.473   1.617   4.586 -0.3498 -0.8489 -1.2065
 1710SOL     OW16762   2.984   3.236   0.775  0.2741  0.1223  0.6831
 1710SOL    HW116763   2.983   3.145   0.745  1.9578  0.2626  0.2028
 1710SOL    HW216764   2.938   3.218   0.857 -1.4209 -3.6277 -1.0820
 1711SOL     OW16765   3.964   3.549   1.671 -0.5242  0.3645 -0.1436
 1711SOL    HW116766   4.044   3.574   1.717 -0.5113 -1.3057  0.7644
 1711SOL    HW216767   3.978   3.455   1.686  1.4695  0.6682 -0.1517
 1712SOL     OW16768   2.598   4.243  11.451  0.1192 -0.3229 -0.0354
 1712SOL    HW116769   2.549   4.162  11.465  3.0511 -1.9909  0.6875
 1712SOL    HW216770   2.650   4.214  11.376 -0.0620 -0.4103 -0.1282
 1713SOL     OW16771   1.872   0.469   5.208 -0.3869 -0.8478 -0.1061
 1713SOL    HW116772   1.786   0.427   5.214 -0.7298 -0.0744  0.3876
 1713SOL    HW216773   1.859   0.527   5.133 -1.7950 -1.6164 -0.4478
 1714SOL     OW16774   3.466   4.322   7.238 -0.0996  0.3936 -0.0034
 1714SOL    HW116775   3.467   4.230   7.263  0.7189  1.0555  2.4459
 1714SOL    HW216776   3.533   4.353   7.300  0.5090 -0.0366 -0.4402
 1715SOL     OW16777   3.111   2.372   4.198  0.1906 -0.1321 -0.3216
 1715SOL    HW116778   3.126   2.451   4.251  2.1222 -0.1558 -0.8103
 1715SOL    HW216779   3.077   2.405   4.115 -0.4726 -1.3585 -0.5296
 1716SOL     OW16780   0.945   1.271   4.370  0.0604  0.1264 -0.4576
 1716SOL    HW116781   0.855   1.303   4.374 -0.1965 -0.5412 -0.7694
 1716SOL    HW216782   0.998   1.345   4.398 -0.4000  0.9306 -1.7254
 1717SOL     OW16783   2.214   1.607  14.904  0.2318 -0.3766  0.0713
 1717SOL    HW116784   2.262   1.600  14.821  1.5840  0.0057  0.8193
 1717SOL    HW216785   2.146   1.541  14.890 -0.9526  0.9311 -0.3557
 1718SOL     OW16786   2.199   4.725   7.480 -0.6368 -0.3767 -0.3943
 1718SOL    HW116787   2.180   4.631   7.486 -3.0954  0.1800  0.3643
 1718SOL    HW216788   2.293   4.722   7.494 -0.8594 -0.8540  0.9886
 1719SOL     OW16789   4.019   2.556  11.527 -0.0031 -0.3799  0.2990
 1719SOL    HW116790   3.924   2.551  11.516  0.1482  0.0649 -1.1834
 1719SOL    HW216791   4.054   2.557  11.438 -0.5695 -0.7353  0.0705
 1720SOL     OW16792   4.523   3.670   4.585  0.1588  0.1618  0.3562
 1720SOL    HW116793   4.580   3.659   4.508 -0.3699  1.5419 -0.2413
 1720SOL    HW216794   4.450   3.713   4.540  0.8408  3.3245  2.2792
 1721SOL     OW16795   3.485   3.204   4.154 -0.1300 -0.0895 -0.2434
 1721SOL    HW116796   3.496   3.111   4.173  1.8654  0.0391 -0.8153
 1721SOL    HW216797   3.565   3.242   4.189 -1.9358  0.6348  3.0578
 1722SOL     OW16798   1.714   1.731   1.874 -0.6260  0.6350  0.5926
 1722SOL    HW116799   1.697   1.778   1.792  1.5652 -0.3707 -0.4423
 1722SOL    HW216800   1.796   1.779   1.891 -0.5451  0.6722  0.0946
 1723SOL     OW16801   0.878   3.068  14.626  0.2737  0.0643 -1.2082
 1723SOL    HW116802   0.910   3.071  14.536 -0.5239  0.0083 -1.4942
 1723SOL    HW216803   0.785   3.068  14.603  0.1593  2.1495 -0.7652
 1724SOL     OW16804   0.825   0.741   3.893  0.1774 -0.3303 -0.2146
 1724SOL    HW116805   0.809   0.774   3.805 -2.0193 -2.2731 -0.5486
 1724SOL    HW216806   0.748   0.782   3.934  0.4588 -0.2101  0.2001
 1725SOL     OW16807   4.185   2.594   4.198 -0.2335 -0.2459  0.6904
 1725SOL    HW116808   4.139   2.514   4.173  1.5436 -0.6939 -1.1551
 1725SOL    HW216809   4.116   2.658   4.182  0.5657  0.4929  0.2082
 1726SOL     OW16810   3.778   3.404   0.748 -0.1656 -0.4202  0.4922
 1726SOL    HW116811   3.739   3.452   0.821 -0.8387 -0.1271 -0.0573
 1726SOL    HW216812   3.838   3.343   0.792  0.1301  1.5942  2.8762
 1727SOL     OW16813   3.935   3.305  10.728  0.2763  0.1971 -0.1686
 1727SOL    HW116814   3.988   3.380  10.756 -0.7438  0.5611  0.8342
 1727SOL    HW216815   3.844   3.335  10.727 -0.1619 -1.0884  1.9231
 1728SOL     OW16816   2.647   2.107   7.222  0.3804 -0.1475 -0.1570
 1728SOL    HW116817   2.648   2.033   7.282 -0.1706  1.0725  1.3520
 1728SOL    HW216818   2.557   2.137   7.238  0.1202 -0.5042 -0.9416
 1729SOL     OW16819   2.368   1.914   6.614 -0.6394  0.6124 -0.0689
 1729SOL    HW116820   2.333   1.827   6.595 -0.7064  0.9570 -1.5557
 1729SOL    HW216821   2.331   1.937   6.699  1.2484  2.0971  0.3529
 1730SOL     OW16822   0.421   1.379   6.948 -0.0929 -0.0479 -0.2929
 1730SOL    HW116823   0.446   1.420   7.031 -1.6714  3.0831 -1.3729
 1730SOL    HW216824   0.332   1.351   6.972 -0.2999  0.5374 -0.3836
 1731SOL     OW16825   3.903   3.591   1.321 -0.1695  0.7008  0.1222
 1731SOL    HW116826   3.965   3.664   1.329  1.7228 -0.7518 -1.4553
 1731SOL    HW216827   3.815   3.628   1.333 -0.5806 -0.2771  0.1154
 1732SOL     OW16828   2.786   4.162   8.748  0.6972  0.7843  0.0307
 1732SOL    HW116829   2.869   4.134   8.708  0.3803  0.5212 -0.4408
 1732SOL    HW216830   2.721   4.120   8.692  0.3847  2.4782 -0.8770
 1733SOL     OW16831   2.797   2.521   2.561  0.4693 -0.2510 -1.0538
 1733SOL    HW116832   2.795   2.464   2.484  0.7752 -0.7989 -0.6505
 1733SOL    HW216833   2.800   2.604   2.512 -1.4674 -0.0200 -0.7543
 1734SOL     OW16834   2.071   3.298   9.161  0.2482  0.2715 -0.6183
 1734SOL    HW116835   2.077   3.206   9.132 -1.9494 -0.0688  0.0057
 1734SOL    HW216836   2.051   3.346   9.082  3.2142 -0.1921 -1.6544
 1735SOL     OW16837   1.894   2.924   2.373  0.6293  0.0245  0.0161
 1735SOL    HW116838   1.944   2.886   2.445 -1.2441 -2.8602 -0.1774
 1735SOL    HW216839   1.924   3.014   2.378 -0.7806  0.4987 -0.0044
 1736SOL     OW16840   0.774   3.253   4.878  0.3899  0.2721 -0.0947
 1736SOL    HW116841   0.766   3.296   4.963  2.3455  1.3126 -0.4253
 1736SOL    HW216842   0.780   3.162   4.906  1.2432  0.1653 -0.6167
 1737SOL     OW16843   2.583   0.288  14.965 -0.2891  0.2429 -0.0762
 1737SOL    HW116844   2.662   0.307  14.915 -0.9757  0.0035 -1.2347
 1737SOL    HW216845   2.520   0.270  14.895  0.1792 -1.1243 -0.1471
 1738SOL     OW16846   3.368   1.737   6.178 -0.1108  0.2828  0.5777
 1738SOL    HW116847   3.377   1.754   6.272  1.9077 -1.2208  0.6499
 1738SOL    HW216848   3.446   1.782   6.144  0.8970 -0.8411  1.3806
 1739SOL     OW16849   3.486   3.805   6.315  0.1443 -0.5810 -0.3087
 1739SOL    HW116850   3.428   3.756   6.256 -2.3426  1.1844  0.6819
 1739SOL    HW216851   3.535   3.732   6.352 -1.6524 -2.1513 -0.9973
 1740SOL     OW16852   1.746   4.166  17.039  0.9943  0.1753 -0.1803
 1740SOL    HW116853   1.784   4.191  16.955  0.1397  2.9474  0.2757
 1740SOL    HW216854   1.719   4.254  17.063 -1.0204  0.0925 -2.1940
 1741SOL     OW16855   2.544   2.797   0.973  0.7390  0.3501 -0.1057
 1741SOL    HW116856   2.553   2.849   1.053 -1.5702  0.6632 -0.0425
 1741SOL    HW216857   2.632   2.804   0.935  0.1606 -0.8688 -1.6601
 1742SOL     OW16858   2.028   1.360  12.998 -0.0112 -0.6381  0.5324
 1742SOL    HW116859   1.992   1.387  13.082  0.5359  1.5286  0.0686
 1742SOL    HW216860   2.109   1.322  13.031 -0.9415 -2.1712  1.0617
 1743SOL     OW16861   2.026   3.520  15.750 -0.4278 -0.1355 -0.5629
 1743SOL    HW116862   2.061   3.432  15.743 -0.8180 -0.3904  0.6417
 1743SOL    HW216863   2.038   3.529  15.845 -0.8176 -1.3664 -0.4015
 1744SOL     OW16864   0.271   1.258   6.679  0.0406 -0.0651  0.2161
 1744SOL    HW116865   0.218   1.267   6.600  1.1798 -1.7928 -0.7419
 1744SOL    HW216866   0.207   1.225   6.744  0.0340 -0.3420  0.0683
 1745SOL     OW16867   1.241   2.576  17.126  0.1651 -0.4985  0.4075
 1745SOL    HW116868   1.332   2.553  17.145 -0.5638 -1.1773  3.0316
 1745SOL    HW216869   1.188   2.520  17.182 -0.0192  0.5230  1.2413
 1746SOL     OW16870   4.154   3.348  12.728  0.2019 -0.5351  0.1222
 1746SOL    HW116871   4.154   3.325  12.635  1.0507  0.5152 -0.1325
 1746SOL    HW216872   4.248   3.344  12.741  0.5784  0.6826 -2.1668
 1747SOL     OW16873   3.278   2.956   4.907  0.2296 -0.0522 -0.1661
 1747SOL    HW116874   3.307   2.906   4.984 -0.2670 -0.1886 -0.0699
 1747SOL    HW216875   3.183   2.947   4.914  0.0994  2.3164  1.1902
 1748SOL     OW16876   2.690   2.915   5.423  0.2718  0.3839 -0.4255
 1748SOL    HW116877   2.643   2.960   5.494  1.4067 -0.8661  1.1177
 1748SOL    HW216878   2.745   2.988   5.394  1.6450  0.7551  3.0479
 1749SOL     OW16879   4.144   2.198   0.823 -0.4979  0.0965 -0.4108
 1749SOL    HW116880   4.181   2.111   0.841  0.6753  0.6355 -0.2147
 1749SOL    HW216881   4.182   2.213   0.737  0.9206 -4.8173 -0.6365
 1750SOL     OW16882   3.528   1.100   6.095 -0.2326 -0.4958 -0.2306
 1750SOL    HW116883   3.479   1.150   6.160  0.4716  1.0127 -0.8518
 1750SOL    HW216884   3.486   1.014   6.103 -1.9854  0.6930  3.4423
 1751SOL     OW16885   2.168   0.542   3.019  0.2389  0.2228  0.0291
 1751SOL    HW116886   2.102   0.586   3.072  0.3406 -0.9427  1.1211
 1751SOL    HW216887   2.185   0.600   2.944  0.9262 -0.2674 -0.1995
 1752SOL     OW16888   4.359   1.343   2.539  0.4241  0.0166 -0.5951
 1752SOL    HW116889   4.444   1.346   2.584 -0.2646  2.4320  0.5451
 1752SOL    HW216890   4.329   1.432   2.558 -4.0390 -1.2837 -1.5434
 1753SOL     OW16891   2.637   0.085  14.211  1.0042 -0.5955  0.1947
 1753SOL    HW116892   2.726   0.070  14.179  1.0944 -0.3551  0.3271
 1753SOL    HW216893   2.625   0.007  14.266  1.6556 -1.2407 -0.5878
 1754SOL     OW16894   4.300   3.441   0.367 -0.4513 -0.2753  0.3221
 1754SOL    HW116895   4.216   3.476   0.398 -0.1740 -0.2163  1.0057
 1754SOL    HW216896   4.369   3.487   0.415  1.3640  0.2016 -2.7932
 1755SOL     OW16897   2.677   2.805   7.676  0.0685  0.2388 -0.0004
 1755SOL    HW116898   2.763   2.833   7.706 -0.2047  1.4664 -0.3795
 1755SOL    HW216899   2.693   2.807   7.582  0.4022  3.0655  0.1277
 1756SOL     OW16900   3.598   0.305   0.198  0.0979 -0.3890  0.3248
 1756SOL    HW116901   3.516   0.312   0.150  1.2590 -1.8284 -1.9064
 1756SOL    HW216902   3.623   0.222   0.158 -0.9225 -1.1737  1.3448
 1757SOL     OW16903   3.950   2.453  14.591  0.6271  0.3277  0.0174
 1757SOL    HW116904   3.893   2.376  14.594  0.2920  0.4699 -2.3240
 1757SOL    HW216905   4.006   2.431  14.516 -0.0713  0.2098 -0.4658
 1758SOL     OW16906   0.011   1.930  13.854 -0.2056  0.3926 -0.3059
 1758SOL    HW116907   0.069   1.871  13.806  1.9057  1.1421  1.3316
 1758SOL    HW216908   4.730   1.995  13.787  1.1624  1.3180  0.2054
 1759SOL     OW16909   2.077   0.348   1.142  0.1199 -0.0859 -0.5052
 1759SOL    HW116910   2.155   0.309   1.103  0.9044  0.8220  0.1793
 1759SOL    HW216911   2.083   0.309   1.230  2.8192  0.0421 -0.6401
 1760SOL     OW16912   4.231   0.755   4.724 -0.1586  0.2077  0.9335
 1760SOL    HW116913   4.313   0.789   4.760  0.7174  1.0729 -1.8816
 1760SOL    HW216914   4.258   0.761   4.633  1.3164 -3.5331  1.1199
 1761SOL     OW16915   4.225   1.093  12.288  0.0585 -0.1164 -0.4403
 1761SOL    HW116916   4.138   1.071  12.320 -0.2161  0.2628 -0.9266
 1761SOL    HW216917   4.247   1.154  12.358 -1.1060 -0.4857  0.2457
 1762SOL     OW16918   1.341   4.088   2.271 -0.1917  0.1175  0.3638
 1762SOL    HW116919   1.330   4.141   2.192  0.2129  0.9825  0.8834
 1762SOL    HW216920   1.424   4.130   2.296  0.8430 -2.2465  0.9430
 1763SOL     OW16921   4.624   1.976   5.283  0.2843 -0.3046  0.3029
 1763SOL    HW116922   4.558   2.015   5.341 -0.2939  1.1545 -1.3353
 1763SOL    HW216923   4.582   1.934   5.207  1.2648 -0.1154 -0.3379
 1764SOL     OW16924   2.921   3.660   2.010 -0.5704 -0.0704 -0.1235
 1764SOL    HW116925   2.839   3.707   2.019 -0.2792  0.2046  1.1191
 1764SOL    HW216926   2.899   3.578   1.965  0.1959 -0.0915 -0.4669
 1765SOL     OW16927   3.045   0.664   7.716  0.5038  0.3192  0.0545
 1765SOL    HW116928   3.034   0.572   7.693 -3.8126  0.5965  1.1096
 1765SOL    HW216929   3.141   0.669   7.719  0.5723 -0.2181 -1.4100
 1766SOL     OW16930   1.308   2.500   0.205  1.1693  0.3968 -0.1051
 1766SOL    HW116931   1.300   2.421   0.258  0.1773  1.5362  1.4563
 1766SOL    HW216932   1.224   2.507   0.160  1.8317 -0.6040 -1.4785
 1767SOL     OW16933   2.787   4.488   8.189  0.1569 -0.8570 -0.2131
 1767SOL    HW116934   2.796   4.561   8.250 -1.4097  0.2221 -1.2876
 1767SOL    HW216935   2.880   4.465   8.187 -0.5620 -3.5395 -2.4439
 1768SOL     OW16936   1.541   4.599   8.292 -0.7881 -0.3316  0.3338
 1768SOL    HW116937   1.616   4.553   8.330 -0.3745 -2.0785 -2.4946
 1768SOL    HW216938   1.482   4.611   8.366  1.4342 -0.3011  2.0734
 1769SOL     OW16939   3.808   4.254   8.841  0.9199 -0.5728  0.0722
 1769SOL    HW116940   3.881   4.209   8.799  0.5843 -0.3027 -0.7872
 1769SOL    HW216941   3.829   4.243   8.934  1.3320  0.1823  0.0691
 1770SOL     OW16942   4.329   1.942   2.964  0.1841 -0.4175 -0.1240
 1770SOL    HW116943   4.394   1.996   2.917 -0.3570 -1.2702 -1.8315
 1770SOL    HW216944   4.331   1.867   2.905 -0.3095  0.9702 -1.9272
 1771SOL     OW16945   4.578   3.484   2.033 -0.3595 -0.1524  0.2780
 1771SOL    HW116946   4.673   3.498   2.030 -0.3106 -0.9077 -1.4634
 1771SOL    HW216947   4.561   3.515   2.122  0.6006  0.1914  0.3502
 1772SOL     OW16948   3.199   0.373   9.931  0.2983 -0.5533 -0.2775
 1772SOL    HW116949   3.118   0.328   9.956 -0.2143  0.8222  0.5088
 1772SOL    HW216950   3.183   0.390   9.838  2.7575  0.3550 -0.5232
 1773SOL     OW16951   1.969   0.663   7.304  0.0958  0.3775 -0.2016
 1773SOL    HW116952   2.036   0.610   7.346 -1.5667 -1.0667  0.6304
 1773SOL    HW216953   1.894   0.626   7.350 -1.4379  0.0124 -2.9651
 1774SOL     OW16954   1.867   3.323   8.784 -0.0977 -0.5534  0.1997
 1774SOL    HW116955   1.910   3.311   8.699 -1.5031 -0.4077 -0.5194
 1774SOL    HW216956   1.851   3.230   8.801  2.1648 -0.7647  1.1693
 1775SOL     OW16957   4.574   0.263   9.261 -0.1488  0.4336  1.0628
 1775SOL    HW116958   4.616   0.336   9.307 -0.3536 -0.0814  2.0732
 1775SOL    HW216959   4.516   0.232   9.331 -1.0570  2.0410  1.0349
 1776SOL     OW16960   1.327   4.172   8.325  0.0882 -0.2555 -0.6249
 1776SOL    HW116961   1.422   4.178   8.313 -0.0735  0.8504 -1.3188
 1776SOL    HW216962   1.316   4.252   8.377  1.4068  0.6756 -1.7972
 1777SOL     OW16963   3.775   2.494   4.823 -0.3467 -0.4841  0.2940
 1777SOL    HW116964   3.720   2.564   4.787  1.8866  1.1060 -0.0668
 1777SOL    HW216965   3.862   2.515   4.789 -0.6622  0.1461 -0.1197
 1778SOL     OW16966   2.652   1.776   4.217 -0.7879  0.2260 -0.0847
 1778SOL    HW116967   2.698   1.699   4.250  0.2045  0.3756 -1.1359
 1778SOL    HW216968   2.686   1.842   4.276  0.2344  0.0469 -0.4855
 1779SOL     OW16969   0.965   0.338  15.368  0.2726 -0.2896 -0.0794
 1779SOL    HW116970   0.907   0.277  15.414  0.5138 -0.0241  0.5660
 1779SOL    HW216971   0.920   0.416  15.400  0.6485  0.2833 -0.9321
 1780SOL     OW16972   1.690   3.241   8.192 -0.8490  0.2520  0.0021
 1780SOL    HW116973   1.604   3.229   8.233 -0.4929 -0.2977  0.5728
 1780SOL    HW216974   1.662   3.273   8.106  2.0485 -0.6086 -1.2406
 1781SOL     OW16975   2.764   4.708   9.469 -0.7266  0.7718 -0.1334
 1781SOL    HW116976   2.673   4.725   9.446 -0.5541  1.6119 -0.1888
 1781SOL    HW216977   2.786   4.627   9.422 -2.0844 -0.7572  1.8625
 1782SOL     OW16978   4.687   3.927   5.821  0.2797  0.1747 -0.1509
 1782SOL    HW116979   4.694   3.912   5.916 -1.2707  1.9210  0.2235
 1782SOL    HW216980   0.033   3.969   5.804  0.3058 -0.7802 -2.3833
 1783SOL     OW16981   2.039   0.557   1.954  0.0809 -0.0643 -0.3052
 1783SOL    HW116982   2.132   0.564   1.933  0.1079 -1.1162 -0.5351
 1783SOL    HW216983   2.002   0.501   1.886 -0.0476  0.6742 -0.8444
 1784SOL     OW16984   3.250   4.446   4.788 -0.7697  0.6436 -0.7135
 1784SOL    HW116985   3.344   4.447   4.772 -0.7054 -2.0907 -0.4752
 1784SOL    HW216986   3.226   4.357   4.812  2.2469  0.0625  0.1412
 1785SOL     OW16987   0.480   0.351   1.591  0.1649  0.1741 -0.3147
 1785SOL    HW116988   0.414   0.416   1.617 -0.4942 -0.1447 -1.1996
 1785SOL    HW216989   0.495   0.375   1.500  1.9419 -2.3898 -0.6859
 1786SOL     OW16990   2.540   0.171   8.774  0.3462  0.2059 -0.3938
 1786SOL    HW116991   2.563   0.176   8.681  1.9332 -1.4383 -0.1043
 1786SOL    HW216992   2.511   0.261   8.791 -2.4892 -0.6176 -1.0530
 1787SOL     OW16993   1.225   4.539   5.101  0.2440  0.2897  0.0209
 1787SOL    HW116994   1.218   4.483   5.178 -1.5632  0.3617 -0.0864
 1787SOL    HW216995   1.187   4.622   5.130  1.7986  0.7296  0.8121
 1788SOL     OW16996   4.041   3.112  14.791 -0.3471  0.0986  0.7786
 1788SOL    HW116997   3.967   3.089  14.846  0.1169 -0.3002  1.2353
 1788SOL    HW216998   4.073   3.022  14.784 -0.2343  0.0201  2.3949
 1789SOL     OW16999   4.033   2.082   2.504  0.1203 -0.1662  0.5190
 1789SOL    HW117000   4.026   2.177   2.503 -2.2103 -0.3505 -0.8354
 1789SOL    HW217001   3.953   2.052   2.462  1.1409  0.4772 -1.8591
 1790SOL     OW17002   0.326   1.249   7.582  0.0953  0.4796 -0.2913
 1790SOL    HW117003   0.278   1.201   7.650  0.8672 -0.7521 -0.6419
 1790SOL    HW217004   0.261   1.273   7.516 -0.4070 -0.0388  0.0165
 1791SOL     OW17005   2.174   3.340   4.615  0.0919 -0.2564  0.5555
 1791SOL    HW117006   2.153   3.303   4.529 -0.7658  1.9441 -0.1781
 1791SOL    HW217007   2.187   3.432   4.591  1.6176 -1.5566 -3.6184
 1792SOL     OW17008   0.128   4.079   6.268  0.2048 -0.3353 -0.1624
 1792SOL    HW117009   0.068   4.145   6.303  1.8475  0.6071  0.8459
 1792SOL    HW217010   0.117   4.007   6.330  0.3362 -2.0662 -2.1486
 1793SOL     OW17011   1.246   0.912  17.167  0.2960 -0.7970  0.4346
 1793SOL    HW117012   1.280   0.985  17.217  1.0137 -2.4975  2.4015
 1793SOL    HW217013   1.151   0.910  17.177  0.0700 -0.4470 -1.5303
 1794SOL     OW17014   1.422   1.662   8.910  0.2294  0.8001 -0.3904
 1794SOL    HW117015   1.423   1.566   8.910 -2.7316  0.7527 -1.7480
 1794SOL    HW217016   1.353   1.689   8.971  1.6428  0.7441  1.2236
 1795SOL     OW17017   2.826   3.300  11.216  0.2593 -0.6336  0.0172
 1795SOL    HW117018   2.751   3.253  11.180  1.4603 -1.7637 -0.9920
 1795SOL    HW217019   2.793   3.331  11.300 -0.0017 -1.6592  0.3036
 1796SOL     OW17020   3.131   1.253  16.865  0.1530  0.1980 -0.0282
 1796SOL    HW117021   3.054   1.231  16.918  1.0626 -1.2266  0.6898
 1796SOL    HW217022   3.185   1.184  16.903  0.5509 -1.3273 -3.3078
 1797SOL     OW17023   0.469   3.260   4.468  0.2967 -0.3990  0.0168
 1797SOL    HW117024   0.520   3.180   4.475  1.4193  0.3737  0.6337
 1797SOL    HW217025   0.509   3.305   4.543 -0.8783  0.8670 -0.1078
 1798SOL     OW17026   0.118   2.875  11.871  0.3311 -0.0792  0.2294
 1798SOL    HW117027   0.201   2.922  11.880  0.6944 -0.6904  0.0918
 1798SOL    HW217028   0.065   2.940  11.916 -0.0421  1.1175 -1.9505
 1799SOL     OW17029   3.801   0.444   3.700  0.1392  0.1004  0.4901
 1799SOL    HW117030   3.830   0.358   3.669 -1.4155 -1.2326  2.6941
 1799SOL    HW217031   3.726   0.409   3.750 -0.5762  0.6316 -0.2092
 1800SOL     OW17032   4.264   3.159   1.741 -0.2264  0.2191  0.2826
 1800SOL    HW117033   4.286   3.244   1.701  1.0218  0.4465  1.4508
 1800SOL    HW217034   4.209   3.119   1.673  0.4128  0.8479 -0.6178
 1801SOL     OW17035   3.356   2.007   7.493  0.4385  0.4178 -0.4757
 1801SOL    HW117036   3.424   1.949   7.458  0.1507  0.1150 -0.5284
 1801SOL    HW217037   3.345   2.068   7.420  2.1129 -1.2088 -2.1055
 1802SOL     OW17038   3.211   4.714   9.492  0.7518  0.2646  0.2232
 1802SOL    HW117039   3.214   4.631   9.445  0.2710  1.2599 -1.5569
 1802SOL    HW217040   3.255   0.034   9.430  0.6439 -1.3296 -1.3327
 1803SOL     OW17041   3.846   4.281   9.192 -0.0799 -0.6940 -0.0131
 1803SOL    HW117042   3.785   4.209   9.179 -3.4844  2.4313 -1.3579
 1803SOL    HW217043   3.936   4.248   9.182 -0.2355 -0.3175 -2.6838
 1804SOL     OW17044   1.904   0.430   3.741 -0.1933 -0.5175  0.5352
 1804SOL    HW117045   1.855   0.384   3.672 -0.5475  0.2524  0.2749
 1804SOL    HW217046   1.986   0.382   3.751  0.4075 -0.0369 -2.1945
 1805SOL     OW17047   4.677   3.916   9.601 -0.4504  0.1934  0.1240
 1805SOL    HW117048   4.624   3.957   9.669  2.4038  2.5874  0.8932
 1805SOL    HW217049   4.611   3.873   9.547 -0.7747  0.9202 -0.0648
 1806SOL     OW17050   4.033   4.442   5.802  0.2462 -0.4274  0.4457
 1806SOL    HW117051   4.121   4.407   5.790  0.6355  1.0259 -0.9482
 1806SOL    HW217052   4.003   4.371   5.858 -3.0796  0.1249 -0.6783
 1807SOL     OW17053   0.894   1.336   6.191 -0.5250  0.3581  0.1576
 1807SOL    HW117054   0.856   1.274   6.253 -0.5432  1.6059  1.3876
 1807SOL    HW217055   0.868   1.299   6.106  0.3660 -0.5121  0.2590
 1808SOL     OW17056   0.324   4.053  17.578  0.1689  0.0306  0.4223
 1808SOL    HW117057   0.317   4.013  17.491 -2.1468  0.0607  0.5960
 1808SOL    HW217058   0.413   4.082  17.599  0.8333 -1.1751 -0.7007
 1809SOL     OW17059   2.379   2.895   9.874  0.1506 -0.2162  0.5027
 1809SOL    HW117060   2.431   2.815   9.872 -2.2150 -1.7608 -0.2736
 1809SOL    HW217061   2.309   2.863   9.932  0.5605 -0.4675  0.8548
 1810SOL     OW17062   2.883   4.452   5.591  0.0593 -0.4286 -0.3211
 1810SOL    HW117063   2.944   4.439   5.518 -1.6259 -0.6556 -1.6800
 1810SOL    HW217064   2.948   4.443   5.661  0.8439  0.0282 -0.9905
 1811SOL     OW17065   1.092   3.021  13.374 -0.1258 -0.0804 -0.7793
 1811SOL    HW117066   1.022   3.062  13.324 -0.3246 -1.9252 -1.9922
 1811SOL    HW217067   1.148   3.099  13.383 -3.8279  2.8016 -2.7147
 1812SOL     OW17068   1.766   2.801   4.584  0.6834  0.6286 -0.2594
 1812SOL    HW117069   1.830   2.766   4.522 -0.2087 -2.6584  0.7227
 1812SOL    HW217070   1.738   2.723   4.631 -1.1457  2.1048  1.0978
 1813SOL     OW17071   1.848   3.868   5.584  0.3245  0.1409 -0.0098
 1813SOL    HW117072   1.890   3.954   5.577  3.0885 -0.8176  4.9457
 1813SOL    HW217073   1.911   3.815   5.535  1.0639  1.8043 -0.8837
 1814SOL     OW17074   3.251   3.197   1.154 -0.2480 -0.1477 -0.1922
 1814SOL    HW117075   3.189   3.164   1.219 -0.4485 -2.2299 -1.4658
 1814SOL    HW217076   3.220   3.151   1.076  0.1392 -4.0334  1.9809
 1815SOL     OW17077   4.371   1.003  14.963  0.1117 -0.5096  0.1908
 1815SOL    HW117078   4.450   0.975  14.917  0.2813  0.1947  0.0449
 1815SOL    HW217079   4.384   1.096  14.944  0.5145 -0.9156 -1.4909
 1816SOL     OW17080   2.107   0.416   2.308 -0.1265 -0.1541  0.0929
 1816SOL    HW117081   2.079   0.503   2.280 -2.3448 -1.4555 -1.6819
 1816SOL    HW217082   2.188   0.401   2.258 -0.1120 -2.8458  0.9326
 1817SOL     OW17083   1.512   0.272  13.323  0.0377  0.3560  0.0555
 1817SOL    HW117084   1.479   0.300  13.408  0.2558 -1.5082  0.7497
 1817SOL    HW217085   1.596   0.313  13.305  0.5485 -0.2756  1.0123
 1818SOL     OW17086   0.546   2.721  10.974 -0.2231  0.1954  0.6957
 1818SOL    HW117087   0.547   2.815  10.989  1.9772  0.3659 -0.5227
 1818SOL    HW217088   0.469   2.692  11.023  0.5021  0.0686  1.7848
 1819SOL     OW17089   0.232   4.421   3.340 -0.3668  0.6895  0.2866
 1819SOL    HW117090   0.202   4.481   3.271 -0.7622 -2.3639 -2.1545
 1819SOL    HW217091   0.322   4.411   3.309 -1.2139 -0.1050 -1.9267
 1820SOL     OW17092   1.993   3.352   4.148 -0.3177  0.0299 -0.0280
 1820SOL    HW117093   1.925   3.363   4.214  2.2123 -0.1469  2.6083
 1820SOL    HW217094   1.947   3.384   4.070 -3.2889 -0.5888  1.4830
 1821SOL     OW17095   0.131   0.974   5.513 -0.0366 -0.3744  0.2378
 1821SOL    HW117096   0.147   0.880   5.511 -1.7900 -0.6870  0.5718
 1821SOL    HW217097   0.106   0.985   5.605  2.9254  0.8986  0.8940
 1822SOL     OW17098   1.439   2.549   9.748  0.8203  0.1834 -0.2848
 1822SOL    HW117099   1.384   2.478   9.714 -1.1384  1.9571 -0.7812
 1822SOL    HW217100   1.412   2.627   9.699  1.0740 -0.8327 -2.0633
 1823SOL     OW17101   0.017   0.856   5.934  0.0261  0.7470  0.1321
 1823SOL    HW117102   0.032   0.787   5.870 -1.2591 -0.4091  1.0813
 1823SOL    HW217103   4.702   0.919   5.887 -0.3845  0.8209  0.7043
 1824SOL     OW17104   2.070   4.171   6.362 -0.4790 -0.1453  0.8753
 1824SOL    HW117105   1.998   4.199   6.304 -2.6005 -1.4929  2.8379
 1824SOL    HW217106   2.043   4.079   6.366 -1.1366 -0.0839 -2.1464
 1825SOL     OW17107   1.155   1.358   3.467 -0.6119 -0.2808 -0.0161
 1825SOL    HW117108   1.116   1.283   3.422  1.6864 -0.8812 -1.0132
 1825SOL    HW217109   1.080   1.396   3.511 -0.1595 -1.0383  1.4162
 1826SOL     OW17110   2.524   2.800   6.249 -0.0578  0.4035  0.7363
 1826SOL    HW117111   2.471   2.819   6.172  2.8233  2.4125 -0.7230
 1826SOL    HW217112   2.537   2.706   6.238  0.5020  0.6009 -0.2715
 1827SOL     OW17113   3.005   2.739   4.127 -0.0372  0.0713  0.5615
 1827SOL    HW117114   2.955   2.767   4.204  0.3285  0.0562  0.8032
 1827SOL    HW217115   2.927   2.729   4.072 -0.7667  0.3913  1.5339
 1828SOL     OW17116   0.712   3.928   6.066  0.2374  0.0110  0.7309
 1828SOL    HW117117   0.683   3.943   6.156 -0.4276  1.0141  0.3484
 1828SOL    HW217118   0.737   3.837   6.085  1.6985 -0.0739 -1.5861
 1829SOL     OW17119   0.793   2.243  14.625  0.2769  0.0693  0.0577
 1829SOL    HW117120   0.842   2.243  14.707  0.5357  2.0925 -0.1193
 1829SOL    HW217121   0.769   2.150  14.617 -1.2574  0.4788 -0.0710
 1830SOL     OW17122   2.160   2.968   2.090  0.1919 -1.0354  0.2944
 1830SOL    HW117123   2.166   3.045   2.034 -2.0836 -1.5327 -0.6095
 1830SOL    HW217124   2.067   2.946   2.098 -0.2222  1.1517  1.4237
 1831SOL     OW17125   1.622   0.116   4.454 -0.6496 -0.0766  0.0094
 1831SOL    HW117126   1.679   0.046   4.486 -1.0729 -0.2140  0.4634
 1831SOL    HW217127   1.583   0.158   4.530 -0.8412 -1.8530  0.9067
 1832SOL     OW17128   2.710   0.242  13.745  0.1565  0.0427  0.7639
 1832SOL    HW117129   2.645   0.178  13.715 -0.0470  0.1600  0.9544
 1832SOL    HW217130   2.672   0.261  13.831 -2.7236  0.6429 -0.6477
 1833SOL     OW17131   1.509   3.426   5.912 -0.3129 -0.0018  0.4566
 1833SOL    HW117132   1.596   3.463   5.929  0.1597 -0.7121 -0.4057
 1833SOL    HW217133   1.497   3.444   5.819 -2.1991  0.5388  0.8116
 1834SOL     OW17134   1.301   4.265   6.816 -0.2541  0.3215  0.1600
 1834SOL    HW117135   1.295   4.360   6.812  1.0158  0.2508 -3.1330
 1834SOL    HW217136   1.210   4.239   6.800 -0.3744  0.5267  0.5145
 1835SOL     OW17137   1.520   1.949   0.380  0.0864 -0.1916 -0.0994
 1835SOL    HW117138   1.568   1.869   0.399  2.3804  1.0804 -0.5460
 1835SOL    HW217139   1.565   1.985   0.304  1.6151 -1.7497  0.0681
 1836SOL     OW17140   2.983   2.352  14.559  0.1368  0.0826 -0.2833
 1836SOL    HW117141   2.970   2.334  14.466 -0.3485 -0.3212 -0.1369
 1836SOL    HW217142   2.969   2.446  14.567 -1.6356 -0.2700  0.6906
 1837SOL     OW17143   3.648   3.853   5.668 -0.0239  0.2274  0.2214
 1837SOL    HW117144   3.564   3.851   5.714  0.8496 -1.1479  1.7526
 1837SOL    HW217145   3.627   3.799   5.592  1.4398 -0.1430  0.0808
 1838SOL     OW17146   4.289   4.637   7.554 -0.0823  0.3811 -0.3162
 1838SOL    HW117147   4.278   4.648   7.649  0.1387 -1.4448 -0.0734
 1838SOL    HW217148   4.259   4.546   7.557  0.4435  0.2595  1.8188
 1839SOL     OW17149   1.393   3.912   8.962  0.0552  0.2223  0.0749
 1839SOL    HW117150   1.433   3.948   9.041  1.3889 -0.5777 -0.2532
 1839SOL    HW217151   1.456   3.950   8.902 -1.5147  1.8383 -0.5714
 1840SOL     OW17152   2.352   3.092  10.552  0.2205 -0.2331  0.0446
 1840SOL    HW117153   2.376   3.038  10.476 -3.3233 -3.2674  1.0966
 1840SOL    HW217154   2.417   3.162  10.555  0.5397 -0.4148 -2.3122
 1841SOL     OW17155   3.430   3.480   4.529  0.2004 -0.5873  0.1190
 1841SOL    HW117156   3.524   3.491   4.546  0.4100 -2.4635  0.2566
 1841SOL    HW217157   3.387   3.565   4.532 -1.7694 -1.6300  1.8690
 1842SOL     OW17158   4.419   1.734  10.062  0.1186 -0.5932 -0.2338
 1842SOL    HW117159   4.466   1.816  10.049 -0.3120 -0.1589  1.0085
 1842SOL    HW217160   4.395   1.741  10.154  1.4548 -0.4626  0.1017
 1843SOL     OW17161   1.830   1.879  15.980  0.5412  0.5984  0.2099
 1843SOL    HW117162   1.803   1.803  16.030 -0.0471  0.3463 -0.4926
 1843SOL    HW217163   1.896   1.844  15.920  1.6322 -0.3787  1.9773
 1844SOL     OW17164   0.423   2.079   3.067 -0.7007 -0.2810  0.5482
 1844SOL    HW117165   0.485   2.128   3.120  0.5928  0.6063 -1.7982
 1844SOL    HW217166   0.346   2.134   3.079 -1.0386 -0.5836 -0.2230
 1845SOL     OW17167   0.237   1.942   2.311 -0.1586  0.2036 -0.0750
 1845SOL    HW117168   0.248   1.932   2.216 -0.0926  0.7476 -0.1261
 1845SOL    HW217169   0.143   1.928   2.315 -0.1533  0.0982 -0.3285
 1846SOL     OW17170   1.547   2.589   4.101 -0.5402  0.0154  0.2489
 1846SOL    HW117171   1.621   2.650   4.100 -0.1272 -0.4599  1.8316
 1846SOL    HW217172   1.535   2.567   4.009 -1.9874  2.2846 -0.1023
 1847SOL     OW17173   0.180   2.161   8.311 -0.2700  0.2778  0.1937
 1847SOL    HW117174   0.096   2.135   8.351  1.3926 -1.4898  2.5619
 1847SOL    HW217175   0.235   2.185   8.385 -0.9998  0.1146  0.7926
 1848SOL     OW17176   4.731   0.780   1.219  0.5143 -0.5134  0.1286
 1848SOL    HW117177   0.058   0.731   1.169 -1.5802 -0.2866 -2.8366
 1848SOL    HW217178   4.707   0.719   1.289 -1.1287 -0.4605 -0.3837
 1849SOL     OW17179   1.847   3.185   2.196  0.0189  0.0567  0.3944
 1849SOL    HW117180   1.898   3.119   2.148  2.6073  0.3288  2.7875
 1849SOL    HW217181   1.920   3.235   2.231  0.1006 -0.1222  0.4828
 1850SOL     OW17182   2.300   0.561   3.963  0.0668  0.7017  0.9211
 1850SOL    HW117183   2.312   0.471   3.994 -0.1898  0.4899  0.3957
 1850SOL    HW217184   2.224   0.554   3.906  0.8992 -0.7147 -0.0057
 1851SOL     OW17185   0.879   1.798   6.571 -0.0254  0.0276  0.1066
 1851SOL    HW117186   0.970   1.769   6.576  0.2347  0.9740  1.1305
 1851SOL    HW217187   0.855   1.748   6.494 -0.7510  0.9424 -0.2651
 1852SOL     OW17188   2.986   3.920   7.587  0.2009  0.3851  0.2962
 1852SOL    HW117189   2.980   3.953   7.497  0.2784  0.4937  0.3312
 1852SOL    HW217190   2.904   3.959   7.619  1.0086 -0.0165  2.8089
 1853SOL     OW17191   4.152   2.160   6.466  0.3250  0.1003  0.6740
 1853SOL    HW117192   4.126   2.101   6.395 -1.0858  0.1124  1.1771
 1853SOL    HW217193   4.222   2.211   6.425 -0.9662  1.8152  0.5855
 1854SOL     OW17194   3.272   4.086   3.660 -0.3404  0.0077  0.2336
 1854SOL    HW117195   3.342   4.135   3.617 -0.2988 -0.9247 -0.7422
 1854SOL    HW217196   3.209   4.153   3.685  0.2087 -0.1944  2.2028
 1855SOL     OW17197   3.309   2.966   3.804  0.4698 -0.5618 -0.1557
 1855SOL    HW117198   3.227   3.015   3.812  0.4315 -0.4405 -1.3061
 1855SOL    HW217199   3.364   3.041   3.827  0.4664 -0.3474 -0.8231
 1856SOL     OW17200   1.860   4.097   1.871 -0.4357 -0.2181  0.7104
 1856SOL    HW117201   1.910   4.021   1.842  0.3801  1.8161 -3.2274
 1856SOL    HW217202   1.908   4.114   1.952  1.4896 -0.9060 -0.2832
 1857SOL     OW17203   3.144   2.614   3.533  0.3430  0.1713 -0.2816
 1857SOL    HW117204   3.088   2.540   3.558  0.4568 -0.3828 -1.7139
 1857SOL    HW217205   3.101   2.689   3.576 -1.3963 -2.4606  2.6186
 1858SOL     OW17206   1.305   1.790  11.958 -0.1625 -0.7508  0.2765
 1858SOL    HW117207   1.278   1.741  11.880 -0.6712  0.3685 -0.2430
 1858SOL    HW217208   1.338   1.713  12.005 -0.5318  0.8121  3.0416
 1859SOL     OW17209   0.948   2.061   3.821  0.4477 -0.0937 -0.1355
 1859SOL    HW117210   1.011   1.989   3.814  0.0443 -0.2185 -2.3461
 1859SOL    HW217211   1.004   2.138   3.824  0.1501  0.1236 -0.1538
 1860SOL     OW17212   0.550   3.365   2.157 -0.0990 -1.2142 -0.1400
 1860SOL    HW117213   0.521   3.349   2.246 -0.3514  0.1493  0.0079
 1860SOL    HW217214   0.640   3.330   2.152 -0.0002 -1.0810  0.7457
 1861SOL     OW17215   0.272   0.498   7.070  0.1199 -0.1394 -0.3265
 1861SOL    HW117216   0.347   0.537   7.116 -1.3144  1.0566  1.0093
 1861SOL    HW217217   0.199   0.551   7.101  1.2490  0.8668  0.6697
 1862SOL     OW17218   1.989   1.992  12.361 -0.3454  0.0427 -0.3468
 1862SOL    HW117219   2.065   1.992  12.419 -1.0612 -0.3512  0.5890
 1862SOL    HW217220   2.011   1.924  12.298  1.8236  0.0691  0.4063
 1863SOL     OW17221   3.912   2.975  11.205  0.2630 -0.3067 -0.2856
 1863SOL    HW117222   3.911   2.880  11.198  0.3458 -0.3751  0.6029
 1863SOL    HW217223   3.824   2.976  11.241  0.9538  2.3752  1.3373
 1864SOL     OW17224   1.432   2.493   3.870  0.2971  0.0885  0.3735
 1864SOL    HW117225   1.494   2.519   3.802  1.2032  0.2593  1.2658
 1864SOL    HW217226   1.347   2.496   3.826  0.0845 -1.2393  0.6788
 1865SOL     OW17227   4.553   3.970   5.596  0.4375  0.1106  0.1840
 1865SOL    HW117228   4.547   4.064   5.577 -1.1827  0.2895  1.6050
 1865SOL    HW217229   4.614   3.968   5.669  0.4450  2.2137  0.2280
 1866SOL     OW17230   0.160   3.412   2.919  0.0336 -0.1858 -0.1337
 1866SOL    HW117231   0.157   3.411   3.014 -1.3573  0.9252 -0.1615
 1866SOL    HW217232   0.123   3.332   2.882 -0.9461  0.0169  0.4136
 1867SOL     OW17233   1.749   1.708   7.241 -0.5787 -0.3231  0.2349
 1867SOL    HW117234   1.717   1.618   7.240 -0.7945 -0.2452  0.0609
 1867SOL    HW217235   1.741   1.727   7.147 -1.9274  0.8348  0.5756
 1868SOL     OW17236   1.683   4.384   8.080  0.1551 -0.2420  0.1606
 1868SOL    HW117237   1.719   4.398   8.168 -0.4840  0.6439  0.2805
 1868SOL    HW217238   1.742   4.318   8.043 -0.9616  0.6578 -3.1481
 1869SOL     OW17239   4.058   1.984   5.155  0.3120 -0.6910  0.3910
 1869SOL    HW117240   4.009   1.907   5.185  1.0779 -0.4170  2.3660
 1869SOL    HW217241   4.047   1.973   5.061  5.3362  0.7257 -0.3288
 1870SOL     OW17242   3.802   1.121   4.743 -0.1307 -0.5985  0.7708
 1870SOL    HW117243   3.889   1.085   4.764 -0.9390 -0.9239  3.6529
 1870SOL    HW217244   3.784   1.163   4.827  1.4947 -1.5631  1.6113
 1871SOL     OW17245   2.091   0.672  17.563  0.4922 -0.3098  0.2652
 1871SOL    HW117246   2.109   0.755  17.608 -2.8388 -0.2182  1.3831
 1871SOL    HW217247   2.035   0.705  17.493 -0.2319 -1.7733  0.1608
 1872SOL     OW17248   2.298   0.519  14.899  0.8362  0.1985 -0.4937
 1872SOL    HW117249   2.355   0.497  14.972  0.9485 -1.5500 -1.1270
 1872SOL    HW217250   2.293   0.615  14.890  0.2213 -0.1209 -3.6116
 1873SOL     OW17251   3.681   1.006  17.315 -0.7752 -0.0671  0.0727
 1873SOL    HW117252   3.631   1.086  17.298 -3.4699 -1.8028 -0.1099
 1873SOL    HW217253   3.748   1.021  17.249 -1.0183 -1.4250 -0.4700
 1874SOL     OW17254   1.087   1.635   2.745 -0.6558  0.2037  0.5351
 1874SOL    HW117255   1.097   1.707   2.684 -1.5151  0.2148  0.4047
 1874SOL    HW217256   1.025   1.670   2.809  0.2214  1.3945  0.7409
 1875SOL     OW17257   2.331   0.589   2.506 -0.5209 -0.4793 -0.2407
 1875SOL    HW117258   2.393   0.650   2.465  0.7662 -1.5442  0.1349
 1875SOL    HW217259   2.248   0.638   2.502  0.9993  2.0154 -0.8869
 1876SOL     OW17260   3.438   0.025  11.202  0.2497 -0.2236  0.1797
 1876SOL    HW117261   3.345   0.049  11.212  0.5086  1.5219 -1.6142
 1876SOL    HW217262   3.472   0.114  11.211  0.9372 -0.4536 -0.1680
 1877SOL     OW17263   0.108   3.397   1.355 -0.1843  0.2071 -0.2659
 1877SOL    HW117264   0.108   3.448   1.274 -0.0696 -0.5913 -0.7575
 1877SOL    HW217265   0.197   3.364   1.344 -0.4747 -0.3113 -1.0025
 1878SOL     OW17266   0.663   4.424  11.932  0.4888 -0.1660  0.1272
 1878SOL    HW117267   0.669   4.352  11.994 -2.9603 -1.0685 -0.5594
 1878SOL    HW217268   0.624   4.491  11.990 -0.1106 -0.1651 -0.2780
 1879SOL     OW17269   2.513   3.731   8.373 -0.2014 -0.0728 -0.5803
 1879SOL    HW117270   2.552   3.659   8.324  1.9769  0.4188  0.4249
 1879SOL    HW217271   2.492   3.685   8.455 -2.8156 -0.2531 -1.3514
 1880SOL     OW17272   2.397   2.150   9.279 -0.4884  0.9629  0.4027
 1880SOL    HW117273   2.331   2.100   9.231  0.3578 -0.2097  0.4669
 1880SOL    HW217274   2.418   2.090   9.351  0.9390  2.3372  1.1504
 1881SOL     OW17275   2.906   2.880   7.031 -0.5481  0.3767  0.2060
 1881SOL    HW117276   2.979   2.828   7.065  0.3374 -0.3861 -2.9083
 1881SOL    HW217277   2.956   2.916   6.958  1.2833  0.6681  1.5774
 1882SOL     OW17278   2.770   0.105  11.566  0.0511  0.2841  0.3379
 1882SOL    HW117279   2.721   0.051  11.503  0.6445  0.2367 -0.0813
 1882SOL    HW217280   2.753   0.194  11.537 -2.6169 -0.0510  0.8034
 1883SOL     OW17281   1.722   0.903   7.603 -0.4371  0.2523 -0.0429
 1883SOL    HW117282   1.731   0.809   7.614 -0.2126 -0.2229 -4.2774
 1883SOL    HW217283   1.814   0.916   7.582 -1.3465  3.8767 -1.7222
 1884SOL     OW17284   2.386   4.728   2.917  0.4003 -0.2886 -0.2017
 1884SOL    HW117285   2.445   0.013   2.845  0.3571 -0.2530 -0.2249
 1884SOL    HW217286   2.429   0.037   2.989 -0.3522  0.7404 -0.4283
 1885SOL     OW17287   4.535   2.928  12.058 -0.4045  0.0775 -0.4367
 1885SOL    HW117288   4.477   2.971  11.996  0.1489  0.1231 -0.9216
 1885SOL    HW217289   4.523   2.835  12.038 -0.4092  0.2079 -1.0334
 1886SOL     OW17290   0.799   0.323   6.999 -0.0393 -0.3713 -0.4869
 1886SOL    HW117291   0.840   0.391   7.052 -0.3454 -0.4535 -0.1401
 1886SOL    HW217292   0.864   0.313   6.930  0.9633 -3.2541  0.8780
 1887SOL     OW17293   2.167   3.915  17.272 -0.1277 -0.0456  0.5247
 1887SOL    HW117294   2.101   3.846  17.267  0.9937 -1.2087  1.7115
 1887SOL    HW217295   2.133   3.965  17.346  1.7310  0.5735  0.9618
 1888SOL     OW17296   4.378   1.655   5.767  0.0197 -0.6055  0.0729
 1888SOL    HW117297   4.381   1.587   5.835 -2.0062 -2.8787 -2.1020
 1888SOL    HW217298   4.290   1.688   5.783  0.4059  1.0621 -1.2936
 1889SOL     OW17299   1.443   3.228  17.480  0.3313 -0.3481  0.0392
 1889SOL    HW117300   1.379   3.157  17.489  0.6525 -0.9512 -2.6154
 1889SOL    HW217301   1.519   3.197  17.530 -0.3743 -1.7249  0.2738
 1890SOL     OW17302   1.086   2.408   5.242 -0.0425 -0.1611 -0.1426
 1890SOL    HW117303   1.108   2.453   5.323 -0.9991  0.2479 -0.1174
 1890SOL    HW217304   0.994   2.389   5.259 -0.7981  1.6292 -2.2953
 1891SOL     OW17305   4.468   2.021   3.662 -0.2661  0.0843  0.1361
 1891SOL    HW117306   4.524   2.009   3.585  3.2704 -1.0706  2.9177
 1891SOL    HW217307   4.405   1.949   3.658 -1.0065  0.5773  2.9818
 1892SOL     OW17308   0.764   1.559  13.537  0.0697 -0.2336  0.4695
 1892SOL    HW117309   0.826   1.606  13.480 -0.3671 -0.3120 -0.0708
 1892SOL    HW217310   0.815   1.483  13.565  1.8102 -0.1550 -2.4949
 1893SOL     OW17311   0.719   3.521  17.515 -0.2516  0.8161 -0.1198
 1893SOL    HW117312   0.663   3.598  17.501 -0.9352  0.0561 -1.5722
 1893SOL    HW217313   0.722   3.521  17.611 -3.2572 -0.2031 -0.0243
 1894SOL     OW17314   0.375   2.427   0.121  0.0521  0.2251 -0.3737
 1894SOL    HW117315   0.346   2.437   0.030 -0.1615  1.4031 -0.1716
 1894SOL    HW217316   0.376   2.516   0.154 -0.6421  0.6423 -1.4653
 1895SOL     OW17317   0.193   1.996   7.630 -0.0535 -0.1996  0.6563
 1895SOL    HW117318   0.254   2.022   7.699  1.7544 -1.4890 -0.4452
 1895SOL    HW217319   0.242   1.917   7.607  0.6180  0.0974  1.0567
 1896SOL     OW17320   3.011   4.338   7.745 -0.2680  0.5178  0.2587
 1896SOL    HW117321   3.065   4.409   7.780  1.3300 -0.1053 -1.0114
 1896SOL    HW217322   3.035   4.346   7.653  1.5504 -1.0798  0.6143
 1897SOL     OW17323   3.077   4.188  13.596 -0.4166 -0.1102  0.5905
 1897SOL    HW117324   3.024   4.143  13.531 -1.0979 -2.7835  3.0161
 1897SOL    HW217325   3.166   4.179  13.561 -1.1538 -2.7618 -0.6055
 1898SOL     OW17326   0.208   2.144   5.569  0.3966  0.2492  0.2763
 1898SOL    HW117327   0.139   2.078   5.576  3.1364 -2.6562  0.2382
 1898SOL    HW217328   0.268   2.100   5.630 -0.6735 -1.0555  0.3917
 1899SOL     OW17329   3.283   1.422   1.592  0.4967 -0.3690 -0.2670
 1899SOL    HW117330   3.307   1.508   1.558  0.3480  0.3367  1.4164
 1899SOL    HW217331   3.229   1.389   1.520  1.2357  0.8962 -1.4043
 1900SOL     OW17332   3.763   3.852   8.812 -0.1249  0.0139  0.1262
 1900SOL    HW117333   3.676   3.860   8.853  0.7739  0.3963  1.9913
 1900SOL    HW217334   3.746   3.872   8.720  0.5284  1.7674  0.3813
 1901SOL     OW17335   3.079   4.618  13.510  0.1338 -0.1718 -0.2637
 1901SOL    HW117336   3.056   4.705  13.476 -2.0355 -0.4984  0.3690
 1901SOL    HW217337   3.171   4.624  13.537 -0.5855 -0.5946  2.3311
 1902SOL     OW17338   1.892   1.761  17.189 -0.0203  0.3922  0.5968
 1902SOL    HW117339   1.838   1.800  17.258 -1.9576 -1.6139  0.1919
 1902SOL    HW217340   1.973   1.762  17.241  0.9457 -0.4503 -0.9059
 1903SOL     OW17341   3.497   2.877   7.422  0.2520 -0.2647  0.0000
 1903SOL    HW117342   3.547   2.830   7.488  0.0943  0.5200  0.6672
 1903SOL    HW217343   3.560   2.896   7.352  0.3770  0.4587  0.3087
 1904SOL     OW17344   2.278   1.659   4.864 -0.0231  0.1584 -0.8427
 1904SOL    HW117345   2.338   1.595   4.826 -0.5677 -1.0860  0.4097
 1904SOL    HW217346   2.230   1.682   4.785 -0.4605 -0.9130 -0.8901
 1905SOL     OW17347   0.279   2.089   7.879 -0.1106  0.3096 -0.2882
 1905SOL    HW117348   0.247   2.063   7.965 -0.3434 -0.0887 -0.4947
 1905SOL    HW217349   0.268   2.183   7.892  1.5338  0.5152 -0.4204
 1906SOL     OW17350   4.549   0.482   7.232 -0.4432  0.8041  0.3858
 1906SOL    HW117351   4.503   0.402   7.207 -0.6745  0.7474  0.9738
 1906SOL    HW217352   4.641   0.462   7.221 -0.6959 -0.0339 -0.1794
 1907SOL     OW17353   3.461   4.716   3.562 -0.3625  0.7306  0.2984
 1907SOL    HW117354   3.405   0.046   3.600  1.1150 -0.5999  4.8214
 1907SOL    HW217355   3.415   4.633   3.568  0.4283  0.2749  0.0279
 1908SOL     OW17356   2.280   0.314  12.779  0.4784  0.0018  0.2833
 1908SOL    HW117357   2.318   0.235  12.817 -1.6294 -1.0867  0.1096
 1908SOL    HW217358   2.243   0.342  12.863 -2.2256 -1.1126 -0.5626
 1909SOL     OW17359   2.125   1.426  14.071 -0.7081  0.1770 -0.1318
 1909SOL    HW117360   2.197   1.457  14.016  0.5877 -0.6259  1.1189
 1909SOL    HW217361   2.083   1.512  14.074 -0.3187  0.3519  0.2400
 1910SOL     OW17362   3.666   0.292   8.915 -0.7203 -0.0827 -0.0124
 1910SOL    HW117363   3.610   0.294   8.993 -0.3520  1.7854  0.2148
 1910SOL    HW217364   3.605   0.323   8.849 -0.0483  5.1061  1.8023
 1911SOL     OW17365   4.637   3.168   1.610  0.6501 -0.2203 -0.5265
 1911SOL    HW117366   4.546   3.191   1.588  0.8887  2.3865  1.2581
 1911SOL    HW217367   4.659   3.087   1.564 -0.2368  0.6608 -2.5168
 1912SOL     OW17368   2.348   0.194  14.165 -0.3551  0.5137 -0.2739
 1912SOL    HW117369   2.363   0.288  14.156 -0.3928  0.4585 -0.8640
 1912SOL    HW217370   2.434   0.157  14.184 -0.7661  0.7595  2.1551
 1913SOL     OW17371   2.461   1.271   3.411  0.2117  0.0295 -0.4547
 1913SOL    HW117372   2.373   1.303   3.392 -0.5268 -0.2523  2.4762
 1913SOL    HW217373   2.453   1.177   3.396 -1.4170  0.2987 -1.2840
 1914SOL     OW17374   0.534   4.253   2.586  0.2000  0.3013  0.7587
 1914SOL    HW117375   0.461   4.196   2.612  1.1409 -0.9951  0.5915
 1914SOL    HW217376   0.528   4.244   2.491  1.5243 -0.5787  0.7505
 1915SOL     OW17377   2.966   4.309   8.421  0.5594  0.1786  0.4404
 1915SOL    HW117378   2.995   4.344   8.337 -0.4647  1.1092  0.4768
 1915SOL    HW217379   3.051   4.282   8.455 -0.4899 -1.3610  1.8660
 1916SOL     OW17380   0.591   4.482  15.254  0.6179 -0.3678  0.3967
 1916SOL    HW117381   0.530   4.541  15.298  0.1020 -0.3225 -0.3687
 1916SOL    HW217382   0.655   4.541  15.214  0.7201 -0.2503  0.7356
 1917SOL     OW17383   0.506   2.790   2.678  0.1070  0.0162  0.3366
 1917SOL    HW117384   0.548   2.863   2.723 -0.0603  0.2550  0.1044
 1917SOL    HW217385   0.412   2.802   2.694  0.0708  1.4197 -0.9026
 1918SOL     OW17386   3.044   2.959  15.021 -0.4667  0.4921  0.1437
 1918SOL    HW117387   3.083   2.889  15.074  1.0240  1.3216  0.1559
 1918SOL    HW217388   3.058   3.040  15.069  1.4848  0.5385 -0.4894
 1919SOL     OW17389   1.711   3.708  17.095 -0.5615  0.3552 -0.3361
 1919SOL    HW117390   1.623   3.741  17.114 -0.7933 -0.9280  0.7675
 1919SOL    HW217391   1.720   3.656  17.175 -1.7498  0.6286 -0.0154
 1920SOL     OW17392   3.636   3.990  16.782  0.3453 -0.7681  0.0311
 1920SOL    HW117393   3.554   3.942  16.778 -0.4888  0.5407  1.5207
 1920SOL    HW217394   3.600   4.078  16.779 -1.4209 -1.4711  1.1783
 1921SOL     OW17395   3.322   4.694   6.353 -0.4244 -0.0337  0.1037
 1921SOL    HW117396   3.246   4.659   6.308 -0.0797 -2.2417  1.2292
 1921SOL    HW217397   3.351   4.617   6.403 -1.4102 -1.3191 -1.3116
 1922SOL     OW17398   3.060   2.172   4.981  0.1375  0.3775 -0.5255
 1922SOL    HW117399   3.052   2.197   4.889 -1.5906  0.1489 -0.4413
 1922SOL    HW217400   3.021   2.252   5.016 -0.8127  0.9885 -2.9990
 1923SOL     OW17401   0.662   4.610   7.276 -0.5021  0.0956  0.0872
 1923SOL    HW117402   0.731   4.674   7.257  0.4985 -0.3696  2.1025
 1923SOL    HW217403   0.701   4.528   7.245  1.2455  0.0848  2.2733
 1924SOL     OW17404   2.627   2.448   1.250 -0.4730  0.4746  0.4110
 1924SOL    HW117405   2.600   2.496   1.172 -0.8185  0.9045  0.7928
 1924SOL    HW217406   2.690   2.509   1.289  0.8168 -0.3331 -0.4017
 1925SOL     OW17407   4.470   2.824   4.224  0.1391 -0.1633  0.5647
 1925SOL    HW117408   4.402   2.756   4.222  1.6477 -1.6797  0.4441
 1925SOL    HW217409   4.473   2.848   4.132 -2.2427  0.2542  0.5913
 1926SOL     OW17410   4.571   4.388  11.215 -0.4085  0.4779  0.1515
 1926SOL    HW117411   4.516   4.465  11.203  1.4944  1.6744 -0.8854
 1926SOL    HW217412   4.638   4.401  11.147 -2.2687  3.0989 -1.1622
 1927SOL     OW17413   3.679   4.403  12.070 -0.1309  0.0694  0.1659
 1927SOL    HW117414   3.599   4.367  12.032 -0.8483  0.0257  1.7287
 1927SOL    HW217415   3.646   4.463  12.136  0.0209 -0.5198  0.7763
 1928SOL     OW17416   1.812   1.077   3.159 -0.0231 -0.2659  0.1208
 1928SOL    HW117417   1.826   1.152   3.218 -2.3266  1.6704 -1.7832
 1928SOL    HW217418   1.898   1.058   3.123 -1.0978 -1.4189 -1.8086
 1929SOL     OW17419   3.600   0.847   3.256  0.0570  0.4023  0.3310
 1929SOL    HW117420   3.518   0.820   3.296  0.1651 -2.7760 -1.5878
 1929SOL    HW217421   3.571   0.929   3.215 -0.4061 -0.9425 -2.0730
 1930SOL     OW17422   3.757   1.489   8.605  0.5838  0.0921  0.0041
 1930SOL    HW117423   3.845   1.453   8.603  0.5101 -0.0817 -0.1108
 1930SOL    HW217424   3.712   1.456   8.528  1.0463  0.5099 -0.4451
 1931SOL     OW17425   3.571   4.000  17.537  0.0181 -0.7771  0.5812
 1931SOL    HW117426   3.532   4.083  17.565  0.8472  0.7145 -2.6853
 1931SOL    HW217427   3.621   4.025  17.459 -2.8482  0.4791 -0.8549
 1932SOL     OW17428   3.280   2.559   8.095  1.0979 -0.3078  0.0536
 1932SOL    HW117429   3.259   2.641   8.050 -3.8035 -0.8874  1.2044
 1932SOL    HW217430   3.334   2.518   8.028  3.5176  2.1104  0.5102
 1933SOL     OW17431   0.223   2.740   8.105 -0.3716  0.1046 -0.4527
 1933SOL    HW117432   0.265   2.655   8.095 -0.9280 -0.5295  2.4941
 1933SOL    HW217433   0.267   2.789   8.036 -1.1409  0.8344 -0.4317
 1934SOL     OW17434   1.220   3.021  17.103 -0.5116  0.0796  0.1560
 1934SOL    HW117435   1.297   3.076  17.116  0.3490 -1.1425  0.2458
 1934SOL    HW217436   1.153   3.085  17.076  0.0359  0.5568 -0.0640
 1935SOL     OW17437   0.791   2.263   8.260  0.2605  0.0834 -0.2119
 1935SOL    HW117438   0.727   2.210   8.212  1.2150 -0.0003 -1.3964
 1935SOL    HW217439   0.739   2.309   8.326 -0.1476 -0.1186 -0.3923
 1936SOL     OW17440   2.822   4.267   2.610 -0.5688 -0.0511 -0.2518
 1936SOL    HW117441   2.890   4.300   2.552  0.2719  0.3852  0.9902
 1936SOL    HW217442   2.778   4.351   2.623  0.9091  0.6548  0.1950
 1937SOL     OW17443   2.126   0.969   7.966 -0.0539 -0.3705  0.3276
 1937SOL    HW117444   2.052   0.926   7.923  0.0683 -1.0753  0.8093
 1937SOL    HW217445   2.132   0.919   8.047  0.9548 -1.7830 -0.6167
 1938SOL     OW17446   1.695   3.752   4.642 -0.0079 -0.0752 -0.2188
 1938SOL    HW117447   1.637   3.678   4.658 -0.6395  0.5749  0.5146
 1938SOL    HW217448   1.652   3.809   4.707  1.8146  0.5447  0.4639
 1939SOL     OW17449   2.114   0.944   6.491 -0.4777  0.1722  0.2515
 1939SOL    HW117450   2.070   0.870   6.533  0.3069 -0.8230 -0.6436
 1939SOL    HW217451   2.205   0.913   6.487 -0.4173  0.4444 -0.4974
 1940SOL     OW17452   0.030   1.067   2.740  0.1269  0.6048 -0.1812
 1940SOL    HW117453   0.029   1.081   2.834  0.6735 -0.9213  0.0530
 1940SOL    HW217454   0.109   1.117   2.722  1.5326 -1.6681 -0.2963
 1941SOL     OW17455   1.402   2.998   0.978  0.3828 -0.0146  0.2404
 1941SOL    HW117456   1.486   3.010   0.934 -0.0809 -0.4078 -0.7526
 1941SOL    HW217457   1.431   2.982   1.068  0.0393  0.1131  0.3735
 1942SOL     OW17458   3.077   0.662   8.063  0.8021  0.1508 -0.5904
 1942SOL    HW117459   3.126   0.680   8.143  0.0506  0.4327 -0.1990
 1942SOL    HW217460   3.142   0.605   8.021 -0.9719 -1.2160 -1.4967
 1943SOL     OW17461   2.496   3.656  15.489 -0.0206 -0.2383 -0.0437
 1943SOL    HW117462   2.428   3.717  15.516 -0.6185 -0.7650 -0.3562
 1943SOL    HW217463   2.576   3.694  15.526  0.4892 -0.6776 -0.6906
 1944SOL     OW17464   3.925   3.871   8.091  0.0297 -0.0344 -0.4804
 1944SOL    HW117465   3.933   3.935   8.021  2.0973 -0.1880 -0.3798
 1944SOL    HW217466   3.958   3.793   8.045 -0.8047 -0.1448 -0.8875
 1945SOL     OW17467   1.049   0.373   0.824  0.1567 -0.3307 -0.0783
 1945SOL    HW117468   1.139   0.341   0.817 -0.9492 -3.0370 -1.8993
 1945SOL    HW217469   1.052   0.468   0.812  0.2879 -0.1185  1.5914
 1946SOL     OW17470   1.726   2.478   7.078 -0.4584  0.7033 -0.0450
 1946SOL    HW117471   1.689   2.540   7.015 -0.9485  0.0030 -0.4492
 1946SOL    HW217472   1.798   2.532   7.112 -0.4522  1.0817 -0.6617
 1947SOL     OW17473   3.956   4.538  10.852 -0.3188 -0.1359 -0.0355
 1947SOL    HW117474   3.976   4.448  10.827 -0.5824 -0.0211 -0.6581
 1947SOL    HW217475   3.864   4.538  10.880 -0.2310 -1.2154  0.2396
 1948SOL     OW17476   2.757   4.075   3.485  0.1955 -0.0953 -0.2025
 1948SOL    HW117477   2.665   4.089   3.465 -0.4045 -1.3000  1.7334
 1948SOL    HW217478   2.790   4.036   3.404 -0.3744  0.4807 -0.7080
 1949SOL     OW17479   3.506   4.175   7.889  0.0128 -0.1769 -0.2577
 1949SOL    HW117480   3.416   4.154   7.863 -0.4358  0.6765  0.6036
 1949SOL    HW217481   3.509   4.270   7.902 -1.1143 -0.0060 -1.2080
 1950SOL     OW17482   0.866   4.379   2.154  1.1352 -0.1321  0.7391
 1950SOL    HW117483   0.904   4.327   2.083 -0.5384 -0.5331  0.1474
 1950SOL    HW217484   0.848   4.461   2.109 -2.0584  0.0978  2.4766
 1951SOL     OW17485   3.279   3.140   7.722  0.2428  0.6176  0.0498
 1951SOL    HW117486   3.209   3.189   7.764 -0.5827 -0.5922  0.0796
 1951SOL    HW217487   3.245   3.064   7.675 -0.1790  2.6018 -2.8639
 1952SOL     OW17488   2.715   0.809  12.181  0.4030  0.1689 -0.3376
 1952SOL    HW117489   2.795   0.781  12.136  1.8225  1.9819  1.0916
 1952SOL    HW217490   2.737   0.796  12.273 -1.3411 -0.6347 -0.0286
 1953SOL     OW17491   3.597   3.587   6.603  0.2254  0.3024 -0.1910
 1953SOL    HW117492   3.626   3.578   6.512 -4.7841  0.7070 -1.8335
 1953SOL    HW217493   3.504   3.569   6.591  0.3659 -1.2782  1.1110
 1954SOL     OW17494   3.727   3.333   0.471 -0.2540  0.0332 -0.1893
 1954SOL    HW117495   3.739   3.357   0.563 -3.3874 -0.9825  0.4987
 1954SOL    HW217496   3.668   3.402   0.441 -0.7134 -1.5705 -3.0001
 1955SOL     OW17497   2.825   1.970   4.928  0.1260  0.3001  0.0341
 1955SOL    HW117498   2.783   1.963   5.014  1.2504 -1.4480  0.4611
 1955SOL    HW217499   2.899   2.027   4.948  2.1484 -2.6972  1.2256
 1956SOL     OW17500   1.001   1.177   3.341  0.0295  0.0922 -0.7581
 1956SOL    HW117501   0.965   1.101   3.387 -1.6986  2.2828  1.5666
 1956SOL    HW217502   0.957   1.174   3.256 -3.4523 -3.2635  1.1464
 1957SOL     OW17503   1.529   3.780   1.608 -0.4564 -0.2381  0.4583
 1957SOL    HW117504   1.517   3.685   1.607  0.8387 -0.4463  2.8769
 1957SOL    HW217505   1.625   3.785   1.612 -0.4976 -1.2088  2.7034
 1958SOL     OW17506   2.617   3.474   6.707 -0.0868  0.0149 -0.2402
 1958SOL    HW117507   2.703   3.435   6.722  0.1744  0.9785  0.7578
 1958SOL    HW217508   2.603   3.439   6.619  1.1334 -2.5873  0.5899
 1959SOL     OW17509   0.099   0.351   6.098  0.1484  0.3256  0.3440
 1959SOL    HW117510   0.066   0.271   6.057 -0.4954  1.2185 -0.8788
 1959SOL    HW217511   0.120   0.409   6.025 -1.3860 -0.0712 -0.4234
 1960SOL     OW17512   3.121   1.498   8.299 -0.4383 -0.1642 -0.7063
 1960SOL    HW117513   3.094   1.454   8.380  2.1006 -2.1733 -0.9613
 1960SOL    HW217514   3.062   1.572   8.287 -0.2831 -0.2199 -1.8060
 1961SOL     OW17515   1.255   3.176   3.073  0.1641 -0.1958 -0.4556
 1961SOL    HW117516   1.254   3.270   3.091 -0.2046 -0.3107  0.1143
 1961SOL    HW217517   1.163   3.151   3.080  0.3914 -1.1289 -0.7900
 1962SOL     OW17518   1.703   1.247   3.460  0.1855 -0.1961 -0.5380
 1962SOL    HW117519   1.671   1.282   3.377 -0.7629  1.3173  0.4642
 1962SOL    HW217520   1.626   1.197   3.486  0.7616 -1.0449 -0.4891
 1963SOL     OW17521   3.712   0.624  12.539 -0.3758  0.1172 -0.3325
 1963SOL    HW117522   3.730   0.623  12.633 -0.6605 -0.0460 -0.2822
 1963SOL    HW217523   3.784   0.679  12.508 -0.2373  0.5958  0.8114
 1964SOL     OW17524   4.108   3.272  10.973  0.2433 -0.3000  0.1227
 1964SOL    HW117525   4.186   3.311  10.934 -0.0259  1.0472  0.9458
 1964SOL    HW217526   4.035   3.311  10.924 -0.6439 -2.0404  0.0233
 1965SOL     OW17527   4.672   2.377   8.079  0.4414 -0.0324  0.4010
 1965SOL    HW117528   4.640   2.444   8.018 -0.7517 -0.9296  0.0554
 1965SOL    HW217529   4.588   2.344   8.110  1.2753 -1.7308  0.8275
 1966SOL     OW17530   0.098   0.006   8.376  0.2066 -0.0203 -0.0982
 1966SOL    HW117531   0.152   4.721   8.301  0.4765  2.0505 -0.5567
 1966SOL    HW217532   0.148   0.073   8.423 -2.1637  1.0288  0.9327
 1967SOL     OW17533   0.301   0.042   4.152 -0.7744  0.2944 -0.2210
 1967SOL    HW117534   0.274   0.043   4.060 -0.7748 -0.5681 -0.2317
 1967SOL    HW217535   0.279   0.130   4.183  1.0287  0.8951 -0.6983
 1968SOL     OW17536   2.394   3.394  17.516 -0.5588  0.8137 -0.2565
 1968SOL    HW117537   2.319   3.385  17.575 -0.2558 -0.0682 -0.0121
 1968SOL    HW217538   2.361   3.366  17.431 -2.9380  0.6411  0.7281
 1969SOL     OW17539   2.015   0.155   8.065  0.1116  0.6998 -0.1103
 1969SOL    HW117540   1.979   0.075   8.028  0.9425 -0.3944  1.4737
 1969SOL    HW217541   1.949   0.179   8.129  0.5404 -2.0740  1.3461
 1970SOL     OW17542   4.186   3.558   1.847 -0.4773 -0.3387 -0.3698
 1970SOL    HW117543   4.229   3.638   1.876 -0.0247 -0.5545 -0.4558
 1970SOL    HW217544   4.246   3.497   1.889 -0.7148 -1.5875 -1.8433
 1971SOL     OW17545   4.594   1.983   8.177 -0.1585  0.5240 -0.2571
 1971SOL    HW117546   4.593   1.991   8.272 -0.8861  0.6420 -0.2732
 1971SOL    HW217547   4.687   1.970   8.159 -0.1042  1.7256 -0.8760
 1972SOL     OW17548   0.522   0.860  16.469 -0.1632 -0.1975 -0.3747
 1972SOL    HW117549   0.528   0.954  16.488 -1.7471 -0.1475 -0.0946
 1972SOL    HW217550   0.450   0.846  16.409  0.2145  0.4900 -0.9872
 1973SOL     OW17551   2.605   3.564   8.175  0.2366 -0.6339  0.1982
 1973SOL    HW117552   2.699   3.562   8.160  0.1029  1.6410 -0.8963
 1973SOL    HW217553   2.580   3.631   8.112 -1.3654 -0.0653  1.4193
 1974SOL     OW17554   0.915   2.756   6.014  0.4389 -0.3005  0.5744
 1974SOL    HW117555   0.938   2.696   6.085  0.2011  2.0636  2.6475
 1974SOL    HW217556   0.934   2.841   6.053  0.4774 -0.6368  1.2964
 1975SOL     OW17557   3.151   4.328   7.461  0.3552 -0.1525  0.0684
 1975SOL    HW117558   3.196   4.405   7.426 -0.0715  0.3389  0.5965
 1975SOL    HW217559   3.231   4.280   7.484 -0.1211  0.1718  2.4508
 1976SOL     OW17560   3.686   3.068   6.138  0.3876  0.3707  0.3575
 1976SOL    HW117561   3.682   3.159   6.168  0.6528 -0.5020  3.0259
 1976SOL    HW217562   3.608   3.059   6.082  0.2396  0.5368  0.5399
 1977SOL     OW17563   3.840   0.172   3.921 -0.2295 -0.1354 -0.0174
 1977SOL    HW117564   3.831   0.184   3.826 -2.4344  3.3787  0.6096
 1977SOL    HW217565   3.751   0.180   3.954 -0.9672 -1.5426 -1.6616
 1978SOL     OW17566   2.260   0.897   1.301 -0.1410 -0.5530  0.0754
 1978SOL    HW117567   2.181   0.951   1.309  0.8899  0.8451  0.6715
 1978SOL    HW217568   2.276   0.879   1.393 -0.6925 -1.1871  0.0463
 1979SOL     OW17569   3.443   3.024   4.500 -0.0389 -0.2059  0.2542
 1979SOL    HW117570   3.525   2.998   4.456  0.0374  0.6474 -0.1022
 1979SOL    HW217571   3.455   2.980   4.584  0.7593 -0.1844  0.1520
 1980SOL     OW17572   2.992   3.288   2.221  0.0246 -0.5717 -0.4774
 1980SOL    HW117573   2.949   3.288   2.306 -0.3876  1.8978 -0.6748
 1980SOL    HW217574   3.072   3.237   2.236  0.7729  0.7578  0.0753
 1981SOL     OW17575   4.373   1.523   3.104  0.1443 -0.5559 -0.2960
 1981SOL    HW117576   4.279   1.535   3.117 -0.1516  0.2736 -3.2304
 1981SOL    HW217577   4.386   1.436   3.066 -0.2072 -0.1585 -1.3426
 1982SOL     OW17578   0.383   3.580   8.497  0.1333 -0.1538 -0.3282
 1982SOL    HW117579   0.402   3.566   8.590 -0.3334  0.0198 -0.2071
 1982SOL    HW217580   0.346   3.668   8.506 -1.8049 -0.9242 -0.8669
 1983SOL     OW17581   1.195   1.440  11.929  0.4920  0.0582  0.4973
 1983SOL    HW117582   1.201   1.516  11.987  1.0059 -1.6341  2.6360
 1983SOL    HW217583   1.101   1.432  11.912  1.0051 -0.1749 -2.3536
 1984SOL     OW17584   1.865   0.934  11.620  0.2712  0.1549  0.0848
 1984SOL    HW117585   1.858   0.914  11.713  0.7752  3.0877  0.7320
 1984SOL    HW217586   1.803   1.005  11.607  1.6396  1.2749 -0.2782
 1985SOL     OW17587   0.506   3.728  11.679  0.1302 -0.2679  0.0701
 1985SOL    HW117588   0.583   3.756  11.630  0.3412  0.3419  0.7513
 1985SOL    HW217589   0.434   3.782  11.648 -0.8938  0.3795  3.5045
 1986SOL     OW17590   3.514   0.617   9.738 -0.1984  0.1267  0.3527
 1986SOL    HW117591   3.522   0.539   9.793  2.4967  1.1308  1.3751
 1986SOL    HW217592   3.419   0.613   9.725 -0.1479  5.6984 -1.7425
 1987SOL     OW17593   2.285   2.711  14.811  0.6507 -0.3428  0.5901
 1987SOL    HW117594   2.336   2.678  14.885  0.7473 -2.8651 -0.6218
 1987SOL    HW217595   2.311   2.804  14.810 -1.4214  0.2177 -0.8144
 1988SOL     OW17596   3.485   1.339   7.912  0.2265 -0.4022  0.9722
 1988SOL    HW117597   3.535   1.383   7.980  1.3591  0.4021 -0.3726
 1988SOL    HW217598   3.401   1.341   7.957 -1.1446  4.3831 -1.7488
 1989SOL     OW17599   2.569   0.635   1.875 -0.2836 -0.3814  0.2034
 1989SOL    HW117600   2.580   0.730   1.871  0.4854 -0.4632  0.2773
 1989SOL    HW217601   2.592   0.616   1.966  1.3894  1.1024  0.0813
 1990SOL     OW17602   1.980   3.003   1.524 -0.2678 -0.1346 -0.4001
 1990SOL    HW117603   1.935   3.036   1.601  0.4797  2.0843 -0.9051
 1990SOL    HW217604   2.037   2.932   1.553 -0.9246 -1.4688 -2.3243
 1991SOL     OW17605   4.367   3.147   5.609 -0.5823  0.4278  0.1995
 1991SOL    HW117606   4.390   3.112   5.695 -0.7093 -0.8218 -0.2728
 1991SOL    HW217607   4.449   3.170   5.565 -0.0577  0.8608  1.4103
 1992SOL     OW17608   3.702   2.175  15.957 -0.1623  0.0850 -0.6098
 1992SOL    HW117609   3.684   2.208  15.869 -1.1318 -0.0158 -0.4552
 1992SOL    HW217610   3.721   2.258  15.999  0.6835  0.6419 -2.1072
 1993SOL     OW17611   3.913   0.020  13.944 -0.2138  0.1933  0.5082
 1993SOL    HW117612   3.844   0.086  13.953 -0.0817  0.2601  1.0347
 1993SOL    HW217613   3.919   0.009  13.849 -0.7909 -1.0052  0.6032
 1994SOL     OW17614   3.377   0.460  15.213 -0.0066 -1.3878  0.6122
 1994SOL    HW117615   3.455   0.406  15.210 -0.3350 -1.9975  2.9852
 1994SOL    HW217616   3.326   0.463  15.132  2.0406  0.0276 -0.6164
 1995SOL     OW17617   4.285   4.623   5.502 -0.2697 -0.1668 -0.3762
 1995SOL    HW117618   4.223   4.607   5.431 -0.9467 -2.7824  0.7923
 1995SOL    HW217619   4.364   4.592   5.457  0.2233 -0.5226  0.7245
 1996SOL     OW17620   0.217   3.748   2.600 -0.1623  0.2576 -0.6050
 1996SOL    HW117621   0.268   3.780   2.525 -2.8537  2.4415 -1.5093
 1996SOL    HW217622   0.269   3.678   2.638  0.0670  1.2396  0.8724
 1997SOL     OW17623   1.744   2.446   2.547 -0.3698 -0.0280 -0.3974
 1997SOL    HW117624   1.734   2.537   2.518  0.4199  0.0027 -0.5864
 1997SOL    HW217625   1.691   2.395   2.485  1.6018 -0.3946 -1.7845
 1998SOL     OW17626   0.115   1.990   6.002  0.5929 -0.0173  1.0702
 1998SOL    HW117627   0.070   1.928   6.059 -0.8117  0.0593  0.0468
 1998SOL    HW217628   0.192   2.005   6.057  0.2598  0.7220  1.3387
 1999SOL     OW17629   2.303   1.031   5.793  0.3237  0.0197 -0.0197
 1999SOL    HW117630   2.266   1.076   5.717 -0.8054 -1.3423 -0.2710
 1999SOL    HW217631   2.339   1.107   5.838 -0.6246 -0.1056  0.9393
 2000SOL     OW17632   2.067   2.273   0.971  0.2072 -0.3936 -0.7242
 2000SOL    HW117633   2.010   2.253   0.897  0.6719  0.6912 -1.3816
 2000SOL    HW217634   2.033   2.214   1.037 -2.0970  0.8137 -0.8310
 2001SOL     OW17635   1.910   4.574   5.873  0.7388  0.1001  0.4150
 2001SOL    HW117636   1.893   4.490   5.830 -0.4614  1.0192 -0.8909
 2001SOL    HW217637   1.841   4.570   5.938  0.4280  2.5255  0.2364
 2002SOL     OW17638   3.298   2.525   0.269 -0.3726 -0.1323 -0.0863
 2002SOL    HW117639   3.235   2.552   0.336  0.2688  0.9063  0.0878
 2002SOL    HW217640   3.309   2.433   0.296  2.5826  0.5894  1.1471
 2003SOL     OW17641   0.595   4.199   4.128  0.0789  0.3050 -0.7141
 2003SOL    HW117642   0.537   4.155   4.065  0.2411 -0.2119 -0.5000
 2003SOL    HW217643   0.652   4.132   4.166 -0.8164  1.1875  2.1576
 2004SOL     OW17644   1.837   4.265   5.123  0.2051  0.0092 -0.1001
 2004SOL    HW117645   1.823   4.336   5.185 -2.7315  0.0815 -0.8251
 2004SOL    HW217646   1.924   4.228   5.134 -0.1284 -0.5356  0.6689
 2005SOL     OW17647   2.297   3.656   3.824 -0.0538 -0.6183 -0.0399
 2005SOL    HW117648   2.244   3.633   3.901 -1.8935 -0.1332 -1.1536
 2005SOL    HW217649   2.336   3.734   3.863 -2.4286  0.6775 -0.2327
 2006SOL     OW17650   4.686   1.570   8.896  0.1686  0.0157  0.1699
 2006SOL    HW117651   4.677   1.476   8.877  0.2587 -0.0135  0.2693
 2006SOL    HW217652   4.636   1.593   8.974  1.0682  0.0720  0.7335
 2007SOL     OW17653   4.592   3.613   2.286 -0.2680 -0.1598 -0.1729
 2007SOL    HW117654   4.520   3.611   2.350  0.8197 -1.4341  1.0380
 2007SOL    HW217655   4.645   3.687   2.315  0.3592 -0.1943 -1.2394
 2008SOL     OW17656   1.490   0.929   6.017 -0.6267 -0.3669 -0.2501
 2008SOL    HW117657   1.504   0.846   6.063 -0.6474 -0.8107 -1.0532
 2008SOL    HW217658   1.401   0.920   5.984 -1.0317 -1.8456  1.2286
 2009SOL     OW17659   0.325   0.413   4.425 -0.1423 -0.1121 -0.0714
 2009SOL    HW117660   0.350   0.398   4.516  1.6195 -1.8218 -0.8104
 2009SOL    HW217661   0.405   0.446   4.384 -1.7386  1.2833 -2.0533
 2010SOL     OW17662   4.737   1.087   1.880 -0.0516 -0.2502  0.2811
 2010SOL    HW117663   4.649   1.107   1.847 -0.5352  1.7402  2.7527
 2010SOL    HW217664   0.026   1.035   1.805 -1.5709  1.1586 -1.2524
 2011SOL     OW17665   2.648   1.030   6.088  0.1380  0.4853  0.2831
 2011SOL    HW117666   2.571   1.068   6.129 -1.1291 -1.3013 -0.4703
 2011SOL    HW217667   2.705   1.080   6.146  0.3235 -1.2507  1.6069
 2012SOL     OW17668   1.116   2.257  15.288 -0.2341  0.5786  0.0500
 2012SOL    HW117669   1.199   2.265  15.334 -0.5273  0.0801  0.6674
 2012SOL    HW217670   1.066   2.196  15.343 -0.1788  1.2073  0.7928
 2013SOL     OW17671   3.083   1.889   7.507  0.1783  0.4277  0.3042
 2013SOL    HW117672   3.176   1.905   7.493 -0.2670  0.0099 -3.1645
 2013SOL    HW217673   3.071   1.794   7.516  3.3605 -0.0157 -0.0922
 2014SOL     OW17674   2.326   2.111   7.216  0.4283 -0.3593  0.1952
 2014SOL    HW117675   2.270   2.154   7.281 -0.5661 -1.0902 -0.1700
 2014SOL    HW217676   2.350   2.184   7.158  1.0137 -1.8625 -1.4388
 2015SOL     OW17677   2.744   2.407   5.424 -0.1998  0.7372 -0.1435
 2015SOL    HW117678   2.703   2.418   5.510  0.8326  0.7087  0.3552
 2015SOL    HW217679   2.695   2.474   5.376 -0.0414  1.5043  0.7495
 2016SOL     OW17680   4.164   0.776   9.035 -0.1180 -0.1637 -0.1833
 2016SOL    HW117681   4.246   0.728   9.027 -0.2057 -0.3104 -0.1968
 2016SOL    HW217682   4.182   0.861   8.994  1.1334  0.3377  1.3818
 2017SOL     OW17683   2.579   2.841   3.018  0.5690 -0.5151  0.3529
 2017SOL    HW117684   2.662   2.794   3.009  0.1004 -1.1715 -0.5633
 2017SOL    HW217685   2.596   2.910   2.953 -0.6369 -0.5151  0.0467
 2018SOL     OW17686   1.625   2.385   9.887  0.7505  0.2599 -0.3214
 2018SOL    HW117687   1.575   2.447   9.835  0.7071  2.3531  2.1935
 2018SOL    HW217688   1.550   2.327   9.902  1.4831 -0.5180  0.3889
 2019SOL     OW17689   3.978   2.766   4.174 -0.2073  0.2730  1.1212
 2019SOL    HW117690   3.896   2.728   4.207  0.7892 -2.5380  0.3280
 2019SOL    HW217691   3.948   2.833   4.113 -1.1580  0.9272  2.3151
 2020SOL     OW17692   1.966   1.915   5.474 -0.2086 -0.1366 -0.4797
 2020SOL    HW117693   2.026   1.879   5.408 -0.4226 -3.9636  1.4313
 2020SOL    HW217694   1.902   1.957   5.417  1.7269  0.8144 -1.9419
 2021SOL     OW17695   0.752   2.043   2.322 -0.1375 -0.0252 -0.5012
 2021SOL    HW117696   0.751   2.124   2.374  0.4411 -1.0560  1.0980
 2021SOL    HW217697   0.671   2.059   2.274  0.1795  3.2896  0.0574
 2022SOL     OW17698   1.998   2.108   1.184 -0.2946 -0.2997  0.3396
 2022SOL    HW117699   1.986   2.063   1.268 -3.3328  0.5668  0.3598
 2022SOL    HW217700   2.049   2.034   1.150  0.1436 -0.0278  0.4152
 2023SOL     OW17701   2.738   4.348   4.609 -0.4068 -0.2012 -0.5302
 2023SOL    HW117702   2.677   4.381   4.675 -0.0642 -1.2902  0.3224
 2023SOL    HW217703   2.705   4.258   4.608 -0.2212 -0.2554 -2.3669
 2024SOL     OW17704   0.302   1.758   7.575 -0.7446 -0.1577  0.1456
 2024SOL    HW117705   0.375   1.703   7.604 -0.9884 -0.4142  0.2833
 2024SOL    HW217706   0.233   1.711   7.622 -0.5178 -0.0353  0.6004
 2025SOL     OW17707   3.056   1.606   7.483 -0.3749 -0.1400 -0.0556
 2025SOL    HW117708   3.044   1.634   7.393 -0.9655  2.3927  0.7936
 2025SOL    HW217709   3.150   1.588   7.484 -0.3990 -0.2200  1.3062
 2026SOL     OW17710   3.261   0.646   4.925  0.1497 -0.3744 -0.2804
 2026SOL    HW117711   3.338   0.640   4.981 -1.6232 -0.7532  2.1022
 2026SOL    HW217712   3.218   0.571   4.967 -0.8025 -1.0961 -2.5565
 2027SOL     OW17713   4.435   1.509   5.999 -0.0663  0.5886 -0.4123
 2027SOL    HW117714   4.403   1.527   6.087  0.1221  1.9221 -0.6190
 2027SOL    HW217715   4.525   1.481   6.014 -0.7910 -1.7483 -0.4011
 2028SOL     OW17716   0.518   1.890   0.750 -0.1042  0.2327 -0.5868
 2028SOL    HW117717   0.543   1.975   0.788 -0.8224 -0.2664  1.0116
 2028SOL    HW217718   0.556   1.906   0.664 -0.3215 -0.4178 -0.8019
 2029SOL     OW17719   1.994   4.056  17.464 -0.4388 -0.3145 -0.3374
 2029SOL    HW117720   1.985   3.997  17.538  1.3634  0.7184  0.6885
 2029SOL    HW217721   1.917   4.043  17.408 -0.0838 -0.3350 -0.8184
 2030SOL     OW17722   4.638   0.913   7.507  0.2954 -0.2167 -0.2049
 2030SOL    HW117723   4.629   0.839   7.447  1.1537 -1.0135  0.6579
 2030SOL    HW217724   4.642   1.001   7.469 -0.6130 -0.1839 -0.2221
 2031SOL     OW17725   3.244   0.935  15.448  0.2859  0.2102  0.4122
 2031SOL    HW117726   3.312   0.972  15.504  0.1097  0.4473  0.4679
 2031SOL    HW217727   3.233   1.017  15.400  1.0145 -1.0298 -1.8429
 2032SOL     OW17728   0.062   0.925   7.742 -0.3097 -0.0652 -0.1773
 2032SOL    HW117729   0.127   0.866   7.702  0.2995  1.5059 -1.5453
 2032SOL    HW217730   0.022   0.951   7.659 -0.8605 -0.6775 -0.1027
 2033SOL     OW17731   4.657   2.998   6.271 -0.3105  0.6508  0.0758
 2033SOL    HW117732   4.596   3.072   6.275  1.5188  2.0206  2.3266
 2033SOL    HW217733   4.642   2.959   6.357 -1.1226 -0.0368 -0.3789
 2034SOL     OW17734   0.635   1.233  10.801  0.3277  0.0128  0.0209
 2034SOL    HW117735   0.660   1.215  10.892  1.6254  2.8503  0.2081
 2034SOL    HW217736   0.603   1.322  10.814 -0.2183  0.1059 -1.9858
 2035SOL     OW17737   2.447   3.177   3.962  0.7131  0.2389  0.1327
 2035SOL    HW117738   2.352   3.184   3.961  0.7555  0.4491 -3.3125
 2035SOL    HW217739   2.468   3.269   3.978  1.0443  0.3463 -0.9461
 2036SOL     OW17740   0.801   0.211   7.926  0.0868 -0.0567 -0.2403
 2036SOL    HW117741   0.851   0.141   7.885  1.2397  1.3727 -1.2859
 2036SOL    HW217742   0.713   0.187   7.899  0.1491  1.4962 -1.8149
 2037SOL     OW17743   4.524   3.114   7.005  0.0769  0.1181  0.0338
 2037SOL    HW117744   4.444   3.094   6.957 -0.6783  2.4270  0.3329
 2037SOL    HW217745   4.508   3.072   7.089 -0.5810  0.1003 -0.1074
 2038SOL     OW17746   0.462   1.112   3.562  0.1685 -0.7881  0.3383
 2038SOL    HW117747   0.385   1.062   3.591 -1.9119  1.9253 -0.4817
 2038SOL    HW217748   0.514   1.056   3.505 -0.0317 -0.6138 -0.0175
 2039SOL     OW17749   4.084   3.549  17.594 -0.4284 -0.3013  0.1217
 2039SOL    HW117750   4.057   3.641  17.598  2.2386  0.5383 -0.6210
 2039SOL    HW217751   4.026   3.515  17.662 -2.0316  0.9298 -0.6386
 2040SOL     OW17752   2.828   3.564   8.958  0.2230  0.2967 -0.7238
 2040SOL    HW117753   2.800   3.474   8.939  0.9802 -0.1634  0.3657
 2040SOL    HW217754   2.744   3.593   8.993 -0.6179 -3.4043  0.3604
 2041SOL     OW17755   3.500   3.269   7.140 -0.6458  0.4625 -0.1929
 2041SOL    HW117756   3.548   3.250   7.059  1.1597 -0.7946  1.1511
 2041SOL    HW217757   3.561   3.334   7.176 -0.3397  1.6754 -2.9091
 2042SOL     OW17758   2.924   3.104   7.976  0.2562 -0.4568  0.2888
 2042SOL    HW117759   2.928   3.103   7.880  3.7175  1.1099  0.4016
 2042SOL    HW217760   3.017   3.108   7.997  0.2149 -0.1338  0.4096
 2043SOL     OW17761   1.647   2.483  11.103  0.2811  0.0945 -0.2058
 2043SOL    HW117762   1.600   2.453  11.181  0.0355  0.5308 -0.1878
 2043SOL    HW217763   1.725   2.524  11.142  0.7232  0.3264 -1.3472
 2044SOL     OW17764   3.018   4.098   5.979  0.0899 -0.0670  0.5436
 2044SOL    HW117765   3.016   4.004   6.001  0.3170 -0.6397 -1.9402
 2044SOL    HW217766   3.023   4.094   5.884 -0.1423 -1.6357  0.5940
 2045SOL     OW17767   3.820   0.123   8.645 -0.0194  0.5553  0.5044
 2045SOL    HW117768   3.759   0.189   8.614 -0.4441  1.3472  2.9632
 2045SOL    HW217769   3.778   0.095   8.727 -1.3192  0.7031 -0.1111
 2046SOL     OW17770   2.198   0.704  10.149 -0.2171  0.2532  0.3230
 2046SOL    HW117771   2.149   0.668  10.224 -1.4531  0.6647 -0.2918
 2046SOL    HW217772   2.264   0.759  10.190  0.0505  0.5559 -0.5255
 2047SOL     OW17773   0.611   4.072  14.488  0.1362 -0.0190 -0.1735
 2047SOL    HW117774   0.622   4.041  14.578  1.9492  1.3247  0.0636
 2047SOL    HW217775   0.680   4.138  14.487  2.4158 -2.3789  2.0436
 2048SOL     OW17776   1.378   0.811   5.307 -0.0905 -0.1398  0.1400
 2048SOL    HW117777   1.469   0.802   5.335 -0.2121  0.3821  0.7010
 2048SOL    HW217778   1.396   0.806   5.213 -0.0094 -0.8965  0.1971
 2049SOL     OW17779   1.653   0.369   6.357  0.0317  0.0460 -0.5297
 2049SOL    HW117780   1.738   0.392   6.393  0.6737  0.4966 -2.3277
 2049SOL    HW217781   1.670   0.404   6.269 -1.1898  2.2087  0.0831
 2050SOL     OW17782   3.472   1.083  11.439  1.0008 -0.2181  0.4782
 2050SOL    HW117783   3.556   1.039  11.454  0.1398 -1.6991  1.0514
 2050SOL    HW217784   3.482   1.162  11.492  2.1383 -0.5132  0.7077
 2051SOL     OW17785   1.697   3.773   1.242  0.3988  0.4720  1.2698
 2051SOL    HW117786   1.654   3.835   1.301 -2.0787 -1.9790  2.0332
 2051SOL    HW217787   1.625   3.738   1.190  1.7298 -0.8749  0.3594
 2052SOL     OW17788   0.909   1.868   2.599  0.2939 -0.0446 -0.6142
 2052SOL    HW117789   0.834   1.816   2.568 -0.5946  0.3660  0.8358
 2052SOL    HW217790   0.907   1.877   2.694  1.8120 -1.2975 -0.4699
 2053SOL     OW17791   2.631   2.803  16.791 -0.4443  1.2702 -0.4524
 2053SOL    HW117792   2.716   2.759  16.802 -0.9826  1.2244  3.4982
 2053SOL    HW217793   2.664   2.889  16.816 -1.6641  1.9466 -1.2311
 2054SOL     OW17794   4.324   4.445   3.147 -0.1609  0.4902 -0.4570
 2054SOL    HW117795   4.266   4.516   3.175 -1.2652 -0.1338 -1.1537
 2054SOL    HW217796   4.292   4.372   3.200  0.8647  1.5746  1.6461
 2055SOL     OW17797   0.820   2.678  11.950  0.2902  0.2368  0.2645
 2055SOL    HW117798   0.874   2.662  11.872  1.5388 -0.2313  1.2325
 2055SOL    HW217799   0.811   2.586  11.977 -1.2093  0.6013  0.9946
 2056SOL     OW17800   2.014   3.893  16.399 -0.9700 -0.2628  0.2485
 2056SOL    HW117801   1.973   3.867  16.482 -1.1019  2.2654  0.9716
 2056SOL    HW217802   1.944   3.945  16.360  1.3937  0.4384 -3.0931
 2057SOL     OW17803   3.403   0.503   5.400  0.0045 -0.8039 -0.4008
 2057SOL    HW117804   3.341   0.575   5.386  0.1691 -0.5013  0.4309
 2057SOL    HW217805   3.415   0.477   5.309 -1.7051 -0.8533 -0.6192
 2058SOL     OW17806   2.173   4.536   6.462 -0.3231 -0.0588 -0.0129
 2058SOL    HW117807   2.125   4.609   6.423  0.7054  1.6823  1.9465
 2058SOL    HW217808   2.237   4.580   6.520 -1.6966 -0.8336  2.0967
 2059SOL     OW17809   1.162   0.895  16.393 -0.0364 -0.2090 -0.1363
 2059SOL    HW117810   1.101   0.954  16.348  0.0881  0.7984  1.0263
 2059SOL    HW217811   1.120   0.859  16.471  0.7944  0.0378  0.4268
 2060SOL     OW17812   1.173   1.298   2.975 -0.4219  0.3700 -0.1928
 2060SOL    HW117813   1.200   1.221   3.025  1.6391  1.7152  0.7639
 2060SOL    HW217814   1.099   1.327   3.027  0.3270  1.2334  0.3910
 2061SOL     OW17815   4.577   2.383   5.360 -0.1613 -0.4123 -0.1237
 2061SOL    HW117816   4.545   2.305   5.405 -1.3585 -0.0751 -0.3914
 2061SOL    HW217817   4.561   2.369   5.267 -1.0981 -2.8105  0.4030
 2062SOL     OW17818   3.504   0.534  17.522  0.1739 -0.0875  0.3983
 2062SOL    HW117819   3.599   0.539  17.534  0.1754 -0.1187  0.3984
 2062SOL    HW217820   3.501   0.498  17.434  3.3646 -0.2635  0.3875
 2063SOL     OW17821   0.336   3.877   0.022 -0.3559  0.0938 -0.0874
 2063SOL    HW117822   0.310   3.949  17.717 -1.6661 -1.6959 -1.7125
 2063SOL    HW217823   0.419   3.904   0.063 -0.5776  0.5467  0.0651
 2064SOL     OW17824   1.501   1.859  12.146 -0.4365  0.2760 -0.7683
 2064SOL    HW117825   1.434   1.897  12.204  0.3554 -1.7095  1.4334
 2064SOL    HW217826   1.455   1.860  12.062  0.0585  1.5041 -1.0296
 2065SOL     OW17827   3.162   2.690   2.483 -0.6800  0.2854 -0.6661
 2065SOL    HW117828   3.114   2.662   2.561 -0.4017  1.1643 -0.1798
 2065SOL    HW217829   3.147   2.783   2.503 -0.1928  0.6038 -1.7662
 2066SOL     OW17830   3.433   2.297   7.112  0.0071  0.6693 -0.1090
 2066SOL    HW117831   3.339   2.315   7.118 -0.4112 -1.8741  1.1998
 2066SOL    HW217832   3.436   2.294   7.017  1.1799  0.9315 -0.0756
 2067SOL     OW17833   3.177   4.530   5.020 -0.4337 -0.2228  0.4333
 2067SOL    HW117834   3.204   4.517   4.930  2.3266  0.5461  1.1421
 2067SOL    HW217835   3.264   4.557   5.050 -1.8105  2.2888  2.1901
 2068SOL     OW17836   3.551   2.537   5.141  0.3354 -0.7382 -0.1230
 2068SOL    HW117837   3.457   2.526   5.127  0.5192 -3.5079  0.7990
 2068SOL    HW217838   3.559   2.509   5.232 -3.2114 -1.8406 -0.1308
 2069SOL     OW17839   3.289   0.540  17.655  0.4834  0.1084  0.0070
 2069SOL    HW117840   3.244   0.497  17.583  2.4471 -0.6496 -0.7836
 2069SOL    HW217841   3.377   0.532  17.617  0.1067 -0.4404 -0.7439
 2070SOL     OW17842   2.819   1.599   3.456  0.2125 -0.1099 -0.1064
 2070SOL    HW117843   2.731   1.565   3.475  0.9562 -1.2960  1.1883
 2070SOL    HW217844   2.836   1.536   3.385 -1.8209 -1.3965  0.5417
 2071SOL     OW17845   1.849   0.312  11.952  0.9204  0.4567  0.0356
 2071SOL    HW117846   1.852   0.281  11.861  2.0638 -2.9026  1.1952
 2071SOL    HW217847   1.840   0.405  11.934  1.7548  0.2952 -1.2109
 2072SOL     OW17848   2.930   2.710   4.430 -0.0707  0.0867 -0.2094
 2072SOL    HW117849   2.850   2.742   4.387  0.1385  0.6187 -0.1953
 2072SOL    HW217850   2.938   2.757   4.512 -1.8653 -1.7618  1.0370
 2073SOL     OW17851   4.648   4.448  15.092  0.6068 -0.1950 -0.0339
 2073SOL    HW117852   4.625   4.437  15.184 -2.7471 -0.8826 -0.9852
 2073SOL    HW217853   4.648   4.354  15.073 -1.4578  0.1770 -1.7321
 2074SOL     OW17854   3.938   3.363  14.125  0.0314  0.4317  0.1933
 2074SOL    HW117855   3.911   3.327  14.209 -0.8840 -1.8316 -1.0694
 2074SOL    HW217856   4.013   3.420  14.145 -0.4409  1.0662  0.1571
 2075SOL     OW17857   2.292   2.532   2.020 -0.2538  0.1546 -0.3329
 2075SOL    HW117858   2.234   2.477   2.073 -0.7812 -1.0419 -2.1509
 2075SOL    HW217859   2.234   2.597   1.981  0.9520  0.8689 -0.9449
 2076SOL     OW17860   1.470   2.108   7.895  0.4888  0.7759 -0.7485
 2076SOL    HW117861   1.431   2.194   7.883 -1.8523 -0.3485 -1.0959
 2076SOL    HW217862   1.409   2.077   7.963  2.0999  1.1547  0.8758
 2077SOL     OW17863   0.502   0.987   8.231 -0.7360 -0.4588 -0.0160
 2077SOL    HW117864   0.467   0.930   8.300  1.6843 -4.0109 -1.7442
 2077SOL    HW217865   0.573   0.931   8.201  1.1239  0.7962  2.0772
 2078SOL     OW17866   2.334   1.635   6.714 -0.0671  0.2771  0.3348
 2078SOL    HW117867   2.311   1.546   6.689  0.2431  1.5088 -4.3129
 2078SOL    HW217868   2.297   1.663   6.799  0.1105  1.0056  0.1745
 2079SOL     OW17869   0.524   3.890   3.381 -0.5040 -0.3935 -0.1810
 2079SOL    HW117870   0.536   3.852   3.294 -1.6793 -0.7453 -0.1872
 2079SOL    HW217871   0.604   3.941   3.392 -0.7751 -0.7875  3.8054
 2080SOL     OW17872   0.415   4.565   5.907  0.1972 -0.3899 -0.2174
 2080SOL    HW117873   0.348   4.546   5.973 -0.8911 -0.5536 -1.3811
 2080SOL    HW217874   0.413   4.487   5.853 -0.3511  0.1016 -0.9180
 2081SOL     OW17875   3.170   3.125  13.854 -0.3177 -0.1348 -0.3162
 2081SOL    HW117876   3.141   3.210  13.886 -1.3515 -0.7673  0.4054
 2081SOL    HW217877   3.213   3.086  13.930  1.5287  0.2866 -1.1176
 2082SOL     OW17878   1.431   4.670   1.763  0.8208  0.2951  0.8007
 2082SOL    HW117879   1.394   4.589   1.796 -0.2782  0.5841  0.2512
 2082SOL    HW217880   1.426   4.731   1.836  1.1922 -1.6321  2.4345
 2083SOL     OW17881   0.587   2.673   4.659  0.1736 -0.0115 -0.4767
 2083SOL    HW117882   0.667   2.631   4.692  0.2250  1.0546  0.7680
 2083SOL    HW217883   0.520   2.611   4.688  0.9680 -1.6993 -2.2063
 2084SOL     OW17884   1.364   3.727   8.337 -0.2014 -0.1797 -0.1060
 2084SOL    HW117885   1.308   3.765   8.405  2.2651  1.8394  0.8034
 2084SOL    HW217886   1.406   3.808   8.307 -1.6924  1.0608  1.1607
 2085SOL     OW17887   0.502   3.635   4.917  0.0118 -0.0666 -0.2045
 2085SOL    HW117888   0.484   3.636   5.012  0.9339 -1.2087 -0.0184
 2085SOL    HW217889   0.434   3.691   4.878 -1.0980 -1.2131  0.0726
 2086SOL     OW17890   0.484   3.799   5.643 -0.7171  0.1098  0.3500
 2086SOL    HW117891   0.421   3.845   5.587 -1.4401 -0.8402  0.3774
 2086SOL    HW217892   0.497   3.858   5.717  1.9667  0.0138 -0.0575
 2087SOL     OW17893   0.766   2.258   2.798 -0.3954  0.1984 -0.0890
 2087SOL    HW117894   0.685   2.209   2.784 -1.3708  1.8357 -0.0903
 2087SOL    HW217895   0.756   2.272   2.892 -0.3065 -1.1795  0.1283
 2088SOL     OW17896   4.209   0.395  13.208 -0.4953  0.0485 -0.0939
 2088SOL    HW117897   4.222   0.410  13.302  1.6464  2.2808 -0.7614
 2088SOL    HW217898   4.302   0.381  13.189 -0.4791 -0.3483  0.2570
 2089SOL     OW17899   2.331   0.670  14.047 -0.3921 -0.4047  0.1090
 2089SOL    HW117900   2.300   0.735  14.111  0.5585  0.7560 -0.6195
 2089SOL    HW217901   2.253   0.627  14.014 -1.2621 -0.2752  1.9820
 2090SOL     OW17902   0.985   4.432  16.034  0.4964 -0.0072  0.1191
 2090SOL    HW117903   0.911   4.381  15.998 -1.0230  2.9079 -0.8939
 2090SOL    HW217904   0.998   4.391  16.119 -0.7825 -2.2731 -0.7478
 2091SOL     OW17905   3.641   0.460   6.921 -0.2908 -0.3642 -0.0400
 2091SOL    HW117906   3.652   0.530   6.856  1.0101  0.5510  1.1495
 2091SOL    HW217907   3.724   0.465   6.969 -0.4153  0.0153  0.1394
 2092SOL     OW17908   4.166   1.069  14.754  0.4077  0.4855  0.4351
 2092SOL    HW117909   4.157   0.979  14.725 -0.7526  1.0431 -0.9412
 2092SOL    HW217910   4.259   1.070  14.776  0.6185 -2.1002 -0.3501
 2093SOL     OW17911   2.594   2.349   2.910 -0.3226  0.0948  0.1078
 2093SOL    HW117912   2.680   2.307   2.900  0.2133  1.1857  0.1516
 2093SOL    HW217913   2.526   2.282   2.911  0.1124 -0.3377  0.4581
 2094SOL     OW17914   1.268   3.103   7.584  0.1247 -0.6167 -0.2748
 2094SOL    HW117915   1.328   3.044   7.539 -0.0980 -1.8422  1.0443
 2094SOL    HW217916   1.193   3.108   7.524 -1.4540 -0.4941  1.6839
 2095SOL     OW17917   4.475   3.085  16.567 -0.1382  0.2841  0.6357
 2095SOL    HW117918   4.445   3.120  16.651 -0.2674 -0.1677  0.7756
 2095SOL    HW217919   4.569   3.098  16.575  0.2533 -0.6788 -2.5652
 2096SOL     OW17920   1.342   0.169   7.601  0.1765  0.4548 -0.0512
 2096SOL    HW117921   1.374   0.126   7.680 -3.8162  1.0044  1.8576
 2096SOL    HW217922   1.409   0.157   7.533  1.0494 -3.7225  1.5536
 2097SOL     OW17923   0.952   0.639  13.702  0.0747  0.1265  0.3639
 2097SOL    HW117924   1.018   0.596  13.647  1.0403  2.8323 -0.6173
 2097SOL    HW217925   0.960   0.598  13.788 -0.3639  0.7569  0.7013
 2098SOL     OW17926   0.365   1.528   9.014 -0.2640 -0.5294  0.1259
 2098SOL    HW117927   0.280   1.484   9.028 -0.5588  0.6726  2.0977
 2098SOL    HW217928   0.349   1.603   9.071 -0.1552 -0.8441  0.5681
 2099SOL     OW17929   1.673   4.673   8.015 -0.5886  0.2047 -0.9382
 2099SOL    HW117930   1.597   4.644   8.065  1.4410 -3.1063  0.1644
 2099SOL    HW217931   1.729   4.595   8.016  1.1255  1.4475  1.0238
 2100SOL     OW17932   3.181   2.862  15.254 -0.1350 -0.4230  0.3891
 2100SOL    HW117933   3.142   2.808  15.324 -0.0577 -0.3963  0.4530
 2100SOL    HW217934   3.142   2.945  15.279 -4.1187 -2.4127  0.8059
 2101SOL     OW17935   4.166   1.016  10.608 -0.5419 -0.1466  0.4061
 2101SOL    HW117936   4.244   1.036  10.660  1.3140  0.5091 -2.6527
 2101SOL    HW217937   4.112   0.964  10.668  0.2745  0.6294  1.8220
 2102SOL     OW17938   2.649   2.641   9.644 -0.0735 -0.0471 -0.2530
 2102SOL    HW117939   2.629   2.680   9.729  0.3766 -0.2989 -0.0338
 2102SOL    HW217940   2.697   2.564   9.676 -0.1670 -0.0661 -0.1556
 2103SOL     OW17941   3.787   4.595   7.734 -0.0255  0.2121  0.6483
 2103SOL    HW117942   3.826   4.615   7.819  2.4606 -0.0406 -0.4386
 2103SOL    HW217943   3.703   4.640   7.737 -0.3510 -0.1679 -2.6818
 2104SOL     OW17944   1.258   3.511  17.282  0.4423 -0.6136  0.2135
 2104SOL    HW117945   1.221   3.598  17.265  0.3197 -0.4360  1.3770
 2104SOL    HW217946   1.300   3.528  17.366  2.1901 -0.0442 -0.7694
 2105SOL     OW17947   1.753   1.259   3.729 -0.1926 -0.3924 -0.6428
 2105SOL    HW117948   1.749   1.278   3.635  2.1951 -0.5342 -0.7692
 2105SOL    HW217949   1.663   1.270   3.760  0.1807 -1.7219  0.9242
 2106SOL     OW17950   4.107   1.032   7.884  0.1432 -0.0178 -0.1930
 2106SOL    HW117951   4.134   0.982   7.961 -3.2023 -0.8767  0.4233
 2106SOL    HW217952   4.014   1.045   7.905  0.0496  0.1615 -0.6976
 2107SOL     OW17953   0.773   1.871   2.071  0.3965 -0.2071  0.2413
 2107SOL    HW117954   0.720   1.912   2.139 -0.7408  1.7055 -1.7823
 2107SOL    HW217955   0.843   1.936   2.072  0.8517 -0.7257  2.0053
 2108SOL     OW17956   0.932   0.256  16.580  0.1191 -0.1476  0.5818
 2108SOL    HW117957   0.958   0.254  16.488 -1.0350  1.5538  0.2142
 2108SOL    HW217958   0.907   0.349  16.589  0.4319 -0.2453  2.5447
 2109SOL     OW17959   4.107   0.807  14.635 -0.6685  0.1129 -0.1033
 2109SOL    HW117960   4.183   0.840  14.587 -1.2871 -1.4736 -2.1485
 2109SOL    HW217961   4.141   0.718  14.645 -1.3750 -0.3565 -1.7913
 2110SOL     OW17962   0.189   2.981   8.771  0.0947  0.1206 -0.0032
 2110SOL    HW117963   0.140   2.907   8.807  0.6023  0.5422  1.5368
 2110SOL    HW217964   0.231   2.936   8.697  0.8396 -0.0317  0.5138
 2111SOL     OW17965   2.523   3.394   9.338  0.6487 -0.6462 -0.8022
 2111SOL    HW117966   2.475   3.476   9.324 -0.3583 -0.7930  1.8155
 2111SOL    HW217967   2.573   3.411   9.418 -2.5049 -0.6737  1.1919
 2112SOL     OW17968   0.168   0.902   8.336 -0.1980 -0.4190 -0.3001
 2112SOL    HW117969   0.120   0.941   8.263 -2.4938 -1.3722  0.7150
 2112SOL    HW217970   0.126   0.942   8.412  1.6032  0.9953 -0.0608
 2113SOL     OW17971   1.544   1.695   2.594 -0.0608  0.3236  0.8035
 2113SOL    HW117972   1.570   1.676   2.684  2.2724  0.2702  0.0990
 2113SOL    HW217973   1.558   1.611   2.550 -1.4771  1.9518 -2.7973
 2114SOL     OW17974   2.555   2.609   4.232 -0.3298  0.2892  0.7437
 2114SOL    HW117975   2.532   2.558   4.310 -0.7962  0.6566  0.8479
 2114SOL    HW217976   2.515   2.694   4.249 -0.1738  0.6226 -0.5935
 2115SOL     OW17977   2.126   4.104   4.522 -0.3080  0.4969 -0.7394
 2115SOL    HW117978   2.151   4.133   4.434 -1.3095 -0.0908 -1.2288
 2115SOL    HW217979   2.030   4.100   4.516 -0.1907 -2.1753 -0.7624
 2116SOL     OW17980   2.384   0.823   5.484  0.3744  0.1367  0.5075
 2116SOL    HW117981   2.289   0.817   5.490  0.2155  2.1968  0.2330
 2116SOL    HW217982   2.392   0.861   5.397 -2.1998  2.3608  1.2530
 2117SOL     OW17983   4.182   3.678   6.850 -0.5277 -0.3119  0.3033
 2117SOL    HW117984   4.190   3.596   6.802  2.1470 -1.7541  3.2443
 2117SOL    HW217985   4.120   3.725   6.794  1.1846  2.0398  0.3289
 2118SOL     OW17986   4.352   4.019   2.880 -0.5681  0.6793 -0.0298
 2118SOL    HW117987   4.368   3.982   2.966  0.7758  0.0799 -0.5416
 2118SOL    HW217988   4.322   3.947   2.825  0.4659  0.3086 -0.0934
 2119SOL     OW17989   3.253   0.539  10.130 -0.0600  0.1772 -0.5153
 2119SOL    HW117990   3.308   0.472  10.170  0.1805  0.5276 -0.2605
 2119SOL    HW217991   3.226   0.490  10.052 -1.8433  2.6006 -1.4138
 2120SOL     OW17992   1.876   3.631   5.091 -0.0377  0.2863  0.0087
 2120SOL    HW117993   1.831   3.712   5.068  1.0434 -0.0108 -3.1185
 2120SOL    HW217994   1.966   3.657   5.113 -0.0337 -0.9540  1.4837
 2121SOL     OW17995   1.972   0.232   5.107  0.3429 -0.1115  0.3913
 2121SOL    HW117996   2.038   0.238   5.176  0.4614  1.6428  0.1329
 2121SOL    HW217997   1.932   0.318   5.120  1.2665  0.6837 -2.0658
 2122SOL     OW17998   3.279   4.584   7.422  0.2972 -0.5165  0.3286
 2122SOL    HW117999   3.252   4.582   7.331 -1.4363  0.4279  0.8107
 2122SOL    HW218000   3.234   4.663   7.452  0.8004 -1.3275  3.2562
 2123SOL     OW18001   2.727   1.855   9.314 -0.0540 -0.0497  0.0563
 2123SOL    HW118002   2.654   1.895   9.361  0.5411  0.1031  0.8634
 2123SOL    HW218003   2.737   1.919   9.244 -1.7071 -1.6621 -1.6233
 2124SOL     OW18004   3.206   3.941   2.379 -0.4152  0.3737  0.2639
 2124SOL    HW118005   3.132   3.906   2.330  0.8703 -4.0302  1.4011
 2124SOL    HW218006   3.203   4.036   2.367 -0.4174  0.4376  0.7599
 2125SOL     OW18007   2.493   0.181   6.163  0.2265  0.3909 -0.5428
 2125SOL    HW118008   2.510   0.115   6.096  1.6112  2.7828 -2.5511
 2125SOL    HW218009   2.417   0.145   6.209  0.4000  0.8765  0.1225
 2126SOL     OW18010   1.662   3.180   2.421 -0.0175  0.0692  0.2479
 2126SOL    HW118011   1.722   3.214   2.355  1.2165 -2.3444  0.1577
 2126SOL    HW218012   1.729   3.167   2.488  2.1723 -0.9869 -2.1757
 2127SOL     OW18013   4.669   0.071   5.896 -0.1157  0.3387 -0.6279
 2127SOL    HW118014   0.024   0.079   5.882 -0.5344  0.5210 -3.2701
 2127SOL    HW218015   4.636   0.068   5.806 -0.9838  1.1297 -0.3362
 2128SOL     OW18016   0.366   3.019  11.834 -0.1743  0.1987  0.4820
 2128SOL    HW118017   0.296   3.063  11.785 -0.0384  0.4717  0.5344
 2128SOL    HW218018   0.413   3.098  11.862  0.5719 -0.2171  0.3893
 2129SOL     OW18019   1.890   4.521   0.906 -0.2324  1.2803  0.0300
 2129SOL    HW118020   1.814   4.540   0.851 -0.6133  2.4556  0.9590
 2129SOL    HW218021   1.857   4.453   0.965  0.3505 -0.2304 -1.3892
 2130SOL     OW18022   4.535   1.225   3.496 -0.0350  0.2564  0.0841
 2130SOL    HW118023   4.460   1.176   3.462 -0.4794  0.0092  1.4344
 2130SOL    HW218024   4.544   1.289   3.425 -1.1460 -2.0789 -2.1801
 2131SOL     OW18025   2.199   3.406  14.957  0.1033 -0.1906 -0.6516
 2131SOL    HW118026   2.105   3.398  14.938  0.5044 -1.2622 -2.1626
 2131SOL    HW218027   2.214   3.314  14.933  1.1147  0.1822 -1.4188
 2132SOL     OW18028   4.672   3.723   7.760  0.2618  0.0126 -0.6444
 2132SOL    HW118029   4.698   3.640   7.720  2.8521  1.0587 -1.1288
 2132SOL    HW218030   0.003   3.775   7.719  0.5754 -0.7154 -1.0301
 2133SOL     OW18031   3.512   1.734   9.154 -0.2375  0.3172 -0.5053
 2133SOL    HW118032   3.479   1.741   9.065  0.3435  1.2990 -0.6436
 2133SOL    HW218033   3.461   1.661   9.191  2.9149 -1.4963  0.3096
 2134SOL     OW18034   4.681   1.846   6.806  0.0179  0.0505 -0.0243
 2134SOL    HW118035   4.692   1.904   6.881  0.3609  0.0229 -0.0526
 2134SOL    HW218036   4.602   1.886   6.768  0.1516 -0.9859 -1.3716
 2135SOL     OW18037   1.079   0.459  15.107  0.2895  0.1843 -0.2437
 2135SOL    HW118038   1.151   0.406  15.072  1.4606  1.4623  0.2522
 2135SOL    HW218039   1.010   0.398  15.134  0.1105  0.6273  0.3152
 2136SOL     OW18040   1.257   2.167   5.236  0.5475  0.9590 -0.5515
 2136SOL    HW118041   1.205   2.248   5.231 -0.6231  0.2358 -0.0605
 2136SOL    HW218042   1.226   2.107   5.168 -2.6109  0.2364  1.5319
 2137SOL     OW18043   2.901   1.502  13.817  0.0594 -0.3050  0.2669
 2137SOL    HW118044   2.873   1.482  13.906  2.2833  0.1601  1.0620
 2137SOL    HW218045   2.863   1.589  13.806 -1.5132 -1.3161 -2.3764
 2138SOL     OW18046   2.460   1.129   3.960 -0.3989 -0.1360 -0.2415
 2138SOL    HW118047   2.372   1.107   3.930 -0.8317  1.8920 -0.4911
 2138SOL    HW218048   2.449   1.104   4.052  1.7638 -1.4754 -0.3728
 2139SOL     OW18049   2.033   3.476   7.174  0.1244  0.6474 -0.2871
 2139SOL    HW118050   1.992   3.452   7.257 -1.1631  2.5671 -0.3816
 2139SOL    HW218051   2.098   3.544   7.191  0.3855 -0.0268  1.4028
 2140SOL     OW18052   2.322   1.356   9.167  0.4365  0.3364 -0.0994
 2140SOL    HW118053   2.291   1.359   9.077  0.9391  0.3300 -0.2681
 2140SOL    HW218054   2.392   1.420   9.177  3.2547 -2.2188 -3.7112
 2141SOL     OW18055   2.404   2.849   5.969 -0.0075 -0.3218 -0.3748
 2141SOL    HW118056   2.428   2.935   5.935  0.6119 -0.6780 -0.8265
 2141SOL    HW218057   2.411   2.799   5.888 -0.8522  0.3110 -0.8452
 2142SOL     OW18058   1.940   2.204   8.266 -0.3290 -0.3691 -0.1843
 2142SOL    HW118059   1.844   2.202   8.262 -0.3916  1.6056  0.4861
 2142SOL    HW218060   1.958   2.173   8.177  0.7823 -0.4933  0.0785
 2143SOL     OW18061   2.691   3.537  13.802 -0.1921  0.1782 -0.2702
 2143SOL    HW118062   2.685   3.572  13.713 -1.4709 -2.1005 -1.0870
 2143SOL    HW218063   2.612   3.483  13.800  0.6416 -1.0990  1.2979
 2144SOL     OW18064   4.707   0.252   7.808 -0.0435  0.4433 -0.4377
 2144SOL    HW118065   4.691   0.191   7.735  0.0210  1.6428 -1.4549
 2144SOL    HW218066   4.644   0.321   7.787 -0.1963  0.2255 -0.6959
 2145SOL     OW18067   0.819   1.603   5.760 -0.3907  0.1645  0.8164
 2145SOL    HW118068   0.886   1.604   5.692 -0.6316  0.8486  0.5776
 2145SOL    HW218069   0.742   1.580   5.707  0.5369  1.8420 -1.2341
 2146SOL     OW18070   2.426   2.952   7.485 -0.0906 -0.6286  0.2185
 2146SOL    HW118071   2.520   2.970   7.483 -0.1528 -0.4950 -1.2980
 2146SOL    HW218072   2.411   2.904   7.403 -0.6115 -0.1058  0.0098
 2147SOL     OW18073   1.536   3.302   2.067  0.3623 -0.0889 -0.2893
 2147SOL    HW118074   1.521   3.209   2.051 -0.4822 -0.2666  1.5954
 2147SOL    HW218075   1.579   3.302   2.152 -0.1465 -1.2340 -0.0282
 2148SOL     OW18076   4.364   0.119  10.299 -0.0424  0.5836  0.2819
 2148SOL    HW118077   4.412   0.199  10.278  2.6029 -1.0119  0.3567
 2148SOL    HW218078   4.365   0.132  10.394 -0.2610  3.2351 -0.0648
 2149SOL     OW18079   4.044   2.174  13.286  0.2274  0.4385 -0.5679
 2149SOL    HW118080   4.011   2.264  13.297 -0.7784  0.0599 -0.4315
 2149SOL    HW218081   4.105   2.199  13.217  2.0610  0.3516  1.0203
 2150SOL     OW18082   3.884   4.010  17.438 -0.0815  0.3026  0.7837
 2150SOL    HW118083   3.819   4.045  17.377  2.6111  2.0847 -1.0200
 2150SOL    HW218084   3.964   4.034  17.392  0.8921 -2.2867  1.1698
 2151SOL     OW18085   2.928   3.422   1.192 -0.1495  0.3359  0.1492
 2151SOL    HW118086   2.902   3.483   1.122 -0.3457  1.1117  0.8921
 2151SOL    HW218087   2.906   3.464   1.275 -3.7514 -1.6906  0.2075
 2152SOL     OW18088   2.086   3.813   0.898 -0.1921  0.6570  0.2013
 2152SOL    HW118089   2.020   3.784   0.962 -1.8268  0.9211 -1.3517
 2152SOL    HW218090   2.156   3.850   0.951  0.5182 -0.1557 -0.1642
 2153SOL     OW18091   3.463   3.480   7.699 -0.2905 -0.0968  0.2963
 2153SOL    HW118092   3.443   3.573   7.705  0.6594  0.1484 -0.3666
 2153SOL    HW218093   3.535   3.478   7.761  0.4943  2.4057 -0.5510
 2154SOL     OW18094   3.785   1.775   5.723 -0.3725  0.3532 -0.2825
 2154SOL    HW118095   3.709   1.717   5.726 -1.8541  2.2507 -1.1255
 2154SOL    HW218096   3.730   1.853   5.716  1.2450  1.3100 -2.3792
 2155SOL     OW18097   3.096   0.704  15.354  0.2267 -0.2296 -0.5812
 2155SOL    HW118098   3.148   0.771  15.397  1.1315 -1.2408 -0.0893
 2155SOL    HW218099   3.163   0.639  15.333  1.8153  0.3893  2.5389
 2156SOL     OW18100   1.305   3.647   2.417  0.0409  0.0447  0.2060
 2156SOL    HW118101   1.345   3.714   2.362  0.5806 -0.4975 -0.0591
 2156SOL    HW218102   1.370   3.578   2.407 -0.1212  0.0185 -0.6802
 2157SOL     OW18103   1.091   1.602   5.961 -0.6694  0.7617  0.0282
 2157SOL    HW118104   1.109   1.696   5.968 -0.4552  0.8827 -2.2795
 2157SOL    HW218105   0.997   1.601   5.978 -0.2791  0.3300  2.0949
 2158SOL     OW18106   0.830   1.573   8.632 -0.1355 -0.2216 -0.1245
 2158SOL    HW118107   0.857   1.576   8.723 -0.2036 -0.1702 -0.1057
 2158SOL    HW218108   0.893   1.519   8.584 -1.3959 -1.9376  0.1614
 2159SOL     OW18109   4.612   0.928  14.833  0.2326  0.1147 -0.7312
 2159SOL    HW118110   4.681   0.862  14.833  0.5995  0.4927 -0.8024
 2159SOL    HW218111   4.644   0.980  14.907 -0.7217 -1.3143  0.6791
 2160SOL     OW18112   2.131   4.291   7.663  0.5744 -0.5534 -0.3503
 2160SOL    HW118113   2.156   4.250   7.746 -0.8599  0.7365  0.7234
 2160SOL    HW218114   2.214   4.320   7.626  1.1881 -1.2734  0.4562
 2161SOL     OW18115   0.011   1.981   5.725  0.5781  0.4105 -0.5444
 2161SOL    HW118116   0.059   1.962   5.805 -0.9837 -1.0316  0.0538
 2161SOL    HW218117   4.662   2.002   5.758  0.7003  1.1463 -0.6887
 2162SOL     OW18118   1.861   4.117   0.580 -0.4731 -0.0753 -0.7638
 2162SOL    HW118119   1.847   4.032   0.623  0.5976 -1.0322 -2.2748
 2162SOL    HW218120   1.838   4.093   0.490  0.7225 -0.6713 -0.9249
 2163SOL     OW18121   0.401   3.557  17.656 -0.6268 -0.4258  0.1355
 2163SOL    HW118122   0.475   3.599  17.701  0.5082 -1.7671 -0.4809
 2163SOL    HW218123   0.418   3.593  17.569  0.3079 -1.6544 -0.1934
 2164SOL     OW18124   1.451   2.310   6.274 -1.3678  0.1531 -0.1823
 2164SOL    HW118125   1.458   2.328   6.181  0.8327 -2.6326 -0.5369
 2164SOL    HW218126   1.409   2.224   6.271 -1.8261  0.3516  0.3753
 2165SOL     OW18127   2.054   3.658   5.446 -0.7439  0.9478 -0.3964
 2165SOL    HW118128   2.092   3.730   5.394  0.4049 -1.0587 -2.3594
 2165SOL    HW218129   2.126   3.602   5.475 -1.5536  0.8294  1.3810
 2166SOL     OW18130   0.958   0.222   8.853  0.2185  0.4428 -0.4457
 2166SOL    HW118131   0.927   0.150   8.797  0.1364 -1.2247  1.7242
 2166SOL    HW218132   0.901   0.192   8.925  1.4746  1.4814  0.9775
 2167SOL     OW18133   3.004   4.319   4.525 -0.1960  0.6789  0.1240
 2167SOL    HW118134   2.919   4.352   4.554 -1.0737 -0.2858 -1.3474
 2167SOL    HW218135   3.022   4.249   4.587 -0.6202  2.5395  2.3254
 2168SOL     OW18136   0.850   1.861   8.542  0.2286 -0.7455  0.3051
 2168SOL    HW118137   0.832   1.794   8.476 -0.0103 -2.2971  1.9116
 2168SOL    HW218138   0.835   1.809   8.622 -0.1289  0.8743  1.2951
 2169SOL     OW18139   1.158   2.282   7.875  0.5859  0.0381  0.5060
 2169SOL    HW118140   1.126   2.283   7.965 -1.7916 -0.6068 -0.3283
 2169SOL    HW218141   1.113   2.198   7.865  0.7229  0.2000 -1.4865
 2170SOL     OW18142   1.761   1.834  17.469  0.2070 -0.6077  0.1174
 2170SOL    HW118143   1.692   1.885  17.512  0.6895  1.1746 -1.1917
 2170SOL    HW218144   1.815   1.905  17.432 -0.0298 -1.0723 -1.1063
 2171SOL     OW18145   4.653   0.949   1.638  0.1648 -0.4329 -0.8979
 2171SOL    HW118146   4.666   0.996   1.557 -0.1486 -0.1487 -0.7824
 2171SOL    HW218147   4.677   0.861   1.608 -0.1830 -0.2921 -1.5712
 2172SOL     OW18148   1.494   3.932   7.489  0.0625 -0.0339 -0.7653
 2172SOL    HW118149   1.511   4.020   7.453 -0.4543  1.1191  1.8276
 2172SOL    HW218150   1.580   3.893   7.477 -0.1653 -0.3815 -1.2821
 2173SOL     OW18151   1.357   1.706   3.465 -0.1635 -0.3686  0.1460
 2173SOL    HW118152   1.424   1.725   3.532 -1.7812  0.4748  1.5198
 2173SOL    HW218153   1.392   1.759   3.393  0.4714  2.1957  2.3053
 2174SOL     OW18154   1.877   1.278  14.579 -0.0771 -0.2195  0.0058
 2174SOL    HW118155   1.827   1.197  14.585  0.4693 -0.4039  2.3595
 2174SOL    HW218156   1.942   1.278  14.650 -1.4691 -2.3665  1.2751
 2175SOL     OW18157   4.197   3.374   6.896  0.2274 -0.2417  0.7028
 2175SOL    HW118158   4.165   3.389   6.807  2.9311  0.8042 -0.0901
 2175SOL    HW218159   4.290   3.384   6.877  0.3006 -1.1211  0.6142
 2176SOL     OW18160   0.041   3.716   7.181  0.0088 -0.1244 -0.3824
 2176SOL    HW118161   0.034   3.793   7.123  0.1341 -0.5833 -1.0051
 2176SOL    HW218162   4.717   3.727   7.252  1.7362  0.8229  1.0032
 2177SOL     OW18163   2.695   0.890   8.706  0.7409 -0.6487  0.3143
 2177SOL    HW118164   2.745   0.972   8.711  0.1287 -0.2472 -0.1929
 2177SOL    HW218165   2.761   0.828   8.675  0.7326 -0.3161 -0.3678
 2178SOL     OW18166   1.950   0.213  11.026  0.2190 -0.0297  0.4371
 2178SOL    HW118167   2.003   0.270  10.970  0.6055  0.8051  1.6464
 2178SOL    HW218168   2.024   0.165  11.064  2.1716  0.8538 -2.2170
 2179SOL     OW18169   2.879   0.750   6.624  0.1424 -0.3183 -0.3472
 2179SOL    HW118170   2.866   0.655   6.622  1.1784 -0.4739  0.3266
 2179SOL    HW218171   2.877   0.768   6.717 -1.6675  1.0444 -0.6593
 2180SOL     OW18172   0.356   2.201   8.934 -0.4989  0.5076  0.1103
 2180SOL    HW118173   0.437   2.241   8.904  0.2271  0.4152  1.9581
 2180SOL    HW218174   0.322   2.176   8.848  2.9661  1.5995 -1.5698
 2181SOL     OW18175   3.714   0.357   6.505 -0.4190 -0.6264  0.1883
 2181SOL    HW118176   3.760   0.400   6.577  2.9168  2.1607 -3.5979
 2181SOL    HW218177   3.628   0.374   6.543 -0.8306 -2.7387  0.1910
 2182SOL     OW18178   2.576   3.890  12.177 -0.2171  0.9855 -0.0286
 2182SOL    HW118179   2.570   3.880  12.082  0.6617 -1.0447  0.1237
 2182SOL    HW218180   2.489   3.921  12.202 -0.7840 -1.4102  0.9638
 2183SOL     OW18181   2.674   2.734  15.365  0.0231 -0.1891 -0.3242
 2183SOL    HW118182   2.604   2.787  15.403  0.3895 -0.1995  0.3806
 2183SOL    HW218183   2.625   2.656  15.339  0.7081 -0.6912 -0.1221
 2184SOL     OW18184   0.210   1.128  14.247 -0.5769 -0.4245 -0.3986
 2184SOL    HW118185   0.214   1.095  14.337 -0.4756  0.2633 -0.1463
 2184SOL    HW218186   0.303   1.133  14.228  0.0054 -0.3782  2.4978
 2185SOL     OW18187   3.335   0.396   9.253 -0.2378 -0.0687  0.2703
 2185SOL    HW118188   3.388   0.431   9.324  0.1830 -2.4552  1.1187
 2185SOL    HW218189   3.326   0.304   9.276  0.9122  0.0507  1.1673
 2186SOL     OW18190   3.911   4.369   3.735  0.0182 -0.4348 -0.4685
 2186SOL    HW118191   3.847   4.394   3.802  0.1737 -0.2600 -0.3853
 2186SOL    HW218192   3.975   4.440   3.738 -0.0585 -0.4149  0.8139
 2187SOL     OW18193   0.009   2.996  12.770 -0.1847 -0.1509  0.2352
 2187SOL    HW118194   4.681   2.988  12.702  1.1785 -1.2858 -0.9520
 2187SOL    HW218195   0.093   3.010  12.727 -0.2042  2.9402  1.1370
 2188SOL     OW18196   0.957   3.295  11.358  0.4040 -0.1135  0.3814
 2188SOL    HW118197   1.009   3.214  11.356  0.1955 -0.2384 -0.0345
 2188SOL    HW218198   0.956   3.320  11.450 -2.0123 -2.0091  0.8669
 2189SOL     OW18199   2.965   4.037   2.670  0.2392 -0.2199  0.0966
 2189SOL    HW118200   2.990   4.103   2.606 -0.6725  0.7526  0.7381
 2189SOL    HW218201   2.923   4.100   2.728 -1.1476 -1.6129  0.6162
 2190SOL     OW18202   4.674   2.189  11.171 -0.2248  0.0761  0.1326
 2190SOL    HW118203   4.683   2.280  11.143 -0.7740  0.0346 -0.1952
 2190SOL    HW218204   4.666   2.198  11.266  0.3477  0.8653  0.1096
 2191SOL     OW18205   2.401   0.075  12.045 -0.7459 -0.1150  0.0551
 2191SOL    HW118206   2.434   0.015  11.978 -0.2557  2.3331 -1.8986
 2191SOL    HW218207   2.307   0.060  12.042 -1.0620  1.7321  0.7133
 2192SOL     OW18208   4.295   3.217   8.493  0.2254 -0.1874 -0.0279
 2192SOL    HW118209   4.322   3.302   8.458 -1.0137 -0.5366 -1.8210
 2192SOL    HW218210   4.204   3.244   8.499  0.4674  0.2265  1.8373
 2193SOL     OW18211   0.339   4.467   0.668  0.9288 -0.0709  0.0641
 2193SOL    HW118212   0.332   4.399   0.601 -0.6170  0.8374 -0.7143
 2193SOL    HW218213   0.388   4.532   0.617 -0.1911  1.2093  0.6172
 2194SOL     OW18214   3.843   1.243   9.243  0.7501 -0.1882 -0.0040
 2194SOL    HW118215   3.766   1.195   9.273 -0.1968  0.0750 -1.9569
 2194SOL    HW218216   3.809   1.273   9.158  2.1096  0.2217 -0.4110
 2195SOL     OW18217   2.316   3.704   1.151 -0.0642 -0.0176 -0.4831
 2195SOL    HW118218   2.311   3.655   1.069  2.2838 -2.0361  0.5746
 2195SOL    HW218219   2.281   3.792   1.139  0.5018  0.9262  4.6122
 2196SOL     OW18220   2.761   4.150  11.259  0.7539 -0.5603  0.0608
 2196SOL    HW118221   2.719   4.084  11.204  2.4050 -0.4677 -1.2838
 2196SOL    HW218222   2.820   4.089  11.305 -0.1172 -1.3743  0.1106
 2197SOL     OW18223   3.426   1.395   4.754  0.1223  0.0175  0.0869
 2197SOL    HW118224   3.449   1.473   4.703  1.5457  0.8130  1.9509
 2197SOL    HW218225   3.334   1.382   4.728  0.7559  2.1027 -3.2452
 2198SOL     OW18226   1.308   3.492   6.075  0.0735 -0.4560 -0.2197
 2198SOL    HW118227   1.383   3.474   6.018 -0.7355  0.4306 -1.5637
 2198SOL    HW218228   1.352   3.524   6.153  0.4806 -1.8962  0.1488
 2199SOL     OW18229   0.879   2.686   0.390  0.3323  0.3592 -0.1153
 2199SOL    HW118230   0.829   2.610   0.359 -0.1186  1.0408 -1.0631
 2199SOL    HW218231   0.884   2.749   0.318  2.5429  0.2774 -0.0285
 2200SOL     OW18232   3.973   1.641  13.047  0.0464  0.2737  0.1897
 2200SOL    HW118233   3.944   1.727  13.074  1.4687 -0.0370  2.7375
 2200SOL    HW218234   3.892   1.603  13.013  0.6624 -0.8271 -0.0740
 2201SOL     OW18235   3.903   0.225  16.934  0.2665  0.3193 -0.4764
 2201SOL    HW118236   3.900   0.129  16.938  1.6552  0.2332 -1.5293
 2201SOL    HW218237   3.812   0.255  16.936  0.2578  0.1141  2.1862
 2202SOL     OW18238   3.608   0.131   8.307 -0.0541 -0.8085  0.3547
 2202SOL    HW118239   3.568   0.044   8.309  2.7995 -2.1602 -0.1716
 2202SOL    HW218240   3.673   0.122   8.237  0.8243  0.1316  1.0491
 2203SOL     OW18241   2.121   2.823   3.087  0.4834  0.1402  0.4370
 2203SOL    HW118242   2.120   2.731   3.061  0.5322  0.6023 -1.1764
 2203SOL    HW218243   2.215   2.835   3.101  0.3967 -1.1448  2.1752
 2204SOL     OW18244   0.498   4.251  11.217  0.4275  0.7982  0.0221
 2204SOL    HW118245   0.555   4.327  11.215 -0.3475  1.3719  0.0084
 2204SOL    HW218246   0.560   4.178  11.222 -0.9163 -0.6135 -3.5935
 2205SOL     OW18247   2.753   3.227  16.336  0.5298 -0.3890 -0.1510
 2205SOL    HW118248   2.719   3.204  16.249 -1.8109  1.6211  0.2411
 2205SOL    HW218249   2.725   3.319  16.338 -2.2570 -1.1968 -1.5402
 2206SOL     OW18250   0.770   3.730   3.660 -0.0674 -0.3439 -0.0223
 2206SOL    HW118251   0.758   3.694   3.748  0.1009  2.2699  1.0758
 2206SOL    HW218252   0.788   3.657   3.601  2.7296 -0.6347  1.1724
 2207SOL     OW18253   0.446   2.583  17.609 -0.4905  0.6070 -0.6223
 2207SOL    HW118254   0.425   2.662  17.559  0.7118  0.0914 -1.9495
 2207SOL    HW218255   0.360   2.541  17.612 -0.2480  0.1607  0.0405
 2208SOL     OW18256   0.086   1.427   6.152 -0.1640 -0.2569  0.6886
 2208SOL    HW118257   0.077   1.332   6.156 -0.9865 -0.3152 -2.1174
 2208SOL    HW218258   0.170   1.440   6.108 -0.9769  0.0730 -0.7679
 2209SOL     OW18259   1.725   1.729   4.241 -0.1736  0.3252 -0.0129
 2209SOL    HW118260   1.741   1.822   4.222 -0.6215  0.3574 -0.2478
 2209SOL    HW218261   1.644   1.706   4.195 -0.7811 -0.1889  1.3088
 2210SOL     OW18262   0.259   0.880   2.689  0.3226  0.5059 -0.5838
 2210SOL    HW118263   0.303   0.948   2.741  2.0632  0.0862 -1.5324
 2210SOL    HW218264   0.186   0.924   2.645 -0.1458 -0.8723 -1.1539
 2211SOL     OW18265   2.818   2.310   7.343  0.4875  0.3444 -0.1151
 2211SOL    HW118266   2.891   2.276   7.394  1.5474  2.7038 -0.0677
 2211SOL    HW218267   2.756   2.237   7.338 -0.2170  1.0440 -1.6673
 2212SOL     OW18268   1.305   0.436   5.917  0.2101  0.3043 -0.3022
 2212SOL    HW118269   1.222   0.477   5.941  0.8603  1.3542  0.1656
 2212SOL    HW218270   1.275   0.412   5.829  1.6305 -2.3901 -0.0598
 2213SOL     OW18271   4.545   0.311   6.402  0.0259 -0.1996  0.4795
 2213SOL    HW118272   4.542   0.219   6.428  0.1043  0.3699  2.5798
 2213SOL    HW218273   4.528   0.300   6.309 -0.1391  0.7422  0.3980
 2214SOL     OW18274   2.409   1.187   8.071 -0.0025 -0.2576 -0.2981
 2214SOL    HW118275   2.504   1.199   8.073 -0.1960  1.2711 -0.5780
 2214SOL    HW218276   2.372   1.234   8.145  1.1453 -1.0510  0.7757
 2215SOL     OW18277   0.925   1.249   7.350 -0.2204 -0.5714 -1.4143
 2215SOL    HW118278   0.863   1.179   7.369  1.1309 -0.5664  2.9673
 2215SOL    HW218279   1.003   1.201   7.323  0.7678 -0.9082  2.0379
 2216SOL     OW18280   0.784   2.776   5.418  0.2786  0.1563  0.4046
 2216SOL    HW118281   0.797   2.682   5.434  0.5744  0.2657  0.7959
 2216SOL    HW218282   0.797   2.817   5.503 -2.4274  1.4538  0.1913
 2217SOL     OW18283   1.908   1.751   3.277 -0.0513  0.2081 -0.3386
 2217SOL    HW118284   1.973   1.724   3.213 -0.3415 -0.0819 -0.5113
 2217SOL    HW218285   1.826   1.706   3.258 -0.9706  2.8516 -2.6278
 2218SOL     OW18286   3.907   1.979   9.438  0.2130  0.2495  0.2777
 2218SOL    HW118287   3.869   1.975   9.351  1.7812 -2.4029 -0.2982
 2218SOL    HW218288   3.833   1.945   9.489 -0.4375 -0.3086 -1.0293
 2219SOL     OW18289   0.501   4.555   1.890 -0.3778 -0.0890  0.3187
 2219SOL    HW118290   0.513   4.625   1.953  1.2281 -0.2897  0.2359
 2219SOL    HW218291   0.539   4.589   1.809  1.1291 -1.4786  0.4309
 2220SOL     OW18292   0.195   1.455  16.143 -0.6414 -0.2744 -0.6730
 2220SOL    HW118293   0.223   1.546  16.137  2.0498 -1.0693 -0.5491
 2220SOL    HW218294   0.183   1.437  16.050 -0.3549  0.0448 -0.7739
 2221SOL     OW18295   2.984   3.597  13.887 -0.2832  0.2802  0.1329
 2221SOL    HW118296   2.981   3.677  13.940 -0.1452  0.9161 -0.8076
 2221SOL    HW218297   2.890   3.584  13.876  0.1600 -1.4821 -1.5224
 2222SOL     OW18298   2.711   2.234  17.433 -0.5200  0.0180  0.4880
 2222SOL    HW118299   2.797   2.274  17.417 -0.1102 -0.5281  1.3164
 2222SOL    HW218300   2.679   2.219  17.344 -1.9829  2.8280  0.5476
 2223SOL     OW18301   1.809   3.060  17.062  0.1040  0.7182  0.0830
 2223SOL    HW118302   1.762   3.020  16.989 -2.2584  0.3735  1.7948
 2223SOL    HW218303   1.879   2.997  17.079 -1.9907 -2.1271 -1.7111
 2224SOL     OW18304   3.177   2.515   8.543 -0.0788 -0.3930  0.6766
 2224SOL    HW118305   3.232   2.477   8.474  0.5055 -2.6584  2.4025
 2224SOL    HW218306   3.118   2.570   8.492 -0.5780  1.3513  3.1230
 2225SOL     OW18307   1.305   3.164   9.463 -0.0762  0.2764  0.3557
 2225SOL    HW118308   1.318   3.080   9.420 -1.7653  1.0900 -1.7217
 2225SOL    HW218309   1.336   3.221   9.393 -0.6994  0.1722  0.0053
 2226SOL     OW18310   1.055   2.357   9.009  0.2000  0.2273 -0.1629
 2226SOL    HW118311   1.067   2.447   8.980 -0.0629  0.7809  1.4497
 2226SOL    HW218312   1.095   2.327   8.927  0.6393  0.5439 -0.0599
 2227SOL     OW18313   1.421   4.248  11.468  0.1722  0.5160  0.6488
 2227SOL    HW118314   1.465   4.267  11.385 -2.0558 -0.5405 -0.7880
 2227SOL    HW218315   1.496   4.269  11.523  1.0908  0.6647 -0.6489
 2228SOL     OW18316   4.497   1.037  11.583 -0.0518  0.9983  0.3583
 2228SOL    HW118317   4.455   1.084  11.511 -2.1314  0.3816  1.1752
 2228SOL    HW218318   4.554   1.107  11.613  1.3771  0.9596 -2.2395
 2229SOL     OW18319   1.708   1.836   8.513 -0.5091 -0.0073  0.2497
 2229SOL    HW118320   1.661   1.768   8.563 -1.4434 -0.2546 -0.9668
 2229SOL    HW218321   1.715   1.797   8.426  0.4528  0.8127 -0.0390
 2230SOL     OW18322   0.082   1.452  12.256 -0.3109  0.7947  0.6457
 2230SOL    HW118323   0.135   1.374  12.238 -2.0160 -0.1873 -0.1318
 2230SOL    HW218324   0.070   1.473  12.164  1.1323 -0.0617  0.2660
 2231SOL     OW18325   0.775   0.371  14.005  0.1230 -0.0072 -0.6914
 2231SOL    HW118326   0.754   0.450  14.054  0.4214  0.3180 -1.0837
 2231SOL    HW218327   0.744   0.389  13.916 -0.5378  0.4858 -0.3659
 2232SOL     OW18328   0.144   3.547   1.133 -0.0446  0.1365 -0.1253
 2232SOL    HW118329   0.237   3.569   1.146 -0.3286  1.4910 -0.3934
 2232SOL    HW218330   0.117   3.576   1.046  0.9822 -1.7176 -1.0690
 2233SOL     OW18331   1.653   1.181  15.008  0.3311  1.0066 -0.5302
 2233SOL    HW118332   1.577   1.240  15.002  0.4100  1.0968 -0.6476
 2233SOL    HW218333   1.620   1.108  14.957  1.1968  1.6195 -1.9599
 2234SOL     OW18334   3.717   3.010   4.934 -0.1888 -0.4572 -0.4068
 2234SOL    HW118335   3.686   2.934   4.984 -1.1275 -0.4104 -0.9228
 2234SOL    HW218336   3.809   3.014   4.962  0.2893 -2.3840 -1.7243
 2235SOL     OW18337   1.875   1.144  12.730  0.5048 -0.2421  0.0033
 2235SOL    HW118338   1.954   1.148  12.677  2.4581 -1.9231  2.7522
 2235SOL    HW218339   1.906   1.115  12.816  0.4949  0.0021  0.0889
 2236SOL     OW18340   1.937   2.488   0.005  0.6984  0.2665 -0.3443
 2236SOL    HW118341   1.942   2.393  17.748 -0.2086  0.0658  1.1393
 2236SOL    HW218342   1.999   2.505   0.077 -0.7071  1.8337  0.4920
 2237SOL     OW18343   2.596   3.713   8.680  0.1044  0.0446 -0.6086
 2237SOL    HW118344   2.586   3.683   8.770 -0.2131 -0.5106 -0.8320
 2237SOL    HW218345   2.683   3.682   8.657 -0.3164 -1.9149  0.4590
 2238SOL     OW18346   3.559   0.563  10.933  0.1251  0.4890  0.0043
 2238SOL    HW118347   3.580   0.650  10.900  1.0862  0.0046 -0.6641
 2238SOL    HW218348   3.651   0.537  10.938  0.2912  0.7396 -1.6629
 2239SOL     OW18349   1.636   1.155  12.628 -0.1270 -0.3923 -0.1358
 2239SOL    HW118350   1.603   1.235  12.671  1.4609  0.5495 -0.6570
 2239SOL    HW218351   1.721   1.151  12.673  1.3112  0.2847 -2.8293
 2240SOL     OW18352   1.814   4.066   9.136 -0.4664  0.2512  0.2623
 2240SOL    HW118353   1.899   4.091   9.172 -0.8019  0.5161  0.8661
 2240SOL    HW218354   1.831   4.020   9.053  1.8409  2.6991 -0.6300
 2241SOL     OW18355   1.186   4.531   9.840 -0.5898 -0.4005  0.2469
 2241SOL    HW118356   1.093   4.536   9.860 -0.7943 -1.9679 -0.3280
 2241SOL    HW218357   1.207   4.456   9.897  1.7891  0.1054  0.0480
 2242SOL     OW18358   0.091   1.791   0.874 -0.3288 -0.3158  0.8079
 2242SOL    HW118359   0.071   1.826   0.787 -1.2178 -1.7284  0.4346
 2242SOL    HW218360   0.132   1.866   0.916  1.2879 -0.5197 -0.4075
 2243SOL     OW18361   4.727   2.821   2.055 -0.0803  0.2856 -0.4332
 2243SOL    HW118362   4.728   2.847   2.147  1.0966  0.7401 -0.5727
 2243SOL    HW218363   0.075   2.784   2.039 -1.2726 -2.1513 -1.2435
 2244SOL     OW18364   4.256   4.352   8.212 -0.1206 -0.0512  0.6201
 2244SOL    HW118365   4.239   4.278   8.270 -1.9456  0.1973  0.4043
 2244SOL    HW218366   4.303   4.415   8.266  3.0958 -2.2590  0.3517
 2245SOL     OW18367   0.146   2.120   5.201  0.0455 -0.0893 -0.2780
 2245SOL    HW118368   0.061   2.126   5.245  1.0297  0.8406  1.5094
 2245SOL    HW218369   0.174   2.038   5.242  1.0583 -0.1551 -1.1034
 2246SOL     OW18370   1.650   1.848   4.940 -0.2703  0.4140 -0.0042
 2246SOL    HW118371   1.631   1.756   4.922 -0.9347  0.9102 -1.8472
 2246SOL    HW218372   1.675   1.871   4.851 -2.9398  3.0354 -0.0700
 2247SOL     OW18373   0.400   3.157  12.796  0.1541  0.2697  0.1852
 2247SOL    HW118374   0.485   3.160  12.753  0.6168 -0.2832  1.0532
 2247SOL    HW218375   0.355   3.240  12.780  1.1796  0.7719 -0.0984
 2248SOL     OW18376   2.884   3.766  16.831  0.2518 -0.0874 -0.0152
 2248SOL    HW118377   2.814   3.829  16.815 -0.9796 -1.8477 -1.6114
 2248SOL    HW218378   2.874   3.747  16.924 -0.8848 -0.1532 -0.1431
 2249SOL     OW18379   0.680   3.627   2.383  0.3148 -0.4847  0.4035
 2249SOL    HW118380   0.676   3.574   2.463 -0.8118 -2.0885 -0.7074
 2249SOL    HW218381   0.751   3.583   2.336 -0.2387 -0.4043 -0.5002
 2250SOL     OW18382   3.304   3.566   6.587  0.0959 -0.6177  0.1155
 2250SOL    HW118383   3.242   3.568   6.514  0.4962 -4.9312 -0.3110
 2250SOL    HW218384   3.305   3.656   6.620  2.5512 -0.7025  0.3242
 2251SOL     OW18385   3.830   3.209   8.647 -0.0214 -0.8035 -1.0138
 2251SOL    HW118386   3.889   3.149   8.692  2.0488  1.9553 -0.0984
 2251SOL    HW218387   3.875   3.224   8.564 -0.9631  0.9333 -1.2177
 2252SOL     OW18388   0.607   2.772   1.838  0.3507 -0.4953  0.2884
 2252SOL    HW118389   0.687   2.808   1.878  0.1893 -0.1270  0.2805
 2252SOL    HW218390   0.596   2.698   1.897 -0.3999 -0.7425 -0.1557
 2253SOL     OW18391   2.449   3.890   3.864  0.2106 -0.1749  0.4779
 2253SOL    HW118392   2.528   3.934   3.834  0.6653 -1.8311 -0.7517
 2253SOL    HW218393   2.405   3.974   3.874 -2.1207 -1.2618 -0.6614
 2254SOL     OW18394   2.586   4.483  11.572  0.5746  0.5434 -0.1192
 2254SOL    HW118395   2.602   4.410  11.512  1.7545 -0.9671  2.0666
 2254SOL    HW218396   2.520   4.443  11.629  0.3605  0.2351 -0.5785
 2255SOL     OW18397   4.702   1.995   7.014 -0.1677  0.3734 -0.8792
 2255SOL    HW118398   0.040   1.986   7.070 -0.4107  1.1883 -0.4121
 2255SOL    HW218399   4.631   2.006   7.078  0.3252 -0.2061 -0.2343
 2256SOL     OW18400   0.717   4.578   1.375 -0.2405 -0.2836 -0.3760
 2256SOL    HW118401   0.667   4.558   1.296 -0.3053 -0.4123 -0.3012
 2256SOL    HW218402   0.659   4.635   1.425  0.3518  1.2797 -1.4723
 2257SOL     OW18403   1.903   2.918   2.091 -0.3682 -0.0999 -0.3761
 2257SOL    HW118404   1.908   2.879   2.179  0.8352  0.6449 -0.1274
 2257SOL    HW218405   1.823   2.870   2.069  0.2425 -1.5632  0.5930
 2258SOL     OW18406   3.929   2.034  17.718 -0.0203  1.1288  0.3894
 2258SOL    HW118407   3.904   1.990   0.046  0.3375  0.7599  0.2944
 2258SOL    HW218408   3.873   2.110  17.739 -0.6682  0.1746  2.0917
 2259SOL     OW18409   3.763   4.025   5.935 -0.1695  0.2147 -0.0942
 2259SOL    HW118410   3.730   3.977   6.010  2.2118  0.2303  0.9778
 2259SOL    HW218411   3.680   4.021   5.888 -0.5501 -1.2831  0.7212
 2260SOL     OW18412   4.721   1.290   8.141 -0.0106  0.3388 -0.4637
 2260SOL    HW118413   0.020   1.330   8.219  1.8656  1.9690 -2.2210
 2260SOL    HW218414   0.004   1.350   8.070  0.2490 -0.4510 -1.0544
 2261SOL     OW18415   0.164   3.121   1.975 -0.2329  0.1357  0.2650
 2261SOL    HW118416   0.135   3.031   1.961 -1.2532  0.5156 -0.0573
 2261SOL    HW218417   0.186   3.147   1.885  1.9850 -0.0279  0.7717
 2262SOL     OW18418   0.850   1.623   8.214 -0.8630 -0.1489 -0.2466
 2262SOL    HW118419   0.770   1.571   8.218 -0.5916 -0.3608  2.0239
 2262SOL    HW218420   0.903   1.589   8.142 -1.1153  1.0431 -0.9942
 2263SOL     OW18421   0.392   1.687   7.029  0.8635 -0.3103 -0.1434
 2263SOL    HW118422   0.465   1.731   7.073  0.1913  0.6322  0.0400
 2263SOL    HW218423   0.419   1.638   6.952 -1.2844 -1.1481 -0.3528
 2264SOL     OW18424   0.103   2.322   9.621 -0.2309  0.0557  0.2132
 2264SOL    HW118425   0.196   2.342   9.612 -0.5446  2.4312  2.3872
 2264SOL    HW218426   0.087   2.270   9.543 -1.9044  0.1381  0.4968
 2265SOL     OW18427   3.736   0.821  11.141 -0.4516  0.0729  0.0465
 2265SOL    HW118428   3.717   0.823  11.047  3.5818 -0.3903 -0.7803
 2265SOL    HW218429   3.827   0.845  11.159  0.0325 -1.2389 -0.6692
 2266SOL     OW18430   1.938   1.341   4.933  0.5750  0.0479  0.5307
 2266SOL    HW118431   1.922   1.421   4.983 -0.5774 -1.2557  2.2812
 2266SOL    HW218432   1.848   1.317   4.912  0.9165 -1.2402  0.5240
 2267SOL     OW18433   4.146   0.683  17.271  0.2846 -0.0637  0.2153
 2267SOL    HW118434   4.157   0.617  17.202 -1.8992 -0.7856  0.5746
 2267SOL    HW218435   4.221   0.657  17.325  1.4049  1.3438 -0.6353
 2268SOL     OW18436   3.525   4.390  12.377 -1.0176  0.0847  0.2651
 2268SOL    HW118437   3.572   4.460  12.423  0.4868 -1.9041  1.7188
 2268SOL    HW218438   3.440   4.385  12.422  1.2700  0.2979  4.6573
 2269SOL     OW18439   3.925   4.363   8.419 -0.0880 -0.1704  0.0287
 2269SOL    HW118440   4.011   4.328   8.441 -0.1608 -0.5333 -0.2687
 2269SOL    HW218441   3.934   4.443   8.472  2.5441 -0.2725 -0.2694
 2270SOL     OW18442   1.877   1.516   5.626  0.2640  0.2816 -0.4388
 2270SOL    HW118443   1.925   1.448   5.671  1.1317  0.6562 -0.8014
 2270SOL    HW218444   1.790   1.505   5.665 -0.5502 -1.3926 -2.7326
 2271SOL     OW18445   3.613   0.570   2.532  0.7044 -0.1998  0.4586
 2271SOL    HW118446   3.652   0.493   2.573  0.2610 -0.0985  1.0559
 2271SOL    HW218447   3.541   0.541   2.475  0.9772 -1.7384  0.8991
 2272SOL     OW18448   3.176   1.304   6.803  0.0744 -0.3485 -0.4502
 2272SOL    HW118449   3.184   1.281   6.895 -0.9847 -3.4619 -1.1524
 2272SOL    HW218450   3.148   1.224   6.759  1.8657 -0.4139 -1.4957
 2273SOL     OW18451   4.543   0.036   2.823 -0.1016 -0.6219 -0.4794
 2273SOL    HW118452   4.457   0.062   2.853  0.2818  1.6303 -1.3693
 2273SOL    HW218453   4.560   4.704   2.885 -2.5314  0.5044  1.4440
 2274SOL     OW18454   0.806   1.937  10.797 -0.2065 -0.5577  0.7617
 2274SOL    HW118455   0.770   1.903  10.715 -0.2293  0.6088  0.2860
 2274SOL    HW218456   0.843   1.859  10.839  0.2820 -0.8507 -0.2038
 2275SOL     OW18457   1.949   1.833   8.644  0.4359  0.0573 -0.3109
 2275SOL    HW118458   1.927   1.867   8.731  2.8392  0.6567  0.0615
 2275SOL    HW218459   1.865   1.834   8.598  0.1149 -0.4126  0.2563
 2276SOL     OW18460   0.103   2.730  12.140 -0.3388 -0.6201 -0.5393
 2276SOL    HW118461   0.107   2.635  12.152 -0.9105 -0.5372  0.2885
 2276SOL    HW218462   0.039   2.735  12.070 -1.1225 -0.7265  0.1699
 2277SOL     OW18463   1.035   0.554   3.316 -0.2741  0.2358 -0.1681
 2277SOL    HW118464   1.077   0.492   3.256  0.0103 -0.4231  0.7256
 2277SOL    HW218465   1.099   0.625   3.311  0.9491 -0.8911 -0.5378
 2278SOL     OW18466   4.632   4.673   7.172  0.1111  0.3361  0.5959
 2278SOL    HW118467   4.546   4.717   7.173  0.5681  1.2603 -0.6577
 2278SOL    HW218468   4.664   4.696   7.085  2.7761 -0.0264  1.4918
 2279SOL     OW18469   3.197   0.125   2.326 -0.1580 -0.0745  0.8120
 2279SOL    HW118470   3.202   0.146   2.232  0.2773  1.3382  1.1399
 2279SOL    HW218471   3.106   0.097   2.338 -1.6076  4.4667  0.4663
 2280SOL     OW18472   4.697   2.879   2.353 -0.1128  0.5559  0.5314
 2280SOL    HW118473   4.693   2.935   2.431 -3.8753 -0.1963  0.8755
 2280SOL    HW218474   4.630   2.923   2.300  1.6131  1.9997 -0.4539
 2281SOL     OW18475   1.508   4.736   0.621 -0.2993  0.0508 -0.4383
 2281SOL    HW118476   1.527   0.084   0.585  2.0570 -0.1881  0.2432
 2281SOL    HW218477   1.442   0.027   0.685  1.1863  1.9037  0.2416
 2282SOL     OW18478   1.485   4.111  12.176 -0.3206  0.4292  0.5736
 2282SOL    HW118479   1.400   4.099  12.217 -0.2608  1.4807  1.0082
 2282SOL    HW218480   1.500   4.024  12.139 -1.1210  0.3917  0.3385
 2283SOL     OW18481   3.026   0.571  15.608  0.1742 -0.1648 -0.4063
 2283SOL    HW118482   3.015   0.637  15.539 -1.2215  1.0723  0.9918
 2283SOL    HW218483   3.077   0.508  15.556  3.7032  1.9525  0.4564
 2284SOL     OW18484   1.568   1.605   2.841 -0.1625 -0.0375  0.1453
 2284SOL    HW118485   1.487   1.612   2.891  0.2103  0.8370  0.6308
 2284SOL    HW218486   1.560   1.512   2.820  1.5988 -0.6579  2.1932
 2285SOL     OW18487   1.543   0.484   6.581  0.0315  0.3537  0.0981
 2285SOL    HW118488   1.513   0.573   6.562  0.0725  0.0621 -1.3088
 2285SOL    HW218489   1.577   0.466   6.494 -1.8710 -2.3814 -0.0636
 2286SOL     OW18490   2.392   4.191   9.332 -0.3358  0.2570 -0.4704
 2286SOL    HW118491   2.450   4.251   9.379 -0.7193  1.8174 -1.9514
 2286SOL    HW218492   2.318   4.249   9.311  0.4579  1.3988 -0.1322
 2287SOL     OW18493   4.247   0.041   4.564 -0.1451 -0.6214  0.2560
 2287SOL    HW118494   4.184   0.096   4.518 -0.4547  0.0557  1.4861
 2287SOL    HW218495   4.238   0.069   4.655 -2.3655  0.3782 -0.2767
 2288SOL     OW18496   0.688   0.600   8.734 -0.3432 -0.2050  0.0501
 2288SOL    HW118497   0.758   0.634   8.790  0.1088 -0.4047 -0.3904
 2288SOL    HW218498   0.719   0.510   8.744  1.3556  0.2883 -0.7702
 2289SOL     OW18499   4.551   0.729   7.307  0.9246  0.0671  0.1174
 2289SOL    HW118500   4.458   0.746   7.321  0.5965 -0.4823 -1.4080
 2289SOL    HW218501   4.544   0.634   7.299 -3.0206  0.4207 -0.9050
 2290SOL     OW18502   3.002   1.131   4.214 -0.6371  0.4574  0.0939
 2290SOL    HW118503   2.921   1.141   4.164 -2.1606  2.5962  3.0111
 2290SOL    HW218504   2.971   1.074   4.285  0.5019  0.6222  0.7392
 2291SOL     OW18505   2.389   4.351   4.503  0.0143 -0.0004 -0.3265
 2291SOL    HW118506   2.354   4.303   4.578  1.0738  0.5518  0.5224
 2291SOL    HW218507   2.389   4.440   4.538 -1.0063 -0.6189  1.2373
 2292SOL     OW18508   3.670   4.453   5.240 -0.2925  0.5942  0.5328
 2292SOL    HW118509   3.736   4.405   5.290 -1.2792 -1.3189 -0.0016
 2292SOL    HW218510   3.668   4.526   5.301  2.3416  2.0611 -1.1417
 2293SOL     OW18511   0.541   3.746   1.192  0.0776 -0.7541 -0.5209
 2293SOL    HW118512   0.601   3.674   1.170  2.0355  1.2504 -1.7936
 2293SOL    HW218513   0.499   3.699   1.263 -0.4546  0.1220 -0.2656
 2294SOL     OW18514   4.555   1.857   9.080 -0.5176 -0.1723  0.1305
 2294SOL    HW118515   4.551   1.865   8.985  0.4864 -0.8473  0.0345
 2294SOL    HW218516   4.640   1.894   9.103 -0.7094  1.5409 -1.9664
 2295SOL     OW18517   2.488   2.368  16.072  0.7008  0.2723  0.6051
 2295SOL    HW118518   2.414   2.404  16.024 -1.1928 -3.9944  0.3150
 2295SOL    HW218519   2.481   2.407  16.159  0.6372 -2.1553  1.7016
 2296SOL     OW18520   0.656   1.025   1.943 -0.2122 -0.5639 -0.7297
 2296SOL    HW118521   0.694   0.973   1.872  1.1484 -0.3127 -0.1689
 2296SOL    HW218522   0.701   0.992   2.020 -0.8331 -0.1869 -0.2070
 2297SOL     OW18523   2.410   1.012   3.438  0.7382 -0.2709 -0.4086
 2297SOL    HW118524   2.351   0.937   3.444 -1.0807  1.1467 -0.4664
 2297SOL    HW218525   2.444   1.012   3.527  0.2951  0.2760 -0.2402
 2298SOL     OW18526   1.882   1.583   9.445  0.3817 -0.3983 -0.0740
 2298SOL    HW118527   1.918   1.666   9.411  0.2279 -0.8987 -1.4565
 2298SOL    HW218528   1.920   1.586   9.533  1.1577 -0.4843 -0.4077
 2299SOL     OW18529   1.613   2.677   1.145  0.0953  0.1006  0.0994
 2299SOL    HW118530   1.571   2.758   1.176  0.2483  0.2357 -0.0512
 2299SOL    HW218531   1.704   2.690   1.172 -0.3511  0.6440  1.3371
 2300SOL     OW18532   1.370   1.393   5.418 -0.3258 -0.8067 -0.1897
 2300SOL    HW118533   1.338   1.480   5.443  1.3659 -0.0909 -0.5207
 2300SOL    HW218534   1.439   1.403   5.353 -1.4046  1.7966 -0.9126
 2301SOL     OW18535   0.540   2.438   4.420 -0.5628  0.2999 -0.2637
 2301SOL    HW118536   0.490   2.491   4.358 -0.3493 -0.1823 -0.8519
 2301SOL    HW218537   0.497   2.439   4.505  1.6894 -0.1359  0.8959
 2302SOL     OW18538   2.573   4.370   8.571 -0.0360 -0.3668  0.3640
 2302SOL    HW118539   2.648   4.430   8.575 -0.6526  0.4544 -0.5051
 2302SOL    HW218540   2.615   4.289   8.543 -3.2393 -1.2203 -1.9811
 2303SOL     OW18541   2.228   4.259   6.812  0.3408 -0.1779  0.4737
 2303SOL    HW118542   2.165   4.245   6.883  0.2552 -1.3951  0.1532
 2303SOL    HW218543   2.186   4.219   6.736 -1.9508  1.0334  1.1043
 2304SOL     OW18544   2.766   0.165  13.473 -0.1537  0.3000 -0.4966
 2304SOL    HW118545   2.743   0.201  13.558  0.4660 -0.7801  0.1208
 2304SOL    HW218546   2.695   0.194  13.416 -0.7641 -2.2222 -1.0267
 2305SOL     OW18547   2.063   2.968   0.272  0.0448  0.3126 -0.3649
 2305SOL    HW118548   2.034   3.034   0.210  0.7857 -0.3078 -1.3789
 2305SOL    HW218549   2.155   2.994   0.281  0.2287  0.4009 -2.4871
 2306SOL     OW18550   3.395   3.133  11.929 -0.0754 -0.3279 -1.0944
 2306SOL    HW118551   3.419   3.061  11.987  0.1193 -0.3180 -1.1637
 2306SOL    HW218552   3.485   3.158  11.906 -0.0679 -0.0321 -0.7309
 2307SOL     OW18553   1.392   0.072   8.894 -0.3072  0.5976 -0.1599
 2307SOL    HW118554   1.357   0.145   8.946  1.7682  1.8249 -0.4984
 2307SOL    HW218555   1.337   0.083   8.817  0.6880  2.2762 -0.6103
 2308SOL     OW18556   2.268   1.405   6.555 -0.2924  0.3904 -0.1328
 2308SOL    HW118557   2.224   1.352   6.621 -1.5009  0.3237 -0.9934
 2308SOL    HW218558   2.206   1.426   6.486 -1.7601 -2.2729  0.3862
 2309SOL     OW18559   2.649   3.995   4.389  0.3804 -0.3593 -0.2613
 2309SOL    HW118560   2.625   3.903   4.403  1.4443 -0.5972 -0.0170
 2309SOL    HW218561   2.744   3.991   4.396  0.4533  2.8452  0.6605
 2310SOL     OW18562   3.020   1.468   4.292 -0.2254  0.4034 -0.0877
 2310SOL    HW118563   3.099   1.442   4.339 -0.8088  0.6590  1.0370
 2310SOL    HW218564   3.019   1.407   4.218  1.0003  0.3271 -0.0383
 2311SOL     OW18565   4.223   2.219   3.967 -0.3537  0.4774  0.6774
 2311SOL    HW118566   4.311   2.238   4.000 -0.1904  1.9285 -0.6029
 2311SOL    HW218567   4.226   2.225   3.872 -1.3861  1.0139  0.6763
 2312SOL     OW18568   1.039   1.309   6.587 -0.2842 -0.2104 -0.3878
 2312SOL    HW118569   0.983   1.246   6.633  2.4645 -1.4307  1.2603
 2312SOL    HW218570   1.077   1.344   6.668 -0.0479  1.4531 -1.2305
 2313SOL     OW18571   2.852   3.741   6.077 -0.1450 -0.0499 -0.1787
 2313SOL    HW118572   2.937   3.783   6.094 -0.2300 -0.3422  0.9658
 2313SOL    HW218573   2.807   3.716   6.157  0.3965  2.6311  0.9677
 2314SOL     OW18574   0.362   4.305   4.533  0.0998  0.1308 -0.3902
 2314SOL    HW118575   0.397   4.338   4.616  2.4687 -1.3798 -0.7914
 2314SOL    HW218576   0.269   4.291   4.553  0.3825 -2.4750 -0.8397
 2315SOL     OW18577   3.205   4.459   6.147 -0.1896  0.0978 -0.1347
 2315SOL    HW118578   3.173   4.536   6.101 -1.7935 -0.4620  0.0362
 2315SOL    HW218579   3.126   4.429   6.194 -0.4657 -2.5228 -2.2504
 2316SOL     OW18580   4.100   4.728   6.621  0.1881 -0.3164 -0.0213
 2316SOL    HW118581   4.084   4.641   6.659  1.2040 -1.1156 -1.4304
 2316SOL    HW218582   4.084   4.703   6.530  4.6942 -0.2020 -0.8527
 2317SOL     OW18583   3.683   2.066   5.540 -0.0450 -0.7340  0.3908
 2317SOL    HW118584   3.591   2.039   5.535 -0.3170  0.0614  1.1186
 2317SOL    HW218585   3.713   2.045   5.451  2.4319  3.2100  0.2825
 2318SOL     OW18586   3.568   1.273   7.644  0.1438  0.3218 -0.7806
 2318SOL    HW118587   3.563   1.354   7.695  1.3199 -0.9323  1.3191
 2318SOL    HW218588   3.525   1.207   7.697  1.7155 -0.9510 -1.0802
 2319SOL     OW18589   1.775   2.581   0.901 -0.5409  0.0775 -0.6175
 2319SOL    HW118590   1.689   2.610   0.869 -0.8848 -0.2134  0.0425
 2319SOL    HW218591   1.767   2.486   0.890 -0.1042 -0.1427  1.0143
 2320SOL     OW18592   2.864   1.369   8.074  0.3883 -0.9267 -0.4781
 2320SOL    HW118593   2.860   1.448   8.020  1.6976  0.4618  1.4808
 2320SOL    HW218594   2.933   1.389   8.138 -0.1183 -2.9069  0.6998
 2321SOL     OW18595   2.283   0.649   4.966 -1.0387  0.7949  0.2305
 2321SOL    HW118596   2.210   0.609   5.012 -0.6388  0.4239  0.5404
 2321SOL    HW218597   2.313   0.582   4.905  1.0944  0.3684  1.7271
 2322SOL     OW18598   4.582   3.172   2.566  0.7609  0.5395 -0.4872
 2322SOL    HW118599   4.534   3.184   2.647  0.5709  2.6670 -0.9167
 2322SOL    HW218600   4.514   3.151   2.503 -1.4663 -0.2427  2.1994
 2323SOL     OW18601   4.571   2.989   3.591 -0.0546 -0.3524  0.0696
 2323SOL    HW118602   4.634   3.046   3.634  2.1491 -1.0650 -2.2062
 2323SOL    HW218603   4.501   3.049   3.565 -0.7859 -0.6430  1.3995
 2324SOL     OW18604   2.929   0.830  14.603 -0.3484 -0.1961  0.1364
 2324SOL    HW118605   2.898   0.741  14.623  1.7475 -0.7904  0.7781
 2324SOL    HW218606   3.005   0.809  14.549 -0.4031  0.8109 -0.3250
 2325SOL     OW18607   1.514   0.611   2.095 -0.2982  0.1713 -0.1510
 2325SOL    HW118608   1.581   0.660   2.048  0.5626 -1.3842 -0.5401
 2325SOL    HW218609   1.527   0.525   2.054  0.2016  1.8757 -3.5054
 2326SOL     OW18610   4.064   1.429   5.844  0.3941 -0.1357  0.0529
 2326SOL    HW118611   4.100   1.393   5.763  1.9260  1.1927  0.1478
 2326SOL    HW218612   3.978   1.387   5.836  0.5385 -0.1779 -1.2576
 2327SOL     OW18613   3.449   1.791   8.886 -0.4512 -0.0990 -0.5490
 2327SOL    HW118614   3.388   1.863   8.899  0.0024 -0.2395  2.2197
 2327SOL    HW218615   3.442   1.771   8.792  0.1574 -0.5548 -0.4983
 2328SOL     OW18616   1.002   1.418  12.798  0.3536 -0.4878 -0.1403
 2328SOL    HW118617   1.037   1.368  12.873  1.1265 -0.3283 -0.3977
 2328SOL    HW218618   0.932   1.356  12.777  0.6060 -1.7535  2.6384
 2329SOL     OW18619   4.655   2.717   3.591  0.2908 -0.4561  0.1462
 2329SOL    HW118620   0.009   2.718   3.613  0.1275  1.1226  0.7383
 2329SOL    HW218621   4.636   2.810   3.598  0.1076 -0.5754  1.2549
 2330SOL     OW18622   4.268   4.483   4.114 -0.7657 -0.3631 -0.1602
 2330SOL    HW118623   4.339   4.537   4.148 -1.0668  0.9343 -1.5627
 2330SOL    HW218624   4.297   4.423   4.045  0.7427 -1.1029  1.1183
 2331SOL     OW18625   1.762   1.535   8.437  0.4986 -0.4709 -0.0796
 2331SOL    HW118626   1.791   1.554   8.526  2.8435  0.8814 -1.1286
 2331SOL    HW218627   1.693   1.471   8.455  0.4572  0.1326  1.8989
 2332SOL     OW18628   4.489   2.799   3.930  0.5262  0.1809 -0.0770
 2332SOL    HW118629   4.419   2.807   3.865  0.4328  1.6997  0.2152
 2332SOL    HW218630   4.520   2.709   3.921  0.8617  0.5402 -2.4433
 2333SOL     OW18631   0.546   1.178   6.854 -0.2019  0.0043  0.4725
 2333SOL    HW118632   0.559   1.165   6.948  2.1721  0.3912  0.1962
 2333SOL    HW218633   0.484   1.251   6.864  0.9630  1.4100 -2.6989
 2334SOL     OW18634   0.373   1.477   9.347 -0.3587 -0.1089  0.2182
 2334SOL    HW118635   0.292   1.448   9.390 -0.5082 -1.3043 -0.8829
 2334SOL    HW218636   0.350   1.569   9.329  1.6240  0.2904 -0.2503
 2335SOL     OW18637   4.737   4.386   4.798  0.1513  0.1171 -0.0387
 2335SOL    HW118638   0.053   4.381   4.876  1.9950  1.6541 -1.2160
 2335SOL    HW218639   4.679   4.461   4.813  0.4384 -0.0150  1.6949
 2336SOL     OW18640   2.831   2.078   8.396  0.5808  0.4391  0.2717
 2336SOL    HW118641   2.858   2.034   8.315  0.3428  0.4290  0.1978
 2336SOL    HW218642   2.811   2.169   8.372 -0.9918 -0.2903 -1.2267
 2337SOL     OW18643   2.267   1.462   2.782  0.0297 -0.5535 -0.3530
 2337SOL    HW118644   2.208   1.474   2.856  0.2000  0.9317 -0.4407
 2337SOL    HW218645   2.223   1.394   2.732 -0.2871 -1.3231  0.9856
 2338SOL     OW18646   3.758   3.084   0.075 -0.2419  0.2494 -0.0280
 2338SOL    HW118647   3.670   3.047   0.078 -0.8237  1.8139  2.2216
 2338SOL    HW218648   3.756   3.115   0.165  3.1733  0.8689 -0.1710
 2339SOL     OW18649   3.714   3.071   3.886 -0.2622  0.5936  0.2151
 2339SOL    HW118650   3.641   3.123   3.852 -0.3131 -0.2626 -0.9962
 2339SOL    HW218651   3.672   2.985   3.884  1.8729 -0.4204 -1.1655
 2340SOL     OW18652   3.047   0.406   7.562  0.6650 -0.0568 -0.0916
 2340SOL    HW118653   3.122   0.383   7.507  1.2996  1.2685  0.1956
 2340SOL    HW218654   3.056   0.339   7.629  2.9232  1.9270  1.6258
 2341SOL     OW18655   2.791   2.703   7.970 -0.2155  0.4275  0.1069
 2341SOL    HW118656   2.793   2.770   7.901 -0.0318  0.3035 -0.0074
 2341SOL    HW218657   2.875   2.660   7.952 -0.4328  0.3432 -0.7164
 2342SOL     OW18658   3.386   0.607   8.324  0.4989  0.0420  0.3669
 2342SOL    HW118659   3.336   0.564   8.255  2.5085  0.3993 -1.3106
 2342SOL    HW218660   3.433   0.672   8.271 -1.7247  1.5852  0.2853
 2343SOL     OW18661   1.684   2.213  15.846  0.0612  0.0579 -0.9533
 2343SOL    HW118662   1.629   2.136  15.865  0.6399 -0.4997 -1.5405
 2343SOL    HW218663   1.626   2.264  15.789  1.5376  1.0104 -1.5980
 2344SOL     OW18664   1.413   4.556  15.632  0.1598 -0.0102 -0.7357
 2344SOL    HW118665   1.325   4.518  15.628 -0.9809  2.5263  0.0638
 2344SOL    HW218666   1.449   4.553  15.543  1.8478  0.6613 -0.0738
 2345SOL     OW18667   3.304   4.472  17.717  0.2512  0.0718 -0.5162
 2345SOL    HW118668   3.215   4.490  17.686 -0.2008 -1.4016 -0.0917
 2345SOL    HW218669   3.288   4.407   0.032 -2.0438  2.3253  1.1284
 2346SOL     OW18670   2.938   4.446  11.731 -0.2785 -0.0843 -0.5422
 2346SOL    HW118671   2.913   4.419  11.820  1.9993  2.0133  0.7642
 2346SOL    HW218672   2.950   4.541  11.736 -2.0415  0.0932  0.1036
 2347SOL     OW18673   3.858   3.992   8.326  0.6598 -0.1516 -0.2268
 2347SOL    HW118674   3.928   4.056   8.312 -2.4239  3.3007  0.0567
 2347SOL    HW218675   3.851   3.943   8.244  0.5892  2.3961 -1.7469
 2348SOL     OW18676   4.133   3.138   9.167 -0.4486 -0.3076 -0.9076
 2348SOL    HW118677   4.192   3.136   9.242 -0.5208  0.7782 -0.8086
 2348SOL    HW218678   4.062   3.084   9.202  0.0216 -0.3054  0.0335
 2349SOL     OW18679   0.960   3.570  17.384 -0.1483 -0.4349 -0.2229
 2349SOL    HW118680   0.875   3.563  17.427  0.1945 -2.2870  0.1356
 2349SOL    HW218681   0.941   3.568  17.290  1.1990  2.0960 -0.5427
 2350SOL     OW18682   2.707   0.223  12.645  0.2639  0.0310 -0.6254
 2350SOL    HW118683   2.645   0.289  12.676  0.8928  0.3158  0.0379
 2350SOL    HW218684   2.690   0.160  12.716  2.9614 -2.5687 -2.3005
 2351SOL     OW18685   2.659   4.617  17.101  0.0698 -0.3859  0.3215
 2351SOL    HW118686   2.653   4.545  17.038 -2.0078 -1.1757  1.4536
 2351SOL    HW218687   2.749   4.609  17.134  1.2756 -3.4739 -3.7090
 2352SOL     OW18688   2.067   1.421   7.629 -0.5570 -0.0335  0.5726
 2352SOL    HW118689   2.050   1.389   7.540 -2.8829  0.0134  0.9987
 2352SOL    HW218690   2.130   1.355   7.659  0.1686  0.5790  0.3831
 2353SOL     OW18691   4.216   4.552   1.904  0.0152 -0.2483  0.0231
 2353SOL    HW118692   4.154   4.506   1.847  0.3278 -2.3308  1.3615
 2353SOL    HW218693   4.236   4.478   1.961 -0.2594  0.5398  1.1304
 2354SOL     OW18694   2.053   4.255   5.935  0.4989  0.0592  0.6648
 2354SOL    HW118695   2.148   4.257   5.943  0.2883  1.8753  2.8185
 2354SOL    HW218696   2.034   4.278   6.026 -3.6586 -0.5482 -0.0422
 2355SOL     OW18697   0.351   2.932   4.326  0.0968  0.3652 -0.3707
 2355SOL    HW118698   0.405   2.958   4.251 -0.1869  2.3081  0.1188
 2355SOL    HW218699   0.269   2.920   4.279  0.5418 -0.7799 -0.8605
 2356SOL     OW18700   1.992   2.052   0.081  0.5125  0.0586  0.4090
 2356SOL    HW118701   1.917   2.034   0.138  0.2864  1.3677  0.5331
 2356SOL    HW218702   2.066   2.016   0.129  2.4955  2.7865 -0.5897
 2357SOL     OW18703   3.131   1.982  12.054 -0.6979 -0.3051  0.4361
 2357SOL    HW118704   3.222   1.983  12.025 -0.5165 -0.5907  0.9962
 2357SOL    HW218705   3.112   2.075  12.057 -1.0337 -0.3533 -0.1769
 2358SOL     OW18706   0.693   0.066  17.750  0.0067 -0.8578 -0.0343
 2358SOL    HW118707   0.715   0.008   0.070 -0.3137 -1.7497 -0.6511
 2358SOL    HW218708   0.647   0.135   0.046 -2.1333 -1.9929 -0.4646
 2359SOL     OW18709   4.498   3.529   0.982  0.3141 -0.0703  0.0344
 2359SOL    HW118710   4.558   3.459   1.004  0.1859 -0.4439 -0.7816
 2359SOL    HW218711   4.448   3.492   0.909  1.0543 -2.7708  0.8964
 2360SOL     OW18712   3.697   4.514   3.887  0.2699  0.0649 -0.1642
 2360SOL    HW118713   3.761   4.495   3.956 -0.3925  0.3823  0.5337
 2360SOL    HW218714   3.631   4.452   3.918  1.3618 -0.1110  1.8304
 2361SOL     OW18715   0.654   4.202   8.626  0.6484 -0.0758  0.9629
 2361SOL    HW118716   0.589   4.140   8.593  0.0718  0.3190  1.3590
 2361SOL    HW218717   0.741   4.176   8.597  0.9842 -0.0975  2.0174
 2362SOL     OW18718   2.643   2.313   0.496 -0.2230  0.4388  0.0856
 2362SOL    HW118719   2.621   2.405   0.513 -2.5570 -0.4455  1.7864
 2362SOL    HW218720   2.607   2.297   0.409  2.6371 -0.0712 -0.9923
 2363SOL     OW18721   3.068   2.942   8.760  0.1345 -0.0734  0.2442
 2363SOL    HW118722   3.047   3.019   8.813 -0.3744 -1.9884  2.8090
 2363SOL    HW218723   3.056   2.979   8.672 -1.2170 -1.2381 -0.0541
 2364SOL     OW18724   3.150   2.993   5.231  0.3719  0.3725 -0.0235
 2364SOL    HW118725   3.207   2.921   5.203 -0.8292 -0.8981  0.8246
 2364SOL    HW218726   3.183   3.065   5.177 -0.4415  0.9354  0.2346
 2365SOL     OW18727   4.330   3.151  13.595  0.0326  0.1664  0.3448
 2365SOL    HW118728   4.331   3.245  13.578  0.6692  0.2706  0.9577
 2365SOL    HW218729   4.401   3.123  13.537  1.6410  1.7113  1.5703
 2366SOL     OW18730   0.725   3.349   8.158 -0.8933  0.3536 -0.6120
 2366SOL    HW118731   0.785   3.409   8.114  1.5211  0.4698  2.8699
 2366SOL    HW218732   0.678   3.416   8.209 -0.7983 -0.9906  1.2491
 2367SOL     OW18733   1.993   4.246   7.455 -0.0481  0.6929 -0.3566
 2367SOL    HW118734   2.043   4.255   7.536 -2.2821 -2.2015  1.3729
 2367SOL    HW218735   1.948   4.330   7.451 -0.5100  0.5903  2.5468
 2368SOL     OW18736   0.169   1.888   7.204  0.2556 -0.0518 -0.1547
 2368SOL    HW118737   0.243   1.924   7.253 -1.0250 -0.6438  2.2390
 2368SOL    HW218738   0.140   1.817   7.260  0.6378 -0.5954 -0.6526
 2369SOL     OW18739   2.834   1.984  12.332 -0.6321 -0.3487  0.3700
 2369SOL    HW118740   2.792   2.014  12.252 -3.6745 -0.2891  1.9606
 2369SOL    HW218741   2.848   2.072  12.368 -0.3377  0.5270 -1.9036
 2370SOL     OW18742   3.600   0.832  11.402  0.4161  0.0652 -0.9393
 2370SOL    HW118743   3.596   0.826  11.306  1.8312 -1.5499 -0.8920
 2370SOL    HW218744   3.653   0.755  11.420 -1.2654 -0.4142  2.0356
 2371SOL     OW18745   0.875   3.818  10.663  0.1357  0.3574  1.0597
 2371SOL    HW118746   0.847   3.847  10.576  1.3240  2.7338  1.4797
 2371SOL    HW218747   0.791   3.789  10.698 -0.9314  2.1775 -0.0311
 2372SOL     OW18748   2.401   2.695   1.786  0.3944  0.3470  0.1634
 2372SOL    HW118749   2.452   2.758   1.838 -0.9896  2.1051 -0.5832
 2372SOL    HW218750   2.437   2.701   1.698 -1.9554  0.1485 -0.8303
 2373SOL     OW18751   1.115   3.089   5.204  0.5737  0.6177  0.5211
 2373SOL    HW118752   1.041   3.135   5.164 -0.8191 -1.6898  0.4493
 2373SOL    HW218753   1.096   3.113   5.295  1.2245 -0.7951  1.0355
 2374SOL     OW18754   1.774   2.437  10.284 -0.0300  0.2439 -0.2635
 2374SOL    HW118755   1.832   2.492  10.231 -0.7161  1.8450  0.6420
 2374SOL    HW218756   1.773   2.357  10.232 -1.9271 -0.1269  0.3577
 2375SOL     OW18757   3.169   3.078   8.086 -0.1255  0.5619  0.9647
 2375SOL    HW118758   3.253   3.040   8.060 -0.3128  1.1371 -0.4750
 2375SOL    HW218759   3.211   3.152   8.130 -1.3467 -0.1072  3.2500
 2376SOL     OW18760   3.279   1.022   4.600  0.0150  0.2383 -0.1047
 2376SOL    HW118761   3.244   1.070   4.525  2.0889  0.0339 -1.1950
 2376SOL    HW218762   3.361   1.065   4.628  0.1027  0.3900 -0.5967
 2377SOL     OW18763   0.078   1.336   1.954  0.1487 -0.1563  0.1990
 2377SOL    HW118764   0.086   1.241   1.956  2.1134  0.0127  0.8436
 2377SOL    HW218765   0.072   1.365   1.863 -4.2719  0.3609  0.6819
 2378SOL     OW18766   4.427   4.385   1.529 -0.2962  0.1172 -0.4006
 2378SOL    HW118767   4.348   4.416   1.571 -0.1669  1.1582 -0.9349
 2378SOL    HW218768   4.407   4.427   1.445  2.0105  0.1560 -0.9440
 2379SOL     OW18769   0.227   1.015   3.093  0.2137 -0.4033  0.0643
 2379SOL    HW118770   0.265   1.079   3.152  2.4053 -0.9507 -0.7538
 2379SOL    HW218771   0.268   0.934   3.123  3.3567  0.7897 -1.0655
 2380SOL     OW18772   1.516   0.424   2.907  0.2096 -0.1292  0.3574
 2380SOL    HW118773   1.607   0.447   2.927  0.1528 -0.3769  0.8960
 2380SOL    HW218774   1.502   0.347   2.962 -0.6150 -0.3568 -0.1628
 2381SOL     OW18775   2.254   1.622  11.872  0.0845  0.2225 -0.1680
 2381SOL    HW118776   2.305   1.591  11.797 -0.8516 -0.1935 -0.6293
 2381SOL    HW218777   2.304   1.692  11.916  1.8405 -0.1156 -1.6238
 2382SOL     OW18778   1.445   2.979   9.943  0.4334  0.4697 -0.2974
 2382SOL    HW118779   1.375   2.992   9.880  1.2338  0.5095 -1.1818
 2382SOL    HW218780   1.474   3.069   9.961 -0.5872  0.6880  0.2428
 2383SOL     OW18781   4.142   3.538  14.125 -0.1341 -0.2468 -0.7641
 2383SOL    HW118782   4.191   3.620  14.116  1.3668 -1.0691 -0.0664
 2383SOL    HW218783   4.152   3.493  14.042 -0.0318  0.0324 -0.9023
 2384SOL     OW18784   2.487   2.492  16.337  0.4082 -0.0038 -0.6222
 2384SOL    HW118785   2.415   2.549  16.364  1.5882  0.7517  0.9142
 2384SOL    HW218786   2.532   2.482  16.420 -0.2567 -1.1503 -0.3870
 2385SOL     OW18787   1.131   0.522   7.898 -0.6273 -0.4428  0.2388
 2385SOL    HW118788   1.123   0.540   7.804  3.4527 -0.1431 -0.0545
 2385SOL    HW218789   1.038   0.504   7.915 -1.1600 -0.0293 -2.2699
 2386SOL     OW18790   3.310   1.988  14.849  0.2433  0.0833  0.1738
 2386SOL    HW118791   3.340   1.965  14.937 -0.8764 -1.1378  0.2416
 2386SOL    HW218792   3.218   1.963  14.838 -0.6119  3.1176  0.3514
 2387SOL     OW18793   0.291   0.443   6.540 -0.0061 -0.2100  0.3996
 2387SOL    HW118794   0.216   0.471   6.487  1.2693 -0.6850 -1.6759
 2387SOL    HW218795   0.277   0.493   6.620  0.3344 -0.1886  0.4468
 2388SOL     OW18796   4.307   1.324   6.231 -0.0660 -0.5765 -0.8491
 2388SOL    HW118797   4.288   1.417   6.218  1.5817 -0.2329 -0.8050
 2388SOL    HW218798   4.331   1.307   6.323  1.1818 -0.3736 -1.1404
 2389SOL     OW18799   0.398   2.438   7.906  0.0120 -0.2078 -0.2908
 2389SOL    HW118800   0.491   2.445   7.924  0.2605  3.4074 -3.0770
 2389SOL    HW218801   0.375   2.396   7.989 -0.8899 -0.6800 -0.7722
 2390SOL     OW18802   2.095   2.340   5.539  0.0878 -0.5973  0.2356
 2390SOL    HW118803   2.171   2.304   5.494  0.3572  1.6745 -1.1584
 2390SOL    HW218804   2.126   2.341   5.629 -1.7684  2.7561  0.8480
 2391SOL     OW18805   0.318   0.721   4.082 -0.5426 -0.3720  0.0289
 2391SOL    HW118806   0.233   0.751   4.115 -0.5407 -1.2534  0.8501
 2391SOL    HW218807   0.370   0.801   4.090  2.0943 -1.9641 -1.3184
 2392SOL     OW18808   2.123   3.894   8.976 -0.1924  0.0947  0.1272
 2392SOL    HW118809   2.213   3.862   8.968 -1.2932 -3.2413  0.9580
 2392SOL    HW218810   2.116   3.932   9.063 -2.7015  1.8067 -0.8278
 2393SOL     OW18811   2.003   4.244  10.665 -0.2396 -0.3053 -0.0267
 2393SOL    HW118812   2.061   4.171  10.644  0.7485  0.5391 -0.1775
 2393SOL    HW218813   2.070   4.310  10.680 -1.1392  0.3232  1.2796
 2394SOL     OW18814   2.983   1.922  13.163  0.2225 -0.2801 -0.1938
 2394SOL    HW118815   2.976   1.894  13.254 -1.5294 -1.7817 -0.7942
 2394SOL    HW218816   3.031   2.004  13.174 -1.3590  0.3800  1.7497
 2395SOL     OW18817   4.726   4.258  13.122 -0.1096 -0.4635 -0.2776
 2395SOL    HW118818   0.002   4.211  13.040  1.5149 -1.5919  0.6806
 2395SOL    HW218819   0.019   4.346  13.103 -1.8015  0.2347  0.0598
 2396SOL     OW18820   3.399   4.183   6.968  0.1735 -0.1507  0.1584
 2396SOL    HW118821   3.470   4.229   7.014 -1.0145  0.1076  1.7439
 2396SOL    HW218822   3.457   4.127   6.917  0.1769 -0.2965  0.3247
 2397SOL     OW18823   4.325   1.615   8.331 -0.3608  0.1062 -0.3497
 2397SOL    HW118824   4.353   1.677   8.264  0.0471  0.6692  0.3373
 2397SOL    HW218825   4.242   1.582   8.296 -1.4445  0.6209  1.7457
 2398SOL     OW18826   1.650   0.688   6.319  0.1235 -0.1754 -0.1961
 2398SOL    HW118827   1.590   0.714   6.389  0.6531 -0.1518  0.2492
 2398SOL    HW218828   1.591   0.684   6.243  0.5361  0.0367 -0.5297
 2399SOL     OW18829   1.841   2.847   6.122 -0.0497 -0.1531 -0.1923
 2399SOL    HW118830   1.929   2.808   6.130 -1.0595 -2.6448 -1.2908
 2399SOL    HW218831   1.828   2.867   6.030  1.9580 -0.7644 -0.6117
 2400SOL     OW18832   2.568   3.535   7.165  0.5406 -0.0563 -0.4980
 2400SOL    HW118833   2.526   3.584   7.095 -0.6057 -0.1502  0.1199
 2400SOL    HW218834   2.642   3.591   7.187  0.5454 -1.1048  2.1374
 2401SOL     OW18835   1.841   2.284   4.391 -0.4379 -0.1173 -0.0510
 2401SOL    HW118836   1.905   2.334   4.441  0.1515  0.2998 -1.2126
 2401SOL    HW218837   1.779   2.350   4.361 -0.2830  1.1077  2.3196
 2402SOL     OW18838   2.737   3.070   8.260 -0.7626 -0.1084 -0.3489
 2402SOL    HW118839   2.774   3.019   8.188 -0.5985 -1.6153  0.8119
 2402SOL    HW218840   2.647   3.037   8.267 -0.5218 -0.9074 -1.1017
 2403SOL     OW18841   3.502   4.124  13.195  0.2076  0.3635 -0.5182
 2403SOL    HW118842   3.438   4.126  13.123 -1.3912 -0.6387  0.8751
 2403SOL    HW218843   3.571   4.068  13.160 -1.1385 -1.1545 -0.7494
 2404SOL     OW18844   1.407   3.681   0.373  0.0603  0.1749  0.0113
 2404SOL    HW118845   1.493   3.721   0.386  0.1818  0.2549 -1.0591
 2404SOL    HW218846   1.424   3.595   0.412 -4.0113 -0.1010  1.1232
 2405SOL     OW18847   4.523   1.304   5.260  0.0295  0.5816 -0.0083
 2405SOL    HW118848   4.527   1.396   5.232 -1.8658  1.2803  2.0477
 2405SOL    HW218849   4.511   1.259   5.176  1.2104  1.8516 -0.8804
 2406SOL     OW18850   1.460   3.502   1.624 -0.3755  0.5514 -0.7077
 2406SOL    HW118851   1.461   3.430   1.687 -0.0689  0.3385 -0.9597
 2406SOL    HW218852   1.500   3.460   1.548  1.3575  2.7156 -1.0064
 2407SOL     OW18853   3.198   1.048   7.278 -0.3671 -0.4518 -0.0676
 2407SOL    HW118854   3.151   1.060   7.361  2.1827  2.2381  0.9657
 2407SOL    HW218855   3.127   1.021   7.219 -0.0456 -1.3831 -0.0208
 2408SOL     OW18856   0.797   3.570   3.151 -0.2736 -0.8857 -0.0623
 2408SOL    HW118857   0.774   3.565   3.059  1.4879 -1.1498 -0.4875
 2408SOL    HW218858   0.867   3.505   3.155  0.7170  0.2896  1.7469
 2409SOL     OW18859   3.099   3.553   5.262  0.1403 -1.1653  0.1137
 2409SOL    HW118860   3.144   3.510   5.189 -0.8131 -3.0353  0.6166
 2409SOL    HW218861   3.173   3.568   5.321  1.9334 -1.1079 -2.1805
 2410SOL     OW18862   0.859   4.119   2.295 -0.1107 -0.4192 -0.0887
 2410SOL    HW118863   0.839   4.201   2.249  2.3701  0.0180 -0.3701
 2410SOL    HW218864   0.809   4.059   2.239  0.1443  0.0064 -0.7758
 2411SOL     OW18865   2.511   2.956   8.337  0.5122  0.3237 -0.4853
 2411SOL    HW118866   2.446   2.959   8.266  2.0544  0.1206 -1.9243
 2411SOL    HW218867   2.456   3.012   8.390  0.6420 -0.0548  0.0448
 2412SOL     OW18868   0.886   0.689   4.721  0.4050  0.3313 -0.1200
 2412SOL    HW118869   0.895   0.670   4.628  0.4274  1.4065 -0.3397
 2412SOL    HW218870   0.911   0.606   4.762 -0.2170  0.3263  0.2580
 2413SOL     OW18871   4.163   2.008   8.021 -0.3946  0.1608  0.3589
 2413SOL    HW118872   4.189   2.068   7.951 -3.0448 -0.7745 -1.4357
 2413SOL    HW218873   4.158   2.072   8.091  1.3158  2.3338 -1.4833
 2414SOL     OW18874   0.081   3.883   1.974  0.5609 -0.8928  0.0096
 2414SOL    HW118875   0.152   3.836   2.017  1.6162  0.5568 -0.1405
 2414SOL    HW218876   0.086   3.846   1.886  0.5601  0.3540 -0.5206
 2415SOL     OW18877   1.436   2.183  10.726 -0.2590 -0.0245  0.0709
 2415SOL    HW118878   1.459   2.179  10.633 -0.0925 -0.6925  0.1361
 2415SOL    HW218879   1.495   2.251  10.757  0.5662 -0.7518  0.1067
 2416SOL     OW18880   1.260   2.415   4.618  0.4772  0.1572 -0.0515
 2416SOL    HW118881   1.177   2.391   4.576  0.0873 -2.0475  1.9244
 2416SOL    HW218882   1.236   2.372   4.700 -1.3033  0.7179 -0.2844
 2417SOL     OW18883   3.951   1.603   4.377  0.0915  0.6820  0.3138
 2417SOL    HW118884   3.916   1.608   4.466 -0.4896 -2.1578  0.2342
 2417SOL    HW218885   4.033   1.651   4.388  0.6548  0.0411 -0.9996
 2418SOL     OW18886   4.052   0.634   7.982  0.3807  0.0965  0.2678
 2418SOL    HW118887   4.042   0.621   7.888 -2.1265  1.7089  0.3186
 2418SOL    HW218888   3.960   0.630   8.006  0.5448  2.6804  1.3416
 2419SOL     OW18889   3.559   0.317   3.753  0.0142 -0.2860 -0.1495
 2419SOL    HW118890   3.521   0.403   3.771 -1.3564 -0.8197 -0.4885
 2419SOL    HW218891   3.476   0.277   3.726  0.5446  0.2718 -2.5983
 2420SOL     OW18892   2.070   0.291   6.882 -0.1966 -0.4796  0.0589
 2420SOL    HW118893   2.035   0.355   6.943 -0.3099 -0.9698  0.5083
 2420SOL    HW218894   2.058   0.216   6.940  0.9293 -0.5940  0.1361
 2421SOL     OW18895   4.597   0.727   1.483  0.0229 -0.8809 -0.0138
 2421SOL    HW118896   4.534   0.732   1.554 -1.7630 -0.3493 -1.6375
 2421SOL    HW218897   4.601   0.631   1.484 -0.0226 -0.8496  2.0929
 2422SOL     OW18898   3.459   1.591   1.426  0.4963  0.1133  0.2802
 2422SOL    HW118899   3.504   1.612   1.507 -0.2089 -0.2973  0.7835
 2422SOL    HW218900   3.530   1.542   1.385  1.6886  2.0135  0.0982
 2423SOL     OW18901   1.575   0.641   7.944  0.1551  0.0597 -0.0969
 2423SOL    HW118902   1.602   0.550   7.930 -2.3550 -0.7122  0.1016
 2423SOL    HW218903   1.653   0.663   7.994  1.3570  0.5655 -2.1839
 2424SOL     OW18904   4.341   4.535  10.571 -0.1166 -0.0956 -0.0885
 2424SOL    HW118905   4.344   4.538  10.475 -0.6647 -0.0897 -0.1050
 2424SOL    HW218906   4.365   4.627  10.585 -3.8509  1.2106 -2.2262
 2425SOL     OW18907   3.179   0.834  15.097 -0.6480 -0.2146 -0.0142
 2425SOL    HW118908   3.141   0.809  15.181  1.0008  0.5953  0.9596
 2425SOL    HW218909   3.186   0.927  15.118 -3.2472  0.4848 -2.1184
 2426SOL     OW18910   2.157   0.307   3.703 -0.1946  0.0142 -0.5508
 2426SOL    HW118911   2.094   0.260   3.649 -0.2702 -0.8989  0.3352
 2426SOL    HW218912   2.218   0.338   3.635  1.3251  1.0929  1.2984
 2427SOL     OW18913   2.869   0.620   8.602  0.1082 -0.4216 -0.0725
 2427SOL    HW118914   2.873   0.619   8.506 -0.8301  0.6370 -0.1214
 2427SOL    HW218915   2.902   0.533   8.623  2.1722  0.9601  2.3432
 2428SOL     OW18916   3.024   2.507   5.345  0.3375  0.0251  0.2565
 2428SOL    HW118917   2.977   2.569   5.401 -0.2367  0.4603 -0.7056
 2428SOL    HW218918   3.018   2.421   5.386  2.0208  0.2961  1.0314
 2429SOL     OW18919   2.745   0.969   3.821 -0.6296  0.5407 -0.1112
 2429SOL    HW118920   2.670   1.027   3.806  0.3580  1.2636 -2.3516
 2429SOL    HW218921   2.815   1.018   3.777 -0.3845 -1.5908 -2.1310
 2430SOL     OW18922   3.222   2.768   6.049  0.1357  0.9043 -0.2229
 2430SOL    HW118923   3.240   2.851   6.091 -1.8847  0.9570  0.5328
 2430SOL    HW218924   3.312   2.741   6.034  0.5771  1.8221  0.8048
 2431SOL     OW18925   3.244   2.149   2.977 -0.1452  0.3132  0.3434
 2431SOL    HW118926   3.287   2.123   3.058  0.1811  1.0733  0.4188
 2431SOL    HW218927   3.163   2.193   3.006 -1.5923 -0.2399 -2.8765
 2432SOL     OW18928   2.319   4.448   8.602 -0.1476 -0.1221 -0.4154
 2432SOL    HW118929   2.414   4.464   8.606 -0.3188  0.7260  0.4004
 2432SOL    HW218930   2.317   4.353   8.609 -0.3998 -0.1739 -1.2004
 2433SOL     OW18931   2.970   0.232   6.224  0.2066 -0.3220 -0.1995
 2433SOL    HW118932   2.882   0.194   6.235  0.6098 -1.2332 -0.1227
 2433SOL    HW218933   2.968   0.323   6.252 -0.3554 -1.4359  3.4171
 2434SOL     OW18934   0.782   3.237   2.164  0.1222  0.7540  0.4876
 2434SOL    HW118935   0.804   3.163   2.221  1.0940 -0.0005 -0.8653
 2434SOL    HW218936   0.817   3.192   2.087  0.0486  1.1737  0.2092
 2435SOL     OW18937   0.954   2.389   3.272 -0.1005  0.1252  0.5601
 2435SOL    HW118938   0.993   2.476   3.279 -0.2313  0.2866 -0.6426
 2435SOL    HW218939   1.010   2.354   3.202  0.9089 -2.1240  2.4757
 2436SOL     OW18940   0.133   2.644  12.664  0.0609  0.2964 -0.3056
 2436SOL    HW118941   0.127   2.716  12.601  0.5367  1.0333  0.4964
 2436SOL    HW218942   0.135   2.684  12.751 -1.9746  2.3405 -1.1863
 2437SOL     OW18943   1.755   2.071  12.213 -0.5547 -0.8935  0.7931
 2437SOL    HW118944   1.702   1.992  12.214  0.7537 -1.7349  4.4686
 2437SOL    HW218945   1.818   2.052  12.282  3.6017  1.3699 -2.3463
 2438SOL     OW18946   2.295   2.446  10.038  0.0988  0.1786 -0.0018
 2438SOL    HW118947   2.240   2.390  10.093 -0.3782  0.8800  0.2314
 2438SOL    HW218948   2.378   2.445  10.085  0.2060 -1.6477 -0.2374
 2439SOL     OW18949   4.080   0.056   7.428 -0.1882 -0.4368 -0.0953
 2439SOL    HW118950   4.124   0.037   7.346  3.0854 -3.7146  2.3998
 2439SOL    HW218951   4.135   0.111   7.483  1.3923 -1.0556 -1.0755
 2440SOL     OW18952   0.053   0.555   2.764 -0.4824 -0.2502 -0.3066
 2440SOL    HW118953   0.136   0.562   2.811 -1.0614 -1.9674  0.9766
 2440SOL    HW218954   0.016   0.643   2.773  2.4112  0.8841  0.6870
 2441SOL     OW18955   1.093   2.138   5.449 -0.3967  0.1897 -0.3554
 2441SOL    HW118956   1.167   2.123   5.391 -1.0026 -2.2958 -0.4829
 2441SOL    HW218957   1.065   2.047   5.457 -0.6802  0.3893  1.0492
 2442SOL     OW18958   4.317   0.126   5.908  0.7121 -0.1209 -0.1256
 2442SOL    HW118959   4.382   0.145   5.976  0.7640 -1.1478  0.1081
 2442SOL    HW218960   4.352   0.126   5.819 -0.3273 -0.7055 -0.5377
 2443SOL     OW18961   4.386   1.372  14.201  0.1256 -0.1291  0.5794
 2443SOL    HW118962   4.395   1.463  14.173  0.2330 -0.5512 -0.7185
 2443SOL    HW218963   4.440   1.330  14.135 -0.8289 -1.8023  0.8635
 2444SOL     OW18964   1.015   0.629   6.761  0.3680  0.3348  0.0068
 2444SOL    HW118965   0.941   0.689   6.773  0.4314  0.0082  2.0085
 2444SOL    HW218966   1.059   0.649   6.844  0.7028  0.3072 -0.1634
 2445SOL     OW18967   3.965   0.099   3.217 -0.5133  0.5874 -0.0839
 2445SOL    HW118968   4.053   0.064   3.200 -0.5694  0.5309 -0.2620
 2445SOL    HW218969   3.950   0.050   3.298 -0.7602 -0.1003 -0.5427
 2446SOL     OW18970   3.420   4.184   2.976  1.2541 -0.0751  0.2665
 2446SOL    HW118971   3.340   4.166   2.927  1.1116  1.5265 -0.0769
 2446SOL    HW218972   3.388   4.216   3.061  2.5747 -1.2105  1.1854
 2447SOL     OW18973   3.021   0.986   7.068 -0.0229 -0.1445 -0.3782
 2447SOL    HW118974   3.069   0.946   6.996 -1.3006  0.0142 -1.3149
 2447SOL    HW218975   2.936   0.991   7.025 -0.4880 -2.4098  0.2992
 2448SOL     OW18976   3.515   2.958   4.747 -0.6234  0.5267 -0.5839
 2448SOL    HW118977   3.431   2.964   4.793 -0.5454 -1.2790 -0.1975
 2448SOL    HW218978   3.579   2.994   4.808 -0.6870  0.1554 -0.2956
 2449SOL     OW18979   0.553   4.705   4.236 -0.2311  0.1170  0.4951
 2449SOL    HW118980   0.542   4.614   4.264 -3.7519  0.2162 -0.5933
 2449SOL    HW218981   0.467   4.730   4.203 -0.1147 -0.0844  0.0378
 2450SOL     OW18982   4.298   2.582   5.068  0.2829 -0.2765 -0.4598
 2450SOL    HW118983   4.249   2.664   5.079  1.6007  0.2396  1.6948
 2450SOL    HW218984   4.286   2.543   5.155 -1.3313 -1.4466 -1.2001
 2451SOL     OW18985   3.980   3.629  10.541  0.1479 -0.4976 -0.3813
 2451SOL    HW118986   3.984   3.672  10.456  2.7943  1.4052  0.7064
 2451SOL    HW218987   3.885   3.628  10.552  0.5145  1.0021  2.9778
 2452SOL     OW18988   3.283   4.520   7.152 -0.1487  0.2281  0.1296
 2452SOL    HW118989   3.318   4.439   7.189  0.6007 -1.2384 -3.7509
 2452SOL    HW218990   3.359   4.542   7.098 -0.0013  1.9227  1.0521
 2453SOL     OW18991   3.155   2.576   4.358 -0.3321  0.2588  0.1086
 2453SOL    HW118992   3.073   2.622   4.379  0.7840  2.3617 -0.1494
 2453SOL    HW218993   3.206   2.652   4.329 -0.2167  1.0819  2.4724
 2454SOL     OW18994   2.362   3.333   3.739  0.1297  0.5895 -0.2371
 2454SOL    HW118995   2.327   3.422   3.739  3.3029  1.8381  0.7624
 2454SOL    HW218996   2.290   3.299   3.792  0.8581  0.4893  0.6860
 2455SOL     OW18997   0.072   2.982   9.331  0.2742  0.1167  0.4225
 2455SOL    HW118998   0.106   3.002   9.418  0.4995  0.1235  0.3333
 2455SOL    HW218999   4.721   3.014   9.339 -0.3651 -1.2896 -0.9786
 2456SOL     OW19000   4.726   0.033   6.934 -0.0828  0.1371  0.7594
 2456SOL    HW119001   4.691   0.062   6.850 -0.2457 -1.1874  0.3730
 2456SOL    HW219002   0.056   0.100   6.938  1.2280 -1.2224  0.8928
 2457SOL     OW19003   0.137   0.813   9.442  0.6412 -0.1164 -0.1712
 2457SOL    HW119004   0.095   0.866   9.510  2.0927  1.3827 -0.4455
 2457SOL    HW219005   0.146   0.739   9.502  1.4710 -0.5484 -0.8169
 2458SOL     OW19006   2.530   1.612   3.748 -0.6949  0.1173 -0.0749
 2458SOL    HW119007   2.542   1.571   3.662  0.1769 -1.4815  0.7961
 2458SOL    HW219008   2.512   1.537   3.804 -0.2439 -0.9196 -1.3186
 2459SOL     OW19009   4.528   2.226   0.934 -0.1930  0.1290 -0.0088
 2459SOL    HW119010   4.451   2.185   0.974  0.6715 -0.9736  0.5327
 2459SOL    HW219011   4.600   2.221   0.997 -0.5817  0.5169  0.4673
 2460SOL     OW19012   3.904   2.269  16.787  0.3384 -0.3088  0.2896
 2460SOL    HW119013   3.961   2.192  16.790  0.2450 -0.1878  4.4082
 2460SOL    HW219014   3.818   2.227  16.786  0.2349 -0.0735 -1.2186
 2461SOL     OW19015   3.616   3.610   8.946  0.1330 -0.0996  0.0629
 2461SOL    HW119016   3.707   3.614   8.916  0.2883 -1.8070  0.2737
 2461SOL    HW219017   3.622   3.533   9.004  1.3033 -0.1741 -0.1465
 2462SOL     OW19018   4.225   4.636   7.829 -0.2198  0.1140 -0.7152
 2462SOL    HW119019   4.135   4.651   7.858  0.7470  3.6083  0.4780
 2462SOL    HW219020   4.269   4.715   7.860  0.5520 -0.1755 -1.0650
 2463SOL     OW19021   1.800   4.183   9.947 -0.0478  0.4171  0.5843
 2463SOL    HW119022   1.751   4.258   9.913 -2.9496 -0.6302  2.4410
 2463SOL    HW219023   1.789   4.188  10.042 -0.3863  1.1636  0.5036
 2464SOL     OW19024   1.918   2.659  10.895 -0.1611 -0.4420 -0.0047
 2464SOL    HW119025   1.830   2.647  10.858  0.1723  2.2800 -1.6559
 2464SOL    HW219026   1.897   2.624  10.982 -2.0190  1.3108  0.2417
 2465SOL     OW19027   4.652   3.003   8.451  0.5093 -0.5225  0.5419
 2465SOL    HW119028   4.638   2.953   8.531  1.1892  0.3405  1.1985
 2465SOL    HW219029   0.007   2.992   8.430  0.0938 -0.5040 -1.3384
 2466SOL     OW19030   1.795   0.997   6.101 -0.2649  0.8166 -0.0749
 2466SOL    HW119031   1.714   0.952   6.075 -1.3905  1.8325  1.7031
 2466SOL    HW219032   1.857   0.929   6.074 -0.1369  0.3529  1.3779
 2467SOL     OW19033   1.948   0.027   0.167 -0.4768 -0.1462  0.0310
 2467SOL    HW119034   1.967   4.673   0.148  1.3723  0.9351 -3.3895
 2467SOL    HW219035   1.943   0.055   0.075  0.5315  1.3135  0.4237
 2468SOL     OW19036   0.175   0.716   9.792  0.2737  0.1173 -0.1354
 2468SOL    HW119037   0.249   0.729   9.733  0.3573  1.6821  0.3180
 2468SOL    HW219038   0.126   0.795   9.769 -0.5685 -0.6773 -1.1132
 2469SOL     OW19039   2.447   2.753   5.359 -0.0857  0.1563 -0.6401
 2469SOL    HW119040   2.534   2.794   5.361  0.2649 -0.5465 -1.3349
 2469SOL    HW219041   2.406   2.747   5.446 -1.1344  0.0369 -1.1486
 2470SOL     OW19042   4.455   3.432   1.801  0.2714 -0.3683 -0.1101
 2470SOL    HW119043   4.503   3.467   1.876  0.2738 -1.6283  0.4774
 2470SOL    HW219044   4.530   3.422   1.743  1.5548  0.0215  1.4909
 2471SOL     OW19045   2.606   1.810   1.103 -0.2685 -0.3422  0.6983
 2471SOL    HW119046   2.549   1.863   1.047  2.8123  1.3048 -0.8812
 2471SOL    HW219047   2.688   1.828   1.058 -0.3184 -0.3474  0.6048
 2472SOL     OW19048   3.131   3.551   2.276  0.1053  0.2340  0.0932
 2472SOL    HW119049   3.208   3.581   2.227 -1.6349  1.4683 -1.8704
 2472SOL    HW219050   3.109   3.468   2.234  0.3039  1.2556 -2.0176
 2473SOL     OW19051   2.092   3.007   8.252 -0.4973  1.2179  0.1400
 2473SOL    HW119052   2.052   3.094   8.245 -1.8528  0.6272  0.5337
 2473SOL    HW219053   2.120   2.982   8.164  0.4790 -0.9515  1.0539
 2474SOL     OW19054   2.643   1.420  17.614 -0.6945  0.1335 -0.0589
 2474SOL    HW119055   2.612   1.499  17.571 -0.8524  0.0446 -0.1079
 2474SOL    HW219056   2.583   1.347  17.600 -0.0701 -0.1308 -1.4349
 2475SOL     OW19057   2.880   0.067   6.700 -0.0621 -0.4141  0.2920
 2475SOL    HW119058   2.799   0.027   6.731  0.3892 -2.1952 -0.8136
 2475SOL    HW219059   2.839   0.154   6.704 -0.7426 -0.7334  0.2497
 2476SOL     OW19060   1.771   0.932  11.362  0.2847 -0.1258 -0.3104
 2476SOL    HW119061   1.804   0.919  11.452 -2.1785 -2.6802  0.2179
 2476SOL    HW219062   1.854   0.955  11.319  1.1240 -0.7810  0.9224
 2477SOL     OW19063   4.317   4.363   3.780 -0.0893  0.4745 -0.4450
 2477SOL    HW119064   4.383   4.415   3.732  2.4677 -1.7782  0.6134
 2477SOL    HW219065   4.376   4.342   3.853  2.2992 -1.0215 -2.7894
 2478SOL     OW19066   0.292   3.423   0.839 -0.2993  0.5642  0.3056
 2478SOL    HW119067   0.386   3.415   0.821 -0.8917 -1.2266 -2.0168
 2478SOL    HW219068   0.298   3.400   0.931  3.0668 -1.2311 -0.3290
 2479SOL     OW19069   2.144   2.563   8.665 -0.5637 -0.5386  0.3610
 2479SOL    HW119070   2.152   2.468   8.671  0.4959 -0.5865 -1.9565
 2479SOL    HW219071   2.181   2.587   8.750 -0.3752  1.4776 -0.3010
 2480SOL     OW19072   4.174   0.616   6.640 -0.4702 -0.0992 -0.0136
 2480SOL    HW119073   4.253   0.564   6.625 -1.5488 -1.4407 -1.0832
 2480SOL    HW219074   4.206   0.684   6.699 -1.2102 -0.4044  0.7392
 2481SOL     OW19075   4.374   4.689   6.869 -0.8579 -0.5671  0.6634
 2481SOL    HW119076   4.293   0.001   6.863 -0.2988  0.2415  0.0377
 2481SOL    HW219077   4.408   4.728   6.949 -1.5951  2.1087 -0.3318
 2482SOL     OW19078   3.435   3.386   4.787 -0.1761  0.5857  0.5955
 2482SOL    HW119079   3.388   3.466   4.809  0.9498  0.6953  2.5940
 2482SOL    HW219080   3.441   3.394   4.692  0.7544 -2.6521  0.3935
 2483SOL     OW19081   0.492   3.988   7.235 -0.6100  0.7135  0.4148
 2483SOL    HW119082   0.584   4.002   7.210 -0.9004 -0.1538 -1.1452
 2483SOL    HW219083   0.502   3.985   7.330 -0.5142 -2.4253  0.3029
 2484SOL     OW19084   1.427   4.294   7.082  0.1846  0.0518  0.4917
 2484SOL    HW119085   1.408   4.258   6.995  0.0180  0.0930  0.5121
 2484SOL    HW219086   1.466   4.379   7.060  2.0209 -0.5730  1.2885
 2485SOL     OW19087   4.722   2.243   2.588 -0.5388  0.2809  0.2981
 2485SOL    HW119088   0.003   2.151   2.606  0.0500 -0.0455 -2.0837
 2485SOL    HW219089   4.717   2.252   2.493  1.7585  1.7762  0.3055
 2486SOL     OW19090   0.714   3.175  11.045 -0.0502 -0.2413 -0.2201
 2486SOL    HW119091   0.797   3.130  11.029  1.3443  3.0173 -2.1033
 2486SOL    HW219092   0.741   3.262  11.073  1.9584 -1.6309  2.0844
 2487SOL     OW19093   0.374   4.305   1.937 -0.3522 -0.4902 -0.2252
 2487SOL    HW119094   0.289   4.303   1.893 -1.0814 -1.4639  1.2029
 2487SOL    HW219095   0.397   4.397   1.922  0.2406 -0.6655 -0.3714
 2488SOL     OW19096   0.508   4.428   4.270  0.0811 -0.3029  0.3037
 2488SOL    HW119097   0.451   4.403   4.343 -0.0348 -1.2144 -0.1002
 2488SOL    HW219098   0.540   4.345   4.235  0.1823 -0.9018  1.8153
 2489SOL     OW19099   4.082   3.945  14.627  0.3588  0.0622 -0.1924
 2489SOL    HW119100   3.992   3.914  14.618  0.2161  0.5460 -0.4422
 2489SOL    HW219101   4.100   3.914  14.715 -0.8422 -0.6129 -0.1873
 2490SOL     OW19102   0.699   3.307  13.074  0.1531  0.0708  0.1408
 2490SOL    HW119103   0.762   3.336  13.008  2.2715 -0.2778  1.9820
 2490SOL    HW219104   0.635   3.259  13.023 -1.1765  2.6586 -0.6159
 2491SOL     OW19105   1.721   1.370   5.996 -0.3344  0.0270  0.0057
 2491SOL    HW119106   1.808   1.403   5.973  1.0524 -2.7845  1.1333
 2491SOL    HW219107   1.713   1.397   6.088 -3.1886  0.6751 -0.4436
 2492SOL     OW19108   3.346   1.659   8.256 -0.2891  0.5981  0.0634
 2492SOL    HW119109   3.397   1.586   8.292 -2.9880 -0.3496  2.0019
 2492SOL    HW219110   3.260   1.627   8.285  0.0863  0.9247  1.5459
 2493SOL     OW19111   1.365   0.106   6.626 -0.1391  0.0046 -0.0636
 2493SOL    HW119112   1.294   0.108   6.563 -0.5598 -0.3995  0.3971
 2493SOL    HW219113   1.324   0.159   6.694  0.2941  0.2582 -0.0003
 2494SOL     OW19114   2.693   2.365   5.114 -0.8437 -0.5988 -0.4590
 2494SOL    HW119115   2.784   2.388   5.097 -0.4091 -0.4948  2.0990
 2494SOL    HW219116   2.656   2.443   5.153  0.5205  1.1012 -2.5685
 2495SOL     OW19117   1.050   3.459  15.579 -0.1568  0.7693  0.5658
 2495SOL    HW119118   0.974   3.407  15.555  0.8526 -0.2398 -0.4600
 2495SOL    HW219119   1.108   3.394  15.619  1.4977  0.1977 -2.7671
 2496SOL     OW19120   3.282   3.479  13.640  0.2781  0.1338  0.3919
 2496SOL    HW119121   3.201   3.482  13.589  1.4616 -2.8572 -1.6977
 2496SOL    HW219122   3.333   3.400  13.620  1.5667  0.4578  2.3289
 2497SOL     OW19123   0.080   4.038   4.191  0.0183 -0.1752 -0.0916
 2497SOL    HW119124   0.139   4.111   4.210 -0.3586  0.4418 -1.3142
 2497SOL    HW219125   0.084   4.004   4.281 -2.1116 -1.3238 -0.4220
 2498SOL     OW19126   3.126   1.826  15.536 -0.0506 -0.0528  0.0851
 2498SOL    HW119127   3.156   1.891  15.473 -0.2128 -0.1298 -0.0722
 2498SOL    HW219128   3.208   1.821  15.586 -1.3178 -2.6334  1.9315
 2499SOL     OW19129   0.952   2.160   5.670 -0.4628 -0.0087  0.0578
 2499SOL    HW119130   0.992   2.147   5.756  0.2528  0.2669 -0.2310
 2499SOL    HW219131   1.028   2.164   5.612  0.3218 -1.3881  0.9999
 2500SOL     OW19132   1.803   1.648   6.063 -0.1495  0.5826 -0.3699
 2500SOL    HW119133   1.837   1.736   6.048  0.2473  0.5795  0.5075
 2500SOL    HW219134   1.861   1.592   6.012  0.6662  0.7522  0.3772
 2501SOL     OW19135   3.186   2.787   7.663  0.3726 -0.0768 -0.0293
 2501SOL    HW119136   3.201   2.695   7.684 -1.6402 -0.8507 -1.9929
 2501SOL    HW219137   3.241   2.797   7.586  1.8537  1.0183  1.1650
 2502SOL     OW19138   3.981   2.597  12.945 -0.0392 -0.6041 -0.4909
 2502SOL    HW119139   4.001   2.684  12.981  0.7447 -0.3350 -1.5552
 2502SOL    HW219140   3.888   2.592  12.923  0.0254  0.2477 -0.9656
 2503SOL     OW19141   4.651   2.513   9.660  0.5647 -0.4467  0.2380
 2503SOL    HW119142   4.695   2.511   9.745  2.6682 -1.1550 -0.8787
 2503SOL    HW219143   4.677   2.432   9.615  0.6655 -1.4634  2.1186
 2504SOL     OW19144   1.499   0.529   4.378  0.0759  0.3773  0.1083
 2504SOL    HW119145   1.426   0.508   4.436  0.3536  0.6847  0.5736
 2504SOL    HW219146   1.468   0.507   4.290 -0.3007  1.2267  0.0347
 2505SOL     OW19147   3.979   2.255  14.862 -0.1925  0.2162 -0.0552
 2505SOL    HW119148   3.887   2.264  14.888 -0.3260  4.0242 -1.8319
 2505SOL    HW219149   4.036   2.271  14.937 -0.3867  2.9968 -0.4808
 2506SOL     OW19150   3.698   3.275   4.761 -0.2082 -0.1716 -0.2707
 2506SOL    HW119151   3.715   3.197   4.815  0.4565 -0.2598 -0.6050
 2506SOL    HW219152   3.609   3.300   4.785  0.9435  3.4018  0.1616
 2507SOL     OW19153   2.104   2.434   2.187  0.2590  0.1101 -0.0876
 2507SOL    HW119154   2.082   2.422   2.280 -0.0508  0.7187 -0.0840
 2507SOL    HW219155   2.024   2.440   2.134 -0.3630 -0.4942  0.7738
 2508SOL     OW19156   2.110   3.996   3.943  0.9972 -0.0980  1.0844
 2508SOL    HW119157   2.022   4.004   3.980  1.3846  0.5954  1.8510
 2508SOL    HW219158   2.142   4.080   3.976  1.6857 -0.5062  1.4690
 2509SOL     OW19159   0.326   2.235   3.750 -0.1724  0.4617  0.3898
 2509SOL    HW119160   0.246   2.268   3.709 -0.0037 -2.1739 -2.0826
 2509SOL    HW219161   0.328   2.143   3.724  0.0601 -0.1317  2.5245
 2510SOL     OW19162   4.396   0.428   4.526 -0.5897 -0.0248 -0.5807
 2510SOL    HW119163   4.448   0.471   4.458  0.1442  1.7003  1.0737
 2510SOL    HW219164   4.444   0.346   4.532  0.0506  0.2457 -1.9802
 2511SOL     OW19165   1.666   3.459   1.289 -0.0628  0.4225 -0.1527
 2511SOL    HW119166   1.721   3.484   1.364  2.0192 -1.8493 -0.9435
 2511SOL    HW219167   1.688   3.532   1.231  2.0436 -0.7258 -0.8209
 2512SOL     OW19168   2.858   4.302  12.264  0.1160 -0.3764 -0.2055
 2512SOL    HW119169   2.891   4.355  12.191 -0.5665  0.6130  0.2007
 2512SOL    HW219170   2.789   4.355  12.303  1.7749  3.3232 -2.2305
 2513SOL     OW19171   0.310   3.078   5.025 -0.1179 -0.2483 -0.0671
 2513SOL    HW119172   0.338   3.152   4.971  1.9516 -0.9778 -0.0155
 2513SOL    HW219173   0.278   3.018   4.958  1.6595  1.7894 -2.7230
 2514SOL     OW19174   1.323   2.505   1.769 -0.7307 -0.6321 -0.2152
 2514SOL    HW119175   1.319   2.417   1.731 -0.8770 -1.9214  2.7993
 2514SOL    HW219176   1.385   2.546   1.709  0.3403  0.4452  1.6486
 2515SOL     OW19177   1.677   3.033   3.699 -0.4122 -0.0262  0.0713
 2515SOL    HW119178   1.605   2.983   3.738  0.0745 -0.1822  0.7599
 2515SOL    HW219179   1.683   2.989   3.614 -0.3264 -0.7671  0.4628
 2516SOL     OW19180   3.639   2.423   8.794 -0.0833  0.3059  0.0483
 2516SOL    HW119181   3.577   2.377   8.850 -0.0248 -0.4726 -0.5215
 2516SOL    HW219182   3.618   2.385   8.709 -0.7834  1.1111 -0.1354
 2517SOL     OW19183   2.066   2.058   9.479 -1.0967 -0.8163 -0.0374
 2517SOL    HW119184   1.979   2.096   9.464 -1.1460 -0.6193  0.7603
 2517SOL    HW219185   2.115   2.120   9.425 -0.5851 -2.0095 -0.9227
 2518SOL     OW19186   4.222   0.627   2.745  0.0447  0.1073  0.0772
 2518SOL    HW119187   4.263   0.707   2.779  2.2203  0.1243 -2.6368
 2518SOL    HW219188   4.170   0.658   2.671 -0.5724 -1.8831 -0.3176
 2519SOL     OW19189   3.270   0.312   4.586 -0.0881 -0.1044 -0.4793
 2519SOL    HW119190   3.231   0.302   4.499 -1.1036  0.0799 -0.0477
 2519SOL    HW219191   3.198   0.301   4.649  0.3163  2.0584  0.3726
 2520SOL     OW19192   2.733   1.971   4.395  0.4165  0.3756 -0.5321
 2520SOL    HW119193   2.792   2.034   4.355  0.6137  1.0320  0.7956
 2520SOL    HW219194   2.787   1.937   4.466  1.7713  1.8202 -0.8583
 2521SOL     OW19195   3.421   2.055   3.150  0.2124  0.4951  0.1536
 2521SOL    HW119196   3.395   1.964   3.134  2.9722 -0.0265 -1.3318
 2521SOL    HW219197   3.499   2.037   3.203 -0.0198  0.0159  0.3326
 2522SOL     OW19198   1.553   0.414   3.215  0.3136 -0.0830  0.1970
 2522SOL    HW119199   1.574   0.362   3.293 -0.4843 -0.5437  0.0974
 2522SOL    HW219200   1.462   0.385   3.207  1.0730 -2.4447 -0.1380
 2523SOL     OW19201   4.690   3.394   7.913  0.4287 -0.1862 -0.1126
 2523SOL    HW119202   4.717   3.351   7.994  1.2755 -0.6215 -0.6245
 2523SOL    HW219203   0.018   3.459   7.890 -0.2285  0.2888 -0.6721
 2524SOL     OW19204   1.367   1.500   4.295  0.7710 -0.3728  0.1513
 2524SOL    HW119205   1.394   1.577   4.344  1.3362 -2.2982  2.8689
 2524SOL    HW219206   1.293   1.456   4.337  1.7513  0.4625  2.7813
 2525SOL     OW19207   0.515   1.495  14.458 -0.0493  0.4604  0.6788
 2525SOL    HW119208   0.458   1.418  14.470  0.3925 -0.0171 -0.2744
 2525SOL    HW219209   0.601   1.455  14.446 -0.9359 -1.4099  0.4791
 2526SOL     OW19210   3.913   4.298   6.266 -0.3006 -0.4818 -0.0189
 2526SOL    HW119211   3.896   4.369   6.205  0.2020 -0.2182  0.1475
 2526SOL    HW219212   3.997   4.263   6.233  0.6350  1.9659 -0.2006
 2527SOL     OW19213   1.815   4.427   5.516  0.6142 -0.0814 -0.8144
 2527SOL    HW119214   1.755   4.450   5.588  0.0300  1.9409 -1.9381
 2527SOL    HW219215   1.768   4.348   5.490  0.0981  1.6686 -5.1991
 2528SOL     OW19216   0.668   2.091   8.056  0.0872  0.3005 -1.0606
 2528SOL    HW119217   0.703   2.002   8.066 -2.1771 -0.6382 -1.5755
 2528SOL    HW219218   0.579   2.080   8.090  0.5606  4.0145  1.2988
 2529SOL     OW19219   2.836   0.301  11.886  0.3721  0.4808  0.4236
 2529SOL    HW119220   2.818   0.268  11.974 -0.0638  1.8838  0.8599
 2529SOL    HW219221   2.929   0.278  11.881  0.5797  1.3143  0.4595
 2530SOL     OW19222   2.231   3.315   1.389 -0.1115  0.1639 -0.1696
 2530SOL    HW119223   2.182   3.233   1.399 -0.0499  0.2481  0.7932
 2530SOL    HW219224   2.169   3.369   1.339 -0.8430  0.0312  0.5902
 2531SOL     OW19225   3.024   2.096   2.100 -0.2446 -0.5319 -0.0809
 2531SOL    HW119226   3.050   2.019   2.050  0.5741  0.0841 -0.6080
 2531SOL    HW219227   2.931   2.081   2.116 -0.4374  0.5893 -0.1194
 2532SOL     OW19228   3.727   1.484  12.250  0.6646 -0.3546  0.2095
 2532SOL    HW119229   3.808   1.433  12.256 -0.6985 -2.6619 -1.1179
 2532SOL    HW219230   3.728   1.489  12.154 -0.3092 -0.0627  0.2125
 2533SOL     OW19231   1.660   2.306   6.706  0.0507 -0.1052 -0.0580
 2533SOL    HW119232   1.717   2.355   6.648  0.3323  0.6216  0.8397
 2533SOL    HW219233   1.707   2.307   6.789 -0.6333  0.0837  0.3324
 2534SOL     OW19234   2.356   2.049   6.375 -0.3857 -0.1792 -0.0810
 2534SOL    HW119235   2.366   2.009   6.461  1.3177 -0.0692 -0.2308
 2534SOL    HW219236   2.405   1.987   6.322 -1.3701  0.3614 -1.6334
 2535SOL     OW19237   0.798   4.297  11.699 -0.3842  0.4154  0.4483
 2535SOL    HW119238   0.712   4.320  11.732 -0.2710  2.0997 -0.4753
 2535SOL    HW219239   0.828   4.236  11.767 -0.3947  0.9191  0.9063
 2536SOL     OW19240   0.312   2.315   2.271  1.0374  1.0298  0.2708
 2536SOL    HW119241   0.295   2.409   2.268  0.1710  0.8104 -1.7409
 2536SOL    HW219242   0.405   2.314   2.249  0.5944 -0.7152 -1.5279
 2537SOL     OW19243   3.908   4.373   9.431 -0.2477  0.2137 -0.0565
 2537SOL    HW119244   4.004   4.380   9.436 -0.1586 -0.7744 -0.4512
 2537SOL    HW219245   3.901   4.346   9.340  0.4514  1.7089 -0.5575
 2538SOL     OW19246   3.791   2.696  17.617  0.0131  0.1963  0.2995
 2538SOL    HW119247   3.849   2.762  17.655 -2.3028  1.7303  1.2250
 2538SOL    HW219248   3.707   2.743  17.615 -2.2293 -3.8832 -1.8030
 2539SOL     OW19249   0.441   1.052   2.839 -0.3718  0.1511 -0.0260
 2539SOL    HW119250   0.403   1.113   2.902 -0.6748 -1.1593  1.0571
 2539SOL    HW219251   0.414   1.094   2.757  0.8905  1.8204  0.4353
 2540SOL     OW19252   1.274   3.939   5.659  0.4988 -0.5102 -0.4361
 2540SOL    HW119253   1.316   3.891   5.730  2.2115  1.6721  0.0358
 2540SOL    HW219254   1.241   3.873   5.599 -0.6110  0.9960 -1.4765
 2541SOL     OW19255   0.673   3.047   6.830 -0.0256  0.1416 -0.0710
 2541SOL    HW119256   0.630   2.967   6.801 -0.5837  0.8224 -1.1375
 2541SOL    HW219257   0.754   3.007   6.860  0.4778  0.1779 -1.3670
 2542SOL     OW19258   2.553   1.691  13.086 -0.3046 -0.9836  0.1930
 2542SOL    HW119259   2.577   1.732  13.003  0.2324 -1.2597  0.2162
 2542SOL    HW219260   2.504   1.760  13.132 -0.1280 -0.4490 -0.4270
 2543SOL     OW19261   0.124   0.257   6.996 -0.0794 -0.1649 -0.2108
 2543SOL    HW119262   0.183   0.332   6.994 -0.8070  0.3499 -1.7434
 2543SOL    HW219263   0.041   0.303   6.988  0.8740  1.4117 -0.8876
 2544SOL     OW19264   2.317   0.524   8.400  0.2141 -0.1391 -0.0703
 2544SOL    HW119265   2.233   0.509   8.442  0.1996  0.7268  0.2052
 2544SOL    HW219266   2.293   0.598   8.344  0.9203 -0.3471 -0.6458
 2545SOL     OW19267   2.450   1.287   2.835 -0.2963 -0.1069 -0.7829
 2545SOL    HW119268   2.387   1.350   2.801  0.0077  0.8003  0.3124
 2545SOL    HW219269   2.475   1.245   2.752 -0.1818 -0.6690 -0.4615
 2546SOL     OW19270   3.186   0.397   8.645  0.6263 -0.0694  0.1266
 2546SOL    HW119271   3.218   0.487   8.650  0.0237  0.2481 -1.7199
 2546SOL    HW219272   3.269   0.350   8.652  0.8832  0.3379 -0.2110
 2547SOL     OW19273   4.523   1.751   6.315 -0.0322  0.4769 -0.2267
 2547SOL    HW119274   4.611   1.753   6.278  0.1703  1.5907  0.3186
 2547SOL    HW219275   4.545   1.713   6.400  0.4261  0.5224 -0.3282
 2548SOL     OW19276   2.285   1.985  10.121  0.6277  0.5064  0.0356
 2548SOL    HW119277   2.233   2.038  10.181 -0.1148  0.1211 -0.2638
 2548SOL    HW219278   2.311   1.906  10.168 -0.3266 -0.0326 -0.3476
 2549SOL     OW19279   3.899   3.264   7.421  0.0865  0.0529  0.1046
 2549SOL    HW119280   3.863   3.242   7.508 -0.4580 -0.2261 -0.1887
 2549SOL    HW219281   3.962   3.332   7.442  0.8156  0.4135 -3.2843
 2550SOL     OW19282   3.474   1.397   8.687 -0.1341 -0.5615 -0.3854
 2550SOL    HW119283   3.531   1.468   8.656 -0.1561 -1.0260 -1.5047
 2550SOL    HW219284   3.395   1.452   8.688 -0.7749 -1.4438 -3.1574
 2551SOL     OW19285   0.772   2.559  10.933 -0.1036 -0.8796  0.1309
 2551SOL    HW119286   0.780   2.513  10.850  1.0242 -0.7920  0.2004
 2551SOL    HW219287   0.690   2.609  10.934  1.6752  2.0686 -0.5275
 2552SOL     OW19288   0.106   2.353   2.885 -0.0055 -0.0117 -0.0732
 2552SOL    HW119289   0.011   2.348   2.874 -0.0992 -0.1066  0.7974
 2552SOL    HW219290   0.147   2.297   2.818 -1.4368 -1.8055  0.5387
 2553SOL     OW19291   3.423   3.513   6.912 -0.6049  0.0213 -0.1565
 2553SOL    HW119292   3.501   3.567   6.930  0.4934 -1.4119 -0.6597
 2553SOL    HW219293   3.422   3.445   6.980 -0.9229 -2.2686 -2.4514
 2554SOL     OW19294   1.058   3.866  11.487 -0.0242 -0.4915 -0.6783
 2554SOL    HW119295   1.079   3.946  11.535 -0.1096 -0.6143 -0.4412
 2554SOL    HW219296   0.999   3.815  11.542 -1.9069  1.7415 -0.6678
 2555SOL     OW19297   1.145   1.326   8.329 -0.3751  0.2063  0.0883
 2555SOL    HW119298   1.194   1.320   8.411 -0.0417 -0.2016 -0.1387
 2555SOL    HW219299   1.091   1.247   8.331  0.0256 -0.1020 -1.4834
 2556SOL     OW19300   3.019   3.305   8.900  0.5111 -0.0091  0.1050
 2556SOL    HW119301   3.085   3.361   8.859 -1.5062  3.7910  2.0393
 2556SOL    HW219302   3.031   3.319   8.994  0.3357  1.9665 -0.1525
 2557SOL     OW19303   4.484   0.771   8.085 -0.1790 -0.2611  0.1367
 2557SOL    HW119304   4.507   0.761   7.993 -1.7949  0.0503 -0.3020
 2557SOL    HW219305   4.389   0.761   8.089 -0.2542  1.2823  2.4048
 2558SOL     OW19306   1.657   2.574   4.681  0.5612  0.1948  0.1225
 2558SOL    HW119307   1.700   2.528   4.753 -0.9360  0.7240  1.3665
 2558SOL    HW219308   1.631   2.505   4.621 -1.1780  0.4804  0.5533
 2559SOL     OW19309   1.163   4.477   4.413  0.2833 -0.2211 -0.2415
 2559SOL    HW119310   1.207   4.545   4.465  0.0958 -0.0874 -0.2594
 2559SOL    HW219311   1.124   4.527   4.342  0.9337 -3.7121 -3.0695
 2560SOL     OW19312   4.451   0.062   2.352  0.2870  0.5662  0.1177
 2560SOL    HW119313   4.394   0.042   2.426  0.0257 -2.4455 -0.8944
 2560SOL    HW219314   4.529   0.095   2.395  1.1081  0.2252 -1.1065
 2561SOL     OW19315   1.478   1.338   2.887  0.1864 -0.2489  0.9170
 2561SOL    HW119316   1.396   1.335   2.938 -1.7042 -0.9757 -2.1948
 2561SOL    HW219317   1.526   1.270   2.933  3.5930  0.9459 -0.9406
 2562SOL     OW19318   2.044   0.345   5.675  0.3730 -0.2838  0.3416
 2562SOL    HW119319   2.042   0.250   5.684  0.7360 -0.1566  1.7847
 2562SOL    HW219320   1.986   0.354   5.599 -0.2835 -0.9550  0.7532
 2563SOL     OW19321   1.393   1.388   8.967 -0.0539  0.5352 -0.2069
 2563SOL    HW119322   1.408   1.298   8.938 -1.2551 -0.7117  3.0580
 2563SOL    HW219323   1.360   1.373   9.056 -3.4179  0.9733 -1.3616
 2564SOL     OW19324   2.776   4.349   3.484 -0.1332  0.0809 -0.3085
 2564SOL    HW119325   2.871   4.339   3.491  0.0301  2.3043  0.7807
 2564SOL    HW219326   2.755   4.256   3.494 -2.6885  0.9248  2.0992
 2565SOL     OW19327   3.254   4.188  10.020  0.5491 -0.1101 -0.2831
 2565SOL    HW119328   3.339   4.230  10.022  0.4588  0.0115  0.6453
 2565SOL    HW219329   3.260   4.129  10.095 -1.6455 -0.1443 -0.1138
 2566SOL     OW19330   3.463   1.549   3.265 -0.3648 -0.1468 -0.3831
 2566SOL    HW119331   3.511   1.571   3.345 -1.0129  0.4613 -0.1612
 2566SOL    HW219332   3.377   1.525   3.300  1.1436 -0.1727  3.2783
 2567SOL     OW19333   1.358   2.083   8.410  0.2118 -0.6393 -0.6987
 2567SOL    HW119334   1.346   1.993   8.380 -1.1977 -0.5937 -0.2379
 2567SOL    HW219335   1.446   2.092   8.373 -0.3921  0.2924 -1.9000
 2568SOL     OW19336   0.553   1.285   3.081  0.0084 -0.6474  0.1507
 2568SOL    HW119337   0.494   1.244   3.144  1.6052 -1.3452  1.1924
 2568SOL    HW219338   0.518   1.372   3.061  1.0784 -0.6055 -1.5432
 2569SOL     OW19339   3.479   2.105   4.476  0.2988  0.3421  0.0448
 2569SOL    HW119340   3.502   2.044   4.406 -1.6630 -1.0035  0.5880
 2569SOL    HW219341   3.416   2.165   4.435 -1.4607 -0.6925  1.2610
 2570SOL     OW19342   3.322   0.328   7.452 -0.2900  0.3808 -0.2817
 2570SOL    HW119343   3.341   0.404   7.397  0.8077  1.4632  1.5654
 2570SOL    HW219344   3.408   0.289   7.469 -0.4303  0.3058  0.2555
 2571SOL     OW19345   1.431   0.151  10.793  0.5521 -0.7180  0.1783
 2571SOL    HW119346   1.369   0.167  10.864  2.0275 -0.4632  1.4023
 2571SOL    HW219347   1.481   0.227  10.820 -1.6424  0.9413 -0.4535
 2572SOL     OW19348   0.760   3.993  14.249 -0.1848  0.2202  0.2424
 2572SOL    HW119349   0.712   4.008  14.330  0.0845  1.1326  0.2358
 2572SOL    HW219350   0.847   4.014  14.282  0.9867 -0.3128 -2.4994
 2573SOL     OW19351   3.073   1.766  12.934 -0.4192  0.4948 -0.0225
 2573SOL    HW119352   3.034   1.804  13.013 -1.9318  1.0628 -1.0431
 2573SOL    HW219353   3.004   1.796  12.875 -0.7731 -2.0241 -0.8671
 2574SOL     OW19354   1.155   2.781   8.386  0.0933  0.7749  0.5327
 2574SOL    HW119355   1.230   2.762   8.331  1.0372  0.8982  1.7751
 2574SOL    HW219356   1.088   2.796   8.319 -0.1799 -0.4161  0.5312
 2575SOL     OW19357   2.031   4.737   3.872  0.0104 -0.4634  0.8042
 2575SOL    HW119358   2.016   0.054   3.796  1.4512 -0.1494  0.7515
 2575SOL    HW219359   1.954   4.679   3.879 -1.5463  1.3047 -1.8285
 2576SOL     OW19360   3.124   3.010   7.418  0.5424  0.3056  0.0540
 2576SOL    HW119361   3.147   3.098   7.389 -0.8873  0.1519 -1.5605
 2576SOL    HW219362   3.051   3.033   7.476 -1.1820  1.8997 -2.7438
 2577SOL     OW19363   1.163   0.547   2.019  1.0492  0.2531 -0.3830
 2577SOL    HW119364   1.082   0.497   2.033  0.4508  1.4856  0.5567
 2577SOL    HW219365   1.187   0.496   1.942  2.2780 -0.8414  0.7474
 2578SOL     OW19366   1.403   2.479   5.770  0.2788 -0.6364  0.0911
 2578SOL    HW119367   1.467   2.487   5.700 -0.2614  0.0687 -0.3297
 2578SOL    HW219368   1.465   2.499   5.840 -0.8947  3.6457 -0.0889
 2579SOL     OW19369   0.394   1.539   3.064 -0.1444 -0.2701 -0.1763
 2579SOL    HW119370   0.361   1.628   3.055 -1.0070 -0.2550  3.0705
 2579SOL    HW219371   0.320   1.518   3.122  0.9416 -1.3975  0.8182
 2580SOL     OW19372   1.680   2.731  11.713 -0.1301 -0.3241  0.4789
 2580SOL    HW119373   1.743   2.662  11.695  0.7273  0.7834 -0.7670
 2580SOL    HW219374   1.603   2.675  11.716 -1.3165  1.2378 -0.7797
 2581SOL     OW19375   1.800   3.536   5.435  0.0248  0.3097 -0.2165
 2581SOL    HW119376   1.808   3.563   5.343 -1.6485  0.5946 -0.2612
 2581SOL    HW219377   1.887   3.559   5.468 -0.2668  3.6151 -1.7845
 2582SOL     OW19378   1.698   2.101   1.540  0.3765  0.2839  0.2716
 2582SOL    HW119379   1.644   2.158   1.485  3.2079  2.3572 -0.3801
 2582SOL    HW219380   1.776   2.093   1.485 -0.3188  0.1046 -0.6740
 2583SOL     OW19381   1.820   0.141   2.933  0.1044 -0.3187 -0.2516
 2583SOL    HW119382   1.815   0.110   3.023  0.4326  0.0638 -0.1004
 2583SOL    HW219383   1.731   0.172   2.918 -0.0583  0.0725  1.5508
 2584SOL     OW19384   1.984   0.422   2.644 -0.1733  0.7318  0.8572
 2584SOL    HW119385   1.953   0.339   2.608  2.5067  0.5420 -1.0551
 2584SOL    HW219386   2.022   0.384   2.724  2.5942  0.9663 -0.3433
 2585SOL     OW19387   4.182   4.490   9.330  0.5803  0.2974 -0.2832
 2585SOL    HW119388   4.249   4.426   9.307  2.0919  1.2531  1.5087
 2585SOL    HW219389   4.176   4.548   9.254  0.1714  1.1577  0.4011
 2586SOL     OW19390   2.910   3.074   2.770  0.0127  0.1153 -0.0293
 2586SOL    HW119391   2.958   3.031   2.841  0.1222 -2.1970 -1.5001
 2586SOL    HW219392   2.984   3.083   2.709 -0.6107 -1.8921 -1.0769
 2587SOL     OW19393   1.888   4.520   0.068  0.6896 -0.1857  0.6127
 2587SOL    HW119394   1.836   4.587   0.023 -0.5110 -0.9200  0.9050
 2587SOL    HW219395   1.820   4.456   0.090 -0.6043  0.7248 -0.7743
 2588SOL     OW19396   0.611   0.368   4.761  0.6227 -0.1729 -0.6663
 2588SOL    HW119397   0.667   0.319   4.701  1.5805  1.3533 -1.0171
 2588SOL    HW219398   0.646   0.322   4.838 -0.3071  1.7193  0.8791
 2589SOL     OW19399   1.377   2.987   5.654  0.7523  0.1675  0.8659
 2589SOL    HW119400   1.351   3.079   5.656  1.6330  0.4259  0.4324
 2589SOL    HW219401   1.376   2.970   5.559  0.9724  0.8821  0.7396
 2590SOL     OW19402   2.449   2.810   3.948  0.1233 -0.2089 -0.0277
 2590SOL    HW119403   2.505   2.875   3.990 -1.3395  1.6651 -0.9691
 2590SOL    HW219404   2.388   2.794   4.021 -0.0211  0.2172 -0.0564
 2591SOL     OW19405   1.194   0.764  10.740  0.1492 -0.0865 -0.2906
 2591SOL    HW119406   1.152   0.785  10.823 -2.3048  0.1199 -1.5708
 2591SOL    HW219407   1.125   0.798  10.683  1.3950  2.4737 -0.2606
 2592SOL     OW19408   1.871   2.122   2.161  0.6911 -0.0571  0.3445
 2592SOL    HW119409   1.911   2.207   2.142  1.0769 -0.5643 -1.1592
 2592SOL    HW219410   1.904   2.096   2.247 -1.0823  0.3311  1.1365
 2593SOL     OW19411   2.069   2.781  16.300 -0.6220 -0.3008  0.2450
 2593SOL    HW119412   2.025   2.823  16.226  0.3429  0.7648  0.2872
 2593SOL    HW219413   2.003   2.719  16.331 -2.5848  1.8161  0.3427
 2594SOL     OW19414   3.017   2.403   9.293  0.2075  0.2966 -0.5732
 2594SOL    HW119415   3.000   2.346   9.218 -0.2745 -0.7502  0.3312
 2594SOL    HW219416   3.018   2.490   9.252  0.4644  0.5528 -0.0171
 2595SOL     OW19417   2.645   0.478  11.799  0.3694  0.6943  0.6419
 2595SOL    HW119418   2.709   0.408  11.814 -2.2821 -1.9624 -0.5136
 2595SOL    HW219419   2.580   0.448  11.862 -1.4855  0.7948 -1.2243
 2596SOL     OW19420   1.895   2.636   8.048  0.3469 -0.3417  0.5641
 2596SOL    HW119421   1.895   2.703   8.116  1.3559 -2.8061  3.0090
 2596SOL    HW219422   1.990   2.639   8.033  0.5679 -0.1648  2.0169
 2597SOL     OW19423   3.092   0.205  11.856  0.3442  0.4851 -0.3553
 2597SOL    HW119424   3.148   0.128  11.874  0.1852  0.2250 -0.9627
 2597SOL    HW219425   3.152   0.263  11.810  0.5029 -0.4152 -1.2980
 2598SOL     OW19426   2.816   4.477   8.604 -0.6735  0.1315 -0.6381
 2598SOL    HW119427   2.890   4.416   8.597 -0.2076  0.8464 -1.8439
 2598SOL    HW219428   2.851   4.540   8.667 -1.1109  0.1092 -0.3735
 2599SOL     OW19429   0.287   1.771   8.649  0.4548  0.1128 -0.7098
 2599SOL    HW119430   0.368   1.821   8.660  2.3610 -3.6063  2.0761
 2599SOL    HW219431   0.327   1.686   8.666  1.2105  0.5973 -0.0250
 2600SOL     OW19432   0.183   3.158   6.741  0.1649 -0.4619 -0.4565
 2600SOL    HW119433   0.175   3.101   6.664  1.0780 -0.2217 -0.7244
 2600SOL    HW219434   0.277   3.170   6.735 -0.0215  0.3169 -1.8822
 2601SOL     OW19435   3.410   2.217  15.815  0.1463  0.5867  0.9792
 2601SOL    HW119436   3.412   2.312  15.798  1.1618  0.5497  0.9100
 2601SOL    HW219437   3.397   2.219  15.910 -2.6220 -1.2427  0.6257
 2602SOL     OW19438   0.381   4.661  16.852  0.1724  0.0059 -0.2624
 2602SOL    HW119439   0.423   0.004  16.881  0.0091  0.6983 -1.9570
 2602SOL    HW219440   0.291   4.693  16.852 -0.2429 -1.1895  0.4020
 2603SOL     OW19441   3.419   0.507   2.346  0.4313  0.5633  0.1475
 2603SOL    HW119442   3.387   0.437   2.402  1.8524 -0.8376 -0.7865
 2603SOL    HW219443   3.391   0.479   2.259  0.5143 -1.5082  0.7769
 2604SOL     OW19444   0.516   2.450   5.279  0.1313  1.0011  0.3351
 2604SOL    HW119445   0.487   2.373   5.328 -1.3656  1.7195  0.5820
 2604SOL    HW219446   0.511   2.528   5.335  1.1955 -0.2495  2.1485
 2605SOL     OW19447   2.125   2.716   6.880  0.3302  0.8409  0.4567
 2605SOL    HW119448   2.040   2.758   6.867 -0.3861 -0.6088  0.4605
 2605SOL    HW219449   2.095   2.625   6.881  0.2528  0.8657  0.4637
 2606SOL     OW19450   1.996   2.190   4.900 -0.1461  0.2066 -0.1519
 2606SOL    HW119451   2.090   2.180   4.890 -0.4397 -1.0046 -1.7854
 2606SOL    HW219452   1.969   2.164   4.812  0.3313  2.1843 -0.8882
 2607SOL     OW19453   4.479   3.090   5.868 -0.0837  0.1410 -0.0250
 2607SOL    HW119454   4.558   3.139   5.890 -0.1726 -0.7539  2.3512
 2607SOL    HW219455   4.495   3.021   5.932 -1.3041 -1.3083 -1.3144
 2608SOL     OW19456   0.014   3.295  11.091  0.1959  0.7812 -0.2159
 2608SOL    HW119457   4.737   3.370  11.149  2.4057  0.4331  0.8431
 2608SOL    HW219458   0.073   3.240  11.142 -2.2289 -1.7196 -0.1081
 2609SOL     OW19459   4.534   0.740   6.313 -0.0471 -0.2831 -0.1232
 2609SOL    HW119460   4.566   0.676   6.250  0.5583  0.1206 -0.2287
 2609SOL    HW219461   4.617   0.763   6.355  1.4985  0.2816 -3.4661
 2610SOL     OW19462   0.193   2.876   6.578 -0.8835 -0.3357 -0.0356
 2610SOL    HW119463   0.170   2.785   6.557  1.8614 -1.1930  0.6909
 2610SOL    HW219464   0.143   2.877   6.659  1.2145  0.4553  1.2314
 2611SOL     OW19465   3.046   1.161   7.516 -0.0835 -0.3581  0.4577
 2611SOL    HW119466   3.020   1.069   7.523  2.5514 -1.0399  1.2125
 2611SOL    HW219467   3.045   1.177   7.611  1.7251  0.1960  0.3874
 2612SOL     OW19468   4.734   0.485   2.427  0.2897 -0.2869  0.0134
 2612SOL    HW119469   0.016   0.532   2.508 -0.6150 -1.2868  0.8151
 2612SOL    HW219470   4.646   0.519   2.414 -0.0987 -1.2630  0.1293
 2613SOL     OW19471   2.617   4.613   5.105 -0.3812  0.0118  0.2008
 2613SOL    HW119472   2.574   4.613   5.191 -0.7670  0.6725  0.0070
 2613SOL    HW219473   2.676   4.538   5.100 -0.0215  0.2183  1.2561
 2614SOL     OW19474   0.838   1.302   2.024 -0.0079  0.9617  0.5558
 2614SOL    HW119475   0.879   1.388   2.036  2.7804  0.0773 -2.6583
 2614SOL    HW219476   0.905   1.246   2.063 -0.7043 -0.2411  0.0243
 2615SOL     OW19477   2.373   0.738   7.860  0.1976  0.3977 -0.0814
 2615SOL    HW119478   2.452   0.778   7.896  0.3488  0.1383 -0.1208
 2615SOL    HW219479   2.352   0.681   7.934  1.0814 -0.3816 -0.4277
 2616SOL     OW19480   3.674   4.242  11.614  0.2240 -0.1117 -0.3206
 2616SOL    HW119481   3.615   4.167  11.608 -0.3312  0.2416  0.8133
 2616SOL    HW219482   3.612   4.308  11.587 -0.8691 -2.2360 -2.9224
 2617SOL     OW19483   2.713   1.259   6.219 -0.2241  0.1329  0.1188
 2617SOL    HW119484   2.626   1.292   6.239 -0.6729 -0.8415 -0.1910
 2617SOL    HW219485   2.757   1.319   6.279 -0.4409 -0.1140  0.5212
 2618SOL     OW19486   1.327   4.612   5.708  0.1535  0.2018  0.1509
 2618SOL    HW119487   1.376   4.537   5.742 -0.8487 -0.7937 -0.5483
 2618SOL    HW219488   1.289   4.650   5.787 -1.2618 -2.8944  0.9913
 2619SOL     OW19489   2.478   4.138   3.441 -0.1266  0.2049  0.0812
 2619SOL    HW119490   2.396   4.147   3.490 -0.8238 -1.7781 -0.7304
 2619SOL    HW219491   2.448   4.191   3.368 -0.5794 -0.4178 -0.1845
 2620SOL     OW19492   0.574   1.799  10.971 -0.5702  0.2613  0.0113
 2620SOL    HW119493   0.486   1.824  10.943 -0.4898  0.8907  0.3220
 2620SOL    HW219494   0.606   1.753  10.894  1.1049 -2.4536  2.3184
 2621SOL     OW19495   3.071   3.223  17.484  0.3349  0.0650 -0.4590
 2621SOL    HW119496   3.152   3.196  17.441  0.9935  1.7504 -0.2511
 2621SOL    HW219497   3.008   3.153  17.466 -1.4047  1.1436  1.5014
 2622SOL     OW19498   2.305   0.917   1.040 -0.3457  0.1775 -0.2884
 2622SOL    HW119499   2.294   0.916   1.135  0.3075 -0.4591 -0.2275
 2622SOL    HW219500   2.211   0.914   1.023 -0.8770  2.8697  2.1674
 2623SOL     OW19501   0.553   0.515   9.703  0.6339 -0.5131  0.1553
 2623SOL    HW119502   0.516   0.453   9.640 -1.3103 -0.8630  1.6558
 2623SOL    HW219503   0.639   0.520   9.660 -0.4650  0.9047 -1.8306
 2624SOL     OW19504   3.568   3.107  17.596 -0.3322 -0.5929 -0.1480
 2624SOL    HW119505   3.585   3.160  17.518  0.4003 -0.9128 -0.2084
 2624SOL    HW219506   3.530   3.170  17.657 -0.7998 -0.1158 -0.9380
 2625SOL     OW19507   2.650   2.887   4.854 -0.1088 -0.2681  0.9869
 2625SOL    HW119508   2.647   2.907   4.947  0.5056  1.5966  0.6076
 2625SOL    HW219509   2.662   2.975   4.817  0.2385 -0.8954 -0.3938
 2626SOL     OW19510   0.698   2.999  13.474  0.2566 -0.1939 -0.1782
 2626SOL    HW119511   0.623   3.006  13.534 -0.9327  0.4772 -1.7354
 2626SOL    HW219512   0.666   3.057  13.405 -1.0350 -0.6507  0.0391
 2627SOL     OW19513   2.099   2.101   6.230 -0.7055  0.0914  0.8106
 2627SOL    HW119514   2.055   2.077   6.312 -2.1270  0.9683  0.2913
 2627SOL    HW219515   2.189   2.096   6.263 -0.0806  1.6100 -0.6687
 2628SOL     OW19516   2.968   0.059  10.103 -0.4554 -0.4315  0.0078
 2628SOL    HW119517   2.977   0.151  10.127 -0.8871 -0.1616 -0.8717
 2628SOL    HW219518   2.954   0.078  10.010 -0.8541  3.7698  0.9155
 2629SOL     OW19519   4.043   0.963   5.748  0.3356 -0.2349 -0.6223
 2629SOL    HW119520   4.127   0.937   5.784 -0.6634 -1.1508  1.0421
 2629SOL    HW219521   4.073   1.024   5.680 -0.0581 -0.7889 -1.2941
 2630SOL     OW19522   3.330   4.226   8.210  0.5593 -0.3340  0.1572
 2630SOL    HW119523   3.281   4.146   8.228 -3.0659  1.0988 -3.3399
 2630SOL    HW219524   3.276   4.259   8.138  1.7507  1.9814  0.3135
 2631SOL     OW19525   2.071   2.476   9.607  0.1459 -0.0626 -0.2045
 2631SOL    HW119526   1.995   2.440   9.652  0.9373  0.6472  1.7298
 2631SOL    HW219527   2.118   2.394   9.623 -3.1438 -2.0038 -0.5328
 2632SOL     OW19528   0.850   2.827   1.505  0.2539  0.2406 -0.0209
 2632SOL    HW119529   0.938   2.859   1.528 -0.5177  1.4215  1.2341
 2632SOL    HW219530   0.864   2.734   1.522 -0.9889 -0.2616 -1.8126
 2633SOL     OW19531   1.277   1.179  16.326  0.0653  0.5790 -0.4660
 2633SOL    HW119532   1.251   1.157  16.415  0.0928  0.3587 -0.5115
 2633SOL    HW219533   1.232   1.115  16.271 -2.2905  3.8165 -2.3442
 2634SOL     OW19534   2.016   1.355   8.204  0.1839  0.8302 -0.3740
 2634SOL    HW119535   1.955   1.301   8.255  1.0419 -0.8837 -1.1638
 2634SOL    HW219536   2.006   1.312   8.119  0.2425  2.0428 -0.9923
 2635SOL     OW19537   0.556   1.906   1.606 -0.5123  0.0591 -0.1338
 2635SOL    HW119538   0.601   1.958   1.673 -1.9153  3.8467 -2.1357
 2635SOL    HW219539   0.491   1.859   1.658  1.2488 -3.2143 -0.9319
 2636SOL     OW19540   4.379   0.476   9.750 -0.2865 -0.3837  0.3921
 2636SOL    HW119541   4.298   0.526   9.742  0.2543  0.3547 -0.4325
 2636SOL    HW219542   4.356   0.386   9.772  0.1641 -1.2961 -2.9174
 2637SOL     OW19543   0.572   1.823   2.903 -0.0586  0.1673  0.7295
 2637SOL    HW119544   0.620   1.903   2.925 -0.2680  0.6272 -0.4528
 2637SOL    HW219545   0.579   1.764   2.978 -3.6730 -0.8004  0.2794
 2638SOL     OW19546   2.000   2.180  16.734  0.4476  0.5799  0.3655
 2638SOL    HW119547   1.979   2.127  16.657  2.4395 -1.5343  1.3079
 2638SOL    HW219548   1.977   2.116  16.801 -0.5545  0.4110 -0.1380
 2639SOL     OW19549   4.109   4.629   1.334  0.4572 -0.4246 -0.1573
 2639SOL    HW119550   4.052   4.673   1.271  1.2745 -0.2084 -0.7459
 2639SOL    HW219551   4.044   4.567   1.368  0.4281 -0.5276 -0.3961
 2640SOL     OW19552   1.477   1.519  15.990 -0.0736 -0.2067 -0.2547
 2640SOL    HW119553   1.402   1.568  15.954 -0.4678 -1.3064 -0.9422
 2640SOL    HW219554   1.437   1.432  15.993 -1.7960  0.5157 -2.2668
 2641SOL     OW19555   4.261   3.174   5.356  0.7261 -0.1887 -0.1631
 2641SOL    HW119556   4.273   3.152   5.448 -1.9248 -2.0832 -0.2928
 2641SOL    HW219557   4.345   3.145   5.319 -0.3938 -1.2654 -1.8644
 2642SOL     OW19558   1.630   3.604   7.626 -0.4817  0.3108 -0.1500
 2642SOL    HW119559   1.593   3.516   7.629 -2.1958  0.9938 -1.6018
 2642SOL    HW219560   1.604   3.627   7.537  1.1775  0.9742 -0.4687
 2643SOL     OW19561   3.346   3.842   2.944 -0.2407  0.8765 -0.6062
 2643SOL    HW119562   3.413   3.790   2.900  0.5519  0.4950  1.0552
 2643SOL    HW219563   3.274   3.829   2.882  0.5129 -0.0887 -1.2836
 2644SOL     OW19564   1.770   0.208   4.878 -0.7301  0.3418  0.9408
 2644SOL    HW119565   1.759   0.184   4.970  2.0690  0.2303  1.2523
 2644SOL    HW219566   1.855   0.169   4.858 -0.7594  0.6560  0.2034
 2645SOL     OW19567   4.534   4.439   1.963  0.4278 -0.4100  0.3208
 2645SOL    HW119568   4.528   4.483   1.878 -1.4706 -1.1450  0.0845
 2645SOL    HW219569   4.450   4.395   1.974  0.7765 -0.7563  1.6249
 2646SOL     OW19570   0.092   3.060   2.599  0.1617  0.3962 -0.2726
 2646SOL    HW119571   0.004   3.093   2.580  0.3014  1.4331  0.9056
 2646SOL    HW219572   0.074   3.013   2.681  2.9070 -2.0934 -1.0916
 2647SOL     OW19573   4.537   2.622   2.461 -0.0269 -0.1814 -0.4779
 2647SOL    HW119574   4.605   2.675   2.418  1.0984 -0.7055  0.6288
 2647SOL    HW219575   4.583   2.584   2.536 -0.1413 -0.9983 -0.8326
 2648SOL     OW19576   4.738   4.028   2.945 -0.5467 -0.6815 -0.0405
 2648SOL    HW119577   4.722   3.962   3.013  0.8875 -0.4645  0.5101
 2648SOL    HW219578   0.003   3.965   2.873 -0.0210 -0.7093  0.0097
 2649SOL     OW19579   1.531   1.967   5.180  0.6455 -0.2546 -0.0300
 2649SOL    HW119580   1.455   2.011   5.141 -1.0156 -4.4659 -1.5818
 2649SOL    HW219581   1.572   1.935   5.099 -3.0007 -3.7945 -0.4793
 2650SOL     OW19582   3.975   4.630   6.391 -0.2139 -0.1531 -0.1299
 2650SOL    HW119583   3.893   4.675   6.412 -0.9118 -1.0502 -0.9165
 2650SOL    HW219584   3.950   4.601   6.303  1.0379 -0.6424 -0.3172
 2651SOL     OW19585   3.263   2.145   9.509  0.0521 -0.1851 -0.2512
 2651SOL    HW119586   3.282   2.172   9.419 -1.7959 -1.5815 -1.0771
 2651SOL    HW219587   3.211   2.220   9.536  0.1672 -0.2892  0.2673
 2652SOL     OW19588   2.837   2.751   6.337 -0.1820 -0.4010 -0.3450
 2652SOL    HW119589   2.820   2.822   6.399  0.7300 -0.9488  0.5337
 2652SOL    HW219590   2.748   2.715   6.334  0.2061 -1.2366 -1.9434
 2653SOL     OW19591   3.427   0.432  11.622 -0.1532  0.4558 -0.2232
 2653SOL    HW119592   3.350   0.455  11.673 -0.1084  3.3290 -1.4153
 2653SOL    HW219593   3.423   0.337  11.623  0.0458  0.4617  1.1449
 2654SOL     OW19594   0.723   1.413   7.105 -0.3135  0.3194 -0.1947
 2654SOL    HW119595   0.758   1.337   7.152 -2.9528  0.0849  1.4037
 2654SOL    HW219596   0.636   1.426   7.142 -0.1840  1.8192 -0.4136
 2655SOL     OW19597   3.225   3.670   4.498 -0.3881 -0.1571  0.0971
 2655SOL    HW119598   3.145   3.624   4.524 -0.4505  0.8125  1.6515
 2655SOL    HW219599   3.228   3.647   4.405  0.7454 -0.8814  0.3051
 2656SOL     OW19600   0.538   0.117   2.977  0.5366  0.1723  0.1404
 2656SOL    HW119601   0.555   0.076   2.892 -1.1583  1.8714 -1.0393
 2656SOL    HW219602   0.604   0.186   2.978 -1.6633  2.2622  0.3736
 2657SOL     OW19603   2.865   4.493   9.118 -0.4609  0.4324 -0.2007
 2657SOL    HW119604   2.877   4.427   9.050 -1.1817 -0.0395  0.1283
 2657SOL    HW219605   2.770   4.499   9.107 -0.5723 -1.0294  0.0589
 2658SOL     OW19606   3.790   2.789  15.178  0.6630 -0.0719 -1.0268
 2658SOL    HW119607   3.882   2.767  15.162  1.5721  2.1352  1.1538
 2658SOL    HW219608   3.756   2.797  15.089 -0.7892 -2.1929 -0.6615
 2659SOL     OW19609   1.435   1.145   4.461 -0.0939  0.5920  0.4186
 2659SOL    HW119610   1.424   1.055   4.490  0.9248  0.1877 -0.4819
 2659SOL    HW219611   1.463   1.134   4.370 -0.1070 -1.3721  0.6491
 2660SOL     OW19612   3.699   2.719   6.152 -0.2415  0.3125 -0.0071
 2660SOL    HW119613   3.780   2.748   6.111  0.1114 -2.6774 -1.3828
 2660SOL    HW219614   3.646   2.686   6.081  0.4926  1.1918 -0.9717
 2661SOL     OW19615   2.619   3.890   8.926 -0.2046  0.0619  0.0221
 2661SOL    HW119616   2.596   3.959   8.864  0.1852  0.1921  0.0242
 2661SOL    HW219617   2.550   3.891   8.993 -1.9808 -0.8249 -1.8052
 2662SOL     OW19618   0.948   4.525  10.783  0.6713 -0.3902 -0.8387
 2662SOL    HW119619   1.033   4.527  10.739  0.5332 -0.2860 -1.1034
 2662SOL    HW219620   0.894   4.502  10.707  0.2944 -1.7473 -0.1540
 2663SOL     OW19621   0.884   0.433   9.208 -0.6552 -0.3889  0.3513
 2663SOL    HW119622   0.802   0.395   9.238 -1.4784  1.7212  0.8153
 2663SOL    HW219623   0.849   0.522   9.206  0.8979  0.2170 -0.0507
 2664SOL     OW19624   4.418   3.236  14.205  0.3584  0.5358 -0.3914
 2664SOL    HW119625   4.509   3.230  14.233 -0.2119  0.8193  1.5421
 2664SOL    HW219626   4.378   3.190  14.279  1.5504 -2.2434 -1.5028
 2665SOL     OW19627   2.494   0.733   0.945 -0.4213  0.4233  0.6644
 2665SOL    HW119628   2.569   0.789   0.963 -0.1652  0.0861  0.6357
 2665SOL    HW219629   2.420   0.788   0.970 -1.8153 -1.6220  1.0711
 2666SOL     OW19630   3.902   4.178  17.656 -0.0781 -0.6513  0.5052
 2666SOL    HW119631   3.894   4.111  17.588 -1.9053 -0.2143  0.2692
 2666SOL    HW219632   3.843   4.241  17.613 -1.4576 -1.4789  1.1857
 2667SOL     OW19633   4.039   0.336   0.241  0.5487  0.0654 -0.7584
 2667SOL    HW119634   3.975   0.390   0.287  2.3384  0.0369  1.7807
 2667SOL    HW219635   4.082   0.301   0.319  0.9421  0.2573 -0.8901
 2668SOL     OW19636   4.405   0.643   3.254  0.1315  0.6307  0.1536
 2668SOL    HW119637   4.415   0.674   3.164 -0.9214 -0.2346 -0.2518
 2668SOL    HW219638   4.340   0.574   3.246  0.6921  0.0825  0.3395
 2669SOL     OW19639   4.679   4.503   6.190 -0.6034 -0.2541  0.2711
 2669SOL    HW119640   4.600   4.549   6.218  0.3603  0.8841  1.0644
 2669SOL    HW219641   4.694   4.446   6.265  1.7395 -0.5729 -0.4503
 2670SOL     OW19642   2.920   4.422  13.608  0.3701  0.1932 -0.4691
 2670SOL    HW119643   2.957   4.334  13.605  0.3082  0.1526 -0.0235
 2670SOL    HW219644   2.980   4.483  13.565  1.4024 -0.4629  0.0318
 2671SOL     OW19645   1.805   2.507  14.273 -0.3381 -0.2380 -0.6043
 2671SOL    HW119646   1.713   2.480  14.280 -0.8013  1.0468 -1.6983
 2671SOL    HW219647   1.815   2.495  14.178 -1.2646  0.2551 -0.7705
 2672SOL     OW19648   3.372   0.610   1.879 -0.3277 -0.5058  0.5081
 2672SOL    HW119649   3.292   0.589   1.830 -0.4806 -0.6049  0.8004
 2672SOL    HW219650   3.398   0.520   1.899 -0.2116 -0.7018 -0.5155
 2673SOL     OW19651   0.805   1.531  10.668 -0.2191  0.0661 -0.3665
 2673SOL    HW119652   0.722   1.576  10.681 -0.6565 -1.5974  2.6398
 2673SOL    HW219653   0.775   1.442  10.647 -1.2490 -0.2679  2.5675
 2674SOL     OW19654   0.883   1.721   3.885 -0.0571 -0.2038  0.8613
 2674SOL    HW119655   0.972   1.688   3.892 -0.2806 -0.8320  0.7664
 2674SOL    HW219656   0.840   1.645   3.924 -0.2324 -1.7789 -2.3756
 2675SOL     OW19657   4.355   4.174  10.461  0.2956 -0.0515 -0.6705
 2675SOL    HW119658   4.378   4.239  10.395 -0.4763  3.6403  2.6759
 2675SOL    HW219659   4.441   4.148  10.493  0.2633  0.8058  0.1270
 2676SOL     OW19660   2.422   0.979   5.249  0.2849  0.1029  0.2371
 2676SOL    HW119661   2.403   1.035   5.173  0.6410 -1.2693 -0.8780
 2676SOL    HW219662   2.517   0.975   5.241  0.0157 -1.2085 -2.3162
 2677SOL     OW19663   4.655   3.509   7.070  0.7642 -0.1912 -0.3384
 2677SOL    HW119664   4.707   3.471   7.000  0.3152  0.6475 -1.1271
 2677SOL    HW219665   4.713   3.584   7.084 -1.3524  1.2927  0.4647
 2678SOL     OW19666   4.114   1.466   1.569  0.1146 -0.7113 -0.2431
 2678SOL    HW119667   4.128   1.371   1.571  0.8467 -0.6002 -0.2786
 2678SOL    HW219668   4.104   1.477   1.474 -1.8547  0.3509  0.0884
 2679SOL     OW19669   0.008   2.510   2.597 -0.2125  0.3150  0.3563
 2679SOL    HW119670   4.730   2.418   2.579 -1.2208  0.1511  2.0730
 2679SOL    HW219671   0.092   2.511   2.645 -1.2549 -1.6678  2.2332
 2680SOL     OW19672   2.965   2.314  17.421 -0.3794 -0.2977  0.2484
 2680SOL    HW119673   3.029   2.283  17.486  0.6896  1.9959  0.3210
 2680SOL    HW219674   2.939   2.403  17.448 -1.4632 -0.2469 -0.9828
 2681SOL     OW19675   0.281   1.621   8.400 -0.3457 -0.5863  0.1431
 2681SOL    HW119676   0.354   1.683   8.390 -0.9077 -0.2131 -1.6503
 2681SOL    HW219677   0.268   1.642   8.493  0.9246 -0.3995  0.2726
 2682SOL     OW19678   3.198   2.318   8.768  0.3330  0.1939 -0.3894
 2682SOL    HW119679   3.184   2.383   8.699  1.6686  0.1890 -0.6525
 2682SOL    HW219680   3.107   2.289   8.782  0.6416 -1.1509 -1.1252
 2683SOL     OW19681   1.384   1.690  10.991  0.1426  0.1029 -0.1859
 2683SOL    HW119682   1.330   1.613  11.010 -0.1370  0.3639  0.0775
 2683SOL    HW219683   1.400   1.684  10.897  2.1424  1.3039  0.0817
 2684SOL     OW19684   0.590   4.669  11.497 -0.1705  0.3879  0.8895
 2684SOL    HW119685   0.579   4.601  11.562  0.5816 -2.7301 -2.2647
 2684SOL    HW219686   0.685   4.669  11.495 -0.1524 -1.3539  1.7434
 2685SOL     OW19687   0.937   3.595   4.556 -0.2601  0.0866  0.0705
 2685SOL    HW119688   0.922   3.501   4.557 -2.8630  0.4994 -0.8247
 2685SOL    HW219689   1.026   3.606   4.525 -0.2260 -1.1580 -0.2528
 2686SOL     OW19690   4.045   4.460  14.629  0.3682  0.6900  0.0871
 2686SOL    HW119691   4.063   4.368  14.613 -1.4496  0.2630  0.5294
 2686SOL    HW219692   4.094   4.487  14.706  1.5021 -1.1933  0.0235
 2687SOL     OW19693   1.442   2.750   9.241 -0.1362 -0.4254 -0.3763
 2687SOL    HW119694   1.349   2.739   9.221 -0.5452  1.7924  0.2721
 2687SOL    HW219695   1.464   2.809   9.169 -2.3092  2.6663  1.4950
 2688SOL     OW19696   3.414   2.024   2.492 -0.2750  0.1569  0.5045
 2688SOL    HW119697   3.463   1.944   2.509  0.1807  0.4681  0.6564
 2688SOL    HW219698   3.423   2.029   2.397  0.7985 -0.1731  0.5871
 2689SOL     OW19699   4.059   3.469   9.211 -0.2283  0.4018  0.6718
 2689SOL    HW119700   3.990   3.404   9.225 -0.3285 -0.0482 -1.9058
 2689SOL    HW219701   4.113   3.434   9.140  0.5664  0.4307  1.2645
 2690SOL     OW19702   3.136   2.929   2.213 -0.0197 -0.1092  0.6279
 2690SOL    HW119703   3.221   2.887   2.230  0.6373  0.7569 -0.5020
 2690SOL    HW219704   3.090   2.909   2.294 -0.7176  1.4689  0.6134
 2691SOL     OW19705   0.011   3.575   4.442 -0.4170 -0.4523 -0.0794
 2691SOL    HW119706   0.001   3.496   4.390  0.1718  0.5988 -1.8091
 2691SOL    HW219707   0.096   3.555   4.482 -0.6576 -0.2929  0.5086
 2692SOL     OW19708   0.881   2.983   2.252  0.2869 -0.0862 -0.1671
 2692SOL    HW119709   0.832   2.947   2.326  0.5803  0.7868  0.4615
 2692SOL    HW219710   0.958   3.017   2.298 -0.7463  1.2588  0.5614
 2693SOL     OW19711   2.416   3.559   5.021 -1.2961 -0.2911 -0.9690
 2693SOL    HW119712   2.357   3.606   4.962 -1.4184  1.5203  0.6407
 2693SOL    HW219713   2.447   3.638   5.065  0.3986 -0.1096 -2.5085
 2694SOL     OW19714   1.996   1.338   4.190  0.0603 -0.2157 -0.2884
 2694SOL    HW119715   2.053   1.368   4.260  0.9079  2.8687 -2.3005
 2694SOL    HW219716   1.914   1.383   4.211  0.5778  1.1771 -1.2516
 2695SOL     OW19717   1.420   3.654   8.865 -0.1483 -0.1369  0.0711
 2695SOL    HW119718   1.330   3.621   8.874 -0.3750  1.2568  2.9774
 2695SOL    HW219719   1.407   3.746   8.885  0.8100  0.2153 -0.9424
 2696SOL     OW19720   1.017   3.800   1.177  0.1372  0.0312 -0.0147
 2696SOL    HW119721   1.025   3.895   1.176  0.2311  0.0021 -2.2537
 2696SOL    HW219722   1.022   3.798   1.081  0.2763 -1.4330  0.0163
 2697SOL     OW19723   0.761   0.153  11.071  0.5225 -0.0258 -0.3982
 2697SOL    HW119724   0.676   0.148  11.026 -0.1907  1.7811  0.7573
 2697SOL    HW219725   0.729   0.133  11.159 -0.2638  1.8145 -0.2572
 2698SOL     OW19726   3.106   1.852   8.701 -0.4212  0.4745 -0.0173
 2698SOL    HW119727   3.033   1.880   8.757 -0.8422  1.5635 -1.0941
 2698SOL    HW219728   3.063   1.858   8.616 -1.6011  1.5874  0.6419
 2699SOL     OW19729   2.510   3.425   0.445  0.2913  0.3031 -1.1773
 2699SOL    HW119730   2.418   3.433   0.422 -0.0198 -2.3994 -0.8158
 2699SOL    HW219731   2.492   3.450   0.536 -0.5772  3.6170 -2.2324
 2700SOL     OW19732   2.731   3.872  13.740 -0.1597 -0.0572  0.4601
 2700SOL    HW119733   2.676   3.875  13.819  0.9218 -0.9615  1.2568
 2700SOL    HW219734   2.820   3.877  13.775  0.0643 -2.0110  0.1821
 2701SOL     OW19735   0.176   1.823   2.573 -0.4153 -0.6441  0.5970
 2701SOL    HW119736   0.252   1.801   2.627  0.6549  1.2026 -0.1085
 2701SOL    HW219737   0.209   1.809   2.484 -0.9650  1.1282  0.1091
 2702SOL     OW19738   3.888   3.382   3.864 -0.1205 -0.1164 -0.2025
 2702SOL    HW119739   3.840   3.460   3.836 -0.7122 -0.2402  0.4633
 2702SOL    HW219740   3.838   3.344   3.936 -2.3385  1.6637 -0.8079
 2703SOL     OW19741   1.221   0.387   5.345 -0.0655  0.1182  0.4515
 2703SOL    HW119742   1.195   0.478   5.355 -1.9182  0.0384 -3.3124
 2703SOL    HW219743   1.227   0.393   5.250 -1.7597 -0.5293  0.2922
 2704SOL     OW19744   1.083   1.791   3.107 -0.3473  0.1717 -0.0814
 2704SOL    HW119745   1.104   1.883   3.117  1.2752 -0.0688 -1.3615
 2704SOL    HW219746   1.075   1.772   3.201  0.4527  1.1294  0.1764
 2705SOL     OW19747   2.652   1.507   2.913 -0.4632 -0.1679 -0.1854
 2705SOL    HW119748   2.559   1.492   2.896 -1.4261  1.7562  3.2309
 2705SOL    HW219749   2.654   1.495   3.008  0.4412  2.9903  0.2005
 2706SOL     OW19750   0.528   2.339   1.620  0.5852  0.5467 -0.3387
 2706SOL    HW119751   0.485   2.254   1.614  1.4094  0.2346 -1.7709
 2706SOL    HW219752   0.513   2.368   1.530  3.1553  2.2787 -0.1939
 2707SOL     OW19753   0.775   2.471   1.300  0.1330  0.7390  0.5452
 2707SOL    HW119754   0.849   2.453   1.358 -0.1972 -1.4457  0.2976
 2707SOL    HW219755   0.829   2.508   1.230  3.0828 -1.0687  1.8631
 2708SOL     OW19756   0.967   3.221   4.482  0.7948 -0.2888 -0.2680
 2708SOL    HW119757   0.999   3.150   4.537 -0.4701 -0.3981  0.3242
 2708SOL    HW219758   0.904   3.266   4.538  2.3672 -1.9826  2.8418
 2709SOL     OW19759   4.448   2.744  16.023 -0.3359 -0.5074  0.5025
 2709SOL    HW119760   4.356   2.752  16.046 -0.4884 -0.0327 -0.2581
 2709SOL    HW219761   4.453   2.651  16.001  1.6230 -0.2663 -0.0306
 2710SOL     OW19762   1.011   4.136   0.517 -0.1788  0.1850  0.3295
 2710SOL    HW119763   1.068   4.063   0.491 -0.0028  0.4110  0.0891
 2710SOL    HW219764   0.962   4.149   0.436 -1.9931  0.2041  1.4366
 2711SOL     OW19765   3.717   2.513   6.352 -0.1936 -0.6728  0.0503
 2711SOL    HW119766   3.623   2.506   6.366 -0.2834  1.3923  0.4851
 2711SOL    HW219767   3.722   2.567   6.273 -0.0550  0.5063  0.8688
 2712SOL     OW19768   3.946   4.729   8.435  0.2403  0.0456  0.3064
 2712SOL    HW119769   3.950   4.674   8.513 -2.5388 -0.3768  0.1774
 2712SOL    HW219770   3.906   0.069   8.472 -0.0816 -1.2777  2.7831
 2713SOL     OW19771   2.928   1.346  13.608  0.2457 -0.1625  0.3016
 2713SOL    HW119772   2.912   1.253  13.621 -0.6863  0.0789  0.8310
 2713SOL    HW219773   2.891   1.396  13.681 -1.8029 -0.2144 -0.7017
 2714SOL     OW19774   4.303   0.514   7.554  0.2710  0.2978  0.2400
 2714SOL    HW119775   4.263   0.591   7.596  1.2777  0.3789  1.0440
 2714SOL    HW219776   4.355   0.546   7.481 -1.2234 -1.0458 -1.4101
 2715SOL     OW19777   0.869   1.754   7.381 -0.1176 -0.1592  0.2571
 2715SOL    HW119778   0.849   1.752   7.287  0.7789  1.8613  0.0169
 2715SOL    HW219779   0.937   1.687   7.380  0.9922  0.9474  1.3620
 2716SOL     OW19780   3.541   1.793   2.513 -0.1967  0.0896 -0.3393
 2716SOL    HW119781   3.564   1.716   2.565  0.6831  1.0097  0.6097
 2716SOL    HW219782   3.595   1.776   2.435  1.5662  1.5863  0.5811
 2717SOL     OW19783   0.685   0.360   7.337  0.0111  0.1303  0.6307
 2717SOL    HW119784   0.708   0.269   7.358 -1.3809  0.1667  2.2158
 2717SOL    HW219785   0.753   0.394   7.396 -0.0573  0.3251  0.5961
 2718SOL     OW19786   1.026   2.805  12.677 -0.5158  0.6246  0.3238
 2718SOL    HW119787   1.089   2.736  12.655 -1.8860 -0.1415 -1.1478
 2718SOL    HW219788   0.951   2.749  12.699 -0.4504  0.7256  0.8056
 2719SOL     OW19789   4.607   4.219  13.705  0.1228  0.4541  0.1386
 2719SOL    HW119790   4.683   4.246  13.653 -0.7472  3.2616  0.3157
 2719SOL    HW219791   4.535   4.209  13.643 -0.0248 -1.4025  0.6202
 2720SOL     OW19792   2.085   3.311  13.474  0.3023  0.3970 -0.2898
 2720SOL    HW119793   2.014   3.251  13.497  0.5947  1.0152  2.1997
 2720SOL    HW219794   2.037   3.364  13.410 -1.2480 -1.6328 -0.7810
 2721SOL     OW19795   4.180   3.906   2.188 -0.1910 -0.3045 -0.4045
 2721SOL    HW119796   4.093   3.932   2.157  0.7250 -0.2426 -2.8929
 2721SOL    HW219797   4.241   3.974   2.159 -0.8033  0.4869  0.1716
 2722SOL     OW19798   3.594   0.231   7.476  0.1134 -0.5576 -0.4410
 2722SOL    HW119799   3.669   0.215   7.535 -0.8525  0.7650  1.1630
 2722SOL    HW219800   3.636   0.274   7.401  2.4492 -1.7548  0.1682
 2723SOL     OW19801   0.577   4.115   1.944  0.0475  0.0250 -0.1898
 2723SOL    HW119802   0.512   4.077   2.002  0.1246 -0.0319 -0.1407
 2723SOL    HW219803   0.542   4.204   1.946 -1.5415 -0.5994  0.1225
 2724SOL     OW19804   0.041   4.143  11.007  0.4974  0.6750 -0.2315
 2724SOL    HW119805   0.049   4.182  11.094  2.2286 -0.4430  0.1246
 2724SOL    HW219806   4.690   4.148  10.976 -0.2441  2.9043  2.2034
 2725SOL     OW19807   4.611   2.986   4.753 -0.4814 -0.0421 -0.7201
 2725SOL    HW119808   4.656   3.070   4.755 -1.4137  0.4433 -0.1928
 2725SOL    HW219809   4.530   3.018   4.712 -0.1284 -0.6687 -1.9395
 2726SOL     OW19810   3.165   2.181   9.841 -0.2919 -0.4380  0.8101
 2726SOL    HW119811   3.178   2.195   9.747  0.2745  2.8229  1.3689
 2726SOL    HW219812   3.156   2.086   9.849 -0.3172 -0.5972 -1.0153
 2727SOL     OW19813   0.525   0.633   8.999 -0.4746  0.0768 -0.8413
 2727SOL    HW119814   0.576   0.562   8.958  0.4208  1.1211 -1.5314
 2727SOL    HW219815   0.472   0.579   9.057  1.9095 -2.8037 -1.2811
 2728SOL     OW19816   3.286   0.713   4.562  0.6349 -0.2800 -0.2237
 2728SOL    HW119817   3.288   0.807   4.578  2.9904 -0.5763  1.2047
 2728SOL    HW219818   3.197   0.690   4.536 -0.3806  1.6215  1.5292
 2729SOL     OW19819   2.042   2.897  15.185  0.3887  0.2340 -0.3687
 2729SOL    HW119820   1.967   2.925  15.133 -0.6212 -0.0445  0.9198
 2729SOL    HW219821   2.043   2.804  15.164  0.6310 -0.0374  0.8093
 2730SOL     OW19822   3.264   4.379  13.368  0.3417  0.0330  0.0704
 2730SOL    HW119823   3.324   4.317  13.409 -0.4674  0.7002  2.2432
 2730SOL    HW219824   3.266   4.446  13.436  0.3567 -1.5786  1.6295
 2731SOL     OW19825   3.833   0.024  17.250 -0.3122 -0.3386  1.0153
 2731SOL    HW119826   3.834   4.710  17.170 -0.6232  2.1758 -0.6499
 2731SOL    HW219827   3.761   0.085  17.235 -2.1442 -2.9106 -0.6281
 2732SOL     OW19828   2.384   1.959   8.711  0.0782 -0.0879 -0.0140
 2732SOL    HW119829   2.463   1.940   8.661 -0.3913 -0.4903 -0.6031
 2732SOL    HW219830   2.363   1.867   8.727  2.2016 -0.6279 -0.4001
 2733SOL     OW19831   3.917   2.832   3.317  0.3971  0.1723  0.4173
 2733SOL    HW119832   3.850   2.899   3.301 -0.7546 -1.2040 -0.5622
 2733SOL    HW219833   3.944   2.830   3.225  0.6374 -0.0523  0.4925
 2734SOL     OW19834   2.027   2.841   7.635 -0.1875 -0.1708 -0.3403
 2734SOL    HW119835   1.955   2.802   7.685 -0.8123 -1.5237 -2.3251
 2734SOL    HW219836   2.113   2.813   7.666  0.4340  1.3442 -0.7266
 2735SOL     OW19837   0.335   1.056  10.088 -0.4172  0.5572  0.3116
 2735SOL    HW119838   0.401   0.999  10.048  0.6494  0.3693  2.3555
 2735SOL    HW219839   0.374   1.142  10.076 -1.3948  0.6726 -1.9233
 2736SOL     OW19840   4.180   4.543   0.927  0.1869 -0.1562  0.8118
 2736SOL    HW119841   4.242   4.525   0.856 -0.4535  2.4604 -0.4224
 2736SOL    HW219842   4.163   4.451   0.946  1.4403  0.1980  3.7650
 2737SOL     OW19843   2.877   0.266   1.764 -0.0346 -0.0696 -0.4825
 2737SOL    HW119844   2.954   0.264   1.708  1.2261 -0.2663  1.2536
 2737SOL    HW219845   2.838   0.350   1.739  0.5436 -0.3753 -2.3512
 2738SOL     OW19846   2.083   2.890   6.418 -0.5396  0.6691  0.0844
 2738SOL    HW119847   2.065   2.818   6.358 -2.6005 -0.0170  1.5263
 2738SOL    HW219848   1.991   2.909   6.439 -0.1296  2.4947  0.2496
 2739SOL     OW19849   4.047   4.272   0.466 -0.4268 -0.2575  0.9546
 2739SOL    HW119850   4.038   4.190   0.515 -0.9812 -0.6469  0.1990
 2739SOL    HW219851   4.141   4.285   0.474 -0.1118 -1.8028 -0.1689
 2740SOL     OW19852   1.141   3.661   0.290  0.4449 -0.0293  0.3949
 2740SOL    HW119853   1.128   3.601   0.217 -1.6843  0.9156  0.0142
 2740SOL    HW219854   1.237   3.659   0.295  0.3754 -2.7384  0.7882
 2741SOL     OW19855   0.635   3.688   7.206 -0.1357  0.5643  0.1848
 2741SOL    HW119856   0.721   3.670   7.244  0.0443 -1.0975 -1.0500
 2741SOL    HW219857   0.669   3.716   7.121  1.0588  0.4561  0.6236
 2742SOL     OW19858   1.224   2.479   8.543  0.1429  0.2065 -0.0209
 2742SOL    HW119859   1.197   2.441   8.627 -0.8483 -1.3073 -1.0338
 2742SOL    HW219860   1.146   2.533   8.529 -1.1970 -1.4144  1.1889
 2743SOL     OW19861   1.007   3.155   6.940  1.3890 -0.1727 -0.1117
 2743SOL    HW119862   0.970   3.070   6.916  1.2241  0.3130 -1.6137
 2743SOL    HW219863   1.064   3.161   6.863 -0.9235  1.0362 -1.7422
 2744SOL     OW19864   0.041   3.129   5.177  0.1877  0.3349  0.0870
 2744SOL    HW119865   4.730   3.062   5.130  4.0159 -3.6381  1.6931
 2744SOL    HW219866   0.066   3.189   5.107 -2.2361 -0.2186 -1.2258
 2745SOL     OW19867   1.682   1.325   2.553 -0.2997 -0.0178 -0.7781
 2745SOL    HW119868   1.612   1.391   2.554  0.9916  1.3329  1.8626
 2745SOL    HW219869   1.615   1.258   2.564  0.4157 -0.6641 -0.4337
 2746SOL     OW19870   4.144   3.961   1.779  0.6103 -0.2273  0.0098
 2746SOL    HW119871   4.204   3.905   1.827  0.1093  0.9147  1.9635
 2746SOL    HW219872   4.141   4.037   1.837 -0.8522 -1.2903  1.3156
 2747SOL     OW19873   1.647   1.854   7.957 -0.1572  0.0335  0.4741
 2747SOL    HW119874   1.675   1.920   7.894  1.4355 -0.8810  0.2199
 2747SOL    HW219875   1.580   1.822   7.897  0.2664 -0.0654  0.0543
 2748SOL     OW19876   1.679   1.276  12.964 -0.4932 -0.3564  0.3086
 2748SOL    HW119877   1.688   1.321  12.881 -0.5035 -0.7146  0.1151
 2748SOL    HW219878   1.756   1.219  12.970 -1.9328 -2.1836  1.4119
 2749SOL     OW19879   0.903   0.123   4.325  0.3803 -0.1775  0.3599
 2749SOL    HW119880   0.963   0.127   4.251  0.2013  1.6817  0.3232
 2749SOL    HW219881   0.858   0.207   4.331 -1.1183 -1.0080  1.1399
 2750SOL     OW19882   3.052   4.408   6.992  0.2760 -0.1849 -0.4787
 2750SOL    HW119883   3.127   4.425   7.048 -0.9029 -1.0209  1.3549
 2750SOL    HW219884   3.028   4.497   6.965  2.6446 -0.5215 -3.6458
 2751SOL     OW19885   2.310   2.555   6.334 -0.4132  0.2560  0.2330
 2751SOL    HW119886   2.265   2.492   6.391 -0.2629 -1.0034 -1.0390
 2751SOL    HW219887   2.327   2.616   6.405 -1.3805  1.3061 -0.4283
 2752SOL     OW19888   1.049   1.694   3.554 -0.2146 -0.4803 -0.3056
 2752SOL    HW119889   1.139   1.710   3.525 -0.1724  0.5493  0.3743
 2752SOL    HW219890   1.039   1.601   3.538  3.1136 -0.8847 -0.1114
 2753SOL     OW19891   0.512   2.957  11.106 -0.7849 -0.1660  0.2247
 2753SOL    HW119892   0.448   2.925  11.169 -0.2037  0.4757  1.1482
 2753SOL    HW219893   0.574   3.002  11.163 -1.0112  0.1459  0.2272
 2754SOL     OW19894   0.522   4.157  12.267 -0.0171  0.3016  0.3703
 2754SOL    HW119895   0.600   4.140  12.214  0.1872  1.8052  0.1843
 2754SOL    HW219896   0.522   4.252  12.278 -1.3002  0.4857 -1.2290
 2755SOL     OW19897   0.360   3.536   6.734 -0.1052 -0.0097 -0.1036
 2755SOL    HW119898   0.377   3.602   6.668  0.8747  0.6229  0.7836
 2755SOL    HW219899   0.276   3.576   6.759 -0.0571 -0.7994  1.3707
 2756SOL     OW19900   2.759   2.484   7.140  0.0503  0.2534 -0.0494
 2756SOL    HW119901   2.756   2.427   7.217  0.2867  1.1605  0.6339
 2756SOL    HW219902   2.834   2.449   7.093 -0.8203 -2.9478  0.9320
 2757SOL     OW19903   4.645   1.405   7.296 -0.2466 -0.2580 -0.0757
 2757SOL    HW119904   4.591   1.476   7.332  1.5295  0.8949  0.3430
 2757SOL    HW219905   4.605   1.409   7.209  1.3893  1.8108 -0.7299
 2758SOL     OW19906   0.326   0.733   7.926  0.3449  0.1589 -0.0025
 2758SOL    HW119907   0.390   0.699   7.988  0.0792  0.2078  0.2963
 2758SOL    HW219908   0.246   0.720   7.977  0.2240 -0.7085 -0.4093
 2759SOL     OW19909   0.842   2.637   1.102  0.1870 -0.2420 -0.1281
 2759SOL    HW119910   0.772   2.701   1.096  2.0622  1.9239  1.0067
 2759SOL    HW219911   0.841   2.597   1.014  0.9871 -2.3070  0.8023
 2760SOL     OW19912   0.314   1.976  13.893 -0.5169 -0.0337  0.2083
 2760SOL    HW119913   0.370   2.025  13.833  0.2703 -1.2994 -0.0807
 2760SOL    HW219914   0.272   1.916  13.832 -0.5259  0.3102 -0.1236
 2761SOL     OW19915   2.166   3.497   8.049 -0.1085 -0.5370 -0.2047
 2761SOL    HW119916   2.110   3.447   7.990 -0.0830 -0.1711 -0.5344
 2761SOL    HW219917   2.247   3.484   8.000  0.7345 -0.6201  1.1855
 2762SOL     OW19918   2.080   3.402   8.924 -0.1359 -0.1836  0.7129
 2762SOL    HW119919   1.999   3.409   8.874  1.4874  2.4321 -1.5461
 2762SOL    HW219920   2.128   3.371   8.847 -1.3611 -2.1369  0.7466
 2763SOL     OW19921   1.420   2.876   3.153 -0.1867 -0.6052 -0.2771
 2763SOL    HW119922   1.446   2.968   3.152  0.6572 -0.8605 -1.1148
 2763SOL    HW219923   1.491   2.842   3.206  1.7429  0.4023 -2.2390
 2764SOL     OW19924   0.021   3.991   7.586  0.2907 -0.1083  0.7712
 2764SOL    HW119925   0.094   4.015   7.530  0.5704  0.3436  1.3296
 2764SOL    HW219926   4.716   3.919   7.540  3.3082 -1.5399  0.1673
 2765SOL     OW19927   3.770   2.956  15.387 -0.0825  0.3698  0.5603
 2765SOL    HW119928   3.771   2.896  15.312 -0.2141  1.7794 -0.5576
 2765SOL    HW219929   3.689   3.004  15.371  0.8046  1.3419 -0.9847
 2766SOL     OW19930   1.484   4.331   7.835  0.3852 -0.4338 -0.7128
 2766SOL    HW119931   1.556   4.315   7.896 -0.4971  1.7780  0.8750
 2766SOL    HW219932   1.521   4.406   7.789  3.1754  1.1575  4.1149
 2767SOL     OW19933   2.081   4.611   6.826 -0.0726  0.3295  0.5789
 2767SOL    HW119934   2.023   4.599   6.751 -0.1524 -1.3104  0.8977
 2767SOL    HW219935   2.076   4.521   6.860  0.5507 -0.3550 -1.1427
 2768SOL     OW19936   1.761   3.026   2.892 -0.3372 -0.4810 -0.2382
 2768SOL    HW119937   1.783   3.116   2.915  2.5048 -1.2138  0.0113
 2768SOL    HW219938   1.688   3.044   2.833 -0.1699  0.5132 -0.1421
 2769SOL     OW19939   2.125   0.057   2.927 -0.2797  0.5948  0.9650
 2769SOL    HW119940   2.217   0.038   2.909 -0.3322 -1.1268  2.4794
 2769SOL    HW219941   2.092   4.713   2.893  1.5992  0.1083  0.3530
 2770SOL     OW19942   2.654   3.655  13.580  0.2664 -1.1523  0.0405
 2770SOL    HW119943   2.682   3.740  13.615 -0.6173 -1.3154  1.1471
 2770SOL    HW219944   2.628   3.679  13.490 -0.7952  2.3363  1.2742
 2771SOL     OW19945   3.003   1.059   8.489  0.1810 -0.9505  0.8859
 2771SOL    HW119946   2.920   1.081   8.532 -0.3783  0.5355 -0.9613
 2771SOL    HW219947   3.064   1.086   8.558  1.4242  0.1736 -0.6748
 2772SOL     OW19948   1.076   4.244   4.317 -0.1035 -0.1480 -0.1789
 2772SOL    HW119949   1.069   4.331   4.357  0.3218  0.7838 -2.1624
 2772SOL    HW219950   1.050   4.193   4.394 -1.0147 -0.1923 -0.5180
 2773SOL     OW19951   2.322   0.450   7.647 -0.0762 -0.4011  0.0593
 2773SOL    HW119952   2.362   0.393   7.713 -1.0152 -2.0144 -0.7373
 2773SOL    HW219953   2.237   0.440   7.690 -0.2431 -0.7279 -0.3405
 2774SOL     OW19954   0.624   2.269   6.333  0.4382  0.0070 -0.3449
 2774SOL    HW119955   0.628   2.295   6.241  0.1284  0.2692 -0.2865
 2774SOL    HW219956   0.529   2.255   6.342  0.6833 -1.1529  0.3189
 2775SOL     OW19957   3.361   1.772   5.380 -0.1549  0.2264 -0.2571
 2775SOL    HW119958   3.416   1.843   5.346  0.3897 -0.6838 -1.2684
 2775SOL    HW219959   3.377   1.697   5.324  0.1891  0.5190 -0.5501
 2776SOL     OW19960   3.201   0.826  14.832 -0.0970  0.5605  0.1137
 2776SOL    HW119961   3.229   0.816  14.924 -1.5200 -1.3028  0.3262
 2776SOL    HW219962   3.176   0.918  14.828 -1.2334  0.2770  0.7647
 2777SOL     OW19963   4.340   2.113   1.111 -0.2656  0.1232 -0.8563
 2777SOL    HW119964   4.299   2.071   1.035  2.6824  1.8971 -3.4273
 2777SOL    HW219965   4.265   2.143   1.162 -1.8558  0.7127 -3.5500
 2778SOL     OW19966   0.177   0.321   7.630  0.1204 -0.5015 -0.2144
 2778SOL    HW119967   0.260   0.277   7.645  0.6036 -0.6627 -3.3929
 2778SOL    HW219968   0.122   0.243   7.621 -2.0585  0.6994  2.6716
 2779SOL     OW19969   3.282   3.567   5.443 -0.2526  0.8056 -0.1261
 2779SOL    HW119970   3.253   3.584   5.533 -0.3202  0.9773 -0.1807
 2779SOL    HW219971   3.352   3.503   5.455 -0.9128  0.3034  1.0921
 2780SOL     OW19972   2.541   0.328   5.430  0.5748  0.0576 -0.7207
 2780SOL    HW119973   2.559   0.422   5.434  0.3740  0.0817 -0.3524
 2780SOL    HW219974   2.625   0.285   5.416 -0.3165 -2.5408  1.7277
 2781SOL     OW19975   0.232   2.394  12.721 -0.4574  0.5325  0.7244
 2781SOL    HW119976   0.203   2.483  12.702 -2.7478  0.0059  1.7178
 2781SOL    HW219977   0.288   2.408  12.798 -0.8842  2.8432  0.6152
 2782SOL     OW19978   1.678   1.613   7.582  0.5080  0.3286 -0.0332
 2782SOL    HW119979   1.647   1.703   7.572  0.4890  0.2531 -0.6655
 2782SOL    HW219980   1.753   1.632   7.638  1.1251  1.0585 -1.1010
 2783SOL     OW19981   1.040   3.041   6.044  0.0855 -0.0341 -0.4590
 2783SOL    HW119982   1.129   3.014   6.066 -0.3937 -2.0396 -0.9821
 2783SOL    HW219983   1.055   3.135   6.037 -2.6035  0.3580 -0.9117
 2784SOL     OW19984   1.175   2.806   6.505  0.2132  0.0700 -0.4476
 2784SOL    HW119985   1.211   2.890   6.536  0.0821 -0.3621  0.8593
 2784SOL    HW219986   1.245   2.770   6.451 -0.4598  0.5497 -1.6478
 2785SOL     OW19987   0.419   3.907   9.982  0.0563 -0.6665 -0.1216
 2785SOL    HW119988   0.335   3.883   9.941  0.2822  0.2147 -1.0985
 2785SOL    HW219989   0.456   3.981   9.933 -1.4901  0.2785  0.1010
 2786SOL     OW19990   2.018   3.687   8.438  0.5513 -0.2425  0.3517
 2786SOL    HW119991   2.100   3.679   8.390  1.9695 -0.6998  2.8600
 2786SOL    HW219992   2.049   3.690   8.529  0.3653  2.0019  0.3362
 2787SOL     OW19993   3.075   1.922   8.319 -0.7972 -0.1187 -0.5018
 2787SOL    HW119994   3.065   1.956   8.230 -1.4643 -0.4989 -0.5716
 2787SOL    HW219995   3.020   1.844   8.309 -0.9344  0.2370 -2.5287
 2788SOL     OW19996   4.661   0.513  13.181  0.4648 -0.1233  0.6378
 2788SOL    HW119997   4.567   0.496  13.171  0.7166 -0.6466 -0.8278
 2788SOL    HW219998   4.709   0.456  13.122 -0.3098 -1.7043  1.5388
 2789SOL     OW19999   2.836   1.662   6.088 -0.0889 -0.2071  0.9793
 2789SOL    HW120000   2.822   1.676   6.182  1.4097 -2.5258  1.5313
 2789SOL    HW220001   2.753   1.704   6.065 -0.3183 -0.7425  0.8441
 2790SOL     OW20002   4.410   2.515   7.085 -0.3597 -0.5657 -0.3658
 2790SOL    HW120003   4.467   2.551   7.018  0.9328 -0.0559  1.0078
 2790SOL    HW220004   4.323   2.553   7.074  0.0476  0.2578 -0.7483
 2791SOL     OW20005   4.234   4.734   3.182 -0.4428  0.3420  0.2100
 2791SOL    HW120006   4.323   0.030   3.189  0.4621 -1.8641 -0.2553
 2791SOL    HW220007   4.225   0.002   3.087 -1.9590  3.2802  0.5680
 2792SOL     OW20008   4.050   0.415   5.071 -0.1556 -0.2838 -0.1054
 2792SOL    HW120009   3.962   0.409   5.035 -0.8014 -0.6738  1.5833
 2792SOL    HW220010   4.078   0.331   5.036 -0.2092 -0.7268  0.9408
 2793SOL     OW20011   0.479   0.264   5.089 -0.2185 -0.3670 -0.5375
 2793SOL    HW120012   0.468   0.170   5.080  0.7051 -0.5659  0.3638
 2793SOL    HW220013   0.519   0.266   5.177  0.8659  3.1088 -1.0950
 2794SOL     OW20014   1.236   1.731   8.071  0.0014 -0.1985  0.3593
 2794SOL    HW120015   1.262   1.763   8.157  0.5816  1.2062 -0.3214
 2794SOL    HW220016   1.247   1.641   8.099 -0.0277 -0.1691  0.4661
 2795SOL     OW20017   0.004   3.049   7.456 -0.1011 -0.4101  0.4031
 2795SOL    HW120018   4.730   2.954   7.457 -0.2230 -0.3782  1.5905
 2795SOL    HW220019   4.662   3.091   7.486 -0.4398  0.7042 -2.0062
 2796SOL     OW20020   3.949   4.091   6.617  0.5603 -0.5088  0.0064
 2796SOL    HW120021   3.862   4.121   6.644  0.4893 -1.5164  0.9060
 2796SOL    HW220022   4.013   4.151   6.655  0.5357  0.7220 -1.9002
 2797SOL     OW20023   0.990   3.938   6.228 -0.3165 -0.2527  0.2011
 2797SOL    HW120024   1.044   3.867   6.261  0.4019  0.5180  0.6758
 2797SOL    HW220025   0.900   3.906   6.229 -0.1049 -0.7859  1.6607
 2798SOL     OW20026   2.089   3.441   6.890  0.3579 -0.5468 -0.3770
 2798SOL    HW120027   2.081   3.464   6.982 -0.9452  0.1622 -0.6687
 2798SOL    HW220028   2.078   3.347   6.897 -0.4054 -0.6548 -2.9585
 2799SOL     OW20029   2.598   4.667   3.815  0.0109 -0.5948 -0.5452
 2799SOL    HW120030   2.530   4.609   3.849 -0.5088 -0.0317 -0.6117
 2799SOL    HW220031   2.677   4.643   3.863  0.4878  2.5318  0.2790
 2800SOL     OW20032   1.948   3.332  10.296  0.4791  0.0046  0.4500
 2800SOL    HW120033   1.905   3.399  10.242 -1.2808 -1.2796  0.2416
 2800SOL    HW220034   1.917   3.251  10.255  2.1180 -0.7365  0.6999
 2801SOL     OW20035   2.637   2.180  16.694  0.3303  0.7719 -0.1417
 2801SOL    HW120036   2.600   2.217  16.613  3.1026  2.0711 -0.8162
 2801SOL    HW220037   2.579   2.104  16.697 -0.2057  1.3027  2.7722
 2802SOL     OW20038   0.405   3.814   7.772  0.1144  0.0137 -0.2589
 2802SOL    HW120039   0.442   3.865   7.700  0.4120  0.6213  0.3215
 2802SOL    HW220040   0.341   3.759   7.727 -1.1024  1.7433 -0.6128
 2803SOL     OW20041   1.318   0.393   0.797 -0.6199 -0.0032 -0.2636
 2803SOL    HW120042   1.393   0.415   0.743 -0.5259  0.0505 -0.1098
 2803SOL    HW220043   1.335   0.444   0.876  1.2934 -1.3882  0.2219
 2804SOL     OW20044   1.618   2.818   8.300 -0.1310  0.4299 -0.0658
 2804SOL    HW120045   1.709   2.816   8.272  0.2352 -0.1993  1.1509
 2804SOL    HW220046   1.619   2.821   8.396 -4.1935  0.6030 -0.0216
 2805SOL     OW20047   0.706   0.223   3.959 -0.1759 -0.2936  0.3544
 2805SOL    HW120048   0.700   0.142   4.010  0.1742  0.1065  1.0285
 2805SOL    HW220049   0.628   0.274   3.982 -0.7431 -0.2261 -1.6486
 2806SOL     OW20050   2.533   3.494   6.191 -0.1480  0.0534 -0.0089
 2806SOL    HW120051   2.553   3.428   6.126  1.5642  2.1143 -1.5922
 2806SOL    HW220052   2.598   3.563   6.175 -1.4224  1.5420  1.1516
 2807SOL     OW20053   3.023   2.711   9.132 -0.1201 -0.0694 -0.1544
 2807SOL    HW120054   2.965   2.717   9.056 -0.2118 -0.0021 -0.0797
 2807SOL    HW220055   3.039   2.803   9.151 -2.0244 -0.2282  2.2780
 2808SOL     OW20056   1.619   4.209   1.907  0.7278 -0.4865 -0.2820
 2808SOL    HW120057   1.644   4.285   1.961  2.5297  0.0948 -1.9377
 2808SOL    HW220058   1.694   4.150   1.917 -0.6187 -1.7381  2.4236
 2809SOL     OW20059   0.264   4.004   8.694 -0.8782  0.5552  0.3774
 2809SOL    HW120060   0.238   3.926   8.743 -2.7021 -0.1981 -1.7792
 2809SOL    HW220061   0.342   3.973   8.647 -1.2247 -1.0607  0.8851
 2810SOL     OW20062   2.268   3.607   0.896 -0.2358  0.2639  0.3577
 2810SOL    HW120063   2.329   3.643   0.832  0.6841 -1.3797  0.3094
 2810SOL    HW220064   2.183   3.642   0.870 -1.3205 -1.9178  0.9898
 2811SOL     OW20065   2.767   2.378   2.325 -0.1327  0.2237 -0.4039
 2811SOL    HW120066   2.821   2.299   2.324 -1.3762 -0.6247  0.5710
 2811SOL    HW220067   2.796   2.426   2.247 -0.9590 -2.5369 -2.3740
 2812SOL     OW20068   4.111   4.472   2.301 -0.2456 -0.1363  0.2216
 2812SOL    HW120069   4.099   4.515   2.386 -0.8307  3.3809 -1.6780
 2812SOL    HW220070   4.199   4.500   2.275 -1.0562  1.3321 -0.9279
 2813SOL     OW20071   3.820   2.136   9.767  0.7445  0.5441  0.5371
 2813SOL    HW120072   3.775   2.062   9.726 -0.9967  0.9847  1.6086
 2813SOL    HW220073   3.838   2.186   9.687  1.5494  1.9357  1.5797
 2814SOL     OW20074   2.211   2.289   8.209 -0.3692  0.4726  0.0649
 2814SOL    HW120075   2.201   2.225   8.138 -0.1223  0.5233 -0.0161
 2814SOL    HW220076   2.136   2.268   8.265 -1.0737  0.0313 -1.0328
 2815SOL     OW20077   0.456   0.317  10.833 -0.0275 -0.7659  0.1625
 2815SOL    HW120078   0.477   0.227  10.860  0.9582 -0.6879 -0.3510
 2815SOL    HW220079   0.465   0.360  10.918 -0.5003 -1.4368  0.5529
 2816SOL     OW20080   2.712   1.546   8.468  0.8043  0.1412 -1.1292
 2816SOL    HW120081   2.778   1.509   8.526 -1.1619  2.3666  2.5382
 2816SOL    HW220082   2.704   1.471   8.409  1.7813 -1.5470  0.8795
 2817SOL     OW20083   2.556   3.969   7.431  0.1901 -0.1309  0.0833
 2817SOL    HW120084   2.487   3.959   7.366 -0.9353 -0.4774  1.3335
 2817SOL    HW220085   2.504   4.003   7.504 -1.3538 -2.8118  0.2166
 2818SOL     OW20086   0.714   3.075   1.082 -0.1192 -0.3445  0.6172
 2818SOL    HW120087   0.718   2.986   1.119  2.3956  0.5029  2.3686
 2818SOL    HW220088   0.698   3.133   1.156  0.1156  1.3115 -0.6435
 2819SOL     OW20089   1.823   3.864  14.536 -0.0791 -0.1550  0.3417
 2819SOL    HW120090   1.899   3.921  14.520  0.8602 -1.0177  1.7093
 2819SOL    HW220091   1.827   3.796  14.468  0.7996  1.0878 -0.8582
 2820SOL     OW20092   1.130   0.307   3.517 -0.2257  0.3432  0.9417
 2820SOL    HW120093   1.131   0.247   3.592 -3.7682 -0.2400  0.4887
 2820SOL    HW220094   1.088   0.262   3.444 -0.4761  0.1487  1.2061
 2821SOL     OW20095   2.598   2.493   8.012 -0.0636  0.5137  0.1930
 2821SOL    HW120096   2.662   2.561   7.989 -1.8487  2.2210  0.3228
 2821SOL    HW220097   2.587   2.519   8.104 -1.3974 -0.7449  0.3803
 2822SOL     OW20098   1.301   2.163   6.724 -0.0155  0.0272  0.0299
 2822SOL    HW120099   1.351   2.131   6.798 -1.3522 -1.5232  0.2687
 2822SOL    HW220100   1.328   2.255   6.726  2.3682 -0.6760 -0.3250
 2823SOL     OW20101   1.681   0.252  12.368 -0.0407  0.4704  0.0639
 2823SOL    HW120102   1.674   0.250  12.463 -0.8154  1.1323  0.0257
 2823SOL    HW220103   1.644   0.167  12.343 -1.1257  0.1650  2.7440
 2824SOL     OW20104   0.514   0.995   6.630  0.2802 -0.2370  0.4034
 2824SOL    HW120105   0.517   1.048   6.710 -0.2339  2.6307 -1.4543
 2824SOL    HW220106   0.605   0.979   6.609 -0.3320 -2.9133 -0.1816
 2825SOL     OW20107   0.013   1.808   6.523 -0.0727 -0.0337  1.1223
 2825SOL    HW120108   0.066   1.728   6.526  0.7338  0.4293 -0.4683
 2825SOL    HW220109   0.013   1.831   6.615  0.4702 -1.9200  1.6008
 2826SOL     OW20110   0.292   0.586   1.566  0.0295 -0.3748  0.2496
 2826SOL    HW120111   0.297   0.533   1.486  0.2605  1.4201 -0.9150
 2826SOL    HW220112   0.311   0.674   1.534 -0.3170 -0.0226  1.0248
 2827SOL     OW20113   3.510   4.302  14.853 -0.1152  0.5914 -0.7443
 2827SOL    HW120114   3.585   4.254  14.819  0.7401  1.7415 -0.4841
 2827SOL    HW220115   3.430   4.279  14.805 -1.4943  2.5297  0.6353
 2828SOL     OW20116   4.062   0.520   0.717 -0.0119  0.0492  0.3808
 2828SOL    HW120117   4.046   0.440   0.766  0.6542 -0.5129 -0.3112
 2828SOL    HW220118   4.150   0.497   0.686 -0.4401 -0.3528 -0.5324
 2829SOL     OW20119   4.458   2.459   7.891 -0.0847  0.1332 -0.6952
 2829SOL    HW120120   4.375   2.468   7.939 -0.0538 -0.7703 -0.4615
 2829SOL    HW220121   4.439   2.395   7.822  0.5270 -0.3086 -0.4530
 2830SOL     OW20122   3.998   3.601  13.826 -0.1070  0.0578 -0.6329
 2830SOL    HW120123   3.975   3.680  13.777 -2.3236 -0.9939 -1.3349
 2830SOL    HW220124   3.926   3.539  13.811 -1.5592  1.4678  0.5160
 2831SOL     OW20125   1.957   0.790   7.055  0.6156 -0.1969  0.0231
 2831SOL    HW120126   2.003   0.754   7.131  0.6332 -0.0596  0.0769
 2831SOL    HW220127   2.017   0.858   7.026  0.5243  0.3636  1.1525
 2832SOL     OW20128   2.908   2.941  13.211  0.3425  0.3008 -0.4060
 2832SOL    HW120129   2.818   2.942  13.178  0.1965 -1.2306 -0.0708
 2832SOL    HW220130   2.893   2.866  13.269 -0.1830 -0.0014 -0.9310
 2833SOL     OW20131   0.058   1.961   2.893 -0.3173  0.0860 -0.2069
 2833SOL    HW120132   0.139   2.008   2.910  0.5427 -1.5879  0.3630
 2833SOL    HW220133   0.073   1.924   2.806  0.4692 -0.7943  0.3011
 2834SOL     OW20134   1.640   2.990   5.003  0.0181  0.6910 -0.4354
 2834SOL    HW120135   1.561   2.941   4.980  0.5083  0.0344 -0.7396
 2834SOL    HW220136   1.696   2.990   4.926  0.2328 -2.3479 -0.2817
 2835SOL     OW20137   0.541   1.845   3.527 -0.0392  0.0884 -0.5288
 2835SOL    HW120138   0.568   1.930   3.494 -1.1057  0.6915  0.1516
 2835SOL    HW220139   0.628   1.813   3.550  0.0698 -0.6558 -1.9330
 2836SOL     OW20140   1.606   1.373  14.590 -0.4266  0.3483 -0.3629
 2836SOL    HW120141   1.548   1.319  14.537 -1.2318  0.0078  0.8666
 2836SOL    HW220142   1.695   1.346  14.568 -0.7485 -0.4594 -0.6508
 2837SOL     OW20143   3.814   0.866   5.824 -0.3153  0.0736  0.3142
 2837SOL    HW120144   3.892   0.918   5.807 -0.0817 -0.4437 -0.1773
 2837SOL    HW220145   3.829   0.782   5.783  1.7727  0.6772 -0.1191
 2838SOL     OW20146   2.696   1.042   5.404 -0.4179 -0.2301  0.3008
 2838SOL    HW120147   2.714   0.953   5.373  1.3807  0.4097 -0.4485
 2838SOL    HW220148   2.643   1.026   5.483  0.7773 -1.4034  0.8668
 2839SOL     OW20149   4.705   1.587   5.391  0.0680  0.7443 -0.2663
 2839SOL    HW120150   4.673   1.617   5.306 -0.2184 -1.3294 -0.8808
 2839SOL    HW220151   4.723   1.668   5.439  0.0970 -0.1220  1.1807
 2840SOL     OW20152   2.770   4.211   5.518 -0.4611 -0.2212 -0.1153
 2840SOL    HW120153   2.858   4.235   5.491 -0.7487  0.2085 -0.6747
 2840SOL    HW220154   2.744   4.281   5.579  2.7537  1.6998 -0.9497
 2841SOL     OW20155   2.748   0.727   7.233 -0.7124 -0.3465 -0.1659
 2841SOL    HW120156   2.697   0.786   7.289  1.9282  1.2575  0.5360
 2841SOL    HW220157   2.768   0.654   7.291  0.0558 -1.5615 -1.9448
 2842SOL     OW20158   1.949   1.624   4.382 -0.5180 -0.5913  0.7153
 2842SOL    HW120159   1.893   1.553   4.412 -0.2436 -1.0265  0.2028
 2842SOL    HW220160   1.882   1.685   4.350  0.4694 -0.6086 -1.4020
 2843SOL     OW20161   3.916   1.340   6.534 -0.2943 -0.1319  0.2579
 2843SOL    HW120162   3.830   1.351   6.576  0.7697  0.2277  2.3124
 2843SOL    HW220163   3.899   1.390   6.454  0.6619  1.6414  1.1773
 2844SOL     OW20164   4.099   4.590   5.311 -0.1576 -0.3597 -0.1229
 2844SOL    HW120165   4.011   4.628   5.304  0.6013  0.9800 -2.3649
 2844SOL    HW220166   4.122   4.554   5.225  0.7680 -1.4821  0.5989
 2845SOL     OW20167   3.316   2.466   3.878  0.4899 -0.2680 -0.9507
 2845SOL    HW120168   3.221   2.465   3.886  0.7030 -2.9458  1.1128
 2845SOL    HW220169   3.327   2.559   3.896 -0.3008 -0.5105  0.7463
 2846SOL     OW20170   3.176   0.346  17.528  0.5477 -0.3445 -0.0229
 2846SOL    HW120171   3.187   0.309  17.440 -1.0038  0.3199 -0.4998
 2846SOL    HW220172   3.179   0.263  17.576 -0.3740  0.5262  1.5161
 2847SOL     OW20173   1.265   0.400   4.503 -0.4554  0.1401  0.3820
 2847SOL    HW120174   1.298   0.312   4.482 -1.3379 -0.7139  2.5110
 2847SOL    HW220175   1.172   0.399   4.479 -0.5174  2.6326  0.6194
 2848SOL     OW20176   3.038   2.853  17.157  0.0122  0.2038  0.0282
 2848SOL    HW120177   2.968   2.836  17.094  1.5970 -2.0731 -1.1031
 2848SOL    HW220178   2.992   2.841  17.240 -0.9266 -1.4354 -0.7212
 2849SOL     OW20179   2.589   4.294   8.286  0.0618 -0.0422 -0.4332
 2849SOL    HW120180   2.648   4.348   8.234 -2.8375  2.3961 -1.1712
 2849SOL    HW220181   2.631   4.265   8.367 -0.5838 -0.7408 -0.3471
 2850SOL     OW20182   3.542   4.371   6.446 -0.3049  0.2009 -0.0047
 2850SOL    HW120183   3.617   4.405   6.494  0.3107  1.6859 -2.0087
 2850SOL    HW220184   3.469   4.412   6.492  0.0162  0.3744  0.3440
 2851SOL     OW20185   2.354   0.145   5.416  0.1181 -0.4263  0.2790
 2851SOL    HW120186   2.386   0.125   5.504  0.0447  1.3591  0.7040
 2851SOL    HW220187   2.418   0.208   5.384 -0.6392  0.1261 -0.1504
 2852SOL     OW20188   3.299   2.999   9.156 -0.3627  0.0229  0.2543
 2852SOL    HW120189   3.211   2.980   9.188 -0.4582  1.7127  0.9800
 2852SOL    HW220190   3.340   2.997   9.243  1.6631 -1.4167 -0.7595
 2853SOL     OW20191   0.331   4.180   9.273 -0.3371 -0.5903 -0.2122
 2853SOL    HW120192   0.266   4.110   9.272  1.0389 -1.8576 -0.6454
 2853SOL    HW220193   0.388   4.160   9.199  0.7433  1.4803  0.0593
 2854SOL     OW20194   0.321   0.811   4.602 -0.0691 -0.6955 -0.2863
 2854SOL    HW120195   0.398   0.753   4.606  1.2370  0.9768 -1.2409
 2854SOL    HW220196   0.255   0.756   4.561 -1.3782  0.3462  0.4515
 2855SOL     OW20197   2.932   0.295  10.440  0.3830  0.0322 -0.4974
 2855SOL    HW120198   2.926   0.368  10.501 -1.2238  0.2220 -0.8713
 2855SOL    HW220199   2.853   0.248  10.467  1.3366 -0.3780  1.5589
 2856SOL     OW20200   1.411   2.024   4.133 -0.0283  0.3483 -0.8174
 2856SOL    HW120201   1.422   2.105   4.084  2.3851  0.4051 -0.1862
 2856SOL    HW220202   1.316   2.019   4.141  0.1079 -0.1112  0.5252
 2857SOL     OW20203   2.439   3.387   6.912 -0.3199  0.0413 -0.2506
 2857SOL    HW120204   2.410   3.476   6.935 -1.8246 -0.9092  1.5805
 2857SOL    HW220205   2.517   3.403   6.859 -1.2540  0.8757 -1.3733
 2858SOL     OW20206   0.816   1.271   8.572 -0.4667 -0.0192  0.6674
 2858SOL    HW120207   0.723   1.251   8.564 -0.2772 -0.9417  0.6928
 2858SOL    HW220208   0.832   1.288   8.479  0.2367  0.5774  0.9074
 2859SOL     OW20209   0.630   0.637  12.618 -0.6613 -0.2409  0.5595
 2859SOL    HW120210   0.556   0.584  12.648 -1.8124  0.4164 -1.0589
 2859SOL    HW220211   0.616   0.624  12.524 -1.0481 -2.4401  0.9280
 2860SOL     OW20212   4.073   4.142   2.005 -0.4058 -0.3300 -0.0816
 2860SOL    HW120213   4.054   4.166   2.095  0.2644 -0.8582  0.2020
 2860SOL    HW220214   3.986   4.145   1.967 -1.3091  0.5004  2.0861
 2861SOL     OW20215   3.547   3.705   2.840  0.0684 -0.0627  0.2309
 2861SOL    HW120216   3.555   3.619   2.799 -0.4075 -0.7048  1.4701
 2861SOL    HW220217   3.639   3.723   2.857  0.1976  0.2500 -0.7733
 2862SOL     OW20218   2.419   1.749   3.426 -0.7356 -0.8017  0.3317
 2862SOL    HW120219   2.342   1.746   3.368 -0.6615  1.9652  0.1096
 2862SOL    HW220220   2.389   1.783   3.510 -1.8131  1.9009 -1.1103
 2863SOL     OW20221   0.636   0.106   4.439  0.1289 -0.0882 -0.0778
 2863SOL    HW120222   0.616   0.066   4.354 -0.4321 -2.0801  0.9755
 2863SOL    HW220223   0.559   0.080   4.490  0.1592 -1.0986 -0.5424
 2864SOL     OW20224   1.397   3.480   6.870 -0.1308 -0.6401  0.1533
 2864SOL    HW120225   1.451   3.478   6.791 -1.1317  0.7321 -0.5700
 2864SOL    HW220226   1.356   3.394   6.873 -0.7697 -0.4072 -1.7811
 2865SOL     OW20227   2.764   3.709  12.142 -0.5196 -0.0797  0.0295
 2865SOL    HW120228   2.815   3.698  12.223  2.6685  0.1434 -1.9585
 2865SOL    HW220229   2.697   3.775  12.161 -0.2566  0.6547 -1.6219
 2866SOL     OW20230   1.409   0.725   6.506 -0.0013 -0.1505 -0.9446
 2866SOL    HW120231   1.455   0.771   6.577 -1.6575  0.7459 -0.4606
 2866SOL    HW220232   1.328   0.772   6.523 -0.2871 -0.0871 -2.5341
 2867SOL     OW20233   1.765   3.552   0.982 -1.0559  0.0092 -0.4232
 2867SOL    HW120234   1.707   3.476   0.974  0.9372 -1.3779 -1.7425
 2867SOL    HW220235   1.757   3.577   0.890  1.6084  0.0855 -0.6391
 2868SOL     OW20236   0.128   1.256   1.244  0.6114 -0.2006 -0.6644
 2868SOL    HW120237   0.180   1.291   1.317 -0.5217  0.2847 -0.0914
 2868SOL    HW220238   0.090   1.338   1.211 -0.4826 -0.5214 -0.2001
 2869SOL     OW20239   0.966   4.724  11.042  0.6909 -0.3370  0.1290
 2869SOL    HW120240   0.885   0.036  11.040  0.6043 -0.4998 -0.4398
 2869SOL    HW220241   0.988   4.721  11.135 -1.2617  1.3351  0.6161
 2870SOL     OW20242   2.746   0.039   7.235  0.1178 -0.3898 -0.7541
 2870SOL    HW120243   2.718   0.130   7.224  0.3975 -0.4632 -2.0840
 2870SOL    HW220244   2.824   0.059   7.285  0.9872 -1.3573 -1.7143
 2871SOL     OW20245   1.653   1.936  10.985 -0.1405 -1.1529 -0.3793
 2871SOL    HW120246   1.663   1.943  11.080 -1.5752 -1.3548 -0.2100
 2871SOL    HW220247   1.560   1.956  10.973 -0.2063  0.3877  2.7254
 2872SOL     OW20248   3.109   4.418  16.008 -0.4754 -0.4292 -0.2325
 2872SOL    HW120249   3.083   4.510  16.002  0.2652 -0.2641 -0.8741
 2872SOL    HW220250   3.116   4.403  15.914 -1.2703  0.5636 -0.4533
 2873SOL     OW20251   3.570   0.371   9.850 -0.6533  0.3783 -0.2685
 2873SOL    HW120252   3.519   0.296   9.882 -1.7012  0.7230 -1.1483
 2873SOL    HW220253   3.658   0.339   9.872 -0.1565 -0.2156 -3.1229
 2874SOL     OW20254   3.954   4.681   7.944 -0.1238  0.0585 -0.1258
 2874SOL    HW120255   3.960   0.007   8.015  0.0319 -0.2800  0.1718
 2874SOL    HW220256   3.987   4.606   7.993 -0.5448  0.3695  0.6420
 2875SOL     OW20257   1.448   1.110   3.991  0.2900  0.1970  0.2281
 2875SOL    HW120258   1.476   1.116   3.899  3.3721  1.3644  1.2218
 2875SOL    HW220259   1.446   1.204   4.009  2.0589  0.5378 -1.2738
 2876SOL     OW20260   2.817   4.426  11.329 -0.7800  0.0622 -0.3074
 2876SOL    HW120261   2.779   4.342  11.302  0.1745 -0.3039 -0.4929
 2876SOL    HW220262   2.905   4.399  11.357  0.2261  2.0902 -1.5707
 2877SOL     OW20263   0.286   2.755   5.066 -0.9150 -0.0567 -0.2745
 2877SOL    HW120264   0.242   2.704   5.134  0.4126 -0.7231  0.0785
 2877SOL    HW220265   0.367   2.787   5.106  0.9560 -0.7313 -3.5129
 2878SOL     OW20266   1.561   0.859   6.721  0.0710 -0.7366  0.3198
 2878SOL    HW120267   1.561   0.952   6.695 -0.0450 -1.0157 -0.6552
 2878SOL    HW220268   1.632   0.833   6.663  0.6199  2.3407 -0.4327
 2879SOL     OW20269   2.259   4.573   2.116 -0.1596 -0.1042  0.1645
 2879SOL    HW120270   2.202   4.496   2.111  0.6139 -0.7338  1.1601
 2879SOL    HW220271   2.249   4.620   2.033 -0.0659 -0.7537 -0.2173
 2880SOL     OW20272   0.407   0.597   8.657 -0.0487 -0.2889 -0.1673
 2880SOL    HW120273   0.334   0.583   8.717 -0.5490  0.1359 -0.6807
 2880SOL    HW220274   0.476   0.624   8.718 -0.6121  2.0160 -0.5484
 2881SOL     OW20275   1.723   2.704   2.467 -0.1741 -0.3861 -0.0016
 2881SOL    HW120276   1.787   2.774   2.459  0.3953 -0.7852  1.0661
 2881SOL    HW220277   1.655   2.748   2.517 -2.1285 -1.7739 -1.4320
 2882SOL     OW20278   4.024   1.229   4.377  0.1158 -0.3007 -0.2635
 2882SOL    HW120279   4.005   1.145   4.420 -3.5328 -0.5040 -2.2989
 2882SOL    HW220280   4.034   1.282   4.456  2.9688 -0.3831 -0.5660
 2883SOL     OW20281   3.172   3.020  12.168 -0.4532  0.1651  0.0163
 2883SOL    HW120282   3.234   2.955  12.134  0.8839 -0.9806  4.6955
 2883SOL    HW220283   3.090   2.974  12.157 -1.3280  1.9451 -0.9653
 2884SOL     OW20284   4.652   4.261   7.432  0.3808 -0.0409  0.0566
 2884SOL    HW120285   4.657   4.324   7.504  2.7146  0.8448 -0.8921
 2884SOL    HW220286   4.686   4.186   7.481  1.8280  1.1871  0.9348
 2885SOL     OW20287   0.145   1.500   2.814 -0.0706  0.4440  0.0585
 2885SOL    HW120288   0.238   1.483   2.801 -0.1204  0.8652 -0.8451
 2885SOL    HW220289   0.114   1.467   2.730 -4.0636  1.6610  1.0432
 2886SOL     OW20290   1.995   2.358   2.417  0.5688  0.1073  0.1428
 2886SOL    HW120291   1.941   2.424   2.460  0.2850  0.7020 -1.1373
 2886SOL    HW220292   1.971   2.281   2.469 -0.3291  0.2400 -0.0907
 2887SOL     OW20293   2.234   2.681   4.541 -0.2674 -0.4448  0.3553
 2887SOL    HW120294   2.323   2.712   4.556 -0.5690  0.9449 -0.7812
 2887SOL    HW220295   2.214   2.648   4.629 -2.7581 -0.4509 -0.2088
 2888SOL     OW20296   2.353   4.001   2.253  0.1261 -0.0802 -0.2314
 2888SOL    HW120297   2.300   3.929   2.220 -0.4394  0.1158  0.2323
 2888SOL    HW220298   2.437   3.963   2.278  2.3423  2.2332 -4.2855
 2889SOL     OW20299   0.317   0.480   2.894 -0.2222  0.6240 -0.0329
 2889SOL    HW120300   0.290   0.397   2.934 -1.0640  1.3918  1.0105
 2889SOL    HW220301   0.398   0.506   2.939 -0.8143  1.7831  0.3685
 2890SOL     OW20302   4.445   1.543   7.962  0.3956  0.3917  0.0685
 2890SOL    HW120303   4.386   1.497   8.022  2.7354 -0.0964  2.0144
 2890SOL    HW220304   4.426   1.636   7.972 -1.2823 -0.0835  1.1186
 2891SOL     OW20305   2.318   2.791   4.196 -0.1388  0.3024  0.4165
 2891SOL    HW120306   2.233   2.829   4.217 -0.1443 -1.0546  2.7369
 2891SOL    HW220307   2.305   2.710   4.244 -1.1834  0.4245  0.3427
 2892SOL     OW20308   3.365   1.767   3.656  0.2798 -0.0953  0.2519
 2892SOL    HW120309   3.309   1.771   3.734 -0.0480 -1.6148  0.0863
 2892SOL    HW220310   3.332   1.840   3.603  0.3284  1.4697  2.3495
 2893SOL     OW20311   1.903   4.365   6.821 -0.4276 -0.5446  0.1073
 2893SOL    HW120312   1.957   4.322   6.754  1.9195  0.0932  1.5984
 2893SOL    HW220313   1.863   4.440   6.777 -0.9668 -1.4324 -0.9189
 2894SOL     OW20314   0.621   2.934   5.991 -0.6607 -0.1067 -0.7923
 2894SOL    HW120315   0.659   3.021   6.000  0.4599 -0.6042 -0.7594
 2894SOL    HW220316   0.559   2.957   5.922 -1.7964  0.4231  0.4131
 2895SOL     OW20317   2.860   3.234  16.592  0.2536  0.3283 -0.0864
 2895SOL    HW120318   2.808   3.238  16.511 -1.9861 -0.3079  1.3036
 2895SOL    HW220319   2.907   3.152  16.583 -0.9786 -0.1644 -2.1667
 2896SOL     OW20320   2.785   2.879  16.400 -0.3401  0.3782  0.2604
 2896SOL    HW120321   2.698   2.872  16.440 -0.7120 -1.2196 -0.8257
 2896SOL    HW220322   2.775   2.957  16.345  2.2707 -0.4654 -1.3625
 2897SOL     OW20323   0.863   2.239  17.565  0.0625  0.0219  0.4527
 2897SOL    HW120324   0.810   2.301  17.515  1.8242 -0.7974 -2.4133
 2897SOL    HW220325   0.901   2.296  17.632 -1.5614 -0.4262  1.7798
 2898SOL     OW20326   0.595   1.990   1.868 -0.2462 -0.1379 -0.1204
 2898SOL    HW120327   0.672   1.951   1.910  0.5172  1.1416 -0.3544
 2898SOL    HW220328   0.535   1.990   1.943  0.4761 -1.7161  0.4808
 2899SOL     OW20329   3.081   3.160   2.568  0.0158 -0.2964 -0.4632
 2899SOL    HW120330   3.043   3.242   2.539 -0.8750 -0.4289  0.3308
 2899SOL    HW220331   3.169   3.189   2.590  0.1619 -1.5544  0.6468
 2900SOL     OW20332   0.971   4.525   1.394 -0.4008  0.1960 -0.0230
 2900SOL    HW120333   0.959   4.559   1.482  2.0915  0.5638  0.1785
 2900SOL    HW220334   0.878   4.521   1.372 -0.6264 -0.6311  1.0829
 2901SOL     OW20335   2.245   2.646   5.584 -0.2031  0.2099  0.2773
 2901SOL    HW120336   2.298   2.615   5.657  1.5694 -0.2117 -1.2069
 2901SOL    HW220337   2.166   2.599   5.612  1.5748 -1.8585  1.7744
 2902SOL     OW20338   3.583   4.404   9.634  0.5194 -0.4674  0.4532
 2902SOL    HW120339   3.589   4.462   9.557 -0.0108 -3.0627 -1.5618
 2902SOL    HW220340   3.496   4.436   9.657  0.3474 -0.7629  0.2091
 2903SOL     OW20341   1.971   4.373  11.790 -0.2239 -0.2383  0.2133
 2903SOL    HW120342   1.925   4.290  11.798  1.6379 -1.4357 -1.5645
 2903SOL    HW220343   1.902   4.436  11.770 -1.1492 -0.9705  1.1018
 2904SOL     OW20344   3.404   3.324   6.463 -0.5264 -0.0779  0.4477
 2904SOL    HW120345   3.419   3.330   6.557  0.9571 -0.7066  0.2585
 2904SOL    HW220346   3.311   3.303   6.466 -0.6439  0.2570 -0.7020
 2905SOL     OW20347   4.738   4.440  14.128 -0.0751 -0.2181 -0.0903
 2905SOL    HW120348   0.025   4.489  14.049 -1.2479  1.5676  0.6543
 2905SOL    HW220349   4.704   4.358  14.092  1.0609 -0.2073 -1.2269
 2906SOL     OW20350   3.857   0.402  11.974  0.3640 -0.5088  0.3847
 2906SOL    HW120351   3.851   0.480  12.028 -0.2795  0.4866 -1.1358
 2906SOL    HW220352   3.920   0.352  12.026 -1.4589 -1.5976  1.5816
 2907SOL     OW20353   2.837   1.788   9.934  0.3220 -0.3621 -0.0276
 2907SOL    HW120354   2.827   1.725   9.862  2.6232 -0.1581 -0.5208
 2907SOL    HW220355   2.900   1.737   9.985  1.8164  1.6547  0.1186
 2908SOL     OW20356   2.808   1.725   2.120  0.2074  0.1204  0.0423
 2908SOL    HW120357   2.892   1.697   2.155 -0.3663  1.1259  2.2713
 2908SOL    HW220358   2.820   1.726   2.025 -0.2650  2.3556 -0.0109
 2909SOL     OW20359   0.910   3.730   4.150 -0.2075  0.3366 -0.9276
 2909SOL    HW120360   0.873   3.729   4.238 -1.4631 -2.1987 -1.4910
 2909SOL    HW220361   0.911   3.822   4.124 -2.1920  0.3517 -1.0143
 2910SOL     OW20362   1.227   3.475  11.523 -0.2263  0.3684  0.0156
 2910SOL    HW120363   1.247   3.389  11.484 -0.4289  0.2952  0.0753
 2910SOL    HW220364   1.209   3.442  11.610  0.7915 -2.4260 -0.8161
 2911SOL     OW20365   1.829   1.401   3.187  0.2384 -0.7808  0.7441
 2911SOL    HW120366   1.747   1.352   3.198 -0.1960 -0.1715  0.2600
 2911SOL    HW220367   1.792   1.475   3.139 -1.1544  0.0340  3.0666
 2912SOL     OW20368   4.169   1.490   3.558 -0.0666  0.2238  0.1300
 2912SOL    HW120369   4.154   1.396   3.550  1.5201 -0.1879  1.9812
 2912SOL    HW220370   4.137   1.524   3.474  1.2028  0.3928 -0.2798
 2913SOL     OW20371   3.462   2.660   4.470 -0.5920  0.2484 -0.0545
 2913SOL    HW120372   3.473   2.581   4.417  2.4444  0.2655  0.5543
 2913SOL    HW220373   3.536   2.712   4.440  0.0803 -0.9835 -0.5073
 2914SOL     OW20374   0.886   4.049   5.129 -0.3230 -0.8764  0.0096
 2914SOL    HW120375   0.930   3.981   5.078  0.4335 -1.8741  2.0194
 2914SOL    HW220376   0.802   4.004   5.143 -0.9519  0.3766  0.2468
 2915SOL     OW20377   3.447   4.326  11.484  0.1867 -0.1998  0.2018
 2915SOL    HW120378   3.465   4.393  11.417  0.6405  1.7629  2.3012
 2915SOL    HW220379   3.367   4.358  11.526  1.1868  2.0922  0.3676
 2916SOL     OW20380   1.212   1.112   5.955 -0.2977  0.3959 -0.7026
 2916SOL    HW120381   1.135   1.158   5.921 -1.0854  0.8220  1.6110
 2916SOL    HW220382   1.252   1.176   6.014 -0.1474  1.5412 -2.0490
 2917SOL     OW20383   2.499   0.754   2.359 -0.8829  0.5783 -0.2850
 2917SOL    HW120384   2.586   0.717   2.371 -0.3972  1.4534 -1.0881
 2917SOL    HW220385   2.517   0.848   2.352 -2.8930  0.9539 -0.3740
 2918SOL     OW20386   2.705   0.962  14.700  0.0749 -0.2856  0.0655
 2918SOL    HW120387   2.699   1.046  14.655  3.4756  3.0867  5.9038
 2918SOL    HW220388   2.777   0.918  14.654 -0.1885 -0.2426 -0.3852
 2919SOL     OW20389   2.064   2.827   1.261  0.5961 -0.3965  0.3452
 2919SOL    HW120390   2.040   2.786   1.177  0.2345 -1.3059  0.8922
 2919SOL    HW220391   2.079   2.921   1.252  2.0511 -0.6605  0.0746
 2920SOL     OW20392   3.855   3.146  15.585 -0.2136 -0.1695 -0.6499
 2920SOL    HW120393   3.845   3.082  15.515  0.3081 -0.5952 -0.3357
 2920SOL    HW220394   3.896   3.096  15.656  0.8666  0.0465 -1.1180
 2921SOL     OW20395   4.409   1.041   4.087 -0.1378 -0.2054 -0.0692
 2921SOL    HW120396   4.348   1.092   4.140  2.0856  0.8569  1.4654
 2921SOL    HW220397   4.381   1.065   3.998  0.1699 -0.3152 -0.1970
 2922SOL     OW20398   4.166   3.517  11.513  0.7696 -0.0009 -0.5433
 2922SOL    HW120399   4.142   3.467  11.436 -1.5474 -2.3276  1.6985
 2922SOL    HW220400   4.137   3.606  11.493  1.7547  0.0011 -1.9415
 2923SOL     OW20401   3.181   0.602  15.848 -0.3759 -0.2813  0.3390
 2923SOL    HW120402   3.260   0.548  15.843 -0.7672 -0.6014 -2.3270
 2923SOL    HW220403   3.147   0.600  15.759  1.1788 -0.5254 -0.2541
 2924SOL     OW20404   2.330   2.656  15.163 -0.7563 -0.2061  0.6371
 2924SOL    HW120405   2.316   2.724  15.230 -0.3038  1.1088 -0.5955
 2924SOL    HW220406   2.395   2.607  15.213  1.2032  1.0904 -0.5918
 2925SOL     OW20407   0.985   3.093   5.475 -0.0720  0.1344  0.5928
 2925SOL    HW120408   0.986   3.121   5.567  0.8896  0.5537  0.4530
 2925SOL    HW220409   1.011   3.001   5.479 -3.8269 -0.9250  0.6950
 2926SOL     OW20410   0.477   3.149  13.046 -0.3322 -0.5579  0.2018
 2926SOL    HW120411   0.399   3.157  13.100 -0.4421  1.5063 -0.2715
 2926SOL    HW220412   0.444   3.156  12.957  1.6303 -0.5393 -0.5145
 2927SOL     OW20413   1.055   2.280   8.133  0.1437  0.0457  0.4501
 2927SOL    HW120414   0.973   2.265   8.180 -0.1695  2.5452  0.6566
 2927SOL    HW220415   1.113   2.285   8.208  1.7327 -1.6571 -0.6620
 2928SOL     OW20416   4.398   0.312  12.072 -0.4293  0.1423 -0.0977
 2928SOL    HW120417   4.410   0.233  12.126 -0.2119 -1.4948 -2.5089
 2928SOL    HW220418   4.305   0.331  12.084 -0.4021 -1.1504  2.2986
 2929SOL     OW20419   0.850   3.899   2.832 -0.5105  0.3258  0.0707
 2929SOL    HW120420   0.800   3.981   2.838 -1.0639 -0.0557  0.6222
 2929SOL    HW220421   0.814   3.855   2.755  1.7519  3.1131 -2.6170
 2930SOL     OW20422   2.335   3.774   4.416  0.7452  0.0470  0.5058
 2930SOL    HW120423   2.428   3.752   4.415  0.7547  0.2012 -1.8064
 2930SOL    HW220424   2.334   3.819   4.332 -0.3203  1.0820  1.0788
 2931SOL     OW20425   0.875   4.357   9.750  0.0894 -0.8068 -0.7774
 2931SOL    HW120426   0.896   4.440   9.794  0.0824 -0.9018 -0.5967
 2931SOL    HW220427   0.924   4.307   9.815 -1.2688 -2.6206 -1.1533
 2932SOL     OW20428   1.440   4.087   1.157  0.6347 -0.0541 -0.0030
 2932SOL    HW120429   1.381   4.070   1.230 -1.0167  2.3392 -0.7697
 2932SOL    HW220430   1.497   4.010   1.160  3.0542  1.7549  0.5470
 2933SOL     OW20431   0.887   1.697   1.263 -0.2365  0.4385 -0.1886
 2933SOL    HW120432   0.896   1.653   1.347  0.9468  0.9883 -0.0264
 2933SOL    HW220433   0.806   1.654   1.236 -0.6583  0.0776  1.6780
 2934SOL     OW20434   1.022   2.047   6.517  0.3446  0.3791 -0.3446
 2934SOL    HW120435   0.978   1.964   6.501  1.4102 -0.6948  2.2590
 2934SOL    HW220436   0.968   2.101   6.460 -0.3266  1.4134  1.2666
 2935SOL     OW20437   4.261   3.471  11.121 -0.2991  0.3654  0.5284
 2935SOL    HW120438   4.296   3.461  11.033 -1.7019 -1.3447  0.1704
 2935SOL    HW220439   4.317   3.542  11.153  0.0149 -0.1756  1.1915
 2936SOL     OW20440   2.492   2.021  12.974 -0.4395 -0.2364  0.4821
 2936SOL    HW120441   2.578   2.025  13.016 -0.2763  0.5183  0.0669
 2936SOL    HW220442   2.451   2.089  13.027  3.3872  1.2504  1.4932
 2937SOL     OW20443   2.559   3.310  16.678  0.7268  0.1158 -0.4481
 2937SOL    HW120444   2.621   3.325  16.607  0.7473 -1.4857 -0.7849
 2937SOL    HW220445   2.541   3.216  16.668 -2.4604  0.7221 -0.4171
 2938SOL     OW20446   2.757   2.077   1.538  0.0620 -0.2270 -0.1951
 2938SOL    HW120447   2.772   2.007   1.475  0.3117  0.3606 -0.7926
 2938SOL    HW220448   2.686   2.128   1.499  0.1077  0.4450  0.5883
 2939SOL     OW20449   3.114   3.066   5.493  0.0307  0.2574 -0.5440
 2939SOL    HW120450   3.062   3.056   5.413 -0.8372  0.4990 -0.0048
 2939SOL    HW220451   3.177   3.002   5.460  0.6328  0.3146  0.4823
 2940SOL     OW20452   1.340   0.642  17.534 -0.2877 -0.0913  0.3093
 2940SOL    HW120453   1.364   0.579  17.602 -2.2048 -2.9181 -1.6638
 2940SOL    HW220454   1.425   0.640  17.489  0.0328  3.9560  0.6602
 2941SOL     OW20455   1.468   3.607   6.263  0.1237 -0.1748  0.3988
 2941SOL    HW120456   1.477   3.640   6.352 -1.8113  1.4951 -0.0151
 2941SOL    HW220457   1.561   3.600   6.241 -0.1452 -0.9131 -0.5284
 2942SOL     OW20458   0.497   0.295  12.209 -0.3003  0.3103 -1.2324
 2942SOL    HW120459   0.475   0.268  12.120  0.6573 -0.5193 -1.2082
 2942SOL    HW220460   0.580   0.340  12.194  0.2654 -0.1800  0.4925
 2943SOL     OW20461   4.704   3.174  15.776 -0.1349 -0.1766 -0.1788
 2943SOL    HW120462   0.024   3.102  15.802 -0.8518 -1.6403 -2.6777
 2943SOL    HW220463   4.702   3.159  15.682  0.4762 -3.8166  0.3872
 2944SOL     OW20464   2.654   4.121   9.432  0.2765  0.5406 -0.1755
 2944SOL    HW120465   2.715   4.091   9.365 -0.9526  0.7894 -1.3932
 2944SOL    HW220466   2.706   4.123   9.513 -1.3604  0.2034  0.8974
 2945SOL     OW20467   4.659   1.749   3.298  0.1721 -0.0843 -0.6289
 2945SOL    HW120468   4.578   1.758   3.249 -1.2003 -1.8456  1.2952
 2945SOL    HW220469   4.622   1.739   3.386 -0.4075  0.9938 -0.7578
 2946SOL     OW20470   1.018   4.057   6.488 -0.2555 -0.5172  0.3959
 2946SOL    HW120471   0.991   4.035   6.399  1.1034  0.9428 -0.3588
 2946SOL    HW220472   1.102   4.098   6.473  0.3518 -1.5912  0.8417
 2947SOL     OW20473   0.263   3.771  13.605  0.2872  0.2261 -0.1456
 2947SOL    HW120474   0.240   3.686  13.645 -2.0008  0.4047 -1.0945
 2947SOL    HW220475   0.349   3.764  13.647  0.9047  0.8890 -1.3212
 2948SOL     OW20476   2.543   2.416  17.090 -0.0716 -0.0905 -0.1993
 2948SOL    HW120477   2.518   2.491  17.036 -1.7583 -1.7044 -1.6748
 2948SOL    HW220478   2.611   2.459  17.142  0.0519  0.1041 -0.5159
 2949SOL     OW20479   2.875   2.833   1.170 -0.2983 -0.0940 -0.2104
 2949SOL    HW120480   2.785   2.860   1.185 -0.4128 -1.5616  1.7306
 2949SOL    HW220481   2.863   2.755   1.225 -1.6839 -1.5723 -2.5674
 2950SOL     OW20482   3.598   2.973  16.733 -0.5217 -0.1900  0.0784
 2950SOL    HW120483   3.534   2.953  16.665  0.1146 -0.6315 -0.3958
 2950SOL    HW220484   3.539   3.003  16.801 -2.1143 -2.7938 -0.1723
 2951SOL     OW20485   1.627   4.080   7.910 -0.4534  0.6316  0.5947
 2951SOL    HW120486   1.616   3.992   7.874  0.2062  1.0668 -0.6715
 2951SOL    HW220487   1.534   4.103   7.919 -0.9183 -0.3584 -1.4834
 2952SOL     OW20488   4.141   0.602   9.771 -0.1866 -0.3989  0.3493
 2952SOL    HW120489   4.120   0.686   9.729 -0.9992 -0.2040  1.1197
 2952SOL    HW220490   4.197   0.631   9.843  1.0923 -0.1741 -0.7474
 2953SOL     OW20491   2.689   1.236   9.501 -0.2684 -0.0608  0.0361
 2953SOL    HW120492   2.768   1.250   9.449 -1.2515  0.3271 -1.3442
 2953SOL    HW220493   2.624   1.215   9.434 -0.3804 -0.7043  0.3509
 2954SOL     OW20494   2.715   0.755   7.803 -0.6045 -0.9043 -0.2145
 2954SOL    HW120495   2.720   0.692   7.731  2.0682  0.5767 -1.3206
 2954SOL    HW220496   2.750   0.708   7.878  0.0427  2.1198  1.3606
 2955SOL     OW20497   3.003   3.170  13.118  0.3723  0.1851 -0.1601
 2955SOL    HW120498   2.961   3.101  13.170  2.3911  1.7608  3.5213
 2955SOL    HW220499   3.053   3.128  13.048 -0.2275 -1.0982  0.1801
 2956SOL     OW20500   2.757   2.864  12.421 -0.0884  0.3128 -0.0767
 2956SOL    HW120501   2.667   2.857  12.454 -0.1774 -1.0027 -0.5802
 2956SOL    HW220502   2.779   2.777  12.387  2.1849  0.8248  0.0892
 2957SOL     OW20503   0.427   0.003   7.326  0.1756  0.0133 -0.1941
 2957SOL    HW120504   0.373   4.708   7.255  0.1810 -0.2673 -0.0684
 2957SOL    HW220505   0.511   4.702   7.305  1.7151  1.6450  2.8097
 2958SOL     OW20506   1.370   0.545   9.283  0.2641  0.5725 -0.2148
 2958SOL    HW120507   1.365   0.641   9.279 -0.6829  0.6014  1.2703
 2958SOL    HW220508   1.276   0.529   9.271  0.5986 -0.1349 -1.8660
 2959SOL     OW20509   4.284   3.255   6.639  0.1118 -0.0470 -0.0610
 2959SOL    HW120510   4.319   3.182   6.692 -1.6571 -2.5806 -2.3832
 2959SOL    HW220511   4.275   3.211   6.555 -0.9939  0.5297 -0.2394
 2960SOL     OW20512   1.318   1.968  12.328 -0.6140 -0.1627  0.0332
 2960SOL    HW120513   1.262   1.943  12.402 -0.2155  0.9539  0.7010
 2960SOL    HW220514   1.373   2.037  12.364  0.2518 -1.1534  0.5921
 2961SOL     OW20515   0.187   3.597   6.482  0.2001 -0.9448 -0.6131
 2961SOL    HW120516   0.113   3.644   6.444 -0.2001  0.2229  1.5967
 2961SOL    HW220517   0.152   3.540   6.550  0.2840 -0.0561  0.1855
 2962SOL     OW20518   0.125   2.847  12.451  0.0334 -0.4968  0.9549
 2962SOL    HW120519   0.145   2.938  12.473 -3.0515  0.3278  0.3325
 2962SOL    HW220520   0.215   2.820  12.432 -0.2685  0.4553 -1.7653
 2963SOL     OW20521   0.437   3.580   1.401  0.3657 -0.0312  0.2792
 2963SOL    HW120522   0.523   3.538   1.406  0.7019  0.4865 -1.1590
 2963SOL    HW220523   0.378   3.526   1.454  0.6600 -1.3752 -0.7491
 2964SOL     OW20524   1.035   1.971  17.651 -0.1624  0.0846  0.4240
 2964SOL    HW120525   0.955   1.922  17.631 -0.3382  0.0460  1.2150
 2964SOL    HW220526   1.053   1.999  17.561  1.2248 -2.6244 -0.1565
 2965SOL     OW20527   0.879   0.392   6.449 -0.0986 -0.2224  0.0448
 2965SOL    HW120528   0.855   0.302   6.425  0.6883 -0.4734  0.1955
 2965SOL    HW220529   0.842   0.448   6.381 -4.8265 -4.2078 -0.6693
 2966SOL     OW20530   0.243   2.444   1.071 -0.1735 -0.4753 -0.2291
 2966SOL    HW120531   0.233   2.374   1.135 -0.4660 -0.1761  0.0486
 2966SOL    HW220532   0.339   2.448   1.070 -0.1961 -0.3864 -2.8625
 2967SOL     OW20533   3.354   4.038   5.122 -0.0565 -0.2147  0.6671
 2967SOL    HW120534   3.276   4.073   5.164 -1.3309 -0.4884 -1.4962
 2967SOL    HW220535   3.421   4.098   5.155  1.7131 -3.7098  3.3394
 2968SOL     OW20536   2.575   3.877   4.913  0.1581  0.2567  0.1982
 2968SOL    HW120537   2.540   3.879   5.002  1.0501 -0.8931  0.5769
 2968SOL    HW220538   2.497   3.864   4.860  0.3509  1.8235 -0.4734
 2969SOL     OW20539   3.144   1.947   6.131  0.0313  0.1265 -0.0952
 2969SOL    HW120540   3.075   1.926   6.194  0.8833 -2.0280  0.1096
 2969SOL    HW220541   3.215   1.885   6.145  1.4485  1.8426  0.4024
 2970SOL     OW20542   3.047   3.026   1.259  0.2730 -0.2547  0.1074
 2970SOL    HW120543   3.107   2.974   1.313  0.5440  0.1506  0.1902
 2970SOL    HW220544   3.002   2.952   1.217  0.3601 -0.5802  0.5823
 2971SOL     OW20545   0.020   2.719   4.794  0.1073 -0.1450 -0.1336
 2971SOL    HW120546   4.722   2.678   4.716  1.4803  0.4656 -1.0977
 2971SOL    HW220547   4.722   2.806   4.780  2.4406  1.0319  1.0361
 2972SOL     OW20548   4.315   3.431  13.578 -0.1015  0.9485  0.2884
 2972SOL    HW120549   4.382   3.499  13.588  1.7756 -0.8279 -0.1123
 2972SOL    HW220550   4.269   3.436  13.662  1.2921 -1.8375  1.1927
 2973SOL     OW20551   3.114   0.976   3.536  0.1419  0.5794  0.5669
 2973SOL    HW120552   3.138   1.059   3.495 -0.9400 -0.1670 -1.5895
 2973SOL    HW220553   3.191   0.929   3.504 -0.4674  0.5545 -0.9077
 2974SOL     OW20554   0.827   1.673   7.107  0.0979 -0.0084  0.1590
 2974SOL    HW120555   0.908   1.644   7.063  0.6327  0.8556  0.5804
 2974SOL    HW220556   0.777   1.592   7.103  0.5388 -0.2161 -1.3440
 2975SOL     OW20557   3.783   1.177   6.182 -0.5977  0.3713  0.1848
 2975SOL    HW120558   3.722   1.131   6.125  0.3712 -1.0221  0.2910
 2975SOL    HW220559   3.818   1.246   6.125  0.1516  1.0327  1.4408
 2976SOL     OW20560   0.527   0.726  13.273  0.9249 -0.4648  0.5408
 2976SOL    HW120561   0.456   0.681  13.227 -0.8422 -0.0467  2.8640
 2976SOL    HW220562   0.507   0.814  13.241 -2.3132 -0.9028  1.3143
 2977SOL     OW20563   1.359   1.744   6.796  0.0050  0.6676  0.1864
 2977SOL    HW120564   1.416   1.738   6.719  2.6703  2.4139  2.0083
 2977SOL    HW220565   1.389   1.823   6.842 -2.3310 -0.5909  3.8369
 2978SOL     OW20566   2.096   4.201   4.901 -0.1569  0.4481  0.2530
 2978SOL    HW120567   2.130   4.221   4.988 -0.8108 -0.3309  0.6810
 2978SOL    HW220568   2.017   4.255   4.892 -1.0892 -1.0830 -0.9017
 2979SOL     OW20569   3.969   1.104   6.413 -0.1017 -0.0894  0.0075
 2979SOL    HW120570   3.955   1.130   6.322 -1.5363 -0.2327  0.1877
 2979SOL    HW220571   3.918   1.173   6.455 -0.9115 -0.4183 -0.4316
 2980SOL     OW20572   0.670   1.450   2.686  0.0483  0.3619  0.1574
 2980SOL    HW120573   0.747   1.406   2.651 -0.1951 -0.0999  0.2016
 2980SOL    HW220574   0.670   1.539   2.649 -0.2008 -1.1576 -3.4538
 2981SOL     OW20575   4.160   3.144  15.775  0.2692 -0.3368  0.1391
 2981SOL    HW120576   4.212   3.221  15.754  1.1473 -1.1178 -0.5484
 2981SOL    HW220577   4.222   3.074  15.793 -1.8778 -2.2022  0.4001
 2982SOL     OW20578   0.948   2.347  16.450 -0.6127 -0.6526  0.2444
 2982SOL    HW120579   0.977   2.355  16.541 -0.7580 -0.8722  0.3087
 2982SOL    HW220580   0.864   2.302  16.455 -0.9407 -0.1521 -0.8788
 2983SOL     OW20581   2.713   1.264   8.343 -0.8218  0.1674  0.2941
 2983SOL    HW120582   2.695   1.200   8.273  1.0856  1.4518 -1.3671
 2983SOL    HW220583   2.622   1.285   8.366 -0.5923  2.4302 -0.8481
 2984SOL     OW20584   3.734   2.433   0.856  0.0781  0.0116 -0.1590
 2984SOL    HW120585   3.796   2.362   0.840  0.3380  0.7581 -2.4419
 2984SOL    HW220586   3.806   2.495   0.866 -1.6023  1.9114  0.2787
 2985SOL     OW20587   3.368   0.162   9.913  0.6388  1.0554 -0.5674
 2985SOL    HW120588   3.322   0.216   9.977  2.7703  1.0027  1.0292
 2985SOL    HW220589   3.313   0.183   9.838  0.5635  2.8776 -0.0206
 2986SOL     OW20590   3.059   2.499   3.963  0.3471 -0.2208 -0.2150
 2986SOL    HW120591   2.976   2.464   3.931 -0.9034  1.2587  1.4243
 2986SOL    HW220592   3.029   2.582   3.998  0.2457 -0.3666  0.0433
 2987SOL     OW20593   1.604   4.417   6.733 -1.0427 -0.0440 -0.1603
 2987SOL    HW120594   1.558   4.458   6.660 -0.6171  0.6067 -0.0598
 2987SOL    HW220595   1.574   4.477   6.802 -1.3505 -0.2249 -0.1369
 2988SOL     OW20596   2.147   0.191   6.641  0.0977  0.2256  0.0765
 2988SOL    HW120597   2.054   0.183   6.620  0.7073 -0.1402 -2.4180
 2988SOL    HW220598   2.130   0.245   6.719 -1.8106 -1.3586  0.7313
 2989SOL     OW20599   3.037   4.597  13.245  0.5261  0.5609  0.4232
 2989SOL    HW120600   3.069   4.607  13.335 -1.7700  1.8161  1.1080
 2989SOL    HW220601   2.992   4.681  13.245  0.4643  0.5210 -1.4525
 2990SOL     OW20602   3.081   0.315   4.352  0.1095 -0.3889 -0.3115
 2990SOL    HW120603   2.991   0.338   4.330 -0.5471 -0.9323  1.7335
 2990SOL    HW220604   3.080   0.219   4.344 -3.2424 -0.4691  1.0025
 2991SOL     OW20605   1.212   1.911   1.056  0.1373 -0.0951 -0.4466
 2991SOL    HW120606   1.137   1.865   1.018 -0.2682 -0.3149  0.6175
 2991SOL    HW220607   1.273   1.920   0.983  0.4998 -0.4985 -0.1933
 2992SOL     OW20608   3.305   3.414   4.120 -0.3114 -0.1950  0.1460
 2992SOL    HW120609   3.378   3.359   4.150 -0.8401  0.3443  2.4401
 2992SOL    HW220610   3.315   3.407   4.025  0.6668 -0.1138  0.2476
 2993SOL     OW20611   1.595   0.241  16.899 -0.0167 -0.5117 -0.4174
 2993SOL    HW120612   1.503   0.219  16.916 -0.9831  4.0041  0.2380
 2993SOL    HW220613   1.596   0.269  16.807 -2.5659  0.7552 -0.0388
 2994SOL     OW20614   2.891   2.491  16.930 -0.2082 -0.2596  0.1237
 2994SOL    HW120615   2.846   2.408  16.942  1.1448 -1.0878 -0.5887
 2994SOL    HW220616   2.912   2.515  17.021  0.5711 -0.0494 -0.1160
 2995SOL     OW20617   0.378   1.691   2.750 -0.4725  0.1659  0.2890
 2995SOL    HW120618   0.387   1.718   2.841 -1.2119 -0.3476  0.5104
 2995SOL    HW220619   0.434   1.759   2.713 -0.8105  0.6224  0.6187
 2996SOL     OW20620   1.115   3.364   1.688 -0.8622  0.2703 -0.5979
 2996SOL    HW120621   1.143   3.285   1.734 -0.9179  0.0573 -0.9299
 2996SOL    HW220622   1.031   3.384   1.729  0.4004  2.8960  0.7490
 2997SOL     OW20623   1.188   2.054  14.204  0.5237 -0.2051  0.0456
 2997SOL    HW120624   1.269   2.099  14.180  2.3992 -1.2204  4.4848
 2997SOL    HW220625   1.140   2.057  14.121  2.6150 -1.3438 -1.2102
 2998SOL     OW20626   0.334   1.725   3.392 -0.1591 -0.5062  1.1018
 2998SOL    HW120627   0.399   1.759   3.453  0.0612  1.0927 -0.0226
 2998SOL    HW220628   0.353   1.786   3.320  1.6665  2.1535  3.8425
 2999SOL     OW20629   1.991   1.307   1.215  0.2260 -0.0643 -0.0335
 2999SOL    HW120630   1.927   1.359   1.262  0.4842  0.3172 -0.1017
 2999SOL    HW220631   2.060   1.299   1.282 -0.3260 -0.4347  0.4885
 3000SOL     OW20632   1.112   0.121   2.549  0.1097  0.1759 -0.1181
 3000SOL    HW120633   1.201   0.094   2.528  0.5887  0.4220  1.6345
 3000SOL    HW220634   1.115   0.126   2.644 -0.7874  1.0134 -0.1328
 3001SOL     OW20635   2.867   1.024   8.207  0.1194  0.1457  0.0690
 3001SOL    HW120636   2.900   0.963   8.141  0.7857  0.8290 -0.2217
 3001SOL    HW220637   2.952   1.039   8.248  0.2574 -1.2008  0.2762
 3002SOL     OW20638   3.462   1.057   4.005  0.2754 -0.1055  0.0392
 3002SOL    HW120639   3.499   0.980   4.048 -0.5503  0.5106  1.8460
 3002SOL    HW220640   3.542   1.098   3.973  1.6923 -0.4857  3.1153
 3003SOL     OW20641   4.106   0.275   6.686 -0.2711 -0.0855 -0.0181
 3003SOL    HW120642   4.105   0.191   6.640 -3.3694 -1.3374  2.4103
 3003SOL    HW220643   4.077   0.341   6.623  1.1088  0.7788  0.2330
 3004SOL     OW20644   2.673   1.780   6.867  0.2768 -0.1014 -0.0766
 3004SOL    HW120645   2.704   1.861   6.827  3.0458 -1.2955 -0.3534
 3004SOL    HW220646   2.751   1.725   6.860 -1.2011 -2.2728  0.7095
 3005SOL     OW20647   3.527   1.514   5.545 -0.3730  0.1835 -0.1322
 3005SOL    HW120648   3.471   1.588   5.563  0.8526  0.7365  1.4029
 3005SOL    HW220649   3.459   1.449   5.525  0.3431 -0.5909 -0.0545
 3006SOL     OW20650   3.843   4.467  13.983  0.2002 -0.4790  0.2072
 3006SOL    HW120651   3.882   4.554  13.990 -0.6303 -0.0530 -0.6005
 3006SOL    HW220652   3.873   4.426  14.064  0.6597  0.3264  0.4493
 3007SOL     OW20653   0.671   1.387   3.746 -0.0921  0.1897  0.1600
 3007SOL    HW120654   0.626   1.412   3.666  1.6155  2.5667 -0.0696
 3007SOL    HW220655   0.630   1.303   3.767 -1.3834  0.4913 -1.2287
 3008SOL     OW20656   3.855   1.183   7.610  0.2688 -0.0886 -0.0633
 3008SOL    HW120657   3.894   1.270   7.621  1.3904 -0.6259  0.2014
 3008SOL    HW220658   3.774   1.185   7.662  0.4897 -1.3441  0.3294
 3009SOL     OW20659   2.343   0.422   2.162 -0.0273  0.4925 -0.8724
 3009SOL    HW120660   2.435   0.447   2.171 -0.1878  0.2134  1.6382
 3009SOL    HW220661   2.356   0.329   2.143  0.6280  1.0395 -3.0956
 3010SOL     OW20662   1.787   2.370  16.779  0.5841 -0.1001  0.1278
 3010SOL    HW120663   1.748   2.306  16.838  0.0530  1.0286  0.9911
 3010SOL    HW220664   1.862   2.321  16.743  0.8583 -0.2429  0.8982
 3011SOL     OW20665   4.140   1.480   7.398  0.2700  0.4892  0.1063
 3011SOL    HW120666   4.069   1.543   7.388 -1.3511 -0.7938  3.6548
 3011SOL    HW220667   4.103   1.394   7.379  2.6258 -0.0623 -2.0887
 3012SOL     OW20668   4.723   1.886   2.264 -0.3528 -0.5569  0.5078
 3012SOL    HW120669   4.640   1.916   2.229  1.3286  0.9406 -2.1606
 3012SOL    HW220670   4.710   1.791   2.262  0.9597 -0.7476  1.0914
 3013SOL     OW20671   2.648   0.094   4.921 -0.1848 -0.0880 -0.3544
 3013SOL    HW120672   2.624   0.015   4.971  0.7323 -1.0339 -1.4081
 3013SOL    HW220673   2.725   0.063   4.875 -0.8578 -0.9342 -0.9220
 3014SOL     OW20674   3.587   1.975   3.960  0.2351  0.0106  0.2006
 3014SOL    HW120675   3.573   1.951   3.868  0.7639 -2.9786  0.9038
 3014SOL    HW220676   3.546   2.061   3.967  0.4986  0.1143  0.4663
 3015SOL     OW20677   3.177   3.626   4.223 -0.4828 -0.8303  0.3605
 3015SOL    HW120678   3.226   3.551   4.188 -0.6926 -0.4611 -0.7218
 3015SOL    HW220679   3.136   3.669   4.148  0.0319 -0.6651  0.1766
 3016SOL     OW20680   3.223   3.387  17.687  0.4633  0.1427  0.4135
 3016SOL    HW120681   3.215   3.482  17.693  1.3034  0.3487 -2.0110
 3016SOL    HW220682   3.170   3.363  17.611  0.2204  2.5480 -0.1832
 3017SOL     OW20683   2.279   1.375   7.928 -0.3541  0.3497 -0.4924
 3017SOL    HW120684   2.313   1.306   7.984  0.3942 -0.2273 -1.6461
 3017SOL    HW220685   2.189   1.346   7.918 -0.8064  2.1360 -1.6243
 3018SOL     OW20686   2.472   0.849  14.599  0.3906  0.0549 -0.6084
 3018SOL    HW120687   2.517   0.806  14.526  1.9867 -0.3820  0.6496
 3018SOL    HW220688   2.550   0.897  14.626  0.0795 -1.0340  2.1584
 3019SOL     OW20689   1.022   2.978  15.508 -0.4822  0.3198 -0.1482
 3019SOL    HW120690   0.935   2.988  15.547 -0.3342  3.0234 -0.5064
 3019SOL    HW220691   1.054   3.068  15.518  0.5002 -0.0666  0.2508
 3020SOL     OW20692   3.240   4.383   8.018  0.0224  0.3347 -0.2447
 3020SOL    HW120693   3.230   4.412   7.927  0.1184  0.3498 -0.2509
 3020SOL    HW220694   3.329   4.413   8.036 -0.0207  0.6624 -0.5857
 3021SOL     OW20695   3.917   4.142   1.403 -0.7783 -0.0677 -0.2182
 3021SOL    HW120696   4.004   4.105   1.418 -0.9941  0.0233  1.2023
 3021SOL    HW220697   3.864   4.079   1.451 -2.2763 -0.1665 -1.9751
 3022SOL     OW20698   1.504   4.117   5.295  0.2612 -0.1381 -0.0887
 3022SOL    HW120699   1.417   4.088   5.266  0.5633 -1.8111  0.6601
 3022SOL    HW220700   1.514   4.197   5.244 -4.3117  0.0652 -0.6964
 3023SOL     OW20701   3.588   0.617   7.260 -0.3795  0.0420 -0.1698
 3023SOL    HW120702   3.493   0.632   7.258 -0.7858 -2.8889 -1.8110
 3023SOL    HW220703   3.624   0.706   7.257 -1.3590  0.4924  1.1812
 3024SOL     OW20704   2.016   1.996   2.402 -0.2192  0.4955  0.3626
 3024SOL    HW120705   2.093   2.014   2.349 -0.1937  2.7244  1.1324
 3024SOL    HW220706   2.061   1.963   2.479 -1.2718 -0.7128  0.4641
 3025SOL     OW20707   3.642   3.681   1.379 -0.2580  0.2013 -0.1931
 3025SOL    HW120708   3.622   3.671   1.472  0.2907  0.6818 -0.0174
 3025SOL    HW220709   3.646   3.776   1.369 -2.4396  0.0613 -2.3645
 3026SOL     OW20710   0.583   1.530   8.218  0.4955  0.3529 -0.8611
 3026SOL    HW120711   0.506   1.575   8.182  1.1462  1.1854 -1.2091
 3026SOL    HW220712   0.555   1.438   8.225  0.8015  0.1690 -1.9254
 3027SOL     OW20713   3.413   4.345   4.243  0.0731  0.2842  0.0703
 3027SOL    HW120714   3.358   4.343   4.321  1.4283  1.1460  1.0557
 3027SOL    HW220715   3.377   4.268   4.198  0.3462  0.9888 -1.3386
 3028SOL     OW20716   4.342   4.278   0.517  0.2590 -0.1695  0.0190
 3028SOL    HW120717   4.331   4.216   0.589 -1.4703  1.7018  1.3665
 3028SOL    HW220718   4.412   4.244   0.461  0.4077 -0.8324  0.6186
 3029SOL     OW20719   1.378   0.881   2.495 -0.1596 -0.1726 -0.0066
 3029SOL    HW120720   1.307   0.818   2.493  0.0060 -0.4268  2.0180
 3029SOL    HW220721   1.381   0.904   2.588 -0.4114  0.8544 -0.2504
 3030SOL     OW20722   2.987   4.655   6.436 -0.0363  0.0288  0.7884
 3030SOL    HW120723   2.900   4.620   6.420  0.3201  0.0831 -1.2599
 3030SOL    HW220724   2.984   4.686   6.527 -2.4106  3.2960 -0.4181
 3031SOL     OW20725   0.678   1.059  14.642  0.3547  0.4039  0.2075
 3031SOL    HW120726   0.643   1.142  14.609 -2.6741 -0.1612  1.9824
 3031SOL    HW220727   0.766   1.086  14.668  0.3527 -1.7514  2.4572
 3032SOL     OW20728   0.489   0.746   3.395 -0.1123  0.0501 -0.1762
 3032SOL    HW120729   0.451   0.808   3.333  0.7845 -0.1041 -0.8779
 3032SOL    HW220730   0.417   0.741   3.458 -0.0679  1.7495  0.0066
 3033SOL     OW20731   4.130   2.318   4.724 -0.2447 -0.0534  1.1048
 3033SOL    HW120732   4.118   2.411   4.704  2.1618 -0.7476 -3.5719
 3033SOL    HW220733   4.060   2.276   4.674  0.0190 -1.9808  2.3660
 3034SOL     OW20734   2.391   4.525   9.263  0.7021 -0.0356 -0.0184
 3034SOL    HW120735   2.387   4.620   9.276 -1.1939 -0.1680  0.4271
 3034SOL    HW220736   2.465   4.509   9.205 -0.8077 -1.9480 -1.4198
 3035SOL     OW20737   2.407   3.421   2.787  0.4598 -0.0936  0.5004
 3035SOL    HW120738   2.433   3.371   2.864 -2.1676  0.2324  1.6112
 3035SOL    HW220739   2.460   3.500   2.793 -1.0535  0.9337  0.2947
 3036SOL     OW20740   4.138   3.565   1.082  0.1275  0.2406 -0.0084
 3036SOL    HW120741   4.119   3.627   1.152  1.9122  1.7578 -0.8649
 3036SOL    HW220742   4.209   3.516   1.125 -0.5985 -0.5778  0.2677
 3037SOL     OW20743   2.114   3.846   5.276 -0.0086 -0.5080  0.0115
 3037SOL    HW120744   2.184   3.905   5.304  0.2617 -0.0911 -1.4842
 3037SOL    HW220745   2.089   3.890   5.194 -0.4002 -0.8861 -0.0761
 3038SOL     OW20746   0.763   2.267   6.777  0.4095  0.3072 -0.1831
 3038SOL    HW120747   0.810   2.185   6.765 -1.1789 -0.5984 -0.1242
 3038SOL    HW220748   0.796   2.303   6.860  1.7836 -2.1136  0.3115
 3039SOL     OW20749   3.304   2.001  12.795  0.6760 -0.3189 -0.2714
 3039SOL    HW120750   3.353   2.084  12.794 -0.1850  0.1936  0.2247
 3039SOL    HW220751   3.259   2.017  12.712  0.5011 -0.4315 -0.1982
 3040SOL     OW20752   1.004   1.293   3.845 -0.0078  0.2050 -0.0592
 3040SOL    HW120753   1.020   1.305   3.939 -0.1097 -0.5644  0.0587
 3040SOL    HW220754   1.088   1.259   3.816  0.9958 -0.5841  3.7322
 3041SOL     OW20755   0.167   3.660   0.028  0.4767  0.1311  0.0333
 3041SOL    HW120756   0.231   3.598  17.745  0.8958  1.3654 -1.3454
 3041SOL    HW220757   0.220   3.739   0.039  1.1965 -0.6978  2.5896
 3042SOL     OW20758   0.335   3.344   1.539 -0.3530  1.0960  0.0313
 3042SOL    HW120759   0.314   3.265   1.588  1.1675  0.6392 -0.0369
 3042SOL    HW220760   0.377   3.394   1.609 -1.4718 -0.0833  1.5518
 3043SOL     OW20761   4.199   2.049   3.201 -0.2005  0.4302 -0.3049
 3043SOL    HW120762   4.203   2.144   3.191 -1.6295  0.4599 -0.4996
 3043SOL    HW220763   4.260   2.024   3.131 -1.0089  1.1314 -1.2593
 3044SOL     OW20764   1.309   3.028   6.581  0.1418  0.3582  0.0598
 3044SOL    HW120765   1.248   3.079   6.635 -1.4950 -0.5583 -0.9133
 3044SOL    HW220766   1.338   3.090   6.514 -1.7060  0.8809 -0.2626
 3045SOL     OW20767   3.541   4.689   2.306  0.0883 -0.1257  0.3043
 3045SOL    HW120768   3.554   0.025   2.247 -0.4828 -1.8490 -2.0005
 3045SOL    HW220769   3.632   4.669   2.328  0.0311 -1.8704 -1.0821
 3046SOL     OW20770   1.364   0.116   1.983 -0.7517  0.0609  0.2777
 3046SOL    HW120771   1.396   0.198   2.021 -1.2108  0.4858 -0.2491
 3046SOL    HW220772   1.271   0.130   2.001 -0.7840  0.4945 -0.2279
 3047SOL     OW20773   4.621   3.459   6.484  0.1455 -0.3680 -0.1522
 3047SOL    HW120774   4.704   3.442   6.530 -0.0902 -2.8322 -0.6334
 3047SOL    HW220775   4.566   3.482   6.558 -0.6050 -0.0588 -0.8074
 3048SOL     OW20776   3.386   4.068   3.330 -0.4351  0.4625  0.0407
 3048SOL    HW120777   3.391   4.162   3.316  1.5132  0.0436 -2.0264
 3048SOL    HW220778   3.311   4.052   3.274 -0.3066  3.1697 -0.8789
 3049SOL     OW20779   1.119   4.046   8.207 -0.3347  0.1420 -0.3432
 3049SOL    HW120780   1.176   4.106   8.255  0.2932 -0.5738 -0.1819
 3049SOL    HW220781   1.058   4.114   8.181  2.2764  2.2348 -0.9254
 3050SOL     OW20782   1.915   3.002  12.202  0.4545  0.1923 -0.3223
 3050SOL    HW120783   1.930   2.909  12.181  1.3241 -0.1363  1.7404
 3050SOL    HW220784   1.977   3.007  12.275  1.0056 -0.3036 -0.7542
 3051SOL     OW20785   2.016   3.368   7.863 -0.3054  0.1463  0.9239
 3051SOL    HW120786   1.985   3.286   7.823  0.5539  1.0730 -1.6191
 3051SOL    HW220787   2.067   3.402   7.790  0.5368  2.6842  2.7215
 3052SOL     OW20788   2.511   1.217  17.472  0.2146 -0.1031  0.0329
 3052SOL    HW120789   2.536   1.233  17.381  2.6632  1.8130  1.0472
 3052SOL    HW220790   2.560   1.137  17.493 -1.2939 -1.1566 -0.4058
 3053SOL     OW20791   2.427   3.711  11.223  0.5103 -0.2357  0.0518
 3053SOL    HW120792   2.416   3.718  11.128  0.3441  2.0059  0.2525
 3053SOL    HW220793   2.337   3.722  11.253  0.2994 -0.4154 -0.5020
 3054SOL     OW20794   3.706   3.971  13.065 -0.5867  0.3538  0.1070
 3054SOL    HW120795   3.762   3.910  13.113 -0.4332  1.3545  1.1846
 3054SOL    HW220796   3.771   4.031  13.027  0.6701 -0.7510  0.5196
 3055SOL     OW20797   0.654   1.835   8.835  0.3726  0.0946  0.0160
 3055SOL    HW120798   0.689   1.803   8.918 -1.2796  0.2445  0.7706
 3055SOL    HW220799   0.604   1.756   8.815 -0.7132 -0.4054  4.8813
 3056SOL     OW20800   2.492   3.312  10.714 -0.1316 -0.0418 -0.2700
 3056SOL    HW120801   2.458   3.368  10.784  1.9991 -1.2770  1.7202
 3056SOL    HW220802   2.518   3.372  10.644  1.6970 -1.7228 -1.0197
 3057SOL     OW20803   0.258   4.336  10.068  0.0986 -0.1796  0.1441
 3057SOL    HW120804   0.352   4.316  10.072 -0.4312 -2.9649 -1.8343
 3057SOL    HW220805   0.229   4.260  10.018  1.3231  0.3584 -1.4258
 3058SOL     OW20806   0.601   3.381  12.045  0.6022  0.4272  0.3777
 3058SOL    HW120807   0.571   3.369  12.135 -0.7790 -0.8190 -0.2483
 3058SOL    HW220808   0.661   3.309  12.029  0.2349 -0.4392  2.8607
 3059SOL     OW20809   3.293   3.254   8.436  0.1182  0.1110 -0.4517
 3059SOL    HW120810   3.267   3.165   8.415  0.5122 -0.6781  2.4331
 3059SOL    HW220811   3.379   3.236   8.476  0.4537 -1.9147 -2.1445
 3060SOL     OW20812   0.313   3.934  11.635 -0.7199 -0.0252 -0.0706
 3060SOL    HW120813   0.340   4.015  11.677 -1.5934 -0.5900  1.6293
 3060SOL    HW220814   0.290   3.963  11.547 -1.0830  3.2782  1.1325
 3061SOL     OW20815   2.254   1.129   3.805  0.0159 -0.4566  0.2857
 3061SOL    HW120816   2.201   1.206   3.827 -2.2946 -1.2584 -2.5137
 3061SOL    HW220817   2.195   1.078   3.750  0.0151 -0.5700  0.3918
 3062SOL     OW20818   3.465   1.596   3.960 -0.1438 -0.1757  0.8647
 3062SOL    HW120819   3.386   1.635   3.921 -1.5389 -0.9913  2.8805
 3062SOL    HW220820   3.459   1.629   4.050 -1.3043  1.7950  0.0637
 3063SOL     OW20821   2.046   1.035   5.031 -0.6879 -0.0162 -0.0053
 3063SOL    HW120822   2.037   1.112   4.976  0.5854 -0.9938 -1.5889
 3063SOL    HW220823   2.037   1.063   5.122 -0.4428  1.3086 -0.3926
 3064SOL     OW20824   3.463   2.479   9.137  0.1051  0.0072  0.2689
 3064SOL    HW120825   3.400   2.537   9.094  1.8265  0.4197 -1.7042
 3064SOL    HW220826   3.450   2.403   9.080  3.5668  0.1343 -0.6554
 3065SOL     OW20827   2.206   3.458  16.253 -0.1792 -0.3946 -0.6263
 3065SOL    HW120828   2.244   3.544  16.274  0.7986 -1.0473  0.2334
 3065SOL    HW220829   2.274   3.422  16.196 -2.5743 -0.6171 -3.3533
 3066SOL     OW20830   2.322   0.012  13.921  0.1860 -0.2625  0.1105
 3066SOL    HW120831   2.271   0.011  13.840 -1.2676  3.2650  0.9921
 3066SOL    HW220832   2.323   0.105  13.945 -0.1631  0.1379 -1.4453
 3067SOL     OW20833   0.006   1.928  14.687  0.5642 -0.1500 -0.2916
 3067SOL    HW120834   4.669   1.914  14.743  1.5083 -3.0935  0.2297
 3067SOL    HW220835   4.736   1.852  14.629 -1.0147 -0.1587 -0.0364
 3068SOL     OW20836   3.568   2.119   2.783 -0.2682 -0.1615  0.3983
 3068SOL    HW120837   3.574   2.172   2.862 -1.6444  2.5405 -1.3119
 3068SOL    HW220838   3.480   2.139   2.752  0.7445  1.7472 -1.2242
 3069SOL     OW20839   4.129   3.903   3.087  0.1832  0.0299 -0.1715
 3069SOL    HW120840   4.224   3.912   3.088  0.0734  1.2008  1.5603
 3069SOL    HW220841   4.108   3.825   3.037 -1.7915  0.9948 -0.8717
 3070SOL     OW20842   3.396   1.212   5.399  0.2608 -0.6083 -0.0436
 3070SOL    HW120843   3.357   1.279   5.455  0.9696 -0.1994 -0.0486
 3070SOL    HW220844   3.340   1.140   5.427 -1.1580  0.4501 -0.1506
 3071SOL     OW20845   2.227   0.867  17.726  0.4992  0.2655  0.0994
 3071SOL    HW120846   2.152   0.830   0.020 -1.0663  0.0768 -2.5246
 3071SOL    HW220847   2.223   0.957   0.006  2.4882 -0.3866  2.1013
 3072SOL     OW20848   3.993   2.115   1.310 -0.1116  0.1982  0.1607
 3072SOL    HW120849   3.910   2.097   1.267  0.3833  1.2861 -1.2405
 3072SOL    HW220850   4.032   2.165   1.239  0.4855  1.3259  1.2674
 3073SOL     OW20851   3.674   1.810   6.725 -0.2928  0.4734 -0.1894
 3073SOL    HW120852   3.610   1.868   6.767 -1.5615 -2.0424  1.3831
 3073SOL    HW220853   3.628   1.807   6.641 -0.1452 -1.1595 -0.2079
 3074SOL     OW20854   1.661   0.438   6.105  0.1112 -0.1941  0.4177
 3074SOL    HW120855   1.631   0.350   6.082 -1.9485  0.5886  0.1059
 3074SOL    HW220856   1.752   0.445   6.076 -0.6622 -1.2442 -2.2995
 3075SOL     OW20857   2.258   1.261   8.314  0.1466  0.5368  0.8689
 3075SOL    HW120858   2.234   1.169   8.315 -2.6176  1.2800  1.3261
 3075SOL    HW220859   2.180   1.304   8.278 -0.6551 -1.5453  0.1380
 3076SOL     OW20860   0.300   2.545   2.843  0.1849  0.5020  0.9314
 3076SOL    HW120861   0.232   2.478   2.833  0.6337 -0.2003  2.6311
 3076SOL    HW220862   0.344   2.520   2.925 -0.8261 -0.4101  1.2036
 3077SOL     OW20863   0.846   1.609   6.154  0.1371 -0.6479 -0.4189
 3077SOL    HW120864   0.762   1.603   6.108  0.0706 -1.5037 -0.1847
 3077SOL    HW220865   0.858   1.518   6.180 -0.1340  0.2538  2.9412
 3078SOL     OW20866   0.271   2.721   1.020 -0.0821  0.2413 -0.0931
 3078SOL    HW120867   0.180   2.723   0.989  0.4765  1.1392 -1.7323
 3078SOL    HW220868   0.274   2.629   1.044  0.1620  0.6326  1.3658
 3079SOL     OW20869   0.316   2.183   1.543  0.5565 -0.5000 -0.5011
 3079SOL    HW120870   0.311   2.133   1.461  1.4079  0.7488 -1.3102
 3079SOL    HW220871   0.267   2.132   1.607  0.2314  0.7904  0.2753
 3080SOL     OW20872   2.334   1.508  11.398 -0.1834 -0.2170  0.4664
 3080SOL    HW120873   2.391   1.493  11.474 -0.6475 -0.6277  0.7396
 3080SOL    HW220874   2.389   1.560  11.340 -1.0396 -0.0066 -0.1449
 3081SOL     OW20875   1.161   0.723   6.964  0.2415 -0.6729 -0.1775
 3081SOL    HW120876   1.250   0.736   6.931 -0.0858 -1.2236 -1.2861
 3081SOL    HW220877   1.183   0.652   7.024  0.1164  2.1672  3.2834
 3082SOL     OW20878   0.752   0.280   5.000 -0.5832  0.2015 -0.2007
 3082SOL    HW120879   0.675   0.290   5.055  1.1547  2.2126  1.8859
 3082SOL    HW220880   0.789   0.198   5.031  0.9661  1.4037  1.1438
 3083SOL     OW20881   1.493   0.517   8.245  0.2350 -0.3490 -0.2089
 3083SOL    HW120882   1.505   0.482   8.334  0.6252  0.0227 -0.1149
 3083SOL    HW220883   1.402   0.492   8.232 -0.1603  0.2417  1.4345
 3084SOL     OW20884   0.053   3.387  11.913 -0.0628 -0.2963  0.4541
 3084SOL    HW120885   0.042   3.481  11.906  1.7739 -0.0352  1.0282
 3084SOL    HW220886   0.117   3.384  11.985  2.0427 -1.5811 -1.4707
 3085SOL     OW20887   2.761   0.174   5.665  0.1908 -0.0692 -0.1200
 3085SOL    HW120888   2.763   0.196   5.572 -1.4457  1.3914  0.1905
 3085SOL    HW220889   2.822   0.241   5.695  0.7874 -1.3527  1.5667
 3086SOL     OW20890   3.109   0.609   9.464  0.7006 -0.0760  0.2787
 3086SOL    HW120891   3.027   0.643   9.429 -0.7236 -2.4095  1.3249
 3086SOL    HW220892   3.106   0.518   9.434 -1.4162  0.3426 -0.7431
 3087SOL     OW20893   2.942   0.542  13.915 -0.2518 -0.5334  0.6926
 3087SOL    HW120894   2.946   0.534  13.820 -1.5155 -0.9010  0.6676
 3087SOL    HW220895   2.879   0.614  13.915 -1.8609 -1.9425  2.8367
 3088SOL     OW20896   0.209   3.196   1.047  0.1256  0.5476  0.4764
 3088SOL    HW120897   0.284   3.242   1.086  0.7273  0.1917 -0.2600
 3088SOL    HW220898   0.220   3.105   1.073 -0.3059  0.0179 -1.2076
 3089SOL     OW20899   2.783   4.471   9.372  0.6947 -0.2688 -0.5722
 3089SOL    HW120900   2.836   4.397   9.400 -0.5209 -0.8232  0.2806
 3089SOL    HW220901   2.815   4.483   9.282 -1.9487 -0.9005 -1.5907
 3090SOL     OW20902   1.667   2.714   7.282  0.4722 -0.5195 -0.0283
 3090SOL    HW120903   1.578   2.682   7.297 -0.0164  0.3922 -0.9581
 3090SOL    HW220904   1.680   2.763   7.363  1.8841 -0.6519 -0.1741
 3091SOL     OW20905   3.301   3.375   6.110 -0.3420  0.1224  0.5371
 3091SOL    HW120906   3.350   3.364   6.029 -0.7099 -0.1785  0.3588
 3091SOL    HW220907   3.218   3.336   6.082 -0.1617 -0.0015  0.1853
 3092SOL     OW20908   1.021   3.701   2.445  0.3276  0.3947  0.3314
 3092SOL    HW120909   0.977   3.617   2.461 -0.9736  0.7275 -1.5225
 3092SOL    HW220910   1.108   3.673   2.417  0.7305  3.0990 -1.0339
 3093SOL     OW20911   1.148   1.706   5.195  0.7319  0.4672  0.0644
 3093SOL    HW120912   1.136   1.763   5.270  1.7146 -0.4757  0.9459
 3093SOL    HW220913   1.062   1.665   5.193  0.3643  1.3118 -1.5489
 3094SOL     OW20914   0.140   0.186   6.606  0.5271  0.4860 -0.3698
 3094SOL    HW120915   0.115   0.271   6.642  0.4645  0.7282 -0.9963
 3094SOL    HW220916   0.235   0.195   6.613  0.2548  2.0085  1.4578
 3095SOL     OW20917   0.068   0.543   2.115 -0.4482 -0.0162 -0.3449
 3095SOL    HW120918   0.082   0.601   2.189  0.6082 -0.8055  0.0722
 3095SOL    HW220919   4.712   0.528   2.123 -0.0841 -1.6503  0.7480
 3096SOL     OW20920   4.173   1.135   8.590 -0.5897 -0.0740 -0.0662
 3096SOL    HW120921   4.186   1.042   8.608 -1.3174  0.2379  2.1788
 3096SOL    HW220922   4.096   1.149   8.646 -0.3973  2.0624 -0.3357
 3097SOL     OW20923   2.584   1.963  16.060  0.0634 -1.0424 -0.3430
 3097SOL    HW120924   2.563   1.965  16.154 -1.0285 -0.8920 -0.5869
 3097SOL    HW220925   2.623   2.048  16.039  0.1061 -1.5783 -2.3634
 3098SOL     OW20926   3.234   0.442   8.126  0.3271 -0.3896 -0.0811
 3098SOL    HW120927   3.223   0.380   8.198  2.0131 -1.0165 -0.3595
 3098SOL    HW220928   3.269   0.398   8.048  3.0841  0.8575  0.4393
 3099SOL     OW20929   4.485   0.721   3.012 -0.0014  0.3103 -0.0989
 3099SOL    HW120930   4.439   0.773   2.947 -0.1041 -0.9830 -1.0474
 3099SOL    HW220931   4.546   0.784   3.051 -0.3668  2.0006 -2.3012
 3100SOL     OW20932   3.652   3.362  16.199  0.0254  0.6310 -0.2035
 3100SOL    HW120933   3.702   3.441  16.222 -0.5019  0.2103  2.3821
 3100SOL    HW220934   3.673   3.299  16.268  3.2370  0.9521 -0.9049
 3101SOL     OW20935   3.961   4.716   5.824  0.3730 -0.6890 -0.4751
 3101SOL    HW120936   3.984   4.627   5.798  4.3289  0.8173 -2.0250
 3101SOL    HW220937   3.999   4.726   5.912 -0.7897 -1.5204  0.1274
 3102SOL     OW20938   1.105   4.723  10.462  0.7862  0.0283 -0.2924
 3102SOL    HW120939   1.049   0.057  10.433  0.4991  0.5919  1.6383
 3102SOL    HW220940   1.122   4.665  10.388  1.8758  0.8288 -0.6611
 3103SOL     OW20941   3.125   3.754  12.725  0.5888  0.0482  0.6895
 3103SOL    HW120942   3.105   3.674  12.678 -0.0891  0.5054  0.2028
 3103SOL    HW220943   3.080   3.739  12.808  1.1069  0.0772  0.9734
 3104SOL     OW20944   3.605   0.569   5.878  0.0351  0.1907  0.0544
 3104SOL    HW120945   3.646   0.483   5.887 -0.3487  0.0405  0.3805
 3104SOL    HW220946   3.679   0.624   5.852 -0.1814  0.8426  0.7939
 3105SOL     OW20947   1.054   4.231   9.944  0.3474 -0.0189  0.1290
 3105SOL    HW120948   1.113   4.187  10.005 -1.1923 -1.0265  0.8817
 3105SOL    HW220949   1.046   4.165   9.876  1.3146 -1.1146  1.0908
 3106SOL     OW20950   4.703   2.219   6.009  0.1547  0.5200 -0.5202
 3106SOL    HW120951   4.639   2.184   5.947 -0.1896  0.3477 -0.0588
 3106SOL    HW220952   0.035   2.153   6.008  0.3598  0.7436 -0.7417
 3107SOL     OW20953   0.881   2.691  17.713  0.0431  0.8432 -0.1161
 3107SOL    HW120954   0.893   2.709  17.620  0.8728  0.8893 -0.0086
 3107SOL    HW220955   0.792   2.722  17.728  0.4040  1.3210  1.0712
 3108SOL     OW20956   2.375   1.586   9.365  0.0637  0.0796 -0.1224
 3108SOL    HW120957   2.346   1.560   9.452  0.9821  0.0003  0.1610
 3108SOL    HW220958   2.461   1.626   9.376 -1.2449  2.8394  0.1982
 3109SOL     OW20959   1.177   4.141   6.160  0.1421  0.0598 -0.7395
 3109SOL    HW120960   1.111   4.071   6.168  0.9456 -0.6911 -0.7071
 3109SOL    HW220961   1.134   4.197   6.096 -1.1517 -0.1651 -0.0743
 3110SOL     OW20962   1.474   0.983   8.590 -0.8482  0.0753  0.5710
 3110SOL    HW120963   1.424   0.902   8.588 -0.5850 -0.0897  0.5753
 3110SOL    HW220964   1.483   1.000   8.496  1.0829 -0.7208  0.6121
 3111SOL     OW20965   4.038   0.971   4.810  0.1822  0.4378  0.8171
 3111SOL    HW120966   3.979   0.915   4.861 -0.2196  1.1667  1.1551
 3111SOL    HW220967   4.110   0.911   4.789  0.6287  1.2434  0.0579
 3112SOL     OW20968   2.013   1.149   8.669  0.3254  0.5640 -0.2024
 3112SOL    HW120969   1.922   1.137   8.695 -0.0736 -0.4463 -2.1010
 3112SOL    HW220970   2.047   1.196   8.745 -2.9818  0.5595  1.2725
 3113SOL     OW20971   1.948   3.400   1.734  0.2142  0.0136  0.0590
 3113SOL    HW120972   1.876   3.420   1.795 -0.3104  1.3373 -0.9863
 3113SOL    HW220973   1.943   3.306   1.746 -1.2414  0.2196  1.1608
 3114SOL     OW20974   0.923   1.036   3.775  0.5162  0.7883 -0.3738
 3114SOL    HW120975   0.929   1.132   3.780 -1.2318  0.9425 -1.2449
 3114SOL    HW220976   0.972   1.002   3.850  0.2677  3.6430  1.0955
 3115SOL     OW20977   4.606   4.327  12.490 -0.3127  0.0903  0.4158
 3115SOL    HW120978   4.617   4.353  12.582  0.7733  0.1228  0.2766
 3115SOL    HW220979   4.642   4.239  12.494  0.4947  0.4685  1.5187
 3116SOL     OW20980   3.847   1.776   6.457  1.0684 -0.2046 -0.3562
 3116SOL    HW120981   3.753   1.786   6.475  0.8962  0.4412 -1.6192
 3116SOL    HW220982   3.844   1.709   6.389  1.9078  0.4222 -0.9947
 3117SOL     OW20983   2.399   0.426   8.864 -0.1675  0.2467  0.4920
 3117SOL    HW120984   2.350   0.506   8.845  0.0876  0.4799  0.8256
 3117SOL    HW220985   2.472   0.445   8.804 -0.2073  0.2303  0.4378
 3118SOL     OW20986   2.345   1.791   5.668  1.0484  0.1138 -0.3900
 3118SOL    HW120987   2.261   1.760   5.703  1.5198  0.0677  0.7086
 3118SOL    HW220988   2.328   1.821   5.579  1.4887  0.4216 -0.3729
 3119SOL     OW20989   1.029   3.355   0.917 -0.5304 -0.6423  0.6708
 3119SOL    HW120990   1.099   3.301   0.954  2.9031  2.1212 -1.7505
 3119SOL    HW220991   1.080   3.414   0.861  0.9733 -1.5039  1.1204
 3120SOL     OW20992   1.995   4.126   5.619 -0.0616 -0.1430  0.0282
 3120SOL    HW120993   1.976   4.174   5.538 -1.1622  0.1723  0.4691
 3120SOL    HW220994   2.083   4.158   5.639 -0.7602  1.3049  0.7375
 3121SOL     OW20995   1.485   3.088   9.255 -0.5691  0.0630  0.1209
 3121SOL    HW120996   1.478   3.040   9.172 -0.2347  0.4987 -0.1600
 3121SOL    HW220997   1.571   3.124   9.233  0.8812 -1.8538  2.6160
 3122SOL     OW20998   3.099   1.807   6.669  0.0949  0.6796 -0.2519
 3122SOL    HW120999   3.119   1.715   6.652  0.4561  0.7262 -0.0618
 3122SOL    HW221000   3.040   1.829   6.596 -2.4270  0.3826  1.6811
 3123SOL     OW21001   0.203   2.226   2.042  0.2934 -0.0373  0.1457
 3123SOL    HW121002   0.213   2.258   2.132 -1.2578  1.1122 -0.0908
 3123SOL    HW221003   0.293   2.218   2.012  0.3848  2.1798 -0.1384
 3124SOL     OW21004   0.871   0.764  17.279 -0.6848 -0.3084 -0.1532
 3124SOL    HW121005   0.949   0.806  17.313 -0.0549 -0.3623 -1.5158
 3124SOL    HW221006   0.822   0.844  17.257  0.5041  0.6348  0.6587
 3125SOL     OW21007   1.027   4.120   4.553  0.1702  0.6624  1.2452
 3125SOL    HW121008   0.968   4.120   4.629 -1.5468  0.4288 -0.0831
 3125SOL    HW221009   1.107   4.158   4.589  0.5808  0.3879  0.6034
 3126SOL     OW21010   3.062   2.138   3.654  0.0967  0.1148 -0.2258
 3126SOL    HW121011   2.977   2.123   3.695 -0.1858  1.0815 -0.4509
 3126SOL    HW221012   3.041   2.211   3.596 -0.4597  1.1507  1.2582
 3127SOL     OW21013   0.621   1.211   4.056  0.5536  0.2229 -0.2080
 3127SOL    HW121014   0.664   1.178   3.978  1.0999 -2.4718  1.2140
 3127SOL    HW221015   0.531   1.194   4.030  0.5341 -0.1430  0.0900
 3128SOL     OW21016   4.156   0.052   1.053 -0.4405  0.4333  0.7844
 3128SOL    HW121017   4.250   0.055   1.070 -0.3244  1.0968 -0.0142
 3128SOL    HW221018   4.153   4.708   1.005  1.6147  0.4071  0.6961
 3129SOL     OW21019   2.158   0.270   5.292  0.2440  0.1628 -0.4044
 3129SOL    HW121020   2.219   0.198   5.306 -1.3399 -0.8411  1.3191
 3129SOL    HW221021   2.190   0.331   5.359  1.6081 -0.2278 -0.7066
 3130SOL     OW21022   2.486   0.181   2.114  0.0662 -0.0036 -0.4487
 3130SOL    HW121023   2.534   0.154   2.192  1.8141  3.0470 -0.4528
 3130SOL    HW221024   2.557   0.207   2.055  0.1051  2.0810  0.5034
 3131SOL     OW21025   3.694   1.739  15.462  0.0807 -0.5764 -0.0211
 3131SOL    HW121026   3.781   1.705  15.438  0.7149  0.8577  0.2488
 3131SOL    HW221027   3.728   1.794  15.533  0.1035  1.6744 -1.8189
 3132SOL     OW21028   1.771   1.484   7.917  0.3420  0.3249 -0.4248
 3132SOL    HW121029   1.847   1.533   7.886  0.8169  0.9969  1.8080
 3132SOL    HW221030   1.773   1.516   8.007 -3.5063  1.5394 -0.7588
 3133SOL     OW21031   4.237   4.625   8.790  0.8076  0.2437 -0.2162
 3133SOL    HW121032   4.219   4.674   8.709 -2.5485 -1.2935 -0.3911
 3133SOL    HW221033   4.312   4.681   8.812  1.2955 -0.0799 -1.0624
 3134SOL     OW21034   2.176   3.346  10.476  0.1780  0.3416 -0.0356
 3134SOL    HW121035   2.229   3.267  10.490 -0.8654 -0.3685 -0.0793
 3134SOL    HW221036   2.123   3.317  10.401  0.0658 -1.2889  0.6769
 3135SOL     OW21037   3.787   3.013   4.586 -0.3031  0.5055  0.3702
 3135SOL    HW121038   3.875   3.022   4.550 -1.1236  0.8151 -1.5202
 3135SOL    HW221039   3.758   3.103   4.602  0.4090  0.5693  1.3160
 3136SOL     OW21040   1.246   1.054   6.735 -0.1927  0.0264 -0.7379
 3136SOL    HW121041   1.264   1.125   6.674 -1.9229  2.4958  1.6142
 3136SOL    HW221042   1.297   1.070   6.815  2.3906  0.2048 -2.4072
 3137SOL     OW21043   2.559   2.313   2.634  0.8031 -0.4595  0.0836
 3137SOL    HW121044   2.641   2.355   2.607 -0.6043  2.2526  0.0962
 3137SOL    HW221045   2.570   2.306   2.729  2.5974 -1.3895 -0.1877
 3138SOL     OW21046   3.662   0.295   5.872  0.0471  0.8845 -0.3203
 3138SOL    HW121047   3.703   0.223   5.825 -0.0072  2.1487 -2.2787
 3138SOL    HW221048   3.568   0.289   5.860  0.0027  0.1874  0.3327
 3139SOL     OW21049   2.531   3.980  11.422 -0.2138  0.2664  0.1956
 3139SOL    HW121050   2.580   4.004  11.343 -0.6912  1.7129  0.3479
 3139SOL    HW221051   2.440   3.991  11.396  0.1346  0.6985 -0.8534
 3140SOL     OW21052   1.155   4.494  15.558 -0.1518 -0.3941 -0.1261
 3140SOL    HW121053   1.079   4.533  15.513  1.3061  1.4032 -1.0241
 3140SOL    HW221054   1.141   4.403  15.533  0.8027 -0.6635  0.3469
 3141SOL     OW21055   2.104   2.785   7.364  0.2584 -0.0245 -0.6752
 3141SOL    HW121056   2.067   2.804   7.450 -1.3445  1.0218 -1.6129
 3141SOL    HW221057   2.100   2.872   7.326 -0.3703 -0.2462 -1.1187
 3142SOL     OW21058   3.018   2.660   5.744  0.2519 -0.4336 -0.2764
 3142SOL    HW121059   2.955   2.684   5.811  0.3034  0.7750 -0.6759
 3142SOL    HW221060   2.968   2.640   5.665  1.1926 -0.5397 -0.8443
 3143SOL     OW21061   0.381   1.043   4.900  0.2023  0.2696  0.0215
 3143SOL    HW121062   0.364   1.056   4.994  0.1119  0.8415 -0.0736
 3143SOL    HW221063   0.436   0.965   4.900 -1.3270 -0.8237 -3.6221
 3144SOL     OW21064   0.016   2.624   4.492 -0.5026  0.1693  0.0374
 3144SOL    HW121065   4.703   2.702   4.473  0.7313  0.8904 -0.3015
 3144SOL    HW221066   4.677   2.571   4.509 -0.6519  0.2476 -0.3963
 3145SOL     OW21067   4.395   4.429   6.728  0.2251 -0.0721  0.0738
 3145SOL    HW121068   4.357   4.486   6.795 -0.2271 -2.5938  1.9584
 3145SOL    HW221069   4.368   4.480   6.652 -1.8498  0.2292  0.9920
 3146SOL     OW21070   1.103   0.169   5.669  0.6670  0.4275  0.4288
 3146SOL    HW121071   1.103   0.083   5.627 -2.6128  1.8254 -2.4130
 3146SOL    HW221072   1.040   0.152   5.740 -1.5789 -0.5694 -1.7687
 3147SOL     OW21073   2.726   4.247  16.225  0.1189  0.2284 -0.3272
 3147SOL    HW121074   2.790   4.180  16.203  0.4408  0.0502  1.1338
 3147SOL    HW221075   2.758   4.314  16.164  1.7592 -1.4391 -1.2956
 3148SOL     OW21076   1.407   4.160   3.565  0.1335 -0.3511  0.5427
 3148SOL    HW121077   1.443   4.072   3.557  1.0638  0.2327 -1.5242
 3148SOL    HW221078   1.470   4.207   3.620 -1.0498  1.5082  0.3125
 3149SOL     OW21079   3.170   0.936  12.352  0.1078 -0.0088  0.1743
 3149SOL    HW121080   3.265   0.944  12.345 -0.0408 -0.0679 -2.0735
 3149SOL    HW221081   3.168   0.897  12.439  1.8926  1.4225  0.8575
 3150SOL     OW21082   4.455   3.877   6.952  0.3890  0.2334  0.2850
 3150SOL    HW121083   4.402   3.823   7.012 -1.7145  0.9622 -0.9056
 3150SOL    HW221084   4.511   3.912   7.021  0.1943  0.6270  0.2473
 3151SOL     OW21085   0.854   3.782  11.006  0.3166  0.4748 -0.0348
 3151SOL    HW121086   0.831   3.865  10.965  0.4662  0.3996 -0.2718
 3151SOL    HW221087   0.894   3.818  11.085  2.5492 -1.2066 -0.3859
 3152SOL     OW21088   2.899   0.430   2.163 -0.2853  0.5111 -0.4781
 3152SOL    HW121089   2.967   0.491   2.136  1.2690 -1.3062 -0.6182
 3152SOL    HW221090   2.948   0.354   2.194 -1.4988 -0.9531 -2.1420
 3153SOL     OW21091   1.451   2.220   8.644  0.1922  0.4882 -0.4770
 3153SOL    HW121092   1.407   2.171   8.575 -2.3650  1.1403  0.7094
 3153SOL    HW221093   1.528   2.169   8.670 -1.1616 -0.8052  0.9984
 3154SOL     OW21094   2.200   2.956  16.501 -0.2471  0.0803 -0.6695
 3154SOL    HW121095   2.139   2.882  16.498  0.3429 -0.4595  0.9818
 3154SOL    HW221096   2.230   2.935  16.412 -0.9850 -2.7167 -0.2714
 3155SOL     OW21097   1.889   4.038   4.768 -0.3328  0.3946  0.4787
 3155SOL    HW121098   1.914   4.130   4.770  0.7301  0.1115  0.5996
 3155SOL    HW221099   1.797   4.050   4.791 -0.6968  1.2904 -1.5015
 3156SOL     OW21100   3.406   1.983  11.937 -0.0212  0.3018 -0.3140
 3156SOL    HW121101   3.456   1.947  12.009 -1.1088 -1.1652 -0.2866
 3156SOL    HW221102   3.468   2.043  11.895 -0.6248  0.4373 -1.0213
 3157SOL     OW21103   2.746   1.140   4.046 -0.2962  0.3775  0.2394
 3157SOL    HW121104   2.659   1.175   4.029 -0.2304  1.1816  1.6027
 3157SOL    HW221105   2.759   1.080   3.972 -3.5559  0.9977 -0.8297
 3158SOL     OW21106   1.670   2.221   4.078  0.0390  0.1867 -0.4705
 3158SOL    HW121107   1.586   2.261   4.099 -0.7779 -1.7657 -0.0083
 3158SOL    HW221108   1.689   2.170   4.157 -1.3390  0.8887  0.2957
 3159SOL     OW21109   2.933   0.484   6.321  0.0662  0.0640 -0.5207
 3159SOL    HW121110   2.862   0.547   6.312 -0.1001 -0.4555 -3.0213
 3159SOL    HW221111   3.007   0.538   6.294  1.7470 -1.1888  1.6581
 3160SOL     OW21112   4.557   2.891   3.287 -0.8100  0.2607  0.5243
 3160SOL    HW121113   4.568   2.941   3.368  1.3102  1.1470 -0.3194
 3160SOL    HW221114   4.573   2.799   3.310 -0.0388  0.4117  0.5755
 3161SOL     OW21115   1.120   4.323  11.428  0.1168 -0.1996  0.6546
 3161SOL    HW121116   1.080   4.271  11.358  2.3842  0.4854 -1.1430
 3161SOL    HW221117   1.214   4.309  11.416 -0.0567  0.2387 -1.2036
 3162SOL     OW21118   2.219   4.254   5.429  0.6510  0.1779  0.4917
 3162SOL    HW121119   2.309   4.262   5.461 -0.2292  0.1395  3.0139
 3162SOL    HW221120   2.177   4.332   5.466 -2.2637 -1.0538 -0.1565
 3163SOL     OW21121   1.643   3.382   7.937 -0.4770  0.4531 -0.7177
 3163SOL    HW121122   1.658   3.292   7.910  0.4350  1.3306 -3.1040
 3163SOL    HW221123   1.679   3.435   7.866 -0.7531  0.9602 -0.4886
 3164SOL     OW21124   2.550   3.119   5.143 -0.3192 -0.1836  0.6628
 3164SOL    HW121125   2.559   3.210   5.171  0.2261  0.0110 -0.1564
 3164SOL    HW221126   2.454   3.115   5.150 -0.4062  1.8684  0.6435
 3165SOL     OW21127   4.070   2.621   3.914  0.2813  0.4783  0.0624
 3165SOL    HW121128   4.071   2.569   3.993  0.8549 -3.1996 -2.3661
 3165SOL    HW221129   3.984   2.660   3.929 -0.6556 -1.5466 -0.1293
 3166SOL     OW21130   1.395   3.341  15.005  0.3773  0.2691  0.0079
 3166SOL    HW121131   1.354   3.348  14.919 -0.3680  3.1893  0.5896
 3166SOL    HW221132   1.312   3.336  15.054 -0.3921  0.4868 -1.2676
 3167SOL     OW21133   3.047   0.070   3.900 -0.2690 -0.7055 -0.4367
 3167SOL    HW121134   2.962   0.029   3.912  0.0055 -1.5361 -1.3383
 3167SOL    HW221135   3.107   4.736   3.882  1.6037  0.4750  0.8935
 3168SOL     OW21136   1.651   4.122   7.189 -0.5837  0.1936 -0.2392
 3168SOL    HW121137   1.697   4.199   7.156  0.0878 -0.1831 -0.1902
 3168SOL    HW221138   1.568   4.166   7.204 -0.2376  0.5773  0.5588
 3169SOL     OW21139   1.160   3.204  17.696 -0.1768 -0.4200  0.5639
 3169SOL    HW121140   1.144   3.207  17.602  3.0635 -3.0148 -0.0554
 3169SOL    HW221141   1.072   3.198  17.733 -0.3388 -1.2730  0.0270
 3170SOL     OW21142   2.143   2.446  15.152  0.2568 -0.2842 -0.0129
 3170SOL    HW121143   2.077   2.444  15.083  0.0902 -2.1814  0.1775
 3170SOL    HW221144   2.189   2.528  15.136 -1.1042  0.3060 -0.9436
 3171SOL     OW21145   1.967   0.761   2.126 -0.2225 -0.4748  0.7474
 3171SOL    HW121146   1.997   0.851   2.115 -1.1703 -0.2224  0.2241
 3171SOL    HW221147   2.027   0.717   2.065  0.9402  3.4612 -0.9123
 3172SOL     OW21148   1.798   3.141  15.345  0.3653  0.3083 -0.2909
 3172SOL    HW121149   1.718   3.169  15.299  0.2364  0.2876 -0.0824
 3172SOL    HW221150   1.823   3.225  15.384  0.4550  1.2596 -2.4068
 3173SOL     OW21151   2.876   1.431   8.664 -0.0947 -0.6812  0.4380
 3173SOL    HW121152   2.877   1.435   8.760 -0.0361 -0.0425  0.4127
 3173SOL    HW221153   2.964   1.401   8.642  0.1786  0.1324  0.4053
 3174SOL     OW21154   2.024   0.478   8.270 -0.8093 -0.4800  0.2162
 3174SOL    HW121155   2.075   0.422   8.212 -1.0478 -1.3466  0.8436
 3174SOL    HW221156   1.943   0.428   8.272 -1.1168  0.0395  0.6754
 3175SOL     OW21157   3.254   2.598   8.997 -0.0393  0.5034 -0.3963
 3175SOL    HW121158   3.165   2.612   9.029  0.3781  0.9662  0.5659
 3175SOL    HW221159   3.242   2.563   8.909 -2.1689  0.9648 -0.2718
 3176SOL     OW21160   3.157   2.417   2.847 -0.1358  0.2794  0.2296
 3176SOL    HW121161   3.216   2.355   2.805 -2.0512 -1.9497  0.7969
 3176SOL    HW221162   3.123   2.373   2.925 -0.0269 -0.0205  0.1062
 3177SOL     OW21163   1.916   3.759  17.341  0.0329 -0.3537  0.7489
 3177SOL    HW121164   1.952   3.671  17.332  1.6691  0.4526 -0.5095
 3177SOL    HW221165   1.937   3.782  17.431  1.7255 -0.2731  0.3247
 3178SOL     OW21166   4.391   4.213  11.628  0.4830  0.2526  0.0921
 3178SOL    HW121167   4.392   4.190  11.535 -0.2084  0.6098 -0.0060
 3178SOL    HW221168   4.352   4.300  11.630  0.1462  0.1369 -1.1739
 3179SOL     OW21169   4.607   4.640   4.899  0.3958 -0.1152 -0.1705
 3179SOL    HW121170   4.554   4.701   4.848 -0.2536  0.1476  0.8180
 3179SOL    HW221171   4.538   4.588   4.941 -0.2388 -0.2954 -1.4148
 3180SOL     OW21172   2.487   2.536   0.962 -0.0591 -0.0459  0.5855
 3180SOL    HW121173   2.394   2.523   0.981 -0.2830 -0.1843 -0.6575
 3180SOL    HW221174   2.499   2.631   0.963 -0.1260 -0.0094 -2.1876
 3181SOL     OW21175   3.704   4.635   7.152  0.1805  0.5940 -0.3972
 3181SOL    HW121176   3.691   4.663   7.243 -1.3290 -0.4790 -0.2938
 3181SOL    HW221177   3.796   4.608   7.152 -0.1335 -0.4895 -0.3686
 3182SOL     OW21178   3.927   3.791   5.744  0.0755 -0.8182  0.3684
 3182SOL    HW121179   3.948   3.872   5.696 -0.3835  0.3573  2.1610
 3182SOL    HW221180   3.835   3.810   5.762  0.3473  0.0352  0.8415
 3183SOL     OW21181   0.554   4.055   8.919  0.3672 -0.1723  0.2902
 3183SOL    HW121182   0.577   4.018   9.004  0.3535 -0.3870  0.1993
 3183SOL    HW221183   0.564   3.970   8.875  0.6398  1.3708 -2.6466
 3184SOL     OW21184   1.743   2.990   4.762 -0.7504  0.0604 -0.0238
 3184SOL    HW121185   1.836   3.013   4.766 -0.0018 -3.1219  0.6441
 3184SOL    HW221186   1.741   2.927   4.689  0.3013  1.3426 -1.1607
 3185SOL     OW21187   2.816   1.193  10.044  0.0501  0.4728  0.3133
 3185SOL    HW121188   2.840   1.280  10.013  0.4867 -0.2374 -1.3469
 3185SOL    HW221189   2.887   1.175  10.106 -1.2167 -3.2238  0.6734
 3186SOL     OW21190   3.124   0.892   9.776  0.2116  0.2518  0.0933
 3186SOL    HW121191   3.125   0.884   9.871  0.6355 -2.9275 -0.1618
 3186SOL    HW221192   3.072   0.972   9.770  0.2838  0.1743 -1.8354
 3187SOL     OW21193   2.243   0.736   8.256  0.4163 -0.0301  0.1704
 3187SOL    HW121194   2.164   0.784   8.232  0.4529 -0.5273 -0.9875
 3187SOL    HW221195   2.264   0.771   8.342  0.1926  0.5333 -0.0035
 3188SOL     OW21196   4.210   0.892   8.673 -0.0775  0.1062  0.0669
 3188SOL    HW121197   4.279   0.869   8.735  0.5802  0.6458 -0.4586
 3188SOL    HW221198   4.137   0.842   8.708  0.2424 -0.3999  0.0083
 3189SOL     OW21199   1.644   2.747   9.880 -0.3889  0.1365  0.2618
 3189SOL    HW121200   1.597   2.727   9.800  1.2438  3.2009 -1.4738
 3189SOL    HW221201   1.570   2.795   9.918 -0.1105  0.3414  0.5492
 3190SOL     OW21202   3.465   1.175   8.486  0.2482 -0.2931 -0.1454
 3190SOL    HW121203   3.427   1.255   8.521  0.1354 -1.0855  1.5281
 3190SOL    HW221204   3.557   1.201   8.487  0.4033 -0.7781 -1.0737
 3191SOL     OW21205   2.780   2.353   9.670 -0.1881 -0.1533 -0.2253
 3191SOL    HW121206   2.836   2.431   9.675  1.5508 -1.3039 -1.9123
 3191SOL    HW221207   2.823   2.310   9.596 -1.0983  0.1101 -0.9105
 3192SOL     OW21208   1.472   4.622   4.977  0.1654  0.0413  0.2889
 3192SOL    HW121209   1.425   4.701   4.951 -2.0350 -0.5882  2.3680
 3192SOL    HW221210   1.399   4.588   5.029  1.4716 -1.0880  1.3780
 3193SOL     OW21211   3.198   2.015   4.712 -0.0586  0.0334  0.3095
 3193SOL    HW121212   3.260   2.059   4.770  0.9238 -1.2935  0.2719
 3193SOL    HW221213   3.233   2.037   4.626  0.4606  2.2795  1.0782
 3194SOL     OW21214   2.852   4.182   7.899 -0.0625 -0.4882  0.2825
 3194SOL    HW121215   2.917   4.168   7.968 -0.8608 -1.0014  0.9353
 3194SOL    HW221216   2.895   4.219   7.822  0.6288 -2.1033 -0.1013
 3195SOL     OW21217   2.704   2.089  14.666 -0.0396  0.4312  0.5056
 3195SOL    HW121218   2.671   2.018  14.720 -0.7806 -0.5574 -1.2549
 3195SOL    HW221219   2.728   2.159  14.726 -0.3932  1.8666 -1.0282
 3196SOL     OW21220   1.941   2.633   7.179 -0.0097 -0.4111 -0.1273
 3196SOL    HW121221   2.018   2.681   7.210 -0.2235  0.0456 -0.2943
 3196SOL    HW221222   1.878   2.653   7.248 -1.1169 -1.1099 -0.9344
 3197SOL     OW21223   3.827   3.387   7.034  0.0723  0.0094 -0.0512
 3197SOL    HW121224   3.800   3.426   7.117 -3.6024 -1.0606 -0.7229
 3197SOL    HW221225   3.893   3.324   7.063  0.2610 -0.4716 -1.5496
 3198SOL     OW21226   1.809   0.038   2.478  0.0611 -0.4201  0.5336
 3198SOL    HW121227   1.803   0.029   2.573  1.9741  0.5434  0.7401
 3198SOL    HW221228   1.886   0.091   2.460  0.3007 -0.5749  1.1169
 3199SOL     OW21229   1.380   2.219  11.116  0.0484  0.3066 -0.0546
 3199SOL    HW121230   1.402   2.158  11.045  0.0885 -1.7646  1.7415
 3199SOL    HW221231   1.445   2.186  11.178  0.1720  0.3737 -0.1493
 3200SOL     OW21232   2.493   0.302   8.319 -0.2785  0.6456  0.1858
 3200SOL    HW121233   2.448   0.382   8.345  0.4116  1.5388 -1.3456
 3200SOL    HW221234   2.427   0.233   8.324 -0.6456  0.9331 -0.6667
 3201SOL     OW21235   2.589   2.411   4.451 -0.2838 -0.0177  0.1896
 3201SOL    HW121236   2.575   2.320   4.424  0.7835 -0.5329  1.3674
 3201SOL    HW221237   2.566   2.411   4.543  1.0246 -3.9379  0.4981
 3202SOL     OW21238   1.476   0.251   6.019  0.3655 -0.2648  0.0888
 3202SOL    HW121239   1.410   0.295   5.965  2.4849  2.4255 -0.2951
 3202SOL    HW221240   1.421   0.225   6.093  2.9346 -0.5927  1.8860
 3203SOL     OW21241   3.541   4.555  11.351 -0.8146  0.2222  0.4537
 3203SOL    HW121242   3.624   4.602  11.350 -0.7573  0.0670 -1.6570
 3203SOL    HW221243   3.494   4.627  11.309 -1.6460  0.3920  1.6714
 3204SOL     OW21244   4.699   2.256   1.892  0.3506  0.2223  0.5522
 3204SOL    HW121245   0.046   2.268   1.933 -0.0381  0.8284  1.2007
 3204SOL    HW221246   4.702   2.324   1.825 -0.5551 -1.0945 -0.8028
 3205SOL     OW21247   3.732   3.301   1.803 -0.0277 -0.5027  0.1375
 3205SOL    HW121248   3.641   3.271   1.808 -0.1786 -0.0269  0.2386
 3205SOL    HW221249   3.760   3.275   1.891 -0.8707 -0.8085  0.3233
 3206SOL     OW21250   1.683   2.236   2.727 -0.3501 -0.3389 -0.2258
 3206SOL    HW121251   1.753   2.252   2.791 -0.0448 -0.4658 -0.5266
 3206SOL    HW221252   1.716   2.301   2.665 -0.5019  0.0426  0.0945
 3207SOL     OW21253   3.072   0.605   7.284 -0.2275  0.1516  0.5187
 3207SOL    HW121254   3.046   0.559   7.204  1.5261 -1.5362  0.9411
 3207SOL    HW221255   2.996   0.594   7.342 -1.4232  1.7024 -0.7253
 3208SOL     OW21256   4.150   1.318   7.758 -0.1717  0.4868  0.0976
 3208SOL    HW121257   4.177   1.234   7.794 -0.9145  0.3886  0.4062
 3208SOL    HW221258   4.231   1.358   7.726 -0.3556 -0.7068 -1.8212
 3209SOL     OW21259   3.319   2.885   5.486  0.1146 -0.0351  1.0384
 3209SOL    HW121260   3.411   2.878   5.460 -0.0049 -0.5000  0.7342
 3209SOL    HW221261   3.293   2.796   5.464 -0.4111  0.6434 -1.0809
 3210SOL     OW21262   2.877   2.435   4.493 -0.3855 -0.0895  0.3318
 3210SOL    HW121263   2.910   2.524   4.480  2.4692 -0.6908  3.2646
 3210SOL    HW221264   2.783   2.451   4.489 -0.1876  1.1135  0.3301
 3211SOL     OW21265   3.074   1.585   6.327  0.2464 -0.5605 -0.3102
 3211SOL    HW121266   3.147   1.548   6.278 -0.3378  0.9913 -2.3877
 3211SOL    HW221267   3.023   1.514   6.364  0.9378 -0.9648 -0.1317
 3212SOL     OW21268   2.661   0.947   4.858 -0.6018  0.8221  0.3191
 3212SOL    HW121269   2.746   0.974   4.822  0.3455 -0.0644  1.8721
 3212SOL    HW221270   2.658   0.860   4.820  2.3545  1.0329 -0.4102
 3213SOL     OW21271   2.565   3.501   8.999 -0.2145 -0.3858  0.4649
 3213SOL    HW121272   2.490   3.482   9.056  0.4270  0.3455  1.5519
 3213SOL    HW221273   2.598   3.419   8.960 -1.6928 -0.6024 -0.3460
 3214SOL     OW21274   0.018   0.675   5.757 -0.0707 -0.2697 -0.1222
 3214SOL    HW121275   4.662   0.662   5.751 -0.0958 -0.3157  0.3814
 3214SOL    HW221276   0.044   0.701   5.668 -1.1308 -3.0427 -1.2487
 3215SOL     OW21277   2.182   4.681   8.546 -0.3244  0.1436  0.4718
 3215SOL    HW121278   2.250   4.614   8.547  0.2097  0.6559 -1.4037
 3215SOL    HW221279   2.187   4.711   8.637 -1.7946  0.7136  0.3658
 3216SOL     OW21280   4.020   0.802   2.526 -0.1749  0.0876  0.4552
 3216SOL    HW121281   4.039   0.884   2.479  0.3097  0.0234  0.5482
 3216SOL    HW221282   4.069   0.739   2.474 -0.4284  0.1421  0.1445
 3217SOL     OW21283   0.674   2.854   6.273  0.3080 -0.1913 -0.0574
 3217SOL    HW121284   0.602   2.874   6.332 -0.7527  0.5586 -1.6061
 3217SOL    HW221285   0.627   2.852   6.190  2.7708 -2.0054 -1.4320
 3218SOL     OW21286   3.770   4.033   3.058 -0.3203 -0.0226 -0.2569
 3218SOL    HW121287   3.800   3.991   2.978  0.2114  2.1116 -1.1865
 3218SOL    HW221288   3.710   3.969   3.095  0.0067  0.1134  0.5109
 3219SOL     OW21289   2.387   3.670  10.020 -0.1002  0.3576 -0.1857
 3219SOL    HW121290   2.476   3.651  10.049 -0.3682 -0.2745  0.2340
 3219SOL    HW221291   2.365   3.593   9.967 -0.9862  2.2543 -2.5708
 3220SOL     OW21292   3.773   2.406   7.506 -0.1162  0.2043  0.3172
 3220SOL    HW121293   3.819   2.486   7.484  1.3345 -0.9237 -0.7861
 3220SOL    HW221294   3.748   2.373   7.419  1.1571 -0.0520  0.0552
 3221SOL     OW21295   2.766   1.005   6.935  0.0133 -0.0051  0.2977
 3221SOL    HW121296   2.751   1.042   6.848  1.0187  0.9972  0.5513
 3221SOL    HW221297   2.717   1.068   6.987 -1.5164  0.8005 -2.0918
 3222SOL     OW21298   4.142   1.551   9.197  0.0743 -0.0327  0.0111
 3222SOL    HW121299   4.092   1.612   9.143 -1.6742 -0.2276  1.4126
 3222SOL    HW221300   4.211   1.608   9.232  1.5673 -1.5796 -0.4299
 3223SOL     OW21301   2.776   4.672   8.398  0.3670 -0.0649  0.1246
 3223SOL    HW121302   2.735   0.006   8.445 -1.5853 -1.1009  0.0256
 3223SOL    HW221303   2.804   4.605   8.460 -2.9885 -1.3801  0.2330
 3224SOL     OW21304   2.339   3.820   8.613  0.2911 -0.2725 -0.4839
 3224SOL    HW121305   2.298   3.792   8.694 -0.4920 -0.2512 -0.8743
 3224SOL    HW221306   2.416   3.763   8.617  0.5598  0.3518  2.9192
 3225SOL     OW21307   3.410   0.881   5.808 -0.0642 -0.2916 -0.2958
 3225SOL    HW121308   3.477   0.947   5.828  0.5837 -0.0686 -3.2116
 3225SOL    HW221309   3.441   0.847   5.724 -1.1569  1.7889 -1.5383
 3226SOL     OW21310   2.680   2.416   0.812 -1.1556 -0.0541  0.3071
 3226SOL    HW121311   2.632   2.459   0.883 -1.3197  0.7702 -0.3039
 3226SOL    HW221312   2.687   2.487   0.748 -0.0160 -0.2980  0.1662
 3227SOL     OW21313   2.522   1.375  15.960  0.6522 -0.0270 -0.1259
 3227SOL    HW121314   2.589   1.426  15.915 -0.6046  1.0017 -0.8271
 3227SOL    HW221315   2.446   1.394  15.905  0.2949  0.8977  0.7041
 3228SOL     OW21316   2.246   4.613   8.858  0.1570  0.1962  0.2965
 3228SOL    HW121317   2.332   4.631   8.819 -1.0263  0.4369 -2.1492
 3228SOL    HW221318   2.246   4.518   8.867  2.2517  0.1446 -0.1767
 3229SOL     OW21319   3.887   1.411   7.927 -0.0814 -0.4660 -0.4144
 3229SOL    HW121320   3.884   1.493   7.878 -0.5742 -0.0767  0.2653
 3229SOL    HW221321   3.962   1.369   7.885 -0.0723  0.7824 -1.6673
 3230SOL     OW21322   2.686   0.859  16.299 -0.1734  0.0137  0.1616
 3230SOL    HW121323   2.672   0.881  16.207 -4.1197 -0.9306  0.5595
 3230SOL    HW221324   2.687   0.946  16.338 -1.7809  0.3945 -0.6585
 3231SOL     OW21325   1.379   4.544   1.290  0.2602  0.5345  0.1883
 3231SOL    HW121326   1.433   4.507   1.359  0.3406  0.7677  0.2515
 3231SOL    HW221327   1.458   4.557   1.237 -1.6380  1.0104 -2.5312
 3232SOL     OW21328   2.824   2.714   2.913 -0.5025  0.6574  0.5884
 3232SOL    HW121329   2.889   2.774   2.950  0.5011 -0.5965  0.8913
 3232SOL    HW221330   2.878   2.686   2.838 -0.1131 -0.5029  1.3003
 3233SOL     OW21331   4.656   1.696   5.850  0.1085 -0.0490 -0.2118
 3233SOL    HW121332   4.721   1.687   5.780 -1.1417  1.5386 -1.5882
 3233SOL    HW221333   4.578   1.682   5.796 -0.6077  0.4598  0.6899
 3234SOL     OW21334   0.915   3.706   7.506 -0.1049 -0.3663  0.3376
 3234SOL    HW121335   0.835   3.653   7.497 -0.7582  0.7677 -0.5552
 3234SOL    HW221336   0.981   3.648   7.470 -0.8731 -0.8239 -0.3435
 3235SOL     OW21337   4.130   1.333  14.106 -0.0747 -0.2659 -0.4313
 3235SOL    HW121338   4.093   1.380  14.181 -1.9036 -0.3282 -1.3079
 3235SOL    HW221339   4.223   1.353  14.120  0.6468 -3.0433 -1.1712
 3236SOL     OW21340   2.288   2.873   2.318 -0.1865  0.0453  0.4036
 3236SOL    HW121341   2.258   2.891   2.229 -0.9676 -3.2103 -0.0084
 3236SOL    HW221342   2.222   2.813   2.354  1.1829 -0.6540  1.7580
 3237SOL     OW21343   0.527   1.859   7.205 -0.3601  0.3789 -0.0421
 3237SOL    HW121344   0.597   1.919   7.183 -1.8159  1.4056 -1.8453
 3237SOL    HW221345   0.531   1.874   7.300 -0.5315  1.9621 -0.2921
 3238SOL     OW21346   1.337   1.948   3.698  0.4618  0.7587 -0.1447
 3238SOL    HW121347   1.423   1.914   3.675 -0.2189 -0.3283 -1.1113
 3238SOL    HW221348   1.370   2.032   3.728 -0.9266  1.9810 -1.9862
 3239SOL     OW21349   0.346   0.669   3.799  0.6332  0.0320 -0.1392
 3239SOL    HW121350   0.295   0.716   3.734  0.6314  1.5263  0.9465
 3239SOL    HW221351   0.332   0.706   3.886 -2.9611 -0.0141 -0.7275
 3240SOL     OW21352   1.720   2.369   7.334  0.1995  0.9189 -0.2105
 3240SOL    HW121353   1.660   2.438   7.363 -0.1491  1.4977 -2.2395
 3240SOL    HW221354   1.731   2.410   7.248 -0.4231 -0.1285 -0.7832
 3241SOL     OW21355   4.122   4.568   5.039  0.5405  0.2224  0.5027
 3241SOL    HW121356   4.103   4.641   4.979  1.2254 -1.0910 -1.3074
 3241SOL    HW221357   4.107   4.499   4.975 -1.9986  0.1849  1.1407
 3242SOL     OW21358   2.368   2.286   6.488 -0.2459  0.2363 -0.2718
 3242SOL    HW121359   2.343   2.199   6.457  0.2942  0.3800 -1.1162
 3242SOL    HW221360   2.463   2.289   6.471  0.1078  0.4327  1.7489
 3243SOL     OW21361   3.470   1.804  14.238  0.0129  0.2520  0.5690
 3243SOL    HW121362   3.540   1.791  14.174  0.1377  2.1595  0.3156
 3243SOL    HW221363   3.431   1.882  14.197 -1.0621  0.1014  1.3158
 3244SOL     OW21364   0.883   3.655   1.460 -0.1827 -0.3038  0.6245
 3244SOL    HW121365   0.955   3.663   1.397 -0.1436 -2.2891  0.4035
 3244SOL    HW221366   0.875   3.748   1.479  0.4830  0.3259 -2.1239
 3245SOL     OW21367   4.633   3.279   8.629 -0.0053 -0.4203  0.0780
 3245SOL    HW121368   4.563   3.342   8.645  0.1493 -1.1635  3.7528
 3245SOL    HW221369   4.589   3.195   8.646  0.8461 -0.9921 -0.5081
 3246SOL     OW21370   0.420   2.639   5.505  0.0455 -0.3129  0.0989
 3246SOL    HW121371   0.466   2.605   5.582 -0.2082 -1.3266 -0.1991
 3246SOL    HW221372   0.350   2.575   5.496  1.6655 -2.2085  0.8327
 3247SOL     OW21373   0.187   4.045   7.146  0.1824  0.0441  0.1062
 3247SOL    HW121374   0.190   4.119   7.085 -0.8795 -0.5315 -0.6541
 3247SOL    HW221375   0.279   4.024   7.129 -0.8188 -2.3188 -2.2691
 3248SOL     OW21376   0.761   0.969  16.236  0.1408 -0.4467 -0.2094
 3248SOL    HW121377   0.709   1.048  16.219 -0.4672 -1.1991 -1.8769
 3248SOL    HW221378   0.740   0.939  16.325  1.3702  1.6864  0.7892
 3249SOL     OW21379   3.093   1.770  10.300  0.3244  0.0010 -0.0442
 3249SOL    HW121380   3.175   1.774  10.349  0.1733  0.6922  0.1612
 3249SOL    HW221381   3.080   1.864  10.285 -0.1932  0.2155  1.8053
 3250SOL     OW21382   1.048   3.855   2.988  0.5716  0.0933 -0.2131
 3250SOL    HW121383   0.967   3.866   2.938  0.5179 -1.5788 -0.4915
 3250SOL    HW221384   1.083   3.942   2.971  0.2718 -0.0397 -1.4692
 3251SOL     OW21385   2.932   1.901   2.587 -0.1881 -0.3430 -0.6360
 3251SOL    HW121386   2.940   1.850   2.668 -3.1160 -1.6872 -1.2034
 3251SOL    HW221387   3.021   1.910   2.555  0.0653  0.0755  0.1760
 3252SOL     OW21388   0.067   0.468   6.364 -0.0199 -0.6246  0.5063
 3252SOL    HW121389   4.722   0.435   6.397  0.3227 -2.8588 -0.8556
 3252SOL    HW221390   0.090   0.401   6.299  1.0251  1.3811 -1.1660
 3253SOL     OW21391   2.041   1.226   7.945 -0.0447 -0.0246  0.6387
 3253SOL    HW121392   1.970   1.208   7.884  2.1149 -1.1305 -1.5586
 3253SOL    HW221393   2.083   1.140   7.946 -0.6345 -0.3273 -0.9228
 3254SOL     OW21394   3.521   0.456  16.641 -0.5122  0.0856  0.0253
 3254SOL    HW121395   3.610   0.486  16.658 -0.4440  0.4854 -1.0244
 3254SOL    HW221396   3.530   0.415  16.555 -1.1159  1.3562 -0.6362
 3255SOL     OW21397   1.735   1.414   6.277 -0.7020  0.0836 -0.6076
 3255SOL    HW121398   1.721   1.508   6.273 -0.4141  0.1190 -0.7806
 3255SOL    HW221399   1.694   1.399   6.362  0.0360 -1.1735 -0.4719
 3256SOL     OW21400   2.499   3.059   7.787 -0.2047  0.2436 -0.0546
 3256SOL    HW121401   2.499   2.965   7.775  1.9001  0.1170  0.9588
 3256SOL    HW221402   2.407   3.072   7.811 -1.2522 -3.6963 -2.0609
 3257SOL     OW21403   2.979   3.784   5.105 -0.9786 -0.0476  0.3448
 3257SOL    HW121404   3.071   3.758   5.104 -0.8282  0.5762 -2.4265
 3257SOL    HW221405   2.992   3.873   5.138 -1.2429  0.4941 -1.0370
 3258SOL     OW21406   2.697   0.627   6.282  0.2299 -0.4559 -0.5682
 3258SOL    HW121407   2.645   0.615   6.361 -0.8803  0.3204 -1.1805
 3258SOL    HW221408   2.643   0.606   6.206  0.6817 -1.4042 -0.6234
 3259SOL     OW21409   1.659   0.844   5.693 -0.1393 -0.2587  0.6653
 3259SOL    HW121410   1.591   0.899   5.733  0.7264  0.3183  1.3500
 3259SOL    HW221411   1.663   0.765   5.747 -1.0755  1.0818  2.6958
 3260SOL     OW21412   1.357   3.964   8.089 -0.1884  0.1286  0.0531
 3260SOL    HW121413   1.274   4.006   8.114  0.8335  2.2600 -0.2035
 3260SOL    HW221414   1.416   3.982   8.161 -1.5746 -0.0604  1.2375
 3261SOL     OW21415   0.196   0.242   3.014 -0.1134  0.3465  0.2176
 3261SOL    HW121416   0.247   0.167   2.986 -1.4868 -0.2656 -0.6357
 3261SOL    HW221417   0.113   0.195   3.016  0.8908 -1.3333  2.6964
 3262SOL     OW21418   2.366   0.887  10.267  0.4405 -0.4260 -0.1477
 3262SOL    HW121419   2.336   0.887  10.358  1.5188  1.6493  0.2199
 3262SOL    HW221420   2.414   0.969  10.278 -0.3443 -0.0916  0.8109
 3263SOL     OW21421   3.176   2.645   4.657 -0.2852 -0.3226 -0.0835
 3263SOL    HW121422   3.240   2.646   4.586 -0.0470  0.4769  0.1434
 3263SOL    HW221423   3.214   2.704   4.723 -0.3869  0.7325 -0.9643
 3264SOL     OW21424   4.201   2.051   4.192 -0.0539 -0.1830 -0.5293
 3264SOL    HW121425   4.203   2.125   4.253 -0.3827 -1.2566  0.7928
 3264SOL    HW221426   4.215   2.096   4.109 -1.5489  0.7721 -0.2509
 3265SOL     OW21427   0.226   3.348   4.806  0.2572 -0.4679  0.1039
 3265SOL    HW121428   0.190   3.366   4.893  1.1145 -0.7908  0.5356
 3265SOL    HW221429   0.318   3.343   4.834  0.7229 -1.2875 -1.5918
 3266SOL     OW21430   0.519   0.473   3.732  0.7386  0.2399 -0.6175
 3266SOL    HW121431   0.465   0.544   3.765  1.6800  0.0862  1.2808
 3266SOL    HW221432   0.488   0.396   3.781  0.7307  0.5456 -0.1460
 3267SOL     OW21433   4.247   3.754   4.721  0.7819  0.2244  0.1791
 3267SOL    HW121434   4.274   3.827   4.665 -0.0860  0.6310  0.2816
 3267SOL    HW221435   4.239   3.681   4.660  0.6783 -0.7385  1.3623
 3268SOL     OW21436   2.781   0.791  13.900  0.3100 -0.4510 -0.0820
 3268SOL    HW121437   2.803   0.791  13.993  0.9510  0.1981 -0.2299
 3268SOL    HW221438   2.830   0.869  13.874 -1.4019  1.8139  3.6218
 3269SOL     OW21439   1.622   2.948  15.727  0.6085 -0.1856  0.0966
 3269SOL    HW121440   1.547   2.928  15.783 -1.2331  3.3450 -1.1023
 3269SOL    HW221441   1.640   2.856  15.709 -0.1162 -0.2736 -0.1828
 3270SOL     OW21442   2.936   4.736  11.732 -0.0340  0.4735 -0.2325
 3270SOL    HW121443   2.880   0.051  11.675 -2.4266  0.5007  2.1673
 3270SOL    HW221444   2.973   0.056  11.798 -0.6495 -0.5737  1.0429
 3271SOL     OW21445   1.450   1.932   0.876  0.0947  0.2841 -0.4753
 3271SOL    HW121446   1.522   1.871   0.883  0.4920  0.9141  0.9770
 3271SOL    HW221447   1.458   1.949   0.782  2.5038  2.0946  0.0554
 3272SOL     OW21448   0.568   3.621   1.991  0.1565 -0.0145  0.6050
 3272SOL    HW121449   0.602   3.551   2.046 -1.5892  0.4472  2.2914
 3272SOL    HW221450   0.644   3.679   1.991 -0.9383  1.4262 -0.0051
 3273SOL     OW21451   2.054   0.114   3.186  0.1599 -0.4909 -0.3577
 3273SOL    HW121452   2.138   0.083   3.221 -1.2174 -0.3766  2.9978
 3273SOL    HW221453   2.076   0.100   3.094  1.0274 -2.7092  0.2086
 3274SOL     OW21454   1.306   1.325  14.953 -0.1315  0.4233  0.3444
 3274SOL    HW121455   1.378   1.382  14.979  1.0848 -0.7418 -0.5240
 3274SOL    HW221456   1.327   1.237  14.982  1.5288  0.8832  0.5473
 3275SOL     OW21457   1.851   0.538  13.688  0.3263 -0.4435 -0.5445
 3275SOL    HW121458   1.761   0.525  13.658 -0.7719 -0.2873  2.7220
 3275SOL    HW221459   1.885   0.578  13.608  0.1171  2.4557  0.8282
 3276SOL     OW21460   0.806   3.391   8.995 -0.1476  0.1000 -0.5979
 3276SOL    HW121461   0.808   3.369   9.088 -0.5019  2.4966 -0.0293
 3276SOL    HW221462   0.759   3.318   8.954 -0.4626 -1.4142  2.4940
 3277SOL     OW21463   1.145   0.731   9.321 -0.2221 -0.4151  0.6100
 3277SOL    HW121464   1.148   0.815   9.365 -2.0222 -0.8008  1.4284
 3277SOL    HW221465   1.053   0.735   9.296  0.0139 -1.6800 -0.4804
 3278SOL     OW21466   3.676   2.890   9.124 -0.3484  0.0404  0.5791
 3278SOL    HW121467   3.674   2.821   9.058  1.2195 -0.7011  1.3017
 3278SOL    HW221468   3.672   2.971   9.072 -2.4621  0.6762  1.7177
 3279SOL     OW21469   3.813   0.746   4.714  0.1082 -0.8296  0.0918
 3279SOL    HW121470   3.853   0.707   4.635 -0.9964 -3.5592  0.8659
 3279SOL    HW221471   3.865   0.704   4.783 -0.9584  0.7882  1.8681
 3280SOL     OW21472   1.659   2.555   1.875  0.8768 -0.3055  0.6596
 3280SOL    HW121473   1.601   2.494   1.829  1.7074 -1.3524  0.9952
 3280SOL    HW221474   1.598   2.614   1.918  0.4078 -0.5583  0.3327
 3281SOL     OW21475   4.710   0.845   9.205  0.8190  0.2389  0.0557
 3281SOL    HW121476   4.645   0.864   9.272  1.7603  1.7492  0.5504
 3281SOL    HW221477   0.051   0.845   9.258 -0.5669  1.3736  2.1054
 3282SOL     OW21478   0.482   1.842   8.390  0.3329  0.2906  0.9243
 3282SOL    HW121479   0.505   1.891   8.469  1.3162 -0.1743  0.9302
 3282SOL    HW221480   0.507   1.901   8.320 -2.3234  1.3582  0.8835
 3283SOL     OW21481   0.674   0.823   8.120 -0.8635  0.1405  0.1244
 3283SOL    HW121482   0.637   0.737   8.101  0.3804 -0.0315 -1.5994
 3283SOL    HW221483   0.715   0.836   8.034 -0.6721 -0.7390  0.0810
 3284SOL     OW21484   3.555   1.162   3.666 -0.2220  0.2596  0.0202
 3284SOL    HW121485   3.644   1.195   3.656  1.0848 -3.3142 -0.1923
 3284SOL    HW221486   3.522   1.226   3.729 -0.3483 -0.0704  0.2941
 3285SOL     OW21487   4.549   0.401   5.280 -0.2238  0.6759 -0.2188
 3285SOL    HW121488   4.563   0.351   5.200 -2.4443 -0.6717  0.2268
 3285SOL    HW221489   4.471   0.453   5.262 -1.5739 -1.3458 -0.2536
 3286SOL     OW21490   2.784   3.535   7.929  0.2997  0.2342  0.2014
 3286SOL    HW121491   2.765   3.443   7.911  1.6535 -0.0622  0.3241
 3286SOL    HW221492   2.698   3.576   7.918 -0.0035 -0.0595  1.4622
 3287SOL     OW21493   0.221   1.548   3.941 -0.4756 -0.3374  0.3349
 3287SOL    HW121494   0.299   1.554   3.996  0.5011 -0.5430 -1.0255
 3287SOL    HW221495   0.211   1.639   3.914  0.7781 -0.1472  0.5467
 3288SOL     OW21496   0.498   2.830  11.991  0.3075 -0.1200  0.1669
 3288SOL    HW121497   0.459   2.868  11.911  0.5570 -0.3222 -0.0504
 3288SOL    HW221498   0.515   2.742  11.958 -0.3040  0.1417 -0.8695
 3289SOL     OW21499   1.248   3.425   3.204  0.5588  0.2758  0.0254
 3289SOL    HW121500   1.263   3.425   3.298  1.9958  1.3646 -0.2150
 3289SOL    HW221501   1.268   3.517   3.187 -4.3536  1.2238 -0.7725
 3290SOL     OW21502   0.050   3.512   7.595 -0.0413  0.8436 -0.4325
 3290SOL    HW121503   0.034   3.496   7.502 -0.0678  1.4249 -0.5315
 3290SOL    HW221504   0.084   3.432   7.634  3.4450  3.2457  1.4285
 3291SOL     OW21505   2.458   2.805   7.153  0.5148 -0.0744 -0.0888
 3291SOL    HW121506   2.424   2.753   7.226  1.7732  0.9959  1.2578
 3291SOL    HW221507   2.384   2.820   7.094  1.6467  2.4830 -0.8327
 3292SOL     OW21508   2.669   4.724   4.577 -0.3850  0.6715  1.0158
 3292SOL    HW121509   2.728   0.029   4.515 -3.0079  1.6202 -0.8070
 3292SOL    HW221510   2.727   4.698   4.649  1.2416 -0.4063 -0.6683
 3293SOL     OW21511   2.258   2.809   9.652 -0.3262 -0.0130  0.1087
 3293SOL    HW121512   2.272   2.736   9.712 -0.5264  0.4561  0.7284
 3293SOL    HW221513   2.291   2.881   9.707 -0.2234 -1.1951  1.5933
 3294SOL     OW21514   3.704   2.985   7.042 -0.3167  0.3359  0.4352
 3294SOL    HW121515   3.763   2.910   7.053 -2.5752 -1.4066  0.4998
 3294SOL    HW221516   3.695   3.013   7.133  2.2740 -0.5200  0.9749
 3295SOL     OW21517   4.664   1.568   9.719 -0.3066  0.2895  0.3671
 3295SOL    HW121518   4.614   1.624   9.660 -0.0137 -0.0075 -0.1569
 3295SOL    HW221519   4.674   1.484   9.674  0.2646  0.2780  0.5176
 3296SOL     OW21520   1.703   0.345   3.923 -0.3086 -0.4455  0.6856
 3296SOL    HW121521   1.622   0.388   3.896  1.1109  2.4264  1.0144
 3296SOL    HW221522   1.767   0.389   3.868 -1.5160  0.0892 -0.2654
 3297SOL     OW21523   0.580   2.336  11.253 -0.3137  0.0261  0.1650
 3297SOL    HW121524   0.629   2.416  11.236 -1.7479  1.3368  2.1291
 3297SOL    HW221525   0.529   2.336  11.172  1.6909  0.3708 -1.0886
 3298SOL     OW21526   0.839   2.197   9.027 -0.2252  0.2265  0.1159
 3298SOL    HW121527   0.853   2.131   8.959 -0.5070 -1.1686  1.4129
 3298SOL    HW221528   0.924   2.241   9.030  0.1038 -0.4047  0.1453
 3299SOL     OW21529   2.905   3.790   9.469 -0.4736  0.9076 -0.4780
 3299SOL    HW121530   2.847   3.790   9.545  1.0049  3.2192  0.6351
 3299SOL    HW221531   2.833   3.808   9.407 -1.7092 -0.4559  0.5615
 3300SOL     OW21532   1.921   0.528  17.169  0.0742 -0.5927 -0.1134
 3300SOL    HW121533   1.926   0.569  17.083  1.0571  0.2531  0.3414
 3300SOL    HW221534   1.878   0.446  17.144  1.1343 -0.6557 -1.6982
 3301SOL     OW21535   0.248   2.522   3.907 -0.2891  0.1275 -0.4021
 3301SOL    HW121536   0.261   2.553   3.997  0.0533  0.5093 -0.5830
 3301SOL    HW221537   0.245   2.426   3.908  1.4027  0.0865  1.2183
 3302SOL     OW21538   0.887   1.160  14.782  0.2936 -0.9106  0.0856
 3302SOL    HW121539   0.962   1.217  14.765 -0.4039 -0.5586 -1.7966
 3302SOL    HW221540   0.910   1.128  14.869  3.1163  0.3300 -0.2231
 3303SOL     OW21541   0.899   2.159   7.231  0.1251  0.4651 -0.2588
 3303SOL    HW121542   0.956   2.094   7.273  0.0236 -0.7474 -1.9848
 3303SOL    HW221543   0.841   2.109   7.173  0.6020 -0.0458 -0.2984
 3304SOL     OW21544   2.212   3.612   4.605 -0.2493  0.0878  0.2277
 3304SOL    HW121545   2.266   3.667   4.547 -1.2096 -1.1200 -1.8130
 3304SOL    HW221546   2.131   3.649   4.568  0.9177  0.5546 -1.8760
 3305SOL     OW21547   1.741   3.894   6.341  0.3683  0.3551  0.4145
 3305SOL    HW121548   1.834   3.915   6.350  0.4961 -0.5202  1.1815
 3305SOL    HW221549   1.702   3.978   6.365  1.6194  0.8286  0.7540
 3306SOL     OW21550   3.512   1.884   5.736  0.2958 -0.1221  0.0484
 3306SOL    HW121551   3.437   1.835   5.702  0.5061 -1.9592  2.2415
 3306SOL    HW221552   3.468   1.964   5.763 -0.1862 -1.2697  2.6992
 3307SOL     OW21553   4.198   3.594   3.345  0.1577  0.2458  0.6458
 3307SOL    HW121554   4.188   3.594   3.250 -0.0782 -1.6242  0.6721
 3307SOL    HW221555   4.136   3.531   3.381 -0.3247  1.2709  1.5900
 3308SOL     OW21556   1.516   0.398   8.491  0.3876  0.2485 -0.2150
 3308SOL    HW121557   1.502   0.304   8.488 -1.3414  0.5953 -2.4577
 3308SOL    HW221558   1.545   0.428   8.578  0.0358 -0.0000 -0.0121
 3309SOL     OW21559   0.307   2.631   8.987  0.2787 -0.1584  0.0955
 3309SOL    HW121560   0.300   2.539   8.960 -2.3333  0.4270 -1.1626
 3309SOL    HW221561   0.336   2.667   8.903  1.2340 -1.2756 -0.0645
 3310SOL     OW21562   0.685   1.911   9.469 -0.2866  0.0442  0.1042
 3310SOL    HW121563   0.762   1.968   9.469 -1.2590  1.3345 -1.8975
 3310SOL    HW221564   0.669   1.908   9.375  2.1349  0.8027 -0.3543
 3311SOL     OW21565   2.370   3.914  14.142  0.0515  0.2812  0.3365
 3311SOL    HW121566   2.316   3.991  14.124 -1.6496 -1.4947 -2.1925
 3311SOL    HW221567   2.395   3.930  14.233 -0.2636 -0.4760  0.5577
 3312SOL     OW21568   3.115   2.085  14.351  0.2655  0.3059  0.2942
 3312SOL    HW121569   3.092   2.086  14.258  2.3852  2.7001 -0.2003
 3312SOL    HW221570   3.054   2.017  14.380 -0.7395  1.9787  2.1441
 3313SOL     OW21571   2.084   3.853   4.740 -0.4911 -0.4060  0.4791
 3313SOL    HW121572   2.026   3.929   4.746  0.3291  0.1900  0.9336
 3313SOL    HW221573   2.057   3.829   4.652 -3.7525 -1.2386  1.7103
 3314SOL     OW21574   4.698   0.992  15.938  0.1178 -0.2554 -0.5305
 3314SOL    HW121575   4.698   0.961  15.847 -0.0061 -2.1224  0.1012
 3314SOL    HW221576   4.633   1.061  15.924  0.0207 -0.0571  0.9661
 3315SOL     OW21577   1.796   1.344  15.207 -0.0521 -0.2573 -0.2526
 3315SOL    HW121578   1.892   1.343  15.217 -0.1423 -0.0163  0.6697
 3315SOL    HW221579   1.789   1.293  15.127  0.9302 -0.7760 -0.0109
 3316SOL     OW21580   3.669   0.157  10.105 -0.9841 -0.4037  0.0965
 3316SOL    HW121581   3.690   0.115  10.021 -0.7617 -0.7174  0.3091
 3316SOL    HW221582   3.657   0.086  10.168 -1.7647  0.7376  1.2272
 3317SOL     OW21583   0.469   2.605   8.168 -0.3044 -0.4559 -0.5102
 3317SOL    HW121584   0.536   2.564   8.113  1.2649  0.3309  0.7729
 3317SOL    HW221585   0.500   2.695   8.165 -2.3391  0.2576  0.0756
 3318SOL     OW21586   1.136   0.964   9.510  0.1471 -0.2478 -0.2180
 3318SOL    HW121587   1.079   0.947   9.585  0.3986  0.9395  0.2399
 3318SOL    HW221588   1.143   1.059   9.510  0.0611 -0.2331  1.6284
 3319SOL     OW21589   4.294   4.462   6.006  0.4588 -0.4152 -0.0487
 3319SOL    HW121590   4.297   4.483   5.913 -0.1160  2.1033  0.4885
 3319SOL    HW221591   4.306   4.367   6.010 -1.3876 -0.7320 -2.1177
 3320SOL     OW21592   2.818   3.175   4.278  0.0046 -0.0285 -0.1326
 3320SOL    HW121593   2.742   3.228   4.300  2.3097  2.6209  1.3486
 3320SOL    HW221594   2.882   3.244   4.261  2.6056 -2.2944  0.4045
 3321SOL     OW21595   2.211   3.642   9.374  0.3558  0.0352 -0.3116
 3321SOL    HW121596   2.147   3.663   9.306 -1.3212 -1.1506  0.8837
 3321SOL    HW221597   2.188   3.708   9.439 -0.8703  0.8146 -1.5269
 3322SOL     OW21598   2.341   1.826   7.319  0.8284  0.5189  0.5477
 3322SOL    HW121599   2.393   1.779   7.254 -1.8426  0.6594 -1.7006
 3322SOL    HW221600   2.323   1.907   7.271 -0.7085  1.6538  3.0181
 3323SOL     OW21601   2.719   1.946  16.898 -0.4665 -0.8653 -0.8189
 3323SOL    HW121602   2.662   1.977  16.827 -0.5130  0.1627 -0.3246
 3323SOL    HW221603   2.803   1.985  16.871 -0.5602 -0.9461 -1.2340
 3324SOL     OW21604   4.375   2.142  12.291 -0.0155 -0.3931 -0.0964
 3324SOL    HW121605   4.315   2.145  12.365  0.1286 -0.0077  0.0075
 3324SOL    HW221606   4.368   2.050  12.265 -0.5521 -1.2608  3.1741
 3325SOL     OW21607   3.461   2.548   2.406 -0.7827 -0.0019  0.4179
 3325SOL    HW121608   3.510   2.542   2.488  0.2303 -0.1908 -0.1979
 3325SOL    HW221609   3.537   2.529   2.351 -0.0921 -1.1172  1.7519
 3326SOL     OW21610   0.225   1.276   0.176  0.1421  0.3512 -0.1381
 3326SOL    HW121611   0.225   1.180   0.172  0.7695  0.4048 -1.4375
 3326SOL    HW221612   0.296   1.304   0.118 -1.3240  3.8237 -0.2311
 3327SOL     OW21613   0.085   0.333   8.455 -0.0205 -1.1307  1.0695
 3327SOL    HW121614   0.175   0.361   8.473 -0.7330  1.9727 -0.1870
 3327SOL    HW221615   0.074   0.370   8.368  1.7697 -1.9278  0.5042
 3328SOL     OW21616   2.520   0.735  13.852 -0.6150 -0.6106 -0.0199
 3328SOL    HW121617   2.614   0.733  13.873 -0.5568  2.2689 -0.0203
 3328SOL    HW221618   2.480   0.743  13.939 -0.8584 -2.0203  0.0014
 3329SOL     OW21619   0.513   0.110   7.951 -0.3526 -0.3929  0.3958
 3329SOL    HW121620   0.538   0.139   8.039 -0.8734 -0.5477  0.6000
 3329SOL    HW221621   0.530   0.016   7.960  1.4156 -0.0150  0.8232
 3330SOL     OW21622   1.295   0.403   1.272 -0.4873 -0.3110  0.1407
 3330SOL    HW121623   1.262   0.485   1.307 -0.6311  0.1982 -1.2292
 3330SOL    HW221624   1.234   0.378   1.203 -0.1082 -1.2419  0.1291
 3331SOL     OW21625   4.253   2.707  12.028 -0.5666 -0.5922 -0.1053
 3331SOL    HW121626   4.328   2.650  12.011  1.1878  0.4249  4.3264
 3331SOL    HW221627   4.234   2.714  11.934 -1.6913  1.2540  0.2618
 3332SOL     OW21628   1.049   3.764   7.751 -0.4416 -0.0998 -0.3550
 3332SOL    HW121629   1.139   3.755   7.720 -0.8637  1.1973 -1.9855
 3332SOL    HW221630   0.999   3.707   7.692  1.9936 -3.5876  0.9678
 3333SOL     OW21631   0.769   1.719   7.616 -0.1086  0.2859  0.0571
 3333SOL    HW121632   0.820   1.706   7.536 -0.3639 -2.8738  0.4053
 3333SOL    HW221633   0.687   1.751   7.580 -0.3368  0.2033  0.5113
 3334SOL     OW21634   0.166   2.299   4.985  0.2904 -0.6975 -0.0092
 3334SOL    HW121635   0.148   2.255   5.068 -0.9729 -0.9478 -0.4047
 3334SOL    HW221636   0.234   2.240   4.951 -1.3338 -2.4035 -0.3338
 3335SOL     OW21637   0.187   3.949  15.292  0.3573  0.6040 -0.5407
 3335SOL    HW121638   0.105   3.995  15.275  2.3100  4.5400  0.6474
 3335SOL    HW221639   0.199   3.981  15.382 -0.6782  1.1884 -0.6023
 3336SOL     OW21640   0.978   3.096   5.793  0.1087  0.2583 -0.0471
 3336SOL    HW121641   1.016   3.054   5.871  0.1414 -1.1661 -0.8364
 3336SOL    HW221642   0.952   3.014   5.751 -1.1523  1.8130 -2.3176
 3337SOL     OW21643   4.423   1.667   2.852 -0.6556  0.0780  0.0468
 3337SOL    HW121644   4.407   1.592   2.910 -1.8926 -0.6786 -1.2729
 3337SOL    HW221645   4.516   1.683   2.867 -0.3293 -1.2905 -0.4837
 3338SOL     OW21646   3.716   0.370   9.494 -0.2907 -0.5689  0.1726
 3338SOL    HW121647   3.802   0.412   9.493  1.3880 -4.0201  0.5287
 3338SOL    HW221648   3.680   0.420   9.420  0.5683  0.1365  0.2232
 3339SOL     OW21649   3.476   2.066   6.064 -0.0207  0.4993  0.0566
 3339SOL    HW121650   3.504   2.128   5.997  2.4575 -1.2855 -0.6080
 3339SOL    HW221651   3.387   2.097   6.080 -0.9308 -1.5272 -1.0098
 3340SOL     OW21652   0.435   4.046   8.144 -0.5750 -0.0309 -0.0746
 3340SOL    HW121653   0.358   4.006   8.104 -1.0098 -0.2768  0.9845
 3340SOL    HW221654   0.399   4.121   8.192  0.6211  0.5759 -0.1121
 3341SOL     OW21655   1.793   2.097   9.561  0.3467  0.1557 -0.1202
 3341SOL    HW121656   1.714   2.149   9.573  0.5296  0.9452 -2.3765
 3341SOL    HW221657   1.776   2.004   9.544  2.3626 -0.1371 -0.5807
 3342SOL     OW21658   1.557   1.321   3.227 -0.0682  0.1153 -0.2056
 3342SOL    HW121659   1.496   1.251   3.206  0.5978 -0.4310 -0.3272
 3342SOL    HW221660   1.499   1.395   3.243  0.5159  0.1838  1.5811
 3343SOL     OW21661   1.964   3.080   9.788  0.5080 -0.3225  0.2219
 3343SOL    HW121662   2.012   3.040   9.716  2.0401  0.2691  0.9035
 3343SOL    HW221663   1.928   3.157   9.745  1.7811 -0.1840 -0.5824
 3344SOL     OW21664   2.697   3.646   9.260 -0.0229 -0.4126 -0.5867
 3344SOL    HW121665   2.618   3.675   9.306  0.6703  1.3729 -0.5388
 3344SOL    HW221666   2.665   3.569   9.212 -2.5196  0.9607 -1.1030
 3345SOL     OW21667   0.854   0.865  12.605  0.3911  0.1151  0.1533
 3345SOL    HW121668   0.919   0.813  12.558 -1.0743 -0.7760 -0.9098
 3345SOL    HW221669   0.789   0.795  12.618  1.5266 -1.2111 -1.3685
 3346SOL     OW21670   0.757   3.067   3.110  0.1128 -0.1787  0.1927
 3346SOL    HW121671   0.715   2.998   3.059 -1.4646  0.2567  0.9155
 3346SOL    HW221672   0.717   3.147   3.074 -2.6840 -0.6241  2.3424
 3347SOL     OW21673   2.525   2.700   9.169 -0.5717 -0.3976  0.5177
 3347SOL    HW121674   2.513   2.656   9.254 -0.3056 -1.5673 -0.0395
 3347SOL    HW221675   2.560   2.785   9.195 -2.0429 -0.2079  1.8653
 3348SOL     OW21676   0.728   0.412   5.823 -0.4266 -0.1180 -0.0298
 3348SOL    HW121677   0.762   0.500   5.840  1.1464 -0.3945 -1.6739
 3348SOL    HW221678   0.637   0.427   5.847  0.5250  2.5884  1.8674
 3349SOL     OW21679   1.754   1.857   6.423  0.4824 -0.6919 -0.3745
 3349SOL    HW121680   1.676   1.814   6.458 -0.1734 -1.0602 -2.3301
 3349SOL    HW221681   1.740   1.840   6.330  0.0421  0.6859 -0.5501
 3350SOL     OW21682   1.068   3.299   6.026 -0.0112  0.0157  0.8144
 3350SOL    HW121683   1.012   3.362   5.981 -1.7281 -3.0762 -1.3755
 3350SOL    HW221684   1.153   3.341   6.015 -0.6424  1.8753  3.0625
 3351SOL     OW21685   0.779   2.784   7.677 -0.8471 -0.2403  0.3205
 3351SOL    HW121686   0.870   2.771   7.652 -0.8884  0.4874 -0.2287
 3351SOL    HW221687   0.731   2.748   7.602 -2.3242  0.1434  1.0760
 3352SOL     OW21688   4.547   4.247   5.516 -0.5872 -0.2501 -0.4320
 3352SOL    HW121689   4.463   4.235   5.470 -1.5652 -0.7669  1.5077
 3352SOL    HW221690   4.610   4.251   5.444  1.0817 -0.0556  1.0770
 3353SOL     OW21691   0.714   0.053   6.958 -0.6565  0.0395  0.0548
 3353SOL    HW121692   0.677   0.096   6.881 -1.4943 -3.3455 -1.4518
 3353SOL    HW221693   0.737   0.128   7.013 -0.1852  0.3005 -0.4984
 3354SOL     OW21694   0.184   2.539   5.239 -0.2471  0.5698  0.7922
 3354SOL    HW121695   0.180   2.445   5.253  0.2393  0.2611 -1.2452
 3354SOL    HW221696   0.173   2.577   5.326  0.4267  2.7578 -0.0770
 3355SOL     OW21697   1.396   1.822   7.876  0.2547  0.1933  0.4849
 3355SOL    HW121698   1.405   1.917   7.881 -0.2069  0.2673 -0.0213
 3355SOL    HW221699   1.334   1.800   7.945 -0.4594 -0.2340 -0.2969
 3356SOL     OW21700   3.031   2.912   3.214 -0.2140 -0.2865  0.0448
 3356SOL    HW121701   2.991   2.864   3.286 -1.0132  0.5883  0.1848
 3356SOL    HW221702   3.024   3.000   3.251  1.4230  0.7035 -1.9642
 3357SOL     OW21703   4.192   1.943   3.455  0.3269  0.2079  0.1243
 3357SOL    HW121704   4.140   2.010   3.499 -2.0158 -1.1145 -0.6235
 3357SOL    HW221705   4.209   1.996   3.377 -2.0325 -2.0541 -1.9315
 3358SOL     OW21706   2.798   0.377   3.577 -0.2471 -0.1228  0.0945
 3358SOL    HW121707   2.842   0.452   3.617  2.7679 -1.3576 -0.9150
 3358SOL    HW221708   2.801   0.312   3.647 -0.5851 -1.8481 -1.4944
 3359SOL     OW21709   2.260   2.912  10.360 -0.2185 -0.1277  0.3145
 3359SOL    HW121710   2.247   2.838  10.300  1.1743  0.8520 -1.2044
 3359SOL    HW221711   2.175   2.933  10.398 -0.6960 -0.0825 -0.7773
 3360SOL     OW21712   0.321   4.044   2.605 -0.3625 -0.2162 -0.3410
 3360SOL    HW121713   0.280   4.063   2.521 -0.9725  0.5212  0.1271
 3360SOL    HW221714   0.261   3.984   2.648  1.4306  1.2950  4.2996
 3361SOL     OW21715   0.418   0.510  12.724 -0.1712  0.2336 -0.3241
 3361SOL    HW121716   0.393   0.419  12.742  1.1286 -0.4611 -2.0134
 3361SOL    HW221717   0.343   0.557  12.761 -1.5369 -1.5282 -0.8438
 3362SOL     OW21718   4.731   2.323   4.773 -0.3798  0.5064 -0.0770
 3362SOL    HW121719   4.694   2.410   4.791  0.8342  1.1595 -0.7639
 3362SOL    HW221720   0.060   2.312   4.839 -2.3188 -0.5901  1.7414
 3363SOL     OW21721   0.185   4.030  10.798  0.3103  0.3607  0.4491
 3363SOL    HW121722   0.142   4.077  10.870  0.7661 -1.9091  2.1895
 3363SOL    HW221723   0.215   4.096  10.735  0.4301 -1.5540 -1.5149
 3364SOL     OW21724   2.505   0.936  12.071 -0.2183 -0.1184  0.1595
 3364SOL    HW121725   2.563   0.888  12.129 -0.4980 -1.1611 -0.4272
 3364SOL    HW221726   2.551   0.932  11.987  2.6711 -0.0414  1.7339
 3365SOL     OW21727   0.631   2.127   0.627 -1.0710  0.2095 -0.1458
 3365SOL    HW121728   0.674   2.096   0.547 -0.9295  0.3787 -0.1354
 3365SOL    HW221729   0.646   2.221   0.625 -1.6120  0.3575  3.1355
 3366SOL     OW21730   2.196   4.618   5.815 -0.3669 -0.2647 -0.1647
 3366SOL    HW121731   2.102   4.602   5.828 -0.6766  2.4315  0.9726
 3366SOL    HW221732   2.200   4.704   5.773  0.9811 -0.5401 -0.6008
 3367SOL     OW21733   0.743   4.424   2.392 -0.3318 -0.3716 -0.1167
 3367SOL    HW121734   0.765   4.411   2.300 -0.5245  0.9209 -0.3444
 3367SOL    HW221735   0.726   4.331   2.407  0.7252 -0.7423 -1.2092
 3368SOL     OW21736   3.425   0.087  14.773  0.4781 -0.3266  0.0517
 3368SOL    HW121737   3.480   0.132  14.708  0.1716 -0.0161  0.0036
 3368SOL    HW221738   3.472   0.100  14.856  0.4828  1.2765 -0.2007
 3369SOL     OW21739   2.364   0.927   3.156  0.2881  0.6317 -0.3120
 3369SOL    HW121740   2.358   0.985   3.232  2.7720 -1.0954  1.2165
 3369SOL    HW221741   2.400   0.983   3.087 -3.5816  3.5798  0.0632
 3370SOL     OW21742   0.875   0.152   6.196  0.1514 -0.0576  0.0746
 3370SOL    HW121743   0.919   0.141   6.280  0.9127 -2.3319 -0.6296
 3370SOL    HW221744   0.843   0.062   6.201 -0.6708  0.1233 -2.1362
 3371SOL     OW21745   1.198   4.702   5.907 -0.3402 -0.0990  0.0977
 3371SOL    HW121746   1.178   0.055   5.921 -1.0811 -0.3978  1.0082
 3371SOL    HW221747   1.207   4.665   5.995  0.5154 -2.3694 -0.9390
 3372SOL     OW21748   2.589   4.271   7.357  0.1352 -0.3898  0.0174
 3372SOL    HW121749   2.603   4.185   7.395 -2.1715 -0.6533  0.2297
 3372SOL    HW221750   2.661   4.318   7.401 -2.0580  0.8404  2.2902
 3373SOL     OW21751   4.679   4.299   3.137  0.3252  0.0507 -0.4656
 3373SOL    HW121752   4.658   4.250   3.217 -0.5990  0.9798 -0.1386
 3373SOL    HW221753   4.726   4.236   3.082 -0.2529 -0.7016 -0.0980
 3374SOL     OW21754   4.460   3.637   3.235  0.3356 -0.0644 -0.3918
 3374SOL    HW121755   4.487   3.685   3.313 -1.3706 -0.2115  0.2942
 3374SOL    HW221756   4.423   3.567   3.289 -1.5614  0.2922 -1.1937
 3375SOL     OW21757   0.266   2.179   6.690  0.5944  0.0974  0.2121
 3375SOL    HW121758   0.284   2.092   6.724 -1.6544 -0.5613 -0.3050
 3375SOL    HW221759   0.192   2.191   6.749 -0.1416  0.9714 -0.8953
 3376SOL     OW21760   3.777   2.284   2.599  0.0703 -0.1538 -0.8045
 3376SOL    HW121761   3.788   2.221   2.528 -1.7939 -0.9228 -0.4161
 3376SOL    HW221762   3.711   2.243   2.654  0.3992 -1.2766 -1.2322
 3377SOL     OW21763   0.452   0.771   5.916 -0.3025  0.3100 -0.0346
 3377SOL    HW121764   0.376   0.828   5.931  0.0494  0.7957 -0.0856
 3377SOL    HW221765   0.525   0.816   5.959  1.5668 -3.2161  0.4343
 3378SOL     OW21766   1.285   3.214   8.809 -0.2108 -0.4941  0.5822
 3378SOL    HW121767   1.378   3.234   8.818 -0.4408  0.7117  0.2299
 3378SOL    HW221768   1.236   3.236   8.887  0.2265  0.8671  0.4752
 3379SOL     OW21769   0.134   3.783   5.054  0.1521 -0.0684  0.0876
 3379SOL    HW121770   0.058   3.725   5.060  1.2437 -1.1580  3.5151
 3379SOL    HW221771   0.105   3.838   4.981 -3.0262 -1.8901 -0.0386
 3380SOL     OW21772   3.535   3.682   9.302 -0.6565  0.1894 -0.6173
 3380SOL    HW121773   3.472   3.675   9.230 -1.0569 -1.7881 -0.0767
 3380SOL    HW221774   3.477   3.664   9.376  1.1134  2.4590  1.3169
 3381SOL     OW21775   1.587   0.753   8.390  0.1616 -0.3605 -0.1018
 3381SOL    HW121776   1.576   0.671   8.343 -1.6495 -1.5629  2.3896
 3381SOL    HW221777   1.563   0.815   8.322 -0.7293 -1.0704 -0.4310
 3382SOL     OW21778   2.121   0.445  11.014  0.4466  0.1992  0.5191
 3382SOL    HW121779   2.191   0.491  10.968  0.7603 -1.1692 -0.3955
 3382SOL    HW221780   2.174   0.375  11.053  1.3693  0.7991  0.3449
 3383SOL     OW21781   4.052   4.154   8.764 -0.0909 -0.4214 -0.1940
 3383SOL    HW121782   4.121   4.217   8.787  0.1226 -0.4961 -0.6293
 3383SOL    HW221783   4.102   4.104   8.700  0.5493 -1.2927  0.9995
 3384SOL     OW21784   0.096   1.256   3.405  0.2394  0.3912  1.1339
 3384SOL    HW121785   0.038   1.310   3.351 -0.3103 -2.3745 -0.9878
 3384SOL    HW221786   0.049   1.255   3.489 -2.9563  0.2461 -0.6775
 3385SOL     OW21787   0.194   0.735   8.971  0.4710  0.0970  0.0721
 3385SOL    HW121788   0.256   0.808   8.980 -0.5698  1.0917 -0.9904
 3385SOL    HW221789   0.251   0.657   8.971 -1.7073 -1.4973  1.0632
 3386SOL     OW21790   3.027   1.088  14.304  0.1693 -0.9062  0.6544
 3386SOL    HW121791   3.022   1.177  14.269 -0.6493 -0.4726  1.8746
 3386SOL    HW221792   2.936   1.064  14.321 -0.5716  1.1949 -0.3415
 3387SOL     OW21793   0.179   4.653   7.693 -0.5272 -0.0052  0.1215
 3387SOL    HW121794   0.148   4.627   7.606 -0.5260 -0.1620  0.1683
 3387SOL    HW221795   0.101   4.700   7.721 -0.2151  1.4957 -1.5067
 3388SOL     OW21796   4.136   0.886   6.625 -0.0354  0.2175 -0.0772
 3388SOL    HW121797   4.181   0.862   6.544 -0.0586  1.0786 -0.3457
 3388SOL    HW221798   4.054   0.837   6.623 -0.0384  0.2359 -0.4327
 3389SOL     OW21799   2.601   0.376   4.912  0.6518  0.3689 -0.0378
 3389SOL    HW121800   2.688   0.392   4.875  0.8062 -1.3080 -0.4300
 3389SOL    HW221801   2.604   0.280   4.917  0.2689  0.3110 -0.8226
 3390SOL     OW21802   0.368   0.101   0.169  0.6020  0.3642  0.0273
 3390SOL    HW121803   0.397   0.012   0.189  1.1319  0.2976 -1.0003
 3390SOL    HW221804   0.450   0.143   0.141 -0.1402  2.0853  0.4701
 3391SOL     OW21805   2.627   0.523   2.160  0.2895  0.0372  0.2506
 3391SOL    HW121806   2.706   0.474   2.183 -1.4070 -1.5072  2.8081
 3391SOL    HW221807   2.648   0.601   2.211 -1.2399  1.1402 -0.8213
 3392SOL     OW21808   0.622   2.773  17.751  0.3538 -0.0492  0.1421
 3392SOL    HW121809   0.566   2.847   0.022  0.6839  0.6020 -1.1266
 3392SOL    HW221810   0.578   2.731  17.678 -0.4015  1.1253 -0.0728
 3393SOL     OW21811   2.383   0.465   4.803 -1.0092 -0.4520  0.0742
 3393SOL    HW121812   2.405   0.449   4.711  0.3415 -1.8314  0.6501
 3393SOL    HW221813   2.465   0.437   4.844 -1.9884 -1.3692  1.3745
 3394SOL     OW21814   0.611   1.776   4.605 -0.9124  0.1417 -0.5880
 3394SOL    HW121815   0.646   1.714   4.541  0.7718 -0.1995  0.6740
 3394SOL    HW221816   0.573   1.846   4.552 -1.4341 -0.5446 -1.1233
 3395SOL     OW21817   2.532   0.524   8.662 -0.3249 -0.3998  0.2218
 3395SOL    HW121818   2.584   0.598   8.633 -3.0390  1.7530  0.8381
 3395SOL    HW221819   2.446   0.553   8.630 -0.3977  1.0499  1.7253
 3396SOL     OW21820   1.661   3.858   6.815  0.0680  0.1098  0.5414
 3396SOL    HW121821   1.721   3.929   6.835  0.6564 -0.6247  1.3959
 3396SOL    HW221822   1.594   3.875   6.881 -0.6551 -1.7095  0.2982
 3397SOL     OW21823   3.956   0.306   8.133 -0.1054  0.2035  0.0430
 3397SOL    HW121824   3.970   0.339   8.222 -0.7847 -1.5009  0.7704
 3397SOL    HW221825   4.034   0.282   8.084 -1.6955 -3.2955 -0.8017
 3398SOL     OW21826   1.950   1.238   2.176 -0.1737  0.1119 -0.6232
 3398SOL    HW121827   1.983   1.297   2.243  0.6469 -0.4251 -0.5558
 3398SOL    HW221828   1.855   1.243   2.189 -0.0640 -1.1393  0.6724
 3399SOL     OW21829   3.603   2.185   4.707 -0.1238  0.0701 -0.0299
 3399SOL    HW121830   3.561   2.178   4.622 -1.1246 -2.0320  0.6361
 3399SOL    HW221831   3.538   2.152   4.769  0.3295 -2.9434 -1.1439
 3400SOL     OW21832   1.266   2.710   6.065  0.4293  0.4998  0.4487
 3400SOL    HW121833   1.238   2.759   5.988  3.8934  1.1385 -0.4095
 3400SOL    HW221834   1.184   2.666   6.087 -0.2177  0.2191 -2.5538
 3401SOL     OW21835   4.701   0.197   2.414 -0.4573 -0.0701  0.5561
 3401SOL    HW121836   4.727   0.199   2.506 -0.7760  2.9599  0.5779
 3401SOL    HW221837   4.722   0.288   2.393 -1.0250  0.3084  1.5952
 3402SOL     OW21838   4.554   1.595  12.360  0.2281 -0.6307  1.1039
 3402SOL    HW121839   4.607   1.675  12.358 -1.8430  0.6720 -2.4000
 3402SOL    HW221840   4.624   1.532  12.344  0.8974  0.7091 -1.4090
 3403SOL     OW21841   1.709   1.063   1.914 -0.6346  0.3734 -0.8133
 3403SOL    HW121842   1.703   1.158   1.916 -1.7972  0.2718  1.8535
 3403SOL    HW221843   1.656   1.055   1.835  2.1970  0.0574 -2.6829
 3404SOL     OW21844   1.957   1.244   5.716  0.0967  0.2468  0.0649
 3404SOL    HW121845   1.876   1.194   5.726 -1.9395  2.9557 -2.8270
 3404SOL    HW221846   2.009   1.201   5.784 -1.9348 -1.0879  0.7354
 3405SOL     OW21847   2.307   2.589  17.349 -0.3548  0.1489 -0.1543
 3405SOL    HW121848   2.236   2.572  17.412 -1.4316  1.0642 -1.1148
 3405SOL    HW221849   2.382   2.533  17.368  0.6771  2.0730  1.4137
 3406SOL     OW21850   1.037   2.063   0.165 -0.3740  0.4140 -0.0892
 3406SOL    HW121851   1.008   1.980   0.204  1.0567  0.2976  0.7212
 3406SOL    HW221852   0.999   2.059   0.078  0.1033 -1.2265 -0.2285
 3407SOL     OW21853   2.875   2.676   5.512  0.3836 -0.0836 -0.0254
 3407SOL    HW121854   2.816   2.626   5.568 -0.5321  3.6868  2.3713
 3407SOL    HW221855   2.811   2.730   5.466  0.7549  0.4096  0.0361
 3408SOL     OW21856   1.099   0.992   3.980  0.6175 -0.5527 -0.7699
 3408SOL    HW121857   1.081   0.935   4.055 -0.5719  0.5912 -0.1812
 3408SOL    HW221858   1.194   0.983   3.970  0.5849 -0.2640 -1.3570
 3409SOL     OW21859   2.030   3.176  17.486 -0.3269  0.7327 -0.1597
 3409SOL    HW121860   1.946   3.174  17.440 -1.3682  2.7768  1.6722
 3409SOL    HW221861   2.095   3.133  17.430  2.2019  1.6331  2.0562
 3410SOL     OW21862   0.323   0.897   6.238  0.3522  0.7137  0.3430
 3410SOL    HW121863   0.397   0.906   6.298  0.1861  1.8000  0.3941
 3410SOL    HW221864   0.265   0.841   6.290 -0.0602  0.7442 -0.0821
 3411SOL     OW21865   0.858   0.038   8.617 -0.1073  0.1277  0.0520
 3411SOL    HW121866   0.841   0.075   8.531 -2.7759 -0.8326  0.1610
 3411SOL    HW221867   0.765   0.029   8.640 -0.5700  0.6640 -1.5924
 3412SOL     OW21868   3.513   0.589   5.070  0.2704 -0.6481  0.3186
 3412SOL    HW121869   3.582   0.615   5.131  1.2368  0.8737 -1.4483
 3412SOL    HW221870   3.563   0.572   4.991  1.4948 -0.7968  1.1228
 3413SOL     OW21871   1.727   0.793   5.426 -0.6653  0.2193  0.5796
 3413SOL    HW121872   1.709   0.701   5.408  0.0414 -0.0994  1.5132
 3413SOL    HW221873   1.676   0.810   5.505 -2.6869 -2.1201 -0.2372
 3414SOL     OW21874   4.356   3.794   5.060 -0.3838 -0.2523  0.0918
 3414SOL    HW121875   4.422   3.770   5.125  0.4164  1.5287 -0.0621
 3414SOL    HW221876   4.407   3.854   5.007  0.4152  0.3753  1.5729
 3415SOL     OW21877   0.170   2.588   2.329  0.1426  0.0056  0.0845
 3415SOL    HW121878   0.246   2.598   2.386 -1.0164  0.6483  1.5364
 3415SOL    HW221879   0.102   2.580   2.396  0.5478  0.8803  0.5997
 3416SOL     OW21880   0.084   3.895   8.334 -0.0727 -0.1313  0.6921
 3416SOL    HW121881   0.018   3.837   8.372  0.8074 -1.4994  0.0967
 3416SOL    HW221882   0.092   3.852   8.249 -1.9110 -1.2474  1.0825
 3417SOL     OW21883   4.511   2.549   0.408 -0.3040  0.5398 -0.2215
 3417SOL    HW121884   4.473   2.618   0.354 -1.9980 -1.3086 -1.3946
 3417SOL    HW221885   4.602   2.557   0.378  0.2195  2.2392  1.7654
 3418SOL     OW21886   2.058   1.682   1.912 -0.2130  0.3394 -0.0389
 3418SOL    HW121887   2.097   1.751   1.858 -0.0154  0.2259 -0.0406
 3418SOL    HW221888   2.097   1.614   1.857 -0.8169 -0.4076  0.4647
 3419SOL     OW21889   0.621   0.919   6.065 -0.1773  0.0799  0.7984
 3419SOL    HW121890   0.650   0.884   6.148 -0.8984 -2.3616  0.0238
 3419SOL    HW221891   0.659   1.007   6.067  1.0581 -0.4320 -0.2714
 3420SOL     OW21892   4.672   0.439   3.139 -0.0366 -0.6578  0.5600
 3420SOL    HW121893   0.015   0.482   3.161 -0.1199 -1.2759  2.1086
 3420SOL    HW221894   4.612   0.513   3.145  0.5345 -0.0899 -0.8598
 3421SOL     OW21895   0.559   1.996   3.901  0.4441 -0.4938 -0.7394
 3421SOL    HW121896   0.593   2.070   3.852 -0.9707  0.2729 -0.5609
 3421SOL    HW221897   0.640   1.974   3.948  0.3411  3.8853  1.4941
 3422SOL     OW21898   2.894   3.187   1.027 -0.2304 -0.5931  0.6611
 3422SOL    HW121899   2.970   3.146   1.068 -0.2242 -1.3637 -0.0912
 3422SOL    HW221900   2.896   3.271   1.071 -1.5577  0.1665 -0.7160
 3423SOL     OW21901   2.734   4.072   6.957 -0.3603 -0.3605  0.0941
 3423SOL    HW121902   2.744   4.162   6.989 -1.4948 -0.5112  0.8607
 3423SOL    HW221903   2.760   4.100   6.869  0.7582  0.3020  0.6280
 3424SOL     OW21904   3.517   2.952  15.963  0.4575  0.6693  0.6067
 3424SOL    HW121905   3.597   3.003  15.973  1.7523 -1.2298 -0.2045
 3424SOL    HW221906   3.496   2.939  16.056 -1.8918  1.8503  0.2577
 3425SOL     OW21907   3.588   0.160   4.951 -0.2823  0.3067  0.2326
 3425SOL    HW121908   3.522   0.210   4.999 -1.3358  0.3683 -1.2543
 3425SOL    HW221909   3.552   0.164   4.862 -1.5246  0.9381  0.7605
 3426SOL     OW21910   4.321   2.214   3.471 -0.0293  0.3268 -0.2697
 3426SOL    HW121911   4.239   2.261   3.487 -0.0955  0.4984 -1.1523
 3426SOL    HW221912   4.332   2.166   3.553  1.9309  0.8901 -0.2070
 3427SOL     OW21913   1.719   2.424   8.046  0.0003  0.1479 -0.2607
 3427SOL    HW121914   1.776   2.500   8.057  2.1537 -1.5004 -0.0888
 3427SOL    HW221915   1.773   2.376   7.984  0.1490  2.5572 -2.0087
 3428SOL     OW21916   1.432   4.515   9.273 -0.4036 -0.2583  0.4027
 3428SOL    HW121917   1.472   4.557   9.197 -0.5290  0.7637  0.9052
 3428SOL    HW221918   1.406   4.435   9.227  0.6049 -0.8915  0.9378
 3429SOL     OW21919   3.932   1.259   4.118  0.0941 -0.0609 -0.1046
 3429SOL    HW121920   3.967   1.267   4.207 -1.1199  1.6221  0.2366
 3429SOL    HW221921   3.896   1.172   4.140 -0.3000  0.1684  0.1665
 3430SOL     OW21922   1.103   3.051   8.675 -0.4908 -0.1386 -0.3384
 3430SOL    HW121923   1.181   3.097   8.705 -0.7508 -0.5678  0.9771
 3430SOL    HW221924   1.037   3.113   8.706  0.1083  1.1282 -1.5701
 3431SOL     OW21925   2.800   2.119   6.347  0.2495  0.2788 -0.0978
 3431SOL    HW121926   2.744   2.058   6.394  0.4833  1.3078  1.5054
 3431SOL    HW221927   2.789   2.200   6.397  1.9871 -1.0121  2.3410
 3432SOL     OW21928   3.588   4.138   8.241 -0.0870  0.1629 -0.0619
 3432SOL    HW121929   3.582   4.043   8.237 -0.1326  0.1246  0.9059
 3432SOL    HW221930   3.498   4.163   8.219 -0.0414 -1.5276 -2.1022
 3433SOL     OW21931   0.050   4.094   5.187  0.6660  0.3987  0.4428
 3433SOL    HW121932   0.058   4.186   5.214  2.5999  1.4759 -3.7754
 3433SOL    HW221933   4.694   4.086   5.188  0.5760  1.3476 -0.3005
 3434SOL     OW21934   1.174   0.042  12.661 -0.3229 -0.2182 -0.0247
 3434SOL    HW121935   1.088   0.005  12.680  0.4219 -2.2018 -0.5578
 3434SOL    HW221936   1.229   4.708  12.632  0.2261  0.6594 -1.1936
 3435SOL     OW21937   0.443   3.417   5.768  0.0482  0.4325  0.2098
 3435SOL    HW121938   0.447   3.376   5.681  2.6379  0.7047  0.2191
 3435SOL    HW221939   0.358   3.387   5.801  0.1442  0.2958  0.3297
 3436SOL     OW21940   0.734   2.425   3.427 -0.8309 -0.0310  0.3608
 3436SOL    HW121941   0.809   2.405   3.371 -0.6147 -0.4692  0.8070
 3436SOL    HW221942   0.693   2.490   3.370  1.3816  0.6312 -0.4751
 3437SOL     OW21943   1.997   4.079   9.803  0.3085 -0.2417 -0.0700
 3437SOL    HW121944   1.922   4.100   9.858 -0.2518  1.5135 -1.4846
 3437SOL    HW221945   2.001   3.984   9.818  0.4271 -0.1193  0.6296
 3438SOL     OW21946   2.888   3.402   6.427 -1.0300 -0.1382  0.5142
 3438SOL    HW121947   2.889   3.497   6.435  2.7849  0.0532 -2.4014
 3438SOL    HW221948   2.794   3.388   6.418 -0.7010  0.0418 -2.9416
 3439SOL     OW21949   1.448   1.714   4.100  0.1410  0.0426 -0.0887
 3439SOL    HW121950   1.418   1.800   4.069 -0.8401  0.1740  1.2452
 3439SOL    HW221951   1.374   1.696   4.158 -0.7884  1.0204 -0.9534
 3440SOL     OW21952   0.064   2.909   5.795  0.4010 -0.2067 -0.5651
 3440SOL    HW121953   0.064   2.918   5.890 -3.6194  2.9117 -0.8725
 3440SOL    HW221954   0.111   2.827   5.781  0.9798 -0.0073  0.1804
 3441SOL     OW21955   4.365   0.321   6.814  0.0026 -0.2451  0.3228
 3441SOL    HW121956   4.370   0.370   6.731 -1.6356 -1.0691 -0.2386
 3441SOL    HW221957   4.289   0.265   6.800  0.9452 -1.5429  0.4362
 3442SOL     OW21958   0.306   2.039   4.019  0.7146  0.3479  0.2755
 3442SOL    HW121959   0.312   2.047   4.114 -0.3069 -0.0492  0.3784
 3442SOL    HW221960   0.389   2.080   3.997  0.5574  1.2461  1.3116
 3443SOL     OW21961   0.319   2.937  11.370  0.5091  0.1899 -0.2247
 3443SOL    HW121962   0.372   2.882  11.427  2.9043 -0.0034 -2.6498
 3443SOL    HW221963   0.290   3.005  11.431  2.8173  1.2681 -0.3504
 3444SOL     OW21964   0.697   1.823   8.119  0.1402  0.1385  0.4646
 3444SOL    HW121965   0.765   1.808   8.185 -1.0941 -1.7503  1.3189
 3444SOL    HW221966   0.702   1.740   8.072  0.0320  0.8062 -0.7259
 3445SOL     OW21967   1.971   4.569  12.034  0.5577 -0.0486  0.2119
 3445SOL    HW121968   2.012   4.483  12.041  0.2096 -0.1916  0.4416
 3445SOL    HW221969   2.033   4.635  12.066 -0.1385 -0.0430  1.5367
 3446SOL     OW21970   2.237   4.500  13.192 -0.4165 -0.5760 -0.1968
 3446SOL    HW121971   2.304   4.432  13.189 -0.5607 -0.7391  0.3401
 3446SOL    HW221972   2.253   4.523  13.100 -4.5154  1.2292 -0.4858
 3447SOL     OW21973   4.401   4.190   7.881 -0.2719  0.2125 -0.4488
 3447SOL    HW121974   4.486   4.222   7.911 -0.6207 -0.3830  1.1501
 3447SOL    HW221975   4.433   4.110   7.839  1.6349 -0.5932  2.4708
 3448SOL     OW21976   0.996   2.564   1.549 -0.3121  0.0280  0.2192
 3448SOL    HW121977   0.945   2.487   1.572  0.9573 -0.5287  1.1176
 3448SOL    HW221978   1.023   2.544   1.459  1.1172  1.3988  0.3498
 3449SOL     OW21979   0.512   1.062   5.311  0.3500 -0.1466  0.5653
 3449SOL    HW121980   0.584   1.125   5.309  0.4839 -0.2350  3.0636
 3449SOL    HW221981   0.507   1.032   5.401  0.3049  1.8407  1.2229
 3450SOL     OW21982   2.326   3.657   2.997 -0.3212  0.4171 -0.4938
 3450SOL    HW121983   2.419   3.681   3.005 -0.5765  2.0017 -2.1176
 3450SOL    HW221984   2.308   3.674   3.089  2.1477  1.7542 -0.2356
 3451SOL     OW21985   4.114   0.303   0.956  0.2613 -0.1864 -0.3125
 3451SOL    HW121986   4.068   0.255   0.886 -0.2143  0.8150 -0.6963
 3451SOL    HW221987   4.132   0.229   1.014 -2.4419  1.6037  2.7796
 3452SOL     OW21988   2.819   4.055  10.526 -0.5253 -0.4505 -0.1974
 3452SOL    HW121989   2.895   4.036  10.472  0.0467  1.9120 -0.2091
 3452SOL    HW221990   2.785   4.138  10.494  0.2826 -0.4255 -0.9710
 3453SOL     OW21991   0.867   2.050   0.881 -0.7088  0.1721  0.0129
 3453SOL    HW121992   0.931   2.119   0.861 -0.3767  0.0046  0.4830
 3453SOL    HW221993   0.804   2.069   0.812  1.1087  0.2296 -1.6307
 3454SOL     OW21994   1.147   3.604   2.183  0.6520 -0.6819  0.1240
 3454SOL    HW121995   1.235   3.597   2.147  1.2870 -1.1319  1.7826
 3454SOL    HW221996   1.126   3.695   2.164  0.2828 -0.6848  0.5322
 3455SOL     OW21997   2.685   4.633   3.492  0.0814  0.0893 -0.7694
 3455SOL    HW121998   2.715   4.545   3.470  0.7296  0.2693 -0.6105
 3455SOL    HW221999   2.673   4.618   3.586 -1.0205  2.1547 -0.5765
 3456SOL     OW22000   1.496   4.626   8.606 -0.1491 -0.2660 -0.4023
 3456SOL    HW122001   1.472   4.546   8.654  1.9950 -1.9560 -2.1541
 3456SOL    HW222002   1.569   4.658   8.659 -1.4316 -3.0014  3.0567
 3457SOL     OW22003   0.101   3.163   3.642 -0.0567 -0.1198  0.0054
 3457SOL    HW122004   0.173   3.108   3.676 -2.0746 -1.5074  2.0618
 3457SOL    HW222005   0.134   3.201   3.560  0.4008 -2.4939 -0.9254
 3458SOL     OW22006   2.631   3.071   3.208  0.4976 -0.3131  0.0851
 3458SOL    HW122007   2.608   2.989   3.164 -3.3122  2.2375 -2.7147
 3458SOL    HW222008   2.616   3.038   3.296 -2.0828 -1.2884 -0.7224
 3459SOL     OW22009   1.029   0.004   2.797 -0.1735  0.2746 -0.2500
 3459SOL    HW122010   0.936   0.018   2.781 -0.4229 -2.2301 -1.0092
 3459SOL    HW222011   1.040   4.662   2.748  1.1981  1.8751 -2.5985
 3460SOL     OW22012   3.627   3.975   2.122  0.2481 -0.3804 -0.4228
 3460SOL    HW122013   3.557   3.912   2.139  0.0019  0.0069 -0.0243
 3460SOL    HW222014   3.658   4.004   2.207  0.1846  1.1312 -0.9146
 3461SOL     OW22015   1.334   2.074   6.213  0.2038  0.3242  0.3725
 3461SOL    HW122016   1.314   1.987   6.249 -0.7490 -0.5937 -2.3621
 3461SOL    HW222017   1.402   2.048   6.151  0.5324 -0.0555  0.8957
 3462SOL     OW22018   2.998   0.682   8.342 -0.0333  0.0892 -0.2288
 3462SOL    HW122019   2.962   0.662   8.256  1.6194 -0.7162 -0.7464
 3462SOL    HW222020   3.035   0.770   8.335 -1.5237  0.6456 -1.0500
 3463SOL     OW22021   3.909   0.522   5.928 -0.6791 -0.2656 -0.0711
 3463SOL    HW122022   3.871   0.541   5.843 -1.7176 -2.6040 -0.1325
 3463SOL    HW222023   3.983   0.467   5.899 -2.1782 -2.5678  0.5034
 3464SOL     OW22024   0.673   4.497   4.567 -0.5793  0.0676  0.0459
 3464SOL    HW122025   0.730   4.538   4.502 -0.8045  1.1650  0.5386
 3464SOL    HW222026   0.701   4.405   4.570  1.4845  0.6116 -2.6041
 3465SOL     OW22027   3.833   2.028   1.979  0.7274 -0.4624 -0.2777
 3465SOL    HW122028   3.820   1.940   1.941 -1.3887 -0.9716  1.6160
 3465SOL    HW222029   3.863   2.073   1.900  3.0308 -1.3888  0.0709
 3466SOL     OW22030   0.480   1.629   1.010 -0.6428  0.4630 -0.0372
 3466SOL    HW122031   0.494   1.635   0.916 -0.8133  4.2699  0.1814
 3466SOL    HW222032   0.392   1.591   1.007  0.8265 -3.1283  2.0357
 3467SOL     OW22033   1.225   2.084   9.926 -0.0610  0.2019  0.2226
 3467SOL    HW122034   1.182   2.036   9.857 -0.0983  3.7708 -2.2610
 3467SOL    HW222035   1.218   2.024  10.000  1.1187 -1.2001 -0.8074
 3468SOL     OW22036   0.785   0.949   4.694 -0.2002 -0.5966  0.1060
 3468SOL    HW122037   0.815   0.859   4.682 -0.7822 -0.6814 -0.7023
 3468SOL    HW222038   0.763   0.978   4.606 -2.3192  0.1443  0.8858
 3469SOL     OW22039   0.055   3.355   4.258 -0.5391  0.0301  0.2528
 3469SOL    HW122040   0.138   3.307   4.253 -0.7086 -0.4262  1.6562
 3469SOL    HW222041   0.017   3.351   4.170 -1.5817  1.0014  0.6539
 3470SOL     OW22042   3.792   0.245   5.474  0.1309 -0.1818  0.2588
 3470SOL    HW122043   3.726   0.308   5.502  1.2858  0.5403  1.3374
 3470SOL    HW222044   3.825   0.205   5.555  1.6261 -0.0262 -0.2766
 3471SOL     OW22045   3.048   1.320   6.417 -0.4524 -0.1756 -0.6556
 3471SOL    HW122046   3.022   1.228   6.415  2.4176 -0.9980 -1.5486
 3471SOL    HW222047   3.120   1.325   6.353  1.0664 -3.0749  0.8520
 3472SOL     OW22048   2.945   2.040   5.615  0.0981  0.2131 -0.6029
 3472SOL    HW122049   2.992   1.973   5.565 -1.7619 -2.2193  0.8810
 3472SOL    HW222050   2.983   2.024   5.701 -0.7697 -2.3328 -0.6828
 3473SOL     OW22051   0.285   3.649   7.603 -0.0319  0.6451  0.0166
 3473SOL    HW122052   0.332   3.661   7.521 -0.6328 -0.0715 -0.4302
 3473SOL    HW222053   0.203   3.606   7.579  0.1799  0.2694 -0.0157
 3474SOL     OW22054   0.267   2.877   1.848  0.0051 -0.5427 -0.0788
 3474SOL    HW122055   0.252   2.800   1.903 -0.0268  0.3456  1.1470
 3474SOL    HW222056   0.360   2.877   1.870 -0.5577 -1.6552  2.3219
 3475SOL     OW22057   3.050   3.082   6.920 -0.5955  0.2455  0.1021
 3475SOL    HW122058   3.137   3.050   6.944 -0.3489 -0.4667 -1.7244
 3475SOL    HW222059   3.015   3.123   6.999  1.8985  0.8176  0.9110
 3476SOL     OW22060   2.898   1.430  11.964 -0.4583  0.5474 -0.1563
 3476SOL    HW122061   2.854   1.364  11.910 -0.3696  0.3784 -0.0240
 3476SOL    HW222062   2.981   1.385  11.977 -0.0175  1.4091  0.0044
 3477SOL     OW22063   0.925   3.097   1.718 -0.0787  0.0714  0.0141
 3477SOL    HW122064   0.881   3.167   1.767  0.0045  0.0866  0.0660
 3477SOL    HW222065   0.865   3.077   1.646 -0.1765 -2.6338  0.8519
 3478SOL     OW22066   2.988   3.539   4.526  0.0653  0.2505  0.2285
 3478SOL    HW122067   2.913   3.597   4.508  1.0933  0.7239 -2.5403
 3478SOL    HW222068   2.995   3.476   4.454  0.8378  0.2037  0.3526
 3479SOL     OW22069   0.394   1.094   1.951  0.1337  0.7035  0.0397
 3479SOL    HW122070   0.480   1.079   1.913  0.3051  0.8231  0.3840
 3479SOL    HW222071   0.412   1.187   1.969 -2.3992  1.0147  1.0266
 3480SOL     OW22072   3.304   1.989  11.475 -0.6547 -0.3493  0.1482
 3480SOL    HW122073   3.266   2.076  11.491  1.4419  0.6320 -0.2292
 3480SOL    HW222074   3.333   1.961  11.561 -3.6594 -0.5453  1.1082
 3481SOL     OW22075   3.821   0.696   3.826 -0.4794 -0.2090 -0.3907
 3481SOL    HW122076   3.831   0.613   3.779 -1.8854 -0.4117 -0.3105
 3481SOL    HW222077   3.911   0.724   3.845 -1.7061  1.0066  3.5249
 3482SOL     OW22078   3.765   1.371   5.540  0.2646 -0.0271 -0.4105
 3482SOL    HW122079   3.796   1.409   5.458  2.2021  0.9117  0.7378
 3482SOL    HW222080   3.689   1.429   5.550 -1.6372 -2.3622 -1.3846
 3483SOL     OW22081   0.503   1.219   7.375  0.1293 -0.0394  0.2850
 3483SOL    HW122082   0.454   1.190   7.452  0.1215  2.0526  1.0733
 3483SOL    HW222083   0.574   1.261   7.424 -1.2442  2.3457  0.2716
 3484SOL     OW22084   1.910   4.077   2.159 -0.2935 -0.4758  0.2599
 3484SOL    HW122085   1.876   4.094   2.247  0.3113 -0.6292  0.5217
 3484SOL    HW222086   1.915   3.982   2.154  1.4961 -0.3404 -0.5723
 3485SOL     OW22087   1.554   4.614   9.043  0.2055 -0.1637 -0.2540
 3485SOL    HW122088   1.571   4.542   8.983 -0.0636  1.9483 -2.8453
 3485SOL    HW222089   1.502   4.678   8.996  1.4537  0.3597 -0.9274
 3486SOL     OW22090   2.260   0.441   5.488 -0.2581 -0.0866  0.0591
 3486SOL    HW122091   2.338   0.390   5.466 -0.9521 -0.9038 -0.5148
 3486SOL    HW222092   2.220   0.412   5.570  2.4596 -2.5721  0.5234
 3487SOL     OW22093   0.965   2.830  11.255 -0.1510 -0.4214 -0.2352
 3487SOL    HW122094   1.000   2.918  11.266 -0.0703 -0.1424 -2.8354
 3487SOL    HW222095   0.961   2.813  11.161  0.9058 -1.5008 -0.0869
 3488SOL     OW22096   1.876   2.278  10.710 -0.2445  0.1137  0.0251
 3488SOL    HW122097   1.782   2.271  10.726 -0.5338 -0.2801 -1.8331
 3488SOL    HW222098   1.872   2.359  10.659 -1.0303 -0.0422 -0.1644
 3489SOL     OW22099   1.433   2.499   6.467  0.3623 -0.2372 -0.1656
 3489SOL    HW122100   1.424   2.575   6.409  1.4811 -1.1023 -1.5029
 3489SOL    HW222101   1.459   2.437   6.398  0.0033 -0.5670 -0.0089
 3490SOL     OW22102   0.721   4.332   6.352 -0.0711  0.2453  0.1270
 3490SOL    HW122103   0.723   4.338   6.256 -1.5326  1.1236  0.1581
 3490SOL    HW222104   0.637   4.375   6.364 -0.5691 -1.0805  1.3668
 3491SOL     OW22105   0.930   2.231   4.741  0.6084 -0.6353 -0.2090
 3491SOL    HW122106   0.929   2.223   4.836  2.7112 -0.9552 -0.2144
 3491SOL    HW222107   0.837   2.236   4.719  0.4154 -0.6522  0.5958
 3492SOL     OW22108   4.437   0.980   2.447  0.0558  0.4607 -0.2633
 3492SOL    HW122109   4.443   0.982   2.351 -1.1660 -0.3673 -0.3560
 3492SOL    HW222110   4.528   0.983   2.478 -0.9384  0.9631  2.6080
 3493SOL     OW22111   1.191   2.563   2.618  0.0467 -0.5342 -0.6921
 3493SOL    HW122112   1.224   2.474   2.634  0.6328 -0.0425  0.8775
 3493SOL    HW222113   1.221   2.607   2.697 -1.2131 -1.0331  0.0535
 3494SOL     OW22114   2.141   1.641   8.014  0.6790  0.1280 -0.0161
 3494SOL    HW122115   2.126   1.625   8.107  0.3522  0.2752 -0.0427
 3494SOL    HW222116   2.205   1.574   7.990  1.1859  0.1796  1.2208
 3495SOL     OW22117   0.247   4.113   2.925  0.1497 -0.4097 -0.1338
 3495SOL    HW122118   0.247   4.196   2.878 -1.9881  0.8075  2.0294
 3495SOL    HW222119   0.155   4.089   2.915 -0.4858  1.2524  1.9400
 3496SOL     OW22120   2.580   2.180   4.135  0.1432 -0.6944 -0.2613
 3496SOL    HW122121   2.514   2.113   4.153 -0.5042 -0.1284 -0.5332
 3496SOL    HW222122   2.639   2.166   4.210 -0.5217 -2.4436 -0.0654
 3497SOL     OW22123   2.497   3.385  13.947  0.4970 -0.0704  0.1598
 3497SOL    HW122124   2.494   3.290  13.960 -2.5881 -0.3313 -2.2736
 3497SOL    HW222125   2.549   3.409  14.024  1.7366 -0.8283 -0.4460
 3498SOL     OW22126   4.041   3.204   5.216  0.0116 -0.2846 -0.2833
 3498SOL    HW122127   4.004   3.235   5.299 -0.3655  0.0551 -0.5790
 3498SOL    HW222128   4.130   3.190   5.248  0.2448  1.9233  0.0942
 3499SOL     OW22129   0.847   3.586   1.719 -0.0334 -0.0946  0.2916
 3499SOL    HW122130   0.849   3.611   1.626  0.5604 -0.8883  0.0882
 3499SOL    HW222131   0.928   3.629   1.748  1.0477  1.2549 -4.6259
 3500SOL     OW22132   3.273   4.585   4.115  1.4290  0.1856 -0.0711
 3500SOL    HW122133   3.309   4.496   4.114  1.6894  0.2653  1.8933
 3500SOL    HW222134   3.240   4.596   4.204  0.4510 -0.1882 -0.3845
 3501SOL     OW22135   3.257   2.045   3.889  0.3342  0.2706  0.5086
 3501SOL    HW122136   3.181   2.060   3.834  0.3167 -0.6579  0.2740
 3501SOL    HW222137   3.242   1.950   3.890 -0.8684  0.4582 -1.0629
 3502SOL     OW22138   2.598   3.006   4.525  0.1849  0.5093  0.0562
 3502SOL    HW122139   2.529   3.072   4.520  0.8205  1.5433  4.6023
 3502SOL    HW222140   2.671   3.052   4.566 -0.0365 -1.5181  2.7557
 3503SOL     OW22141   2.254   1.544   5.867 -0.0951  0.7264  0.1312
 3503SOL    HW122142   2.213   1.628   5.846 -0.1819  0.6978  0.1863
 3503SOL    HW222143   2.289   1.518   5.782 -2.8288  0.3099 -0.8913
 3504SOL     OW22144   1.233   3.831   7.359 -0.9398  0.1597 -0.0597
 3504SOL    HW122145   1.197   3.852   7.445 -1.3409  0.8011 -0.3768
 3504SOL    HW222146   1.325   3.849   7.376 -0.6017 -0.8015 -0.8629
 3505SOL     OW22147   4.400   0.881   6.909 -0.3129  0.0950  0.5128
 3505SOL    HW122148   4.453   0.880   6.988  1.2360 -0.3379 -0.5265
 3505SOL    HW222149   4.387   0.976   6.917 -0.3633  0.3043 -1.8291
 3506SOL     OW22150   2.720   3.686   6.320 -0.6322 -0.0959  0.2807
 3506SOL    HW122151   2.651   3.687   6.386  0.6259  2.1586  1.5538
 3506SOL    HW222152   2.791   3.696   6.383  0.9956 -2.0976 -1.2256
 3507SOL     OW22153   1.574   2.560   3.658  0.0080  0.2376  0.2673
 3507SOL    HW122154   1.538   2.649   3.651 -1.7535 -0.5845 -1.2695
 3507SOL    HW222155   1.668   2.577   3.658 -0.0665  0.6606  0.4682
 3508SOL     OW22156   1.397   4.388   2.220  0.0277 -0.2327 -0.8066
 3508SOL    HW122157   1.402   4.483   2.223 -0.9658 -0.2428  1.1298
 3508SOL    HW222158   1.319   4.367   2.168  0.1871  0.8254 -1.4546
 3509SOL     OW22159   3.956   2.412  12.643 -0.1373 -0.6439 -0.2795
 3509SOL    HW122160   3.966   2.318  12.630 -1.5534 -1.0932  1.9462
 3509SOL    HW222161   3.957   2.448  12.554 -0.6562 -0.2577 -0.1334
 3510SOL     OW22162   0.840   1.669   9.145 -0.5667  0.1981 -0.5624
 3510SOL    HW122163   0.758   1.639   9.105 -0.9773 -1.0430  1.2076
 3510SOL    HW222164   0.882   1.586   9.164 -0.5637  0.3843  0.2614
 3511SOL     OW22165   3.061   2.214  14.787  0.0137  0.5037 -0.1374
 3511SOL    HW122166   2.966   2.204  14.781  0.3049 -1.3081 -1.9159
 3511SOL    HW222167   3.071   2.259  14.703  0.4751  1.3070  0.3428
 3512SOL     OW22168   1.806   2.784   1.709  0.5360 -0.0811 -1.1087
 3512SOL    HW122169   1.732   2.794   1.649 -0.1083 -0.8839 -0.4505
 3512SOL    HW222170   1.767   2.727   1.775  1.2149  2.1619  1.2187
 3513SOL     OW22171   0.761   3.314   0.968  0.5136  0.8482 -0.2555
 3513SOL    HW122172   0.855   3.324   0.954  1.1165 -3.6612  0.6324
 3513SOL    HW222173   0.765   3.225   1.002 -0.7008  0.7377 -0.3834
 3514SOL     OW22174   3.579   0.516   3.092  0.0590  0.2120  0.5430
 3514SOL    HW122175   3.523   0.473   3.157 -0.0906 -0.4396 -0.0208
 3514SOL    HW222176   3.652   0.534   3.151  0.6593 -0.3728 -0.0318
 3515SOL     OW22177   0.786   0.736   7.420  0.4696 -0.2452 -0.1923
 3515SOL    HW122178   0.759   0.656   7.465 -0.3840  0.8993  1.3367
 3515SOL    HW222179   0.729   0.802   7.460  2.6946 -0.0206  2.5708
 3516SOL     OW22180   0.603   2.298  11.844 -0.1856 -0.4465 -0.1643
 3516SOL    HW122181   0.646   2.223  11.804 -2.5120  0.9458 -5.2463
 3516SOL    HW222182   0.573   2.254  11.923 -0.8764 -0.2280 -0.3009
 3517SOL     OW22183   2.585   0.662   9.048 -0.1114  0.0628  0.0027
 3517SOL    HW122184   2.523   0.593   9.069  2.2456 -1.3766  2.2750
 3517SOL    HW222185   2.637   0.634   8.973  1.3819 -0.0970  1.0826
 3518SOL     OW22186   0.311   3.768   3.773 -0.1705  0.1554  0.2087
 3518SOL    HW122187   0.265   3.787   3.856 -0.6143 -0.9898  0.2292
 3518SOL    HW222188   0.287   3.849   3.728  2.7082 -0.6120 -2.6565
 3519SOL     OW22189   3.253   3.704  12.174 -0.5989  0.8928 -0.2331
 3519SOL    HW122190   3.174   3.653  12.191 -1.3709  2.0350 -0.3849
 3519SOL    HW222191   3.306   3.668  12.246  0.0300 -0.2071 -1.2387
 3520SOL     OW22192   0.482   0.583   1.102 -0.3536 -0.7207  0.1307
 3520SOL    HW122193   0.527   0.526   1.039  1.9064  1.9493 -0.6415
 3520SOL    HW222194   0.506   0.542   1.185  0.0953 -0.2980  0.2113
 3521SOL     OW22195   2.168   2.916   1.772 -0.0337 -0.1749 -0.4172
 3521SOL    HW122196   2.157   3.009   1.793 -0.9414 -0.2601 -0.5318
 3521SOL    HW222197   2.263   2.907   1.761 -0.6240 -3.3861 -2.8008
 3522SOL     OW22198   3.795   3.746   2.313 -0.9289 -0.3182  0.6066
 3522SOL    HW122199   3.718   3.732   2.258 -1.3509  1.9145  0.6365
 3522SOL    HW222200   3.745   3.755   2.394 -3.7403 -0.1785 -1.1363
 3523SOL     OW22201   1.292   2.429  10.607 -0.2954 -1.0403  1.0250
 3523SOL    HW122202   1.232   2.502  10.591  2.4847  0.6618 -1.6099
 3523SOL    HW222203   1.254   2.399  10.689  0.2415  1.5345  2.2202
 3524SOL     OW22204   2.304   2.165   3.811 -0.1975 -0.0496 -0.3812
 3524SOL    HW122205   2.273   2.233   3.751 -1.0307 -0.0154  0.0823
 3524SOL    HW222206   2.398   2.174   3.797 -0.1350  0.2075  0.2099
 3525SOL     OW22207   2.598   1.873  15.803 -0.2758  0.1159 -0.2602
 3525SOL    HW122208   2.591   1.911  15.890 -1.3283 -1.5740  0.3944
 3525SOL    HW222209   2.688   1.885  15.773 -0.7525  0.7337 -1.4317
 3526SOL     OW22210   2.461   2.874  15.480  0.2062 -0.3608 -0.1280
 3526SOL    HW122211   2.452   2.863  15.574 -0.2068 -1.0478 -0.2489
 3526SOL    HW222212   2.375   2.904  15.450  0.0741 -2.0628 -1.4882
 3527SOL     OW22213   2.822   0.992  13.363 -0.1425 -0.6941 -0.2783
 3527SOL    HW122214   2.747   1.051  13.353  0.5306  0.1833 -0.1820
 3527SOL    HW222215   2.866   1.003  13.278  2.1227 -0.3987  0.9347
 3528SOL     OW22216   4.718   2.144   9.397 -0.1471 -0.0308  0.2252
 3528SOL    HW122217   0.009   2.167   9.309 -1.5701 -2.1527 -0.8378
 3528SOL    HW222218   4.624   2.130   9.384 -0.4064  1.5040  0.4478
 3529SOL     OW22219   0.786   1.932   4.020 -0.1573 -0.2794 -0.2453
 3529SOL    HW122220   0.817   1.849   3.984  0.4022 -0.8476  1.5726
 3529SOL    HW222221   0.836   1.991   3.963  2.2094  0.4926  2.6212
 3530SOL     OW22222   4.543   1.002   6.203  0.3568 -0.4206  0.0776
 3530SOL    HW122223   4.547   0.908   6.221 -0.7620 -1.1919 -3.6773
 3530SOL    HW222224   4.474   1.032   6.262 -0.6151 -3.1006  0.2837
 3531SOL     OW22225   2.696   2.266   8.713  0.1050 -0.3559  0.6000
 3531SOL    HW122226   2.666   2.211   8.640  0.2363 -1.3754  1.3278
 3531SOL    HW222227   2.672   2.351   8.675  1.4961  0.1022  0.7528
 3532SOL     OW22228   4.091   4.409   3.484 -0.2423 -0.9735  0.5260
 3532SOL    HW122229   4.042   4.421   3.564 -0.8324  0.4324 -0.0443
 3532SOL    HW222230   4.151   4.481   3.505 -0.2883  0.0327 -2.6681
 3533SOL     OW22231   0.467   0.232  12.825  0.2308  0.4866  0.3168
 3533SOL    HW122232   0.416   0.157  12.858  1.1918  0.7789  2.5024
 3533SOL    HW222233   0.529   0.242  12.897  1.0207 -0.6114 -0.2101
 3534SOL     OW22234   0.799   4.003  16.286 -0.3507 -0.2265  0.0474
 3534SOL    HW122235   0.754   3.926  16.320  2.4232 -1.8664 -0.0166
 3534SOL    HW222236   0.783   3.976  16.196 -1.2277 -1.7117  0.6528
 3535SOL     OW22237   0.394   1.682   2.425 -0.2277 -0.0033  0.0418
 3535SOL    HW122238   0.372   1.589   2.428  0.4413 -0.1286  1.1338
 3535SOL    HW222239   0.395   1.701   2.331  1.6230  1.0502  0.2679
 3536SOL     OW22240   4.412   2.749   6.826  0.0310  0.0128 -0.2025
 3536SOL    HW122241   4.442   2.723   6.739 -0.8300  1.3253 -0.8963
 3536SOL    HW222242   4.494   2.745   6.875 -0.7158 -1.1051  0.9458
 3537SOL     OW22243   4.270   2.461   9.658 -0.2408 -0.5968 -0.6678
 3537SOL    HW122244   4.292   2.404   9.585  0.2361  0.2502 -1.1830
 3537SOL    HW222245   4.317   2.429   9.735 -1.6297  2.6466  1.5486
 3538SOL     OW22246   1.677   0.038   3.589  0.0578 -0.2176  0.4034
 3538SOL    HW122247   1.676   4.686   3.559 -1.2919 -0.2334  0.5181
 3538SOL    HW222248   1.639   0.090   3.518  1.6859 -2.5711 -2.1768
 3539SOL     OW22249   2.085   3.594   1.869 -0.3798 -0.1054  0.6717
 3539SOL    HW122250   2.110   3.540   1.944 -0.4242 -0.9401  0.0859
 3539SOL    HW222251   2.037   3.534   1.813 -0.2578  0.0244  0.4227
 3540SOL     OW22252   3.485   2.926   4.193 -0.2466 -0.5920 -0.0464
 3540SOL    HW122253   3.546   2.906   4.265 -0.9414 -1.7745  0.2082
 3540SOL    HW222254   3.409   2.869   4.205 -0.2356 -0.2316  1.7902
 3541SOL     OW22255   2.524   0.203   8.059  0.2165 -0.8766 -0.5298
 3541SOL    HW122256   2.611   0.225   8.026 -0.8030 -2.3309 -4.2610
 3541SOL    HW222257   2.513   0.267   8.130 -0.0306 -1.5178  0.0041
 3542SOL     OW22258   1.638   3.329   6.321 -0.3901  0.0562  0.0863
 3542SOL    HW122259   1.680   3.411   6.294  0.1080 -1.2122 -2.9206
 3542SOL    HW222260   1.690   3.275   6.263  0.4497 -0.1537  1.0287
 3543SOL     OW22261   3.458   4.119   6.490 -0.2694  0.4638 -0.0275
 3543SOL    HW122262   3.531   4.063   6.465  0.4382  1.0711  0.6830
 3543SOL    HW222263   3.501   4.201   6.470  1.2881 -0.4935 -0.5868
 3544SOL     OW22264   3.757   0.010   6.231 -0.0358 -0.5841 -0.9117
 3544SOL    HW122265   3.788   0.095   6.199 -0.2366  0.8432  2.6134
 3544SOL    HW222266   3.665   0.018   6.204  0.1428  0.1310 -1.3135
 3545SOL     OW22267   2.462   3.409   0.140  0.4075 -0.0954 -0.8091
 3545SOL    HW122268   2.556   3.394   0.137  0.0926 -2.2393 -0.0937
 3545SOL    HW222269   2.453   3.461   0.219 -1.0564  1.0906 -1.7447
 3546SOL     OW22270   3.294   3.816  16.559  0.0052  0.3525  0.0785
 3546SOL    HW122271   3.211   3.856  16.582  0.9993  1.5629  1.5124
 3546SOL    HW222272   3.345   3.816  16.640 -0.9543 -1.7440  0.6946
 3547SOL     OW22273   1.168   3.659  11.345 -0.4650  0.1948  0.3112
 3547SOL    HW122274   1.131   3.722  11.408  0.5009  0.0043  1.0691
 3547SOL    HW222275   1.188   3.587  11.405 -0.9168 -0.4435 -0.3099
 3548SOL     OW22276   3.075   0.215  16.472 -0.1569 -0.4103  0.8653
 3548SOL    HW122277   3.027   0.232  16.554  0.5258 -0.2068  1.2157
 3548SOL    HW222278   3.023   0.286  16.434 -0.6674 -1.9285 -1.2474
 3549SOL     OW22279   4.223   2.294   4.351  0.2507  0.4848 -0.2392
 3549SOL    HW122280   4.289   2.320   4.287  0.2113  1.6676  0.2137
 3549SOL    HW222281   4.265   2.231   4.411 -0.9767 -0.3449 -0.2483
 3550SOL     OW22282   2.210   2.608  14.561 -0.1455 -0.3321  0.2691
 3550SOL    HW122283   2.233   2.639  14.648  1.8079  0.2849 -0.4791
 3550SOL    HW222284   2.285   2.643  14.513 -0.2969 -1.1998 -0.5945
 3551SOL     OW22285   0.437   3.880  12.575 -0.3488 -0.4880  0.3174
 3551SOL    HW122286   0.368   3.910  12.515  1.5930  0.8543 -1.2324
 3551SOL    HW222287   0.415   3.942  12.645  0.7207  0.4939 -0.2296
 3552SOL     OW22288   4.098   2.832   8.955  0.0700 -0.4421  0.2291
 3552SOL    HW122289   4.145   2.752   8.932  0.3070  0.1772 -1.4396
 3552SOL    HW222290   4.153   2.855   9.029 -0.8592  1.2121  0.4023
 3553SOL     OW22291   3.732   0.612  16.172  0.4461 -0.3663 -0.3251
 3553SOL    HW122292   3.710   0.670  16.245  1.2497 -0.3157 -0.1212
 3553SOL    HW222293   3.748   0.672  16.100  1.5602  1.3099  1.3212
 3554SOL     OW22294   1.667   1.569  10.798 -0.0592  0.0126 -0.4544
 3554SOL    HW122295   1.686   1.600  10.886  1.4897 -0.4832 -0.6171
 3554SOL    HW222296   1.613   1.639  10.761  2.0554  1.8865  0.0344
 3555SOL     OW22297   4.061   2.109   2.142  0.0928 -0.3859  0.1504
 3555SOL    HW122298   4.098   2.026   2.173  0.4630 -0.0265  0.6649
 3555SOL    HW222299   3.991   2.090   2.079 -2.4499 -0.0502  2.8976
 3556SOL     OW22300   3.648   4.692   3.171 -0.0202 -0.1857 -0.0590
 3556SOL    HW122301   3.725   4.658   3.124  0.5112  0.7864  0.0915
 3556SOL    HW222302   3.583   4.630   3.139  1.6125 -2.0043  0.1081
 3557SOL     OW22303   0.759   3.091  16.467  0.0328  0.0182 -0.3839
 3557SOL    HW122304   0.829   3.027  16.474  0.5260  0.5660 -0.3777
 3557SOL    HW222305   0.706   3.053  16.396 -0.2257 -3.6291  1.7758
 3558SOL     OW22306   2.700   2.514   3.094 -0.0382  0.1419  0.4054
 3558SOL    HW122307   2.741   2.580   3.039  1.0481  0.4058  1.5308
 3558SOL    HW222308   2.643   2.473   3.028 -0.9923  0.4398  1.0373
 3559SOL     OW22309   2.490   4.357   2.511 -0.3951 -0.1020  0.1291
 3559SOL    HW122310   2.506   4.449   2.533 -0.3969  0.5849 -2.7460
 3559SOL    HW222311   2.469   4.371   2.419  3.3842 -0.8526 -0.8514
 3560SOL     OW22312   1.577   1.412   5.194 -0.0459  0.4362  0.3441
 3560SOL    HW122313   1.636   1.478   5.231  1.5431 -0.3031 -0.8455
 3560SOL    HW222314   1.501   1.458   5.158  0.2279  0.8732  0.3324
 3561SOL     OW22315   1.509   1.749   6.522 -0.4524  0.3760  0.4426
 3561SOL    HW122316   1.462   1.832   6.509  0.9046  0.9095 -1.0180
 3561SOL    HW222317   1.508   1.716   6.432  2.6170  0.2169  0.4662
 3562SOL     OW22318   4.388   2.555   8.201 -0.0686  0.0234 -0.4795
 3562SOL    HW122319   4.449   2.617   8.160  2.0605 -1.3714  0.6018
 3562SOL    HW222320   4.381   2.598   8.286 -2.3211  0.1618 -0.7242
 3563SOL     OW22321   2.884   0.142   8.966 -0.7334 -0.3713 -0.1396
 3563SOL    HW122322   2.909   0.225   8.925 -0.3583 -0.3218  0.1929
 3563SOL    HW222323   2.970   0.112   8.994 -0.5381  0.8721  0.5580
 3564SOL     OW22324   1.333   0.022   1.496  0.1971 -0.1835  1.0415
 3564SOL    HW122325   1.398   4.730   1.559 -0.4244 -5.1598 -0.7094
 3564SOL    HW222326   1.323   4.690   1.432 -2.6280  1.6183 -0.5636
 3565SOL     OW22327   4.035   2.444   7.210  0.0404 -0.9077 -0.1091
 3565SOL    HW122328   4.074   2.526   7.241  0.8862 -1.0763 -0.7068
 3565SOL    HW222329   4.107   2.382   7.223  1.9456  0.9806 -1.5853
 3566SOL     OW22330   1.069   3.685   1.829 -0.1483  0.3051 -1.0544
 3566SOL    HW122331   1.127   3.750   1.869 -0.5153  1.0214 -1.6773
 3566SOL    HW222332   1.131   3.643   1.770  0.7578 -2.5436  1.9364
 3567SOL     OW22333   4.016   3.128   6.470 -0.6816  0.5087 -0.1391
 3567SOL    HW122334   4.106   3.130   6.436  0.1852  0.6084  2.1550
 3567SOL    HW222335   3.967   3.069   6.412 -1.4642  1.4078 -0.3788
 3568SOL     OW22336   4.046   2.024   8.931 -0.1699 -0.5103 -0.0625
 3568SOL    HW122337   4.132   2.043   8.895 -0.0459 -1.5245 -0.3068
 3568SOL    HW222338   4.005   2.095   8.882  2.9841  1.2594 -0.0837
 3569SOL     OW22339   1.114   1.504   9.129 -0.1476  0.1346 -0.0174
 3569SOL    HW122340   1.051   1.439   9.161 -0.3117  0.0527 -0.5050
 3569SOL    HW222341   1.182   1.490   9.195 -0.8808 -1.7733  0.3337
 3570SOL     OW22342   0.171   0.036  11.050 -0.1534 -0.7472  0.1694
 3570SOL    HW122343   0.246   4.717  11.067  0.4399 -0.0883 -0.2607
 3570SOL    HW222344   0.156   0.083  11.132 -2.8930 -1.1353 -0.1095
 3571SOL     OW22345   4.480   3.503   4.144 -0.3259 -0.0582 -0.3510
 3571SOL    HW122346   4.484   3.416   4.186  0.2386  0.2296  0.1837
 3571SOL    HW222347   4.503   3.478   4.055 -1.0540  0.3212 -0.6444
 3572SOL     OW22348   4.153   2.709   6.880 -0.5858 -0.8864  0.1007
 3572SOL    HW122349   4.161   2.723   6.975  1.0566  0.8885 -0.2989
 3572SOL    HW222350   4.245   2.712   6.855 -0.6672  0.3144 -0.0485
 3573SOL     OW22351   2.851   4.616   4.747 -0.8400  0.5153 -0.1972
 3573SOL    HW122352   2.872   4.524   4.731  0.5463  0.4368  1.9957
 3573SOL    HW222353   2.936   4.660   4.741  0.1318 -1.5188 -1.0776
 3574SOL     OW22354   0.188   0.537  12.867 -0.0656 -0.5204 -0.5086
 3574SOL    HW122355   0.132   0.460  12.872  1.8212 -1.9011 -0.4834
 3574SOL    HW222356   0.123   0.608  12.872  0.6817  0.1564 -0.3154
 3575SOL     OW22357   1.282   4.100   1.421  0.1017 -0.2378 -0.5318
 3575SOL    HW122358   1.244   4.012   1.418 -1.6309  0.5388 -1.0589
 3575SOL    HW222359   1.243   4.132   1.502 -0.2635 -1.7188 -0.1214
 3576SOL     OW22360   4.668   1.634  10.420  0.3043 -0.3486 -0.1976
 3576SOL    HW122361   0.016   1.620  10.382 -0.0947 -0.3593 -1.1117
 3576SOL    HW222362   4.636   1.714  10.378 -1.3829 -0.4664  0.8801
 3577SOL     OW22363   1.071   0.802   5.738  0.1116 -0.1553  0.1557
 3577SOL    HW122364   1.132   0.819   5.811  3.5833 -2.6558 -2.1386
 3577SOL    HW222365   1.108   0.727   5.692 -0.4827 -1.0178  1.0835
 3578SOL     OW22366   1.909   2.775   9.319 -0.0757  0.0695 -0.2871
 3578SOL    HW122367   1.917   2.708   9.252 -0.0198  0.5844 -0.7954
 3578SOL    HW222368   2.000   2.781   9.348 -0.4214  0.9947  0.6120
 3579SOL     OW22369   0.206   2.210   1.221 -0.2188  0.6412  0.1558
 3579SOL    HW122370   0.128   2.233   1.271  0.0604  1.3729  0.2587
 3579SOL    HW222371   0.232   2.128   1.263 -1.5545  0.0973 -0.0898
 3580SOL     OW22372   0.103   3.144   4.692  0.4128 -0.7155 -0.2380
 3580SOL    HW122373   0.169   3.209   4.714 -0.4649 -0.1567  0.7363
 3580SOL    HW222374   0.164   3.080   4.655  0.5297 -0.0881 -1.1439
 3581SOL     OW22375   0.991   2.152  14.814  0.6286 -0.2245  0.4960
 3581SOL    HW122376   1.047   2.227  14.836  0.2706  0.7334 -1.8220
 3581SOL    HW222377   1.052   2.119  14.748 -0.9891  0.1877 -1.2033
 3582SOL     OW22378   2.276   3.499   5.524 -0.6355 -0.0756  0.1246
 3582SOL    HW122379   2.345   3.559   5.496  1.4074 -2.2868  0.4828
 3582SOL    HW222380   2.266   3.519   5.617 -1.0672  1.2023 -0.1992
 3583SOL     OW22381   4.338   1.021   7.742  0.0549 -0.1046  0.0648
 3583SOL    HW122382   4.304   1.062   7.662 -1.0709 -0.2877  0.4468
 3583SOL    HW222383   4.266   1.000   7.801  1.1943  0.4816  1.6639
 3584SOL     OW22384   4.726   1.317   9.640 -0.2738  0.2107  0.5122
 3584SOL    HW122385   4.738   1.255   9.712 -0.0381 -1.0448 -0.6101
 3584SOL    HW222386   4.729   1.251   9.571 -0.6453 -1.4322  2.0597
 3585SOL     OW22387   2.961   4.078  17.269 -0.3844 -0.0333  0.0770
 3585SOL    HW122388   3.043   4.063  17.317 -0.0987 -0.8379 -0.6701
 3585SOL    HW222389   2.935   3.987  17.262  0.5587 -0.2469 -0.6960
 3586SOL     OW22390   3.171   1.005   5.760 -0.3922  0.0338  0.0102
 3586SOL    HW122391   3.258   0.985   5.794 -0.2449 -0.8311 -0.8703
 3586SOL    HW222392   3.152   1.074   5.823 -0.7731 -0.6586  0.6548
 3587SOL     OW22393   0.662   2.060  10.466  0.4531 -0.4828 -0.1464
 3587SOL    HW122394   0.649   1.979  10.517 -1.4932  0.3912  0.7810
 3587SOL    HW222395   0.753   2.084  10.482  0.3517  0.4352 -0.9915
 3588SOL     OW22396   4.665   2.012   4.052 -0.3609  0.0204 -0.9170
 3588SOL    HW122397   4.726   1.988   4.121 -0.8436 -2.9629 -1.5288
 3588SOL    HW222398   4.702   2.087   4.005 -0.3523  1.3965  1.3077
 3589SOL     OW22399   2.352   1.416   2.146 -0.4002 -0.4407 -0.0606
 3589SOL    HW122400   2.414   1.484   2.123  0.4545 -0.9262  0.8063
 3589SOL    HW222401   2.378   1.400   2.237  0.1136  0.8919  0.0263
 3590SOL     OW22402   1.223   3.713  11.089  0.0332  0.1451 -0.0788
 3590SOL    HW122403   1.216   3.701  11.184  2.1531 -1.9722 -0.1679
 3590SOL    HW222404   1.226   3.807  11.075  0.5465  0.0108 -0.8328
 3591SOL     OW22405   1.463   3.229   9.800 -0.0965 -0.3163 -0.3536
 3591SOL    HW122406   1.483   3.247   9.709 -2.7118  0.9636 -0.6547
 3591SOL    HW222407   1.383   3.179   9.787  0.3662 -1.6623  1.9327
 3592SOL     OW22408   3.563   2.844  17.654  0.3029 -0.2209  0.3131
 3592SOL    HW122409   3.474   2.847  17.688  0.1832  0.0801 -0.0310
 3592SOL    HW222410   3.571   2.920  17.596 -0.1294 -1.4627 -1.3518
 3593SOL     OW22411   3.121   1.981   2.800  0.4093  0.0715 -0.6285
 3593SOL    HW122412   3.201   1.955   2.755  0.0764 -1.5790 -0.2672
 3593SOL    HW222413   3.155   2.055   2.851  0.4519 -0.7540  0.5460
 3594SOL     OW22414   0.493   2.611   5.779  0.2704  0.0116 -0.7402
 3594SOL    HW122415   0.462   2.695   5.744  3.2758  1.4471  0.0863
 3594SOL    HW222416   0.548   2.642   5.851 -0.3371 -0.9445  0.1247
 3595SOL     OW22417   0.147   4.508   8.582  0.3733  0.3051 -0.1119
 3595SOL    HW122418   0.103   4.440   8.533  2.1798 -1.2619  0.4514
 3595SOL    HW222419   0.128   4.586   8.530 -1.6327  0.1298  0.3513
 3596SOL     OW22420   3.944   3.039   6.004 -0.4979 -0.7520 -0.0300
 3596SOL    HW122421   3.860   3.070   6.035  0.1150  0.9591 -0.0959
 3596SOL    HW222422   3.962   3.099   5.932  0.1853 -0.6909  0.1913
 3597SOL     OW22423   0.784   2.506   0.811  0.3329  0.0041  0.5037
 3597SOL    HW122424   0.794   2.588   0.764  2.1636  0.0393  0.9645
 3597SOL    HW222425   0.770   2.447   0.737 -0.7381  0.3120  0.4660
 3598SOL     OW22426   2.071   1.230  14.348 -0.1458 -0.1620  0.4443
 3598SOL    HW122427   2.004   1.252  14.413 -2.8185 -0.0222 -2.3516
 3598SOL    HW222428   2.008   1.210  14.279 -0.1454  0.1483  0.3552
 3599SOL     OW22429   2.520   1.813  17.602  0.7705  0.0917 -0.0789
 3599SOL    HW122430   2.467   1.736  17.586 -0.9262  0.9032  1.6333
 3599SOL    HW222431   2.507   1.824  17.696 -0.7176  1.7594 -0.4878
 3600SOL     OW22432   4.515   3.002   7.260  0.0650 -0.0335 -0.1333
 3600SOL    HW122433   4.554   3.036   7.341  0.8906 -0.3991 -0.3817
 3600SOL    HW222434   4.439   2.962   7.303  0.0359 -0.9661 -1.0431
 3601SOL     OW22435   0.636   2.102   3.485  0.2380  0.8422 -0.5180
 3601SOL    HW122436   0.728   2.124   3.470  0.2803  0.9811 -0.0740
 3601SOL    HW222437   0.623   2.128   3.577 -0.0583  1.1618 -0.6486
 3602SOL     OW22438   1.563   4.704  14.181  0.3047 -0.0983 -0.1893
 3602SOL    HW122439   1.490   4.647  14.206 -1.0808  2.5630  1.8263
 3602SOL    HW222440   1.577   0.004  14.267 -1.1797  0.8139 -0.3629
 3603SOL     OW22441   1.029   0.522  13.986  0.0782 -0.2953 -0.2788
 3603SOL    HW122442   0.963   0.466  14.028  0.8083 -1.5912 -0.8640
 3603SOL    HW222443   1.102   0.463  13.967 -0.0948 -0.1427 -1.4068
 3604SOL     OW22444   3.677   4.246  15.422 -0.0747 -0.0559  0.2034
 3604SOL    HW122445   3.746   4.293  15.470  1.1512 -1.4956 -0.1640
 3604SOL    HW222446   3.709   4.159  15.447 -0.4192 -0.0714  0.5905
 3605SOL     OW22447   4.543   3.891  13.499 -0.1148 -0.2188 -0.0076
 3605SOL    HW122448   4.600   3.887  13.422  1.7693  3.0442  1.2032
 3605SOL    HW222449   4.602   3.943  13.554 -2.6814  2.7422 -0.0259
 3606SOL     OW22450   1.285   3.055   4.459 -0.5049  0.4846  0.9979
 3606SOL    HW122451   1.224   3.098   4.518 -1.2140  1.1889 -0.2453
 3606SOL    HW222452   1.261   2.965   4.477 -2.1087  1.0389  1.5792
 3607SOL     OW22453   3.052   4.075   4.074  0.5265  0.2838  0.1201
 3607SOL    HW122454   3.127   4.043   4.024  1.2698 -0.2474  1.5715
 3607SOL    HW222455   3.024   4.003   4.130 -1.1356  0.4014 -0.5684
 3608SOL     OW22456   2.285   3.206  16.538  0.1078 -0.3810 -0.7339
 3608SOL    HW122457   2.268   3.240  16.451  0.6210 -2.2120 -1.5639
 3608SOL    HW222458   2.231   3.127  16.537  1.0933 -1.0783  0.2982
 3609SOL     OW22459   3.925   2.917   9.227  0.1726  0.4354 -0.4251
 3609SOL    HW122460   3.835   2.890   9.206  0.0302 -1.1900  2.3334
 3609SOL    HW222461   3.973   2.874   9.155 -0.6998 -0.2041 -0.6304
 3610SOL     OW22462   1.637   4.409   5.715  0.0504 -0.0598 -0.1874
 3610SOL    HW122463   1.602   4.321   5.705 -0.8855  0.1615  1.1442
 3610SOL    HW222464   1.625   4.420   5.810  1.4825 -0.2356  0.0150
 3611SOL     OW22465   3.285   1.388  16.675  0.2652 -0.4375  0.2897
 3611SOL    HW122466   3.242   1.340  16.746 -2.2174  0.3296 -0.7020
 3611SOL    HW222467   3.213   1.444  16.645  1.8939  1.1887 -0.5846
 3612SOL     OW22468   1.209   2.619  12.629 -0.3339  0.1807 -0.5379
 3612SOL    HW122469   1.286   2.661  12.591 -0.2317  1.2565  0.8734
 3612SOL    HW222470   1.211   2.541  12.573  0.2416  1.2799 -2.0239
 3613SOL     OW22471   2.269   3.556   6.226 -0.2143 -0.7026 -0.0194
 3613SOL    HW122472   2.361   3.532   6.228 -0.2480 -0.7463  0.8021
 3613SOL    HW222473   2.221   3.481   6.261 -1.2916  0.5637  1.2074
 3614SOL     OW22474   2.671   2.391  10.795 -0.0535  0.0604 -0.3703
 3614SOL    HW122475   2.629   2.471  10.765  2.6423  0.7621 -2.3457
 3614SOL    HW222476   2.630   2.380  10.880 -1.4807  0.6867 -0.9856
 3615SOL     OW22477   0.046   4.390   8.340  0.7111 -0.0946 -0.2426
 3615SOL    HW122478   4.710   4.430   8.297  0.6030  0.1278  0.1540
 3615SOL    HW222479   0.066   4.314   8.284  0.7560  1.0312 -1.7363
 3616SOL     OW22480   0.540   3.694   4.300 -0.1853  0.3334 -0.2497
 3616SOL    HW122481   0.511   3.763   4.240 -1.4083 -0.3549 -0.4536
 3616SOL    HW222482   0.474   3.696   4.370  1.8726 -1.6118  1.7676
 3617SOL     OW22483   0.713   2.045   5.707 -0.0730 -0.0734 -0.5241
 3617SOL    HW122484   0.803   2.077   5.696  0.0856 -0.2718  0.1423
 3617SOL    HW222485   0.740   1.971   5.763 -0.5198 -0.1039 -0.3501
 3618SOL     OW22486   1.303   4.077   9.312  0.1381  0.3986  0.1387
 3618SOL    HW122487   1.311   4.047   9.403  0.6424 -2.5112 -0.8573
 3618SOL    HW222488   1.390   4.060   9.275 -0.1536 -0.4355 -0.1616
 3619SOL     OW22489   2.073   2.303  10.148 -0.6794  0.1139  0.1579
 3619SOL    HW122490   1.983   2.277  10.132 -0.6632 -1.5829  2.7927
 3619SOL    HW222491   2.097   2.252  10.225  0.3044  2.4339  1.3890
 3620SOL     OW22492   4.042   4.467   8.063 -0.1281 -0.1291 -0.1449
 3620SOL    HW122493   3.991   4.400   8.108 -1.3173  0.1165 -1.1300
 3620SOL    HW222494   4.130   4.447   8.096 -0.1889 -0.4146 -0.1504
 3621SOL     OW22495   1.619   3.016   3.399 -0.2629  0.5049 -0.1176
 3621SOL    HW122496   1.529   3.042   3.419 -0.8245 -3.0104  2.0477
 3621SOL    HW222497   1.611   3.046   3.308  1.5904  1.3610  0.0075
 3622SOL     OW22498   2.366   4.401   7.555 -0.1933  0.7530 -0.0965
 3622SOL    HW122499   2.430   4.350   7.604  0.4937  2.3872  0.7016
 3622SOL    HW222500   2.384   4.495   7.561 -0.3718  0.6426  2.2462
 3623SOL     OW22501   4.701   4.088  17.111  0.8943 -1.2152 -0.3790
 3623SOL    HW122502   4.608   4.075  17.092  0.3526  0.2741  1.3188
 3623SOL    HW222503   4.710   4.068  17.204 -1.8078  0.6845  0.2643
 3624SOL     OW22504   1.704   3.663   0.718  0.1446 -0.7935 -0.0977
 3624SOL    HW122505   1.686   3.662   0.625  0.8767 -1.0490 -0.2416
 3624SOL    HW222506   1.624   3.697   0.758  0.6280  0.8301 -0.5425
 3625SOL     OW22507   2.317   2.978   8.037 -0.1331  0.0798 -0.3039
 3625SOL    HW122508   2.377   3.049   8.060 -0.0386  0.0784 -0.5510
 3625SOL    HW222509   2.265   3.027   7.974 -1.6542 -0.2714  0.6695
 3626SOL     OW22510   2.806   4.543   2.316  0.5076  0.6324 -0.0590
 3626SOL    HW122511   2.765   4.531   2.402  1.4992  0.5320  0.3996
 3626SOL    HW222512   2.748   4.500   2.253  1.7995 -0.6974 -0.3237
 3627SOL     OW22513   0.450   1.375   3.552  0.0776  0.2683  0.1668
 3627SOL    HW122514   0.537   1.365   3.512 -0.7357  1.3369 -1.9050
 3627SOL    HW222515   0.430   1.284   3.572 -2.5474  0.5294 -1.2685
 3628SOL     OW22516   1.130   4.302  11.902  1.0914 -0.4928  0.2493
 3628SOL    HW122517   1.217   4.296  11.942  1.5047  0.1239 -0.5622
 3628SOL    HW222518   1.146   4.384  11.854 -2.1591  1.0334  1.7643
 3629SOL     OW22519   1.922   2.019   1.885  0.2612 -0.8902 -0.6290
 3629SOL    HW122520   1.937   2.107   1.849 -0.2019 -1.3941 -2.0373
 3629SOL    HW222521   1.932   2.036   1.979  1.7895  0.2848 -0.9928
 3630SOL     OW22522   0.153   2.459   3.445  0.2249  0.1099 -0.0120
 3630SOL    HW122523   0.186   2.369   3.449  0.5024  0.1228 -1.8175
 3630SOL    HW222524   0.070   2.444   3.399  0.2161  0.6099 -0.1593
 3631SOL     OW22525   4.161   0.498   6.965 -0.1516 -0.0611 -0.0407
 3631SOL    HW122526   4.148   0.585   6.926 -2.5080 -0.1901  0.4481
 3631SOL    HW222527   4.234   0.465   6.913  1.2947  1.7226  0.8481
 3632SOL     OW22528   0.511   3.863  16.867 -0.2454  0.2365 -0.4278
 3632SOL    HW122529   0.568   3.790  16.890 -1.0520 -0.4784 -0.6729
 3632SOL    HW222530   0.476   3.836  16.782 -0.5782  1.6643 -0.7469
 3633SOL     OW22531   1.089   1.378  13.317  0.3328 -0.0437  0.1738
 3633SOL    HW122532   1.056   1.318  13.251  1.9882 -0.6201 -0.1422
 3633SOL    HW222533   1.108   1.318  13.389 -0.1727 -0.9985 -0.4938
 3634SOL     OW22534   1.356   0.315  11.026  0.2398  0.2441 -0.4385
 3634SOL    HW122535   1.313   0.400  11.034 -0.2982 -0.1331  0.6177
 3634SOL    HW222536   1.432   0.338  10.972 -0.2734 -0.2321 -1.3685
 3635SOL     OW22537   0.894   1.849   6.299  0.5750 -0.4420  0.3582
 3635SOL    HW122538   0.912   1.769   6.250 -0.0048  0.4854 -1.3868
 3635SOL    HW222539   0.804   1.874   6.275  0.6095  0.9622  1.7139
 3636SOL     OW22540   3.471   0.809  17.303 -0.1271 -0.1731 -0.6385
 3636SOL    HW122541   3.549   0.856  17.273 -0.0687  0.2439  0.1719
 3636SOL    HW222542   3.397   0.869  17.305  0.9341  1.0447  2.4464
 3637SOL     OW22543   0.189   3.608   5.796  0.0770 -0.1938  0.1663
 3637SOL    HW122544   0.165   3.535   5.739  2.1274 -0.6316 -0.1325
 3637SOL    HW222545   0.197   3.674   5.727 -1.0389 -1.1672 -0.9069
 3638SOL     OW22546   1.717   0.529   0.414 -0.0317 -0.1299  0.3942
 3638SOL    HW122547   1.734   0.622   0.396  1.6032 -0.1662  1.7485
 3638SOL    HW222548   1.808   0.503   0.429  0.6649  2.2525  0.4490
 3639SOL     OW22549   2.543   2.234  15.375  0.0955  0.5814  0.5004
 3639SOL    HW122550   2.462   2.280  15.395  0.2101  1.2220 -0.4741
 3639SOL    HW222551   2.515   2.181  15.300 -1.3809 -0.2144  1.6198
 3640SOL     OW22552   0.467   4.278   6.062 -0.1159  0.4404 -0.3016
 3640SOL    HW122553   0.422   4.241   6.138 -0.6020 -1.4306 -1.5014
 3640SOL    HW222554   0.406   4.243   5.997  0.8211 -0.5122 -0.6823
 3641SOL     OW22555   0.158   0.475   5.882  0.2225  0.1044 -0.2534
 3641SOL    HW122556   0.115   0.551   5.843  2.5331  1.5389 -0.0011
 3641SOL    HW222557   0.158   0.418   5.805  1.2134 -1.4817  0.9300
 3642SOL     OW22558   2.315   4.708   6.646  0.2180 -0.1729 -0.1542
 3642SOL    HW122559   2.271   0.051   6.622 -0.3245 -1.4532 -3.6066
 3642SOL    HW222560   2.259   4.690   6.721 -0.2513 -2.7092 -1.0996
 3643SOL     OW22561   1.512   0.441   0.604  0.0246  0.8681  0.0272
 3643SOL    HW122562   1.578   0.479   0.546 -0.5886  1.5977 -0.1936
 3643SOL    HW222563   1.513   0.355   0.563  0.2808  0.4074  1.0028
 3644SOL     OW22564   3.322   2.402   5.843 -0.6289 -0.1998 -0.6174
 3644SOL    HW122565   3.342   2.496   5.837  0.5858 -0.4724 -0.8608
 3644SOL    HW222566   3.227   2.400   5.832 -0.8228  0.1990  1.1190
 3645SOL     OW22567   4.603   0.280   5.052 -0.4357 -0.0100  0.1598
 3645SOL    HW122568   4.569   0.346   4.992  0.3694  2.0964  2.0130
 3645SOL    HW222569   4.624   0.210   4.990  0.2505  0.1577  0.2007
 3646SOL     OW22570   2.159   2.328   3.612 -0.5051 -0.6735 -0.0837
 3646SOL    HW122571   2.083   2.273   3.630 -1.8272  0.2258 -2.7662
 3646SOL    HW222572   2.141   2.395   3.679  0.6816  0.5623 -0.9966
 3647SOL     OW22573   1.643   4.426   2.040 -0.0993  0.3044  0.2334
 3647SOL    HW122574   1.666   4.514   2.070  1.7584 -0.3125  0.5915
 3647SOL    HW222575   1.576   4.400   2.103 -0.8625 -1.1342 -1.1761
 3648SOL     OW22576   2.787   4.635   0.185 -0.3060 -0.1982 -0.0248
 3648SOL    HW122577   2.803   4.612   0.094  0.4411  1.4159 -0.2901
 3648SOL    HW222578   2.712   4.576   0.198 -0.6303 -0.2516 -2.2088
 3649SOL     OW22579   2.173   1.946  16.475  0.0432 -0.3591 -0.0230
 3649SOL    HW122580   2.082   1.978  16.476  0.3053  0.3277  1.3646
 3649SOL    HW222581   2.176   1.864  16.525 -1.6262 -0.2965  0.1954
 3650SOL     OW22582   1.173   3.530   0.062 -0.6102 -0.1684 -0.0521
 3650SOL    HW122583   1.158   3.559  17.725 -2.4698 -2.5063 -0.4991
 3650SOL    HW222584   1.176   3.435   0.057  1.3674 -0.1343  0.5513
 3651SOL     OW22585   1.900   2.868   6.831 -0.0883 -0.0674 -0.5602
 3651SOL    HW122586   1.832   2.880   6.897  2.1547  1.0282  1.5679
 3651SOL    HW222587   1.934   2.955   6.811 -2.7925  1.1553  0.2275
 3652SOL     OW22588   2.824   2.310   3.268 -0.0953  0.0961  0.0434
 3652SOL    HW122589   2.808   2.393   3.222 -1.7857 -1.0562 -1.4432
 3652SOL    HW222590   2.747   2.258   3.245  1.9648 -3.7306  1.7877
 3653SOL     OW22591   3.066   2.445   9.935 -0.4906  0.8751 -0.0280
 3653SOL    HW122592   3.070   2.373   9.872  0.0587  0.2677  0.6946
 3653SOL    HW222593   3.157   2.444   9.965 -0.5805 -1.2631  0.2304
 3654SOL     OW22594   0.755   0.863   7.865  0.1634 -0.3571 -0.2361
 3654SOL    HW122595   0.811   0.917   7.809 -0.0354  0.9695  0.8313
 3654SOL    HW222596   0.735   0.785   7.813  1.7097 -1.1635  0.3899
 3655SOL     OW22597   1.433   0.067   7.865 -0.4828  0.3899 -0.5799
 3655SOL    HW122598   1.361   0.045   7.924  1.7889 -1.3889  1.5100
 3655SOL    HW222599   1.510   0.061   7.921 -1.3827  1.2231  0.7580
 3656SOL     OW22600   0.696   4.676  15.094  0.5735 -0.1947  0.0608
 3656SOL    HW122601   0.641   4.644  15.022  0.5577  1.0431 -0.4700
 3656SOL    HW222602   0.781   4.681  15.050  2.0263 -0.1625  2.8487
 3657SOL     OW22603   1.163   4.400   5.313  0.2737 -0.1789  0.0973
 3657SOL    HW122604   1.074   4.364   5.310  0.6082 -0.9446 -0.7612
 3657SOL    HW222605   1.187   4.399   5.405 -0.2086  0.0633  0.2221
 3658SOL     OW22606   0.593   2.963   1.527  0.2619 -0.1050 -0.4453
 3658SOL    HW122607   0.583   2.919   1.612 -2.8335 -0.3314 -0.9553
 3658SOL    HW222608   0.670   2.921   1.489  1.7940 -0.0164  2.5570
 3659SOL     OW22609   2.356   2.433  17.619 -0.2109  0.0044  0.0188
 3659SOL    HW122610   2.261   2.447  17.612 -0.0319 -0.0458 -2.6154
 3659SOL    HW222611   2.365   2.359  17.679 -0.6598  1.7992  2.3074
 3660SOL     OW22612   0.756   3.572  16.563  0.3326  0.4126 -0.7704
 3660SOL    HW122613   0.831   3.513  16.567 -1.3861 -1.5163  3.0104
 3660SOL    HW222614   0.688   3.505  16.551  0.1005  0.1969  1.7288
 3661SOL     OW22615   3.040   0.293  13.629  0.4728  0.3052 -0.0281
 3661SOL    HW122616   2.993   0.372  13.656 -1.8464 -0.3635 -2.1079
 3661SOL    HW222617   3.025   0.232  13.701  2.3979  0.5873  0.6106
 3662SOL     OW22618   0.831   3.343   1.818  0.5934 -0.3251  0.7550
 3662SOL    HW122619   0.815   3.431   1.785 -1.8518 -0.5903  1.2288
 3662SOL    HW222620   0.872   3.377   1.898 -1.2522  2.2218  0.6257
 3663SOL     OW22621   4.337   2.162   2.065 -0.1056  0.4588  0.6687
 3663SOL    HW122622   4.372   2.106   2.133 -0.8415 -0.3462  0.3802
 3663SOL    HW222623   4.243   2.168   2.086  0.5060  1.4298  3.0859
 3664SOL     OW22624   1.813   0.885   9.129  0.1476 -0.3074 -0.2216
 3664SOL    HW122625   1.816   0.975   9.159 -2.9744  0.0386 -0.9274
 3664SOL    HW222626   1.851   0.833   9.199  0.2045  1.5294  1.0956
 3665SOL     OW22627   3.968   4.211   2.264  0.3765 -0.1489  0.2013
 3665SOL    HW122628   3.979   4.160   2.344  1.6578 -0.9190 -0.4594
 3665SOL    HW222629   4.005   4.294   2.293  2.3199 -1.0440  0.2618
 3666SOL     OW22630   2.444   1.323   6.811  0.5206 -0.3369 -0.5248
 3666SOL    HW122631   2.361   1.370   6.804  1.9522  2.4939  1.5951
 3666SOL    HW222632   2.441   1.253   6.746  1.2814  0.2550 -1.1936
 3667SOL     OW22633   3.528   2.667   1.910 -0.6388  0.0125  0.0349
 3667SOL    HW122634   3.584   2.638   1.983 -0.4768 -0.5281 -0.3025
 3667SOL    HW222635   3.580   2.627   1.840 -0.5236 -1.5749  1.0226
 3668SOL     OW22636   3.834   3.268  14.351  0.1450  0.0107  0.3010
 3668SOL    HW122637   3.892   3.250  14.426  1.1588  2.6987  0.1663
 3668SOL    HW222638   3.749   3.242  14.387 -0.2446  1.7502  0.6443
 3669SOL     OW22639   3.337   3.956   3.895  0.1185 -0.3421 -0.1763
 3669SOL    HW122640   3.333   4.011   3.816  0.9162  0.8961  0.6436
 3669SOL    HW222641   3.402   3.888   3.875 -0.3068 -0.7234 -0.2685
 3670SOL     OW22642   4.392   1.039  10.785 -0.0241  0.2043  0.0720
 3670SOL    HW122643   4.466   1.011  10.839 -0.6015  0.0351  0.7816
 3670SOL    HW222644   4.421   1.130  10.779  2.3304 -0.5135  0.4734
 3671SOL     OW22645   2.446   1.944   8.370 -0.2960 -0.0300 -0.8278
 3671SOL    HW122646   2.368   1.892   8.391 -1.0410  0.9993 -1.0126
 3671SOL    HW222647   2.488   1.899   8.297 -0.8839 -0.2072 -1.0564
 3672SOL     OW22648   0.280   2.953   7.137  0.7656  0.3451 -0.6981
 3672SOL    HW122649   0.190   2.927   7.121  0.7986 -1.5285  2.1461
 3672SOL    HW222650   0.303   2.917   7.052  0.5297 -2.9444  0.6101
 3673SOL     OW22651   0.200   4.544   1.919  0.2030  0.4801 -0.0079
 3673SOL    HW122652   0.180   4.489   1.843 -0.7567  0.2612  0.3947
 3673SOL    HW222653   0.120   4.545   1.972  0.1453  1.2880 -0.1232
 3674SOL     OW22654   4.125   1.711   9.666  0.2197  0.0139  0.3666
 3674SOL    HW122655   4.132   1.640   9.729 -0.5723  0.5820  1.0928
 3674SOL    HW222656   4.034   1.709   9.636  0.0479  1.1625  0.7918
 3675SOL     OW22657   4.207   4.691  11.333  0.2806 -0.5409  0.3847
 3675SOL    HW122658   4.150   4.615  11.333  0.3134 -0.5655  0.1434
 3675SOL    HW222659   4.197   4.718  11.425  1.7230  0.0414  0.3761
 3676SOL     OW22660   4.124   4.709   9.185  0.3212 -0.0770 -0.3231
 3676SOL    HW122661   4.080   4.721   9.269 -0.5080  2.8773 -1.1697
 3676SOL    HW222662   4.106   0.056   9.146  0.1418  0.8706  1.8227
 3677SOL     OW22663   1.769   3.639   6.682 -0.4639 -0.2829  0.1794
 3677SOL    HW122664   1.731   3.705   6.739 -0.0174  0.6586 -0.6066
 3677SOL    HW222665   1.790   3.570   6.744 -0.0912 -0.6808 -0.3911
 3678SOL     OW22666   0.576   3.789   8.806  0.1671 -0.5432 -0.4339
 3678SOL    HW122667   0.641   3.731   8.848  1.2958  1.6525  0.8603
 3678SOL    HW222668   0.511   3.719   8.802 -1.1395  0.6635  0.0924
 3679SOL     OW22669   2.188   2.943   4.565 -0.0343  0.0140 -0.9514
 3679SOL    HW122670   2.262   2.965   4.508 -0.7917  0.4289 -1.7575
 3679SOL    HW222671   2.195   2.848   4.558  1.2486  0.1754 -1.9515
 3680SOL     OW22672   2.639   0.222   3.801 -0.1656  0.4171 -0.4864
 3680SOL    HW122673   2.626   0.130   3.826 -0.6327 -0.1407 -2.7013
 3680SOL    HW222674   2.649   0.267   3.884  1.8494 -0.1422 -0.4300
 3681SOL     OW22675   3.082   1.002   8.866  0.6117 -0.3881  0.1718
 3681SOL    HW122676   2.997   1.009   8.909 -0.8360  2.0204 -3.0581
 3681SOL    HW222677   3.071   0.926   8.809  1.9832 -2.3824  2.5911
 3682SOL     OW22678   2.244   0.234   7.293 -0.2828 -0.3901 -0.2156
 3682SOL    HW122679   2.304   0.217   7.220 -1.0330  0.1230 -0.9492
 3682SOL    HW222680   2.250   0.149   7.338 -1.0720  0.9857  2.4999
 3683SOL     OW22681   2.161   2.443   0.236  0.4137  0.2227  0.1293
 3683SOL    HW122682   2.142   2.403   0.321 -3.5834 -1.5675 -1.6147
 3683SOL    HW222683   2.138   2.534   0.259 -1.3992 -0.1926 -0.0434
 3684SOL     OW22684   0.116   4.542  12.683 -0.1996  0.5227  0.2666
 3684SOL    HW122685   0.136   4.617  12.626 -0.8533  0.7033  0.2802
 3684SOL    HW222686   0.030   4.572  12.713 -0.0416  0.5275  0.7157
 3685SOL     OW22687   0.670   3.859  14.660 -0.2593 -0.0313 -0.3554
 3685SOL    HW122688   0.731   3.838  14.730  0.6973  1.8312 -0.6262
 3685SOL    HW222689   0.598   3.797  14.655 -0.1316 -0.1970 -0.1086
 3686SOL     OW22690   0.922   4.293   5.276 -0.3331  0.1786 -0.6211
 3686SOL    HW122691   0.837   4.335   5.290 -1.1874 -0.8976 -2.5284
 3686SOL    HW222692   0.897   4.222   5.217 -1.6431 -0.3924  0.6046
 3687SOL     OW22693   1.250   1.389   2.102  0.0736 -0.2931 -0.6210
 3687SOL    HW122694   1.313   1.317   2.096  1.4558  0.7058  1.6774
 3687SOL    HW222695   1.191   1.359   2.172  3.8173  0.0890  2.7065
 3688SOL     OW22696   4.369   2.354   7.638 -0.0677 -0.0876  0.4190
 3688SOL    HW122697   4.285   2.354   7.685  0.2713  1.1689  1.0200
 3688SOL    HW222698   4.352   2.426   7.577 -3.2641  0.2469  1.7080
 3689SOL     OW22699   4.110   2.212   6.811 -0.5855 -0.1623 -0.5998
 3689SOL    HW122700   4.162   2.284   6.776 -2.0113 -0.7766 -3.9425
 3689SOL    HW222701   4.092   2.152   6.738  0.6816 -0.5163 -0.6251
 3690SOL     OW22702   4.601   4.551   5.913  0.1602  0.3010 -0.2098
 3690SOL    HW122703   4.607   4.549   6.009 -2.3646  0.7614 -0.0403
 3690SOL    HW222704   4.621   4.643   5.900  0.2347  0.5486  1.6135
 3691SOL     OW22705   1.609   2.573   5.616  0.1208 -0.3531  0.5532
 3691SOL    HW122706   1.592   2.636   5.686 -2.8689 -3.2186  2.4370
 3691SOL    HW222707   1.609   2.629   5.538  1.0092 -1.1364 -0.0127
 3692SOL     OW22708   1.244   3.066   9.752 -0.0380 -0.2534 -0.3070
 3692SOL    HW122709   1.160   3.087   9.792  0.5960 -1.3630  1.6017
 3692SOL    HW222710   1.216   3.031   9.668 -2.5187 -2.7976  1.5876
 3693SOL     OW22711   4.154   0.348  12.194  0.1560 -0.1604  0.3659
 3693SOL    HW122712   4.079   0.399  12.225 -0.5479 -0.9588 -0.0358
 3693SOL    HW222713   4.110   0.263  12.187  0.5938 -0.3318 -0.4298
 3694SOL     OW22714   0.493   4.105   7.493  0.0023 -0.3395  0.4111
 3694SOL    HW122715   0.485   4.195   7.461  2.1242 -0.1452  0.4461
 3694SOL    HW222716   0.538   4.122   7.576 -1.8100  1.0935  1.1090
 3695SOL     OW22717   4.238   3.870   3.378  0.2502 -0.1384 -0.0622
 3695SOL    HW122718   4.223   3.777   3.396 -0.4018 -0.2760 -1.3006
 3695SOL    HW222719   4.333   3.871   3.385  0.2081 -0.6403  0.5658
 3696SOL     OW22720   1.892   3.088  11.952  0.5520 -0.1565  0.3694
 3696SOL    HW122721   1.914   3.086  12.045 -2.4445 -2.3610  1.0593
 3696SOL    HW222722   1.822   3.023  11.936 -0.9289  0.9502  2.3725
 3697SOL     OW22723   1.109   0.911   7.135 -0.0478  0.0639 -0.2852
 3697SOL    HW122724   1.020   0.898   7.167 -0.8071 -1.3401 -2.9852
 3697SOL    HW222725   1.123   0.839   7.074  0.1262  0.5814 -0.8563
 3698SOL     OW22726   0.496   0.170   8.787  0.0827  0.1304 -0.4571
 3698SOL    HW122727   0.454   0.141   8.868  1.0376  0.4236  0.1376
 3698SOL    HW222728   0.534   0.095   8.741  0.9080  0.5646 -0.4876
 3699SOL     OW22729   2.640   0.844   3.554  0.4910  0.7713 -0.1539
 3699SOL    HW122730   2.714   0.891   3.515  1.1762  0.2838  0.5595
 3699SOL    HW222731   2.605   0.912   3.611  0.4732  0.3640  0.3256
 3700SOL     OW22732   0.994   4.305  12.138 -0.5173 -0.0335 -0.0669
 3700SOL    HW122733   1.047   4.380  12.165  1.8860 -1.9406  0.5085
 3700SOL    HW222734   1.033   4.287  12.052 -0.1411  1.8860 -0.2956
 3701SOL     OW22735   3.658   2.835   4.369  0.1163  0.5569  0.0258
 3701SOL    HW122736   3.722   2.770   4.398 -1.2317 -1.0169 -0.5129
 3701SOL    HW222737   3.718   2.899   4.329 -0.3458  0.3261 -1.0424
 3702SOL     OW22738   0.090   0.307   7.280 -0.5093 -0.1736 -0.1732
 3702SOL    HW122739   0.027   0.240   7.305 -1.3192  0.3798 -0.7225
 3702SOL    HW222740   0.110   0.292   7.187  0.0673  0.5923 -0.1808
 3703SOL     OW22741   3.443   2.560  16.456 -0.5046  0.3099 -0.3105
 3703SOL    HW122742   3.501   2.624  16.496  0.9410 -0.1380 -1.7040
 3703SOL    HW222743   3.408   2.616  16.387  2.0179  0.6590 -1.3202
 3704SOL     OW22744   0.146   1.222  16.825  0.1898 -0.0397 -0.1644
 3704SOL    HW122745   0.150   1.317  16.834  2.1596 -0.0366 -1.0791
 3704SOL    HW222746   0.107   1.209  16.738 -0.0482 -0.7110  0.0403
 3705SOL     OW22747   0.248   4.697   5.655 -0.2211  0.3816  0.2078
 3705SOL    HW122748   0.194   4.624   5.682  1.7164 -1.1747 -0.1255
 3705SOL    HW222749   0.287   4.724   5.739  0.4143 -1.0770  0.3681
 3706SOL     OW22750   1.151   1.903  12.523  0.4821  0.1302 -0.3497
 3706SOL    HW122751   1.111   1.943  12.600  1.7191 -2.7192  1.7630
 3706SOL    HW222752   1.146   1.808  12.531 -1.3260  0.2572 -0.1174
 3707SOL     OW22753   3.883   2.084   2.873  0.6203  0.1433  0.0165
 3707SOL    HW122754   3.878   2.022   2.945 -1.0149  0.2925  0.0375
 3707SOL    HW222755   3.860   2.028   2.798 -0.7063 -0.0780  0.5925
 3708SOL     OW22756   3.637   1.119   6.676 -0.1089  0.1035 -0.1051
 3708SOL    HW122757   3.636   1.210   6.645 -2.3581  0.4039  0.8354
 3708SOL    HW222758   3.723   1.113   6.716  0.1403  0.6767 -0.5469
 3709SOL     OW22759   2.568   2.564  16.569  0.3817  0.0208  0.0160
 3709SOL    HW122760   2.591   2.652  16.597  0.5544  0.3032 -1.0163
 3709SOL    HW222761   2.654   2.528  16.591 -0.3090 -1.1916  0.7534
 3710SOL     OW22762   0.951   4.331   4.955  0.6387  0.5204 -0.3263
 3710SOL    HW122763   0.892   4.393   4.997  1.4044 -0.4060  2.1524
 3710SOL    HW222764   1.019   4.321   5.022  0.7912  1.5402 -0.3283
 3711SOL     OW22765   1.347   1.811   8.323 -0.0239 -0.2365 -0.0277
 3711SOL    HW122766   1.428   1.788   8.278  1.6468 -0.3845  3.0297
 3711SOL    HW222767   1.342   1.730   8.373 -0.8198 -0.3173 -0.2348
 3712SOL     OW22768   3.539   2.681   4.749  1.0364  0.0248 -0.7677
 3712SOL    HW122769   3.512   2.651   4.662 -1.8244  1.1462 -0.2685
 3712SOL    HW222770   3.535   2.772   4.720 -0.2651  0.9309  2.3000
 3713SOL     OW22771   3.246   4.140   7.829  0.4126  0.0801  0.3266
 3713SOL    HW122772   3.201   4.055   7.824  1.8334 -0.5516 -2.2856
 3713SOL    HW222773   3.181   4.193   7.874 -0.6853 -1.4308  0.5094
 3714SOL     OW22774   4.026   0.595   4.822  0.5213 -0.3012 -0.1349
 3714SOL    HW122775   4.054   0.508   4.796  1.5256  0.1038 -0.4072
 3714SOL    HW222776   4.086   0.652   4.774 -0.2979 -1.7397 -2.8833
 3715SOL     OW22777   0.484   0.493   2.062 -0.1055  0.3670  0.0424
 3715SOL    HW122778   0.421   0.559   2.092  1.1151  0.6879  1.8958
 3715SOL    HW222779   0.431   0.454   1.993  1.6441 -0.8210 -0.6169
 3716SOL     OW22780   0.692   4.443  11.216  0.1435  0.1197 -0.2774
 3716SOL    HW122781   0.724   4.504  11.283  0.0483 -0.6511  0.4645
 3716SOL    HW222782   0.754   4.370  11.222  0.4956  0.2777 -2.0676
 3717SOL     OW22783   0.291   1.523  13.106 -0.2829  0.0827  0.9066
 3717SOL    HW122784   0.285   1.510  13.200 -0.2480 -1.2319  0.7327
 3717SOL    HW222785   0.199   1.507  13.087  0.4906 -2.6927 -0.5408
 3718SOL     OW22786   3.379   3.688   8.797 -0.1192 -0.5015 -0.5110
 3718SOL    HW122787   3.457   3.675   8.852  0.2504 -0.9524 -1.1390
 3718SOL    HW222788   3.409   3.700   8.707  1.6534 -0.5180  0.0846
 3719SOL     OW22789   3.779   1.953   4.162  0.4509  0.1226  0.6108
 3719SOL    HW122790   3.842   1.896   4.118 -0.0349  0.4837 -0.5495
 3719SOL    HW222791   3.708   1.950   4.098 -0.7005  1.1525  1.8511
 3720SOL     OW22792   4.560   2.420   6.330  0.4304 -0.0362  0.0343
 3720SOL    HW122793   4.542   2.399   6.238 -2.6586  3.0674 -0.0681
 3720SOL    HW222794   4.632   2.481   6.311 -1.8405  2.0606 -1.8907
 3721SOL     OW22795   1.395   3.385   7.308  0.2629 -0.4281  0.6341
 3721SOL    HW122796   1.339   3.457   7.279  0.4311 -0.5290  0.0694
 3721SOL    HW222797   1.453   3.397   7.233 -1.3821  1.9973 -0.2614
 3722SOL     OW22798   1.735   4.502   5.254  0.3227  0.0037 -0.1111
 3722SOL    HW122799   1.783   4.583   5.237  0.0770 -0.1340 -1.4424
 3722SOL    HW222800   1.742   4.490   5.349  0.5660  0.4388 -0.0709
 3723SOL     OW22801   3.677   0.270   4.500 -0.1264  0.0596 -0.1677
 3723SOL    HW122802   3.695   0.344   4.442  2.5608 -0.4046  0.0713
 3723SOL    HW222803   3.739   0.292   4.570  0.9708  0.8505 -1.3895
 3724SOL     OW22804   1.811   2.467   5.900 -0.6097 -0.0131 -0.7137
 3724SOL    HW122805   1.860   2.535   5.854 -0.5479  0.8232  0.5857
 3724SOL    HW222806   1.852   2.478   5.986 -2.3479  1.4252 -0.0683
 3725SOL     OW22807   1.593   3.101   9.540  0.4236  0.7689 -0.2061
 3725SOL    HW122808   1.673   3.094   9.488  1.6103  3.6305  1.2080
 3725SOL    HW222809   1.527   3.080   9.474  1.5642  1.8200 -1.6917
 3726SOL     OW22810   2.506   3.093   5.932 -0.0686  0.8858  0.0712
 3726SOL    HW122811   2.476   3.176   5.968  0.7981  2.0514 -1.8964
 3726SOL    HW222812   2.590   3.083   5.977 -0.3294 -1.3819  0.0491
 3727SOL     OW22813   0.816   0.482   9.566  0.6257 -0.4105  0.2646
 3727SOL    HW122814   0.869   0.450   9.638  1.3803  0.6873  0.2041
 3727SOL    HW222815   0.843   0.416   9.502  1.6961  1.0885 -0.8229
 3728SOL     OW22816   0.094   3.805  10.701  0.5222  0.2494 -0.1316
 3728SOL    HW122817   0.120   3.724  10.744 -1.2580  0.5756  1.5361
 3728SOL    HW222818   0.135   3.877  10.751 -0.0529  1.2511 -1.1132
 3729SOL     OW22819   0.959   3.912  11.236 -0.3264 -0.0899 -0.8838
 3729SOL    HW122820   0.920   3.996  11.261  1.4765  0.0254  1.6006
 3729SOL    HW222821   1.002   3.885  11.317  0.4791 -0.2030 -1.3530
 3730SOL     OW22822   1.903   3.269  14.412  0.2488 -0.3968  0.1352
 3730SOL    HW122823   1.993   3.272  14.445  0.7546  0.2047 -1.2770
 3730SOL    HW222824   1.848   3.278  14.490  1.0478  0.9861  0.5405
 3731SOL     OW22825   0.677   2.336   8.525 -0.1171  0.1422 -0.6413
 3731SOL    HW122826   0.605   2.294   8.479  0.7566 -1.2976 -0.7169
 3731SOL    HW222827   0.647   2.427   8.526 -1.2838 -0.2467  1.3133
 3732SOL     OW22828   4.315   0.420  12.414  0.2947 -0.4784 -0.9379
 3732SOL    HW122829   4.276   0.406  12.328  0.3866  0.6857 -1.1748
 3732SOL    HW222830   4.311   0.328  12.441  1.6954 -0.1225  0.4611
 3733SOL     OW22831   4.074   4.141   2.764  0.4783 -0.1047 -0.0456
 3733SOL    HW122832   4.142   4.155   2.831  1.5145 -2.2496 -0.6491
 3733SOL    HW222833   4.053   4.233   2.750  0.5044 -0.1046 -0.0822
 3734SOL     OW22834   2.278   3.484   6.643 -0.3014  0.1734 -0.1345
 3734SOL    HW122835   2.317   3.407   6.685 -0.7035  0.2902  0.4575
 3734SOL    HW222836   2.251   3.524   6.726 -1.0983  0.7182 -0.6556
 3735SOL     OW22837   4.539   0.485   2.116 -0.2522  0.6163 -0.2055
 3735SOL    HW122838   4.460   0.538   2.112 -0.8412 -0.1858  1.0671
 3735SOL    HW222839   4.506   0.397   2.104  0.0887  0.4325  0.1735
 3736SOL     OW22840   4.676   2.145  13.666 -0.1014  0.0606 -0.0868
 3736SOL    HW122841   4.593   2.130  13.621 -0.4673  2.1763 -0.1210
 3736SOL    HW222842   0.006   2.124  13.603  0.9827 -3.2370  2.1840
 3737SOL     OW22843   1.684   2.078   8.664  0.3520 -0.4969  0.0210
 3737SOL    HW122844   1.686   1.992   8.621  1.7530 -0.4736  0.0336
 3737SOL    HW222845   1.774   2.108   8.651 -0.3316  2.9422  3.4487
 3738SOL     OW22846   2.511   0.343   9.752  0.1758 -0.0576  0.3933
 3738SOL    HW122847   2.418   0.327   9.738  0.4841 -0.8407 -0.7712
 3738SOL    HW222848   2.517   0.396   9.832  0.3794 -0.9076  0.9410
 3739SOL     OW22849   1.783   4.572   8.638 -0.3675  0.1348  0.2236
 3739SOL    HW122850   1.739   4.651   8.670 -1.8089 -0.2074 -0.8980
 3739SOL    HW222851   1.815   4.528   8.717 -0.3113  0.5901  0.4540
 3740SOL     OW22852   3.078   0.120   3.630 -0.6067  0.8394  0.6580
 3740SOL    HW122853   3.022   0.096   3.704  0.8153 -0.1971  1.3809
 3740SOL    HW222854   3.020   0.083   3.563  0.9458 -0.9179  0.2859
 3741SOL     OW22855   1.116   0.168   4.715  0.3365 -0.0626 -0.1435
 3741SOL    HW122856   1.045   0.105   4.703 -0.1262  0.0168  2.2120
 3741SOL    HW222857   1.168   0.152   4.636 -1.4965 -1.7001 -1.0180
 3742SOL     OW22858   1.306   3.343  13.731  0.0661 -0.2888  0.2869
 3742SOL    HW122859   1.333   3.259  13.769  2.8380  0.4973  0.1106
 3742SOL    HW222860   1.328   3.409  13.797  0.9287 -0.5688  0.2901
 3743SOL     OW22861   0.517   2.393   1.354  0.1329  0.0421  0.1757
 3743SOL    HW122862   0.602   2.429   1.329  1.1716 -2.3609  0.2431
 3743SOL    HW222863   0.522   2.327   1.285 -1.7598  0.1173 -0.0302
 3744SOL     OW22864   4.015   1.355   4.624 -0.1562  0.6365 -0.8389
 3744SOL    HW122865   3.919   1.356   4.630 -0.0309  0.8422  1.2920
 3744SOL    HW222866   4.039   1.348   4.717 -1.1118  0.9562 -0.5667
 3745SOL     OW22867   1.059   4.262  16.242 -0.2571  0.6443 -0.3341
 3745SOL    HW122868   1.011   4.227  16.318  1.6572 -1.4958 -0.1115
 3745SOL    HW222869   1.143   4.218  16.259 -0.1959  0.3305 -1.4969
 3746SOL     OW22870   0.855   4.164   5.712 -0.3769 -0.3632  0.3314
 3746SOL    HW122871   0.859   4.241   5.769  0.2598 -0.3072  0.2039
 3746SOL    HW222872   0.935   4.115   5.732  0.4897  0.3597 -1.4071
 3747SOL     OW22873   4.152   0.981  10.911 -0.2099 -0.0460 -0.1671
 3747SOL    HW122874   4.200   0.975  10.993 -0.0120  0.0803 -0.2756
 3747SOL    HW222875   4.227   1.005  10.857  0.4592  0.1727  0.8605
 3748SOL     OW22876   2.567   1.591   2.221 -0.2768  0.8782 -0.1025
 3748SOL    HW122877   2.612   1.535   2.284 -1.3630  0.8626  0.6587
 3748SOL    HW222878   2.639   1.617   2.164 -0.6129 -0.0006 -0.9433
 3749SOL     OW22879   3.440   2.398   1.807  0.2026  0.5468 -0.0467
 3749SOL    HW122880   3.518   2.449   1.787  0.1673  1.1592  1.3939
 3749SOL    HW222881   3.476   2.346   1.878  0.2017  0.4506 -0.1165
 3750SOL     OW22882   2.831   0.396   4.239  0.1968 -0.0705  0.2153
 3750SOL    HW122883   2.882   0.458   4.186 -0.3711  1.3668  1.3251
 3750SOL    HW222884   2.778   0.353   4.171  1.8001  0.5132 -1.4022
 3751SOL     OW22885   0.347   3.137   8.398 -0.0013 -0.0151  0.4385
 3751SOL    HW122886   0.410   3.187   8.451  0.1914 -3.1024  3.1134
 3751SOL    HW222887   0.319   3.203   8.335 -1.3363  1.4028  2.4864
 3752SOL     OW22888   4.630   2.728   6.446 -0.2137  0.4665 -0.0835
 3752SOL    HW122889   4.695   2.678   6.496 -1.7062 -0.9350  0.4709
 3752SOL    HW222890   4.646   2.710   6.353  1.2737  0.1879  0.2250
 3753SOL     OW22891   4.241   3.891  13.559 -0.0818 -0.3303  0.3614
 3753SOL    HW122892   4.316   3.916  13.505 -2.0508 -0.6192 -2.4714
 3753SOL    HW222893   4.282   3.885  13.646 -1.1220 -2.8585  0.6628
 3754SOL     OW22894   3.341   1.056   6.411 -0.6599  0.7586 -0.0405
 3754SOL    HW122895   3.259   1.056   6.461  0.5733  0.0905  1.9746
 3754SOL    HW222896   3.342   0.966   6.379 -1.9452  0.5258  0.5870
 3755SOL     OW22897   2.283   1.577   5.321 -0.2142 -0.3635 -0.5157
 3755SOL    HW122898   2.232   1.561   5.242  1.5503 -3.2008 -1.0820
 3755SOL    HW222899   2.290   1.488   5.356  1.5373 -0.1732 -0.3623
 3756SOL     OW22900   0.930   2.496   2.784  0.1746 -0.1249 -0.3617
 3756SOL    HW122901   1.011   2.481   2.831  1.3484  2.7254 -1.4656
 3756SOL    HW222902   0.900   2.405   2.782 -0.2729  0.0106  0.2658
 3757SOL     OW22903   1.033   3.048   4.266 -0.7515  0.0943 -0.2203
 3757SOL    HW122904   1.033   3.116   4.333  1.6940  0.9237 -1.0598
 3757SOL    HW222905   0.941   3.052   4.239 -0.8874  2.5316  0.5834
 3758SOL     OW22906   2.194   1.449  10.312  0.4800 -0.1158 -0.3576
 3758SOL    HW122907   2.284   1.440  10.345  1.1311  0.8183 -1.8997
 3758SOL    HW222908   2.147   1.476  10.391  0.7756  0.9327 -0.5417
 3759SOL     OW22909   3.464   0.179   3.087 -0.1312  0.1066 -0.1382
 3759SOL    HW122910   3.504   0.251   3.136 -0.2325 -0.5935  0.9611
 3759SOL    HW222911   3.536   0.117   3.085 -2.4519 -2.5733  0.3869
 3760SOL     OW22912   4.538   0.960   5.265 -0.7415 -0.0471 -0.0049
 3760SOL    HW122913   4.447   0.987   5.250 -0.6742  1.8365  2.9871
 3760SOL    HW222914   4.527   0.866   5.272  0.5584 -0.2121 -0.0743
 3761SOL     OW22915   1.461   3.763   2.975  0.3516  0.1951  0.6574
 3761SOL    HW122916   1.395   3.693   2.975  1.4853 -0.8839 -0.3753
 3761SOL    HW222917   1.410   3.824   3.028 -0.5388  0.7168 -0.7948
 3762SOL     OW22918   3.000   4.591   2.828 -0.5821  0.5262 -0.2637
 3762SOL    HW122919   2.910   4.566   2.850 -0.8506  1.4186 -0.3735
 3762SOL    HW222920   3.039   4.507   2.803  0.0524  0.7628 -0.0618
 3763SOL     OW22921   3.456   0.104   2.521 -0.4632 -0.0863 -0.8017
 3763SOL    HW122922   3.405   0.185   2.513 -1.2489 -0.3333  1.5781
 3763SOL    HW222923   3.434   0.056   2.441  0.5748  1.6922 -2.1628
 3764SOL     OW22924   0.851   2.863   5.713 -0.2462 -0.3925  0.2884
 3764SOL    HW122925   0.912   2.800   5.674 -0.9323 -0.6723 -0.3286
 3764SOL    HW222926   0.857   2.831   5.803  1.2113 -0.5429  0.1453
 3765SOL     OW22927   3.413   0.523   0.627 -0.0874  0.5799 -0.0354
 3765SOL    HW122928   3.338   0.581   0.609 -0.3514  0.8014  1.8176
 3765SOL    HW222929   3.411   0.480   0.542  0.8158  0.5843 -0.0582
 3766SOL     OW22930   3.598   3.770   5.315 -0.0105  0.2296  0.6224
 3766SOL    HW122931   3.594   3.723   5.399  3.5658  0.3761  0.8919
 3766SOL    HW222932   3.662   3.839   5.332  0.7447 -0.1178 -0.8734
 3767SOL     OW22933   2.166   2.719   0.271 -0.0468 -0.5136  0.3567
 3767SOL    HW122934   2.239   2.735   0.331  0.5101 -0.5906 -0.2984
 3767SOL    HW222935   2.134   2.808   0.262  2.6094  0.6025  1.6887
 3768SOL     OW22936   1.462   2.973   9.026  0.4183  0.0343 -0.0832
 3768SOL    HW122937   1.526   2.964   8.955  0.3933 -1.3615  0.0662
 3768SOL    HW222938   1.377   2.967   8.982  1.7566  0.2017 -2.6917
 3769SOL     OW22939   1.130   3.424   2.475  0.4935 -0.3405 -0.6033
 3769SOL    HW122940   1.202   3.485   2.457  0.3786  0.6130  2.2304
 3769SOL    HW222941   1.155   3.346   2.425  2.7026 -0.8264  1.2526
 3770SOL     OW22942   1.789   0.299  17.103 -0.2344 -0.1463 -0.8177
 3770SOL    HW122943   1.724   0.262  17.043  0.3439 -0.1621 -1.4327
 3770SOL    HW222944   1.806   0.229  17.166  0.0789 -1.0277 -1.8588
 3771SOL     OW22945   3.445   1.948   6.893 -0.4264  0.5599  0.7122
 3771SOL    HW122946   3.416   2.037   6.872 -0.5985 -0.5726 -3.9112
 3771SOL    HW222947   3.473   1.960   6.983  1.8529 -0.5491  0.1667
 3772SOL     OW22948   2.741   1.768   7.798 -0.1539  0.0659 -0.0828
 3772SOL    HW122949   2.773   1.710   7.729  1.9583 -0.1408  1.0664
 3772SOL    HW222950   2.765   1.852   7.759 -0.7707  0.1574 -0.2671
 3773SOL     OW22951   2.854   1.014   9.034  0.2950 -0.0626 -0.2164
 3773SOL    HW122952   2.798   1.069   8.980 -1.1157 -1.7807 -0.5064
 3773SOL    HW222953   2.824   1.026   9.125 -0.4129  0.5029 -0.5259
 3774SOL     OW22954   3.086   1.408   3.046  0.2129  0.6722 -0.2132
 3774SOL    HW122955   3.074   1.393   2.952 -0.1662 -0.4736  0.0196
 3774SOL    HW222956   3.137   1.489   3.043  0.9291  0.2603  0.7534
 3775SOL     OW22957   3.747   3.938   4.004 -0.2553  0.2761 -0.3437
 3775SOL    HW122958   3.799   3.982   3.937 -1.4515  0.9857 -0.8062
 3775SOL    HW222959   3.780   3.852   3.980  0.4511  0.2688  0.6780
 3776SOL     OW22960   4.202   0.977  12.641 -0.0433 -0.2278 -0.2247
 3776SOL    HW122961   4.250   1.052  12.606  1.8760 -1.8592 -1.0672
 3776SOL    HW222962   4.126   0.972  12.582  0.3494  0.5876 -0.8093
 3777SOL     OW22963   4.497   1.297   2.965  1.3023 -0.3701  0.3351
 3777SOL    HW122964   4.536   1.209   2.962  0.1863 -0.7799 -1.6753
 3777SOL    HW222965   4.465   1.307   2.876  2.2615  0.4389  0.0917
 3778SOL     OW22966   4.142   1.985   1.485 -0.8027 -0.3312  0.1001
 3778SOL    HW122967   4.089   2.035   1.422  1.5223  1.2659 -0.5785
 3778SOL    HW222968   4.168   2.056   1.543 -0.0163  0.0988 -0.7843
 3779SOL     OW22969   3.891   3.480   6.106 -0.0801 -0.0976 -0.5035
 3779SOL    HW122970   3.948   3.404   6.119  0.2509  0.2929  0.3821
 3779SOL    HW222971   3.961   3.543   6.087  1.0307 -1.3499 -0.5632
 3780SOL     OW22972   3.245   1.820  13.371  0.0523 -0.2606 -0.0652
 3780SOL    HW122973   3.179   1.794  13.436 -0.0855  1.7760  0.6211
 3780SOL    HW222974   3.318   1.779  13.417  0.3334  0.3073 -0.0111
 3781SOL     OW22975   4.058   2.100   9.613 -0.6776 -0.0469  0.1033
 3781SOL    HW122976   4.002   2.077   9.688 -0.4113 -0.0798  0.2938
 3781SOL    HW222977   4.020   2.052   9.539  0.4415 -1.9193  0.7362
 3782SOL     OW22978   2.596   4.106   2.499  0.1961  0.5491  0.4908
 3782SOL    HW122979   2.565   4.197   2.497  2.8850  1.4674  1.1890
 3782SOL    HW222980   2.685   4.138   2.510  0.3242  0.7554 -1.1647
 3783SOL     OW22981   2.786   3.574  16.606  0.1503  0.8608 -0.0188
 3783SOL    HW122982   2.741   3.585  16.690 -2.1965 -0.3539 -1.0980
 3783SOL    HW222983   2.842   3.651  16.619  0.8519  0.5923 -1.5169
 3784SOL     OW22984   4.138   3.934   4.090  0.2315  0.0790 -0.0806
 3784SOL    HW122985   4.190   3.874   4.142 -0.9305  0.5537  1.6088
 3784SOL    HW222986   4.168   4.021   4.119  0.1414 -0.1027  0.5462
 3785SOL     OW22987   3.855   3.960   2.791  0.3065  0.7182 -0.1206
 3785SOL    HW122988   3.810   3.967   2.706  0.1462 -1.2983 -0.2044
 3785SOL    HW222989   3.931   4.017   2.781 -0.3225  1.7378  0.8454
 3786SOL     OW22990   1.750   1.614  11.320  0.3775 -0.4618  0.2785
 3786SOL    HW122991   1.742   1.574  11.233 -0.3745 -0.2627  0.2523
 3786SOL    HW222992   1.840   1.647  11.316  0.8744 -1.8868 -0.6260
 3787SOL     OW22993   0.401   1.808   8.032 -0.6085 -0.2815  0.9393
 3787SOL    HW122994   0.415   1.739   7.967 -1.8001  1.4678 -1.1461
 3787SOL    HW222995   0.492   1.807   8.061  0.7168  0.8478 -3.1982
 3788SOL     OW22996   4.516   0.458   6.100  0.9678  0.3373 -0.0817
 3788SOL    HW122997   4.578   0.529   6.080 -1.7421  1.9139 -2.8620
 3788SOL    HW222998   4.432   0.503   6.089  1.0724  0.6784  0.4715
 3789SOL     OW22999   1.945   3.723   1.113 -0.2848 -0.3103 -0.7175
 3789SOL    HW123000   1.870   3.764   1.158  0.9090  0.6340  0.4024
 3789SOL    HW223001   1.904   3.658   1.055 -0.8975 -1.4572  1.0201
 3790SOL     OW23002   3.444   3.364   5.597 -0.1106  0.1464  0.5263
 3790SOL    HW123003   3.519   3.305   5.587 -0.5925 -0.4333  0.2917
 3790SOL    HW223004   3.383   3.316   5.540  1.1337  0.0416 -0.7186
 3791SOL     OW23005   0.317   0.474   9.120 -0.0041  0.2864 -0.1590
 3791SOL    HW123006   0.237   0.512   9.157 -1.0234 -1.2670 -0.8082
 3791SOL    HW223007   0.276   0.401   9.074 -1.8555  1.0511  0.2669
 3792SOL     OW23008   4.348   1.792  10.307  0.4577 -0.3522 -0.4445
 3792SOL    HW123009   4.314   1.870  10.351 -0.5375 -0.1369 -1.5669
 3792SOL    HW223010   4.270   1.738  10.324 -2.2420  3.7461  0.3135
 3793SOL     OW23011   2.508   3.056   0.067  0.0828 -0.1408  0.1176
 3793SOL    HW123012   2.565   3.028  17.748 -0.9329 -0.7277 -0.4598
 3793SOL    HW223013   2.576   3.105   0.114  0.1180  0.0265 -0.1079
 3794SOL     OW23014   0.252   0.972  16.820 -0.6243 -0.0128 -0.0768
 3794SOL    HW123015   0.212   1.058  16.812 -0.7336  0.0018  0.5921
 3794SOL    HW223016   0.198   0.921  16.759  1.5015  1.9350 -3.5178
 3795SOL     OW23017   1.984   0.282   7.307  0.2098  0.0817  0.1734
 3795SOL    HW123018   1.971   0.230   7.387  1.7391 -1.6563 -0.6944
 3795SOL    HW223019   2.078   0.268   7.296  0.4815  1.8970  0.2367
 3796SOL     OW23020   1.929   1.503   2.513 -0.6839 -0.4823 -1.1505
 3796SOL    HW123021   1.876   1.425   2.500 -2.2799 -0.1898  3.5455
 3796SOL    HW223022   2.004   1.478   2.460  0.6453  1.3023 -0.1128
 3797SOL     OW23023   0.720   2.415   0.576 -0.5254 -0.4621 -0.2581
 3797SOL    HW123024   0.791   2.358   0.547  1.0911  1.6497 -0.5122
 3797SOL    HW223025   0.659   2.412   0.502  1.7927 -0.9424 -2.1746
 3798SOL     OW23026   4.631   2.217   3.096 -0.4807  0.2703 -0.0539
 3798SOL    HW123027   4.616   2.281   3.027 -1.6150  1.2131  1.0719
 3798SOL    HW223028   4.610   2.263   3.177 -2.6335 -1.2973  0.2751
 3799SOL     OW23029   1.254   2.172  15.869 -0.1680 -0.4478 -0.1316
 3799SOL    HW123030   1.248   2.234  15.941  0.7204 -0.5703  0.0541
 3799SOL    HW223031   1.329   2.208  15.821  0.0328  0.4042  0.8181
 3800SOL     OW23032   2.966   3.384   2.495  0.6327  0.2376  0.3370
 3800SOL    HW123033   2.890   3.408   2.548 -1.2003 -2.1984 -1.1900
 3800SOL    HW223034   3.020   3.462   2.497  0.2023  0.5739 -1.5517
 3801SOL     OW23035   2.104   0.554   8.612  0.4600  0.1583 -0.0765
 3801SOL    HW123036   2.047   0.601   8.672 -0.4885  1.0837 -1.7054
 3801SOL    HW223037   2.187   0.580   8.653 -0.4794  0.6972  1.4719
 3802SOL     OW23038   4.296   1.311   9.199  0.6027  0.0878  0.3393
 3802SOL    HW123039   4.231   1.371   9.162  1.7479  0.0393 -1.7088
 3802SOL    HW223040   4.249   1.230   9.220 -1.5447  1.3234  0.3450
 3803SOL     OW23041   1.682   2.136  16.879  0.4242 -0.0769  0.2278
 3803SOL    HW123042   1.604   2.136  16.934  1.0997  0.7858  1.1892
 3803SOL    HW223043   1.671   2.045  16.850  1.0243 -0.0815  0.0002
 3804SOL     OW23044   1.974   3.471   0.745 -0.0665 -0.4254 -0.7606
 3804SOL    HW123045   1.991   3.454   0.653 -0.2986 -1.2921 -0.6392
 3804SOL    HW223046   1.880   3.463   0.760 -0.0322 -0.6263 -0.6495
 3805SOL     OW23047   2.065   2.289  13.327 -0.4491  0.3920  0.1172
 3805SOL    HW123048   1.983   2.269  13.372 -1.0600 -0.1231 -1.2305
 3805SOL    HW223049   2.115   2.334  13.396  0.0017  0.3125 -0.1565
 3806SOL     OW23050   4.437   0.422  11.815  0.2007 -0.2032 -0.7185
 3806SOL    HW123051   4.475   0.350  11.765 -1.8396 -1.6534 -0.1690
 3806SOL    HW223052   4.463   0.390  11.901  0.3885 -0.3959 -0.8454
 3807SOL     OW23053   0.589   4.118   7.942 -0.0310 -0.1730  0.1311
 3807SOL    HW123054   0.543   4.075   8.015 -0.9899  1.8931  0.7517
 3807SOL    HW223055   0.524   4.187   7.931  1.7781  1.4834 -0.0329
 3808SOL     OW23056   2.073   3.102   3.053  0.0302 -0.2043  0.2836
 3808SOL    HW123057   2.124   3.031   3.094 -0.1197  0.3098  1.3559
 3808SOL    HW223058   2.108   3.093   2.964  0.5192  1.3066  0.3301
 3809SOL     OW23059   1.509   3.836  10.897  0.2206  0.3781  0.2321
 3809SOL    HW123060   1.519   3.931  10.907  0.2430  0.5092 -1.1422
 3809SOL    HW223061   1.595   3.811  10.865  0.1286 -1.8211  1.6611
 3810SOL     OW23062   2.970   0.991  12.560  0.1148 -0.0920  1.0988
 3810SOL    HW123063   2.923   0.987  12.643 -0.9733  1.2859  0.5460
 3810SOL    HW223064   3.044   1.046  12.585  0.0736  0.6925 -0.5291
 3811SOL     OW23065   3.907   1.688   7.372 -0.3225  0.3501 -0.1577
 3811SOL    HW123066   3.906   1.774   7.412 -1.3345  0.6595 -0.8326
 3811SOL    HW223067   3.903   1.721   7.282 -2.1266 -0.2344 -0.2881
 3812SOL     OW23068   3.438   4.622   8.209 -0.3432  0.0300  0.3627
 3812SOL    HW123069   3.406   4.549   8.262  1.6851 -1.3418 -0.3129
 3812SOL    HW223070   3.525   4.590   8.187 -0.3987  1.1213 -1.4479
 3813SOL     OW23071   3.529   1.787  12.952 -0.0849  0.5783  0.3895
 3813SOL    HW123072   3.567   1.703  12.979 -0.0448 -0.2796 -2.2898
 3813SOL    HW223073   3.590   1.816  12.884 -0.6870  0.8880 -0.0183
 3814SOL     OW23074   2.048   0.076   4.577  0.2594  0.5654  0.1040
 3814SOL    HW123075   2.102   0.099   4.501  2.0266  0.2788  1.2746
 3814SOL    HW223076   2.072   0.153   4.629 -2.5274  2.5193 -1.5456
 3815SOL     OW23077   0.342   2.141   2.484 -0.4702 -0.8103  0.4261
 3815SOL    HW123078   0.293   2.071   2.443 -1.1271  1.2508 -2.2870
 3815SOL    HW223079   0.328   2.217   2.427 -0.9284 -1.5603 -0.4557
 3816SOL     OW23080   0.583   4.051  11.760 -0.1710 -0.4378  0.0425
 3816SOL    HW123081   0.607   4.020  11.673  0.9127 -2.0867  0.9110
 3816SOL    HW223082   0.637   3.999  11.820  0.8558  0.8879  0.2704
 3817SOL     OW23083   1.616   0.348  10.890  0.1520 -0.0529 -0.9342
 3817SOL    HW123084   1.692   0.358  10.832 -0.2296 -2.0431 -1.7697
 3817SOL    HW223085   1.635   0.422  10.947  0.1936  1.2272 -2.5990
 3818SOL     OW23086   4.575   1.138   8.389  0.5687 -0.3148 -0.0381
 3818SOL    HW123087   4.574   1.107   8.298 -0.8669 -0.3347 -0.0223
 3818SOL    HW223088   4.650   1.091   8.426  1.9922  0.9249 -1.3583
 3819SOL     OW23089   0.469   0.928   4.038 -0.3334  0.1530  0.2483
 3819SOL    HW123090   0.504   0.911   3.951  0.1551 -1.2271  0.7102
 3819SOL    HW223091   0.434   1.017   4.033  1.2139  0.8230  1.2921
 3820SOL     OW23092   0.384   1.679   4.110  0.6432  0.0676  0.0199
 3820SOL    HW123093   0.326   1.658   4.183  1.5774 -1.6391  0.2753
 3820SOL    HW223094   0.421   1.762   4.140 -0.2814  0.6106 -0.3383
 3821SOL     OW23095   1.495   1.516  14.987 -0.2044  0.4180 -0.4716
 3821SOL    HW123096   1.582   1.525  14.948  0.4195 -0.7620  0.6633
 3821SOL    HW223097   1.512   1.500  15.080  0.2050  2.2795 -0.2222
 3822SOL     OW23098   3.701   4.212   2.600 -0.1275  0.0515  0.4321
 3822SOL    HW123099   3.714   4.305   2.581 -0.5556 -0.1367 -0.7750
 3822SOL    HW223100   3.722   4.214   2.694 -1.0089  0.8976  0.6076
 3823SOL     OW23101   3.351   1.273  10.016  0.4561 -0.4364 -0.7163
 3823SOL    HW123102   3.329   1.280  10.109  0.0995  3.7775 -1.1305
 3823SOL    HW223103   3.384   1.183  10.013  0.8650 -0.3455  0.7159
 3824SOL     OW23104   0.018   3.274   6.936 -0.5732 -0.4136 -0.2921
 3824SOL    HW123105   4.688   3.215   6.966 -2.0616  1.7387  0.5293
 3824SOL    HW223106   0.060   3.224   6.866  0.1395  0.5658 -0.5706
 3825SOL     OW23107   3.303   1.320  13.089 -0.3253 -0.3220 -0.0084
 3825SOL    HW123108   3.323   1.234  13.052 -0.8732  0.5925 -2.4718
 3825SOL    HW223109   3.259   1.291  13.168  0.4529 -0.6841  0.2937
 3826SOL     OW23110   1.045   4.287  16.822 -0.3836 -0.3115  0.2405
 3826SOL    HW123111   1.107   4.224  16.784 -1.1124  1.6405 -4.2081
 3826SOL    HW223112   1.032   4.361  16.763  0.4674 -0.1921  0.2013
 3827SOL     OW23113   3.463   3.701   8.515  0.0662 -0.3962 -0.4250
 3827SOL    HW123114   3.476   3.642   8.441  1.0896 -0.6072 -0.0894
 3827SOL    HW223115   3.554   3.714   8.544 -0.2462 -1.1499  0.9091
 3828SOL     OW23116   2.838   0.143   4.401  0.5047 -0.0662 -0.2327
 3828SOL    HW123117   2.841   0.230   4.361  0.6946 -0.5835 -1.3516
 3828SOL    HW223118   2.928   0.116   4.382 -0.1160 -2.8751  0.8490
 3829SOL     OW23119   4.450   4.604  10.330  0.0492  0.5201  0.1007
 3829SOL    HW123120   4.426   4.696  10.319 -1.3863  0.1746  0.3712
 3829SOL    HW223121   4.516   4.603  10.261 -0.7813  0.9247 -0.6966
 3830SOL     OW23122   2.203   1.936  12.508 -0.0519  0.1033 -0.4659
 3830SOL    HW123123   2.232   1.955  12.597 -0.6022 -3.2194  0.4213
 3830SOL    HW223124   2.285   1.959  12.464 -0.1498  1.3671  0.0385
 3831SOL     OW23125   2.981   0.319   9.633  0.0799 -1.0362 -0.0550
 3831SOL    HW123126   2.967   0.312   9.539 -0.7326  2.0719 -0.1613
 3831SOL    HW223127   2.908   0.269   9.669  0.6489 -1.9039 -0.1064
 3832SOL     OW23128   3.419   2.487   6.126 -0.1010  0.0871 -0.4821
 3832SOL    HW123129   3.450   2.533   6.048 -0.1785  1.3215  0.2015
 3832SOL    HW223130   3.449   2.401   6.096  0.8786  0.3114 -0.1467
 3833SOL     OW23131   3.820   2.520   2.729 -0.0265 -0.5590  0.6224
 3833SOL    HW123132   3.838   2.445   2.672  1.6517  0.5200 -0.2786
 3833SOL    HW223133   3.822   2.480   2.816  2.0195 -0.4308  0.6405
 3834SOL     OW23134   1.859   1.549   8.716  0.7535 -0.1171  0.0852
 3834SOL    HW123135   1.913   1.628   8.708  0.0312  0.3444 -0.1820
 3834SOL    HW223136   1.912   1.501   8.781  2.2710  0.2198 -0.9055
 3835SOL     OW23137   4.627   0.628  15.985 -0.0366  0.1398  0.4473
 3835SOL    HW123138   4.586   0.542  15.984  0.5565 -0.1461  0.1321
 3835SOL    HW223139   4.577   0.672  16.054  0.1445  0.1077  0.6003
 3836SOL     OW23140   1.979   2.649   1.569 -0.4125  0.2256  0.4080
 3836SOL    HW123141   1.914   2.696   1.621  0.1637  0.1979  1.1585
 3836SOL    HW223142   1.985   2.699   1.488  0.2845 -1.2717 -0.4707
 3837SOL     OW23143   3.768   3.328  15.747  0.2681  0.4728 -0.6210
 3837SOL    HW123144   3.806   3.276  15.676 -0.8854 -2.2609  0.7670
 3837SOL    HW223145   3.673   3.315  15.740  0.4815 -0.2030 -2.4640
 3838SOL     OW23146   1.638   2.671   2.777  0.2174 -0.2515 -0.6218
 3838SOL    HW123147   1.667   2.709   2.861 -1.9557  1.6679 -0.7569
 3838SOL    HW223148   1.698   2.596   2.778 -1.6576 -1.7124  1.1565
 3839SOL     OW23149   4.147   2.064   7.050  0.1174  0.7769  0.6227
 3839SOL    HW123150   4.179   2.003   6.982 -1.3030 -0.8448  1.3929
 3839SOL    HW223151   4.123   2.132   6.988 -3.8156 -0.5031  0.7449
 3840SOL     OW23152   3.250   1.175   3.886 -0.0669  0.4517  0.5002
 3840SOL    HW123153   3.306   1.247   3.913  0.9832  0.3688 -1.4107
 3840SOL    HW223154   3.301   1.101   3.920  1.7035  1.2529 -0.4254
 3841SOL     OW23155   2.098   0.052   7.044  0.2180  0.1670  0.3876
 3841SOL    HW123156   2.185   0.026   7.074  0.3456 -0.0774 -0.1936
 3841SOL    HW223157   2.089   4.738   6.964  0.7240  0.2296  0.2849
 3842SOL     OW23158   2.352   1.554   7.481  0.9859  0.3128 -0.2600
 3842SOL    HW123159   2.352   1.649   7.493 -0.3504 -0.1822  3.6861
 3842SOL    HW223160   2.296   1.534   7.406  0.7238  0.0898 -0.0083
 3843SOL     OW23161   3.892   0.641   7.720  0.2797  0.0264  0.2992
 3843SOL    HW123162   3.826   0.632   7.652 -0.9153  1.5302  1.2685
 3843SOL    HW223163   3.886   0.733   7.745 -1.4494  0.6351 -2.4539
 3844SOL     OW23164   2.625   0.572   3.448 -0.3095  0.0319  0.2278
 3844SOL    HW123165   2.592   0.515   3.518  1.0176  2.3716  2.7690
 3844SOL    HW223166   2.634   0.658   3.490  2.5120 -1.0963  1.9507
 3845SOL     OW23167   2.235   1.395  15.924  0.1160  0.1999 -0.1182
 3845SOL    HW123168   2.166   1.448  15.962 -0.6623 -0.5030 -0.5391
 3845SOL    HW223169   2.273   1.452  15.857  1.4450 -0.7442 -0.1691
 3846SOL     OW23170   2.352   0.282   5.820 -0.0714 -0.2589 -0.3003
 3846SOL    HW123171   2.406   0.361   5.817 -2.9117  1.6681 -0.5596
 3846SOL    HW223172   2.404   0.222   5.767 -0.1226  1.1307 -1.9198
 3847SOL     OW23173   0.897   1.461   2.871 -0.2578 -0.2538 -0.0098
 3847SOL    HW123174   0.961   1.506   2.816 -0.7613  0.8137  0.2844
 3847SOL    HW223175   0.823   1.460   2.810  0.0996  1.0718 -0.4604
 3848SOL     OW23176   4.675   1.547   3.853 -0.0816  0.1661 -0.1259
 3848SOL    HW123177   4.629   1.623   3.889  1.1689  0.8095  0.0850
 3848SOL    HW223178   4.728   1.522   3.928  2.4283 -1.1265 -2.3113
 3849SOL     OW23179   1.317   0.709   8.561 -0.6368  0.6210 -0.1742
 3849SOL    HW123180   1.380   0.674   8.498  2.3339  0.5507  2.7913
 3849SOL    HW223181   1.241   0.652   8.555 -0.9369  0.8135  1.5888
 3850SOL     OW23182   1.070   0.877  10.965  0.2836  0.0482 -0.0430
 3850SOL    HW123183   1.020   0.803  10.999  0.9927 -1.0673 -1.4385
 3850SOL    HW223184   1.100   0.916  11.047 -1.4011 -1.6423  1.3672
 3851SOL     OW23185   2.803   3.588   8.420 -0.1182 -0.6696 -0.4626
 3851SOL    HW123186   2.854   3.568   8.342 -0.9880  3.3829 -2.0898
 3851SOL    HW223187   2.821   3.509   8.470 -2.5375 -1.3156 -0.5848
 3852SOL     OW23188   4.007   1.942   6.296  0.3967  0.2878  0.4812
 3852SOL    HW123189   3.935   1.914   6.352 -0.2044 -0.3785 -0.6208
 3852SOL    HW223190   3.966   2.026   6.276 -2.9451 -0.7863  2.8064
 3853SOL     OW23191   2.575   0.914   5.676  0.0810  0.3542  0.1299
 3853SOL    HW123192   2.491   0.879   5.646  0.8473 -0.8673 -0.5846
 3853SOL    HW223193   2.621   0.831   5.689  0.3797  0.5139  0.0938
 3854SOL     OW23194   3.342   2.240   9.263 -0.1187 -0.2146  0.1160
 3854SOL    HW123195   3.365   2.333   9.255 -1.6022  0.2243  0.7957
 3854SOL    HW223196   3.262   2.232   9.212  0.9353  0.5278 -1.6300
 3855SOL     OW23197   1.682   2.475   4.302  0.0394 -0.0484 -0.2189
 3855SOL    HW123198   1.617   2.446   4.365  2.0593 -0.7701  1.5192
 3855SOL    HW223199   1.632   2.504   4.226  1.5022 -0.7537 -1.4458
 3856SOL     OW23200   3.021   1.137   9.826  0.5939  0.7907  0.2366
 3856SOL    HW123201   3.037   1.220   9.781  0.4564  1.8239  2.1234
 3856SOL    HW223202   3.043   1.157   9.917 -0.1174 -0.8771  0.7706
 3857SOL     OW23203   2.262   2.802   9.145  0.1235  0.3766 -0.0013
 3857SOL    HW123204   2.344   2.754   9.158  0.2368  0.2598 -1.1077
 3857SOL    HW223205   2.218   2.778   9.226 -0.7490 -0.6397 -0.7814
 3858SOL     OW23206   3.902   1.749   5.435  0.3550 -0.0762  0.1351
 3858SOL    HW123207   3.876   1.749   5.527 -0.3362 -0.8326 -0.0652
 3858SOL    HW223208   3.907   1.843   5.418 -0.3910  0.1687  1.2397
 3859SOL     OW23209   2.493   0.904  14.156  0.3790  0.5429 -0.0846
 3859SOL    HW123210   2.522   0.988  14.122 -1.5284  1.0427 -0.4841
 3859SOL    HW223211   2.400   0.919  14.174  0.2091 -1.1444  0.4307
 3860SOL     OW23212   0.592   2.757  11.291  0.3049  0.0251 -0.1195
 3860SOL    HW123213   0.679   2.726  11.317  0.2923 -1.1658 -1.5542
 3860SOL    HW223214   0.598   2.747  11.196 -0.5486 -0.6840 -0.0942
 3861SOL     OW23215   3.462   4.680   6.777  0.4870 -0.9754 -0.2129
 3861SOL    HW123216   3.415   0.015   6.816 -0.6261 -1.0956 -1.3215
 3861SOL    HW223217   3.550   4.713   6.763  0.5514 -0.8618  0.4711
 3862SOL     OW23218   0.970   2.820   4.721 -0.5372  0.5148  0.1886
 3862SOL    HW123219   1.003   2.737   4.685 -0.4846  1.7841 -2.6964
 3862SOL    HW223220   0.887   2.829   4.674  0.3607 -0.1370 -1.5161
 3863SOL     OW23221   2.953   2.255   4.681 -0.3165 -0.1018 -0.1346
 3863SOL    HW123222   2.929   2.317   4.612 -3.9685 -1.0259  0.2844
 3863SOL    HW223223   2.895   2.183   4.657 -2.3113  1.1575  0.9105
 3864SOL     OW23224   3.103   1.043  14.708 -0.6645  0.6929  0.0215
 3864SOL    HW123225   3.033   0.980  14.697  0.0492 -0.0015 -0.5386
 3864SOL    HW223226   3.156   1.001  14.641  0.2392  1.8153  0.0213
 3865SOL     OW23227   3.173   0.430  16.703  0.2940 -0.1927 -0.2909
 3865SOL    HW123228   3.109   0.365  16.733 -2.2002  1.1927 -2.6641
 3865SOL    HW223229   3.234   0.370  16.659  1.2051 -0.9386  1.9739
 3866SOL     OW23230   3.689   0.801   9.824 -0.1551 -0.6989  0.7109
 3866SOL    HW123231   3.606   0.758   9.800 -0.5474 -0.8234  2.3084
 3866SOL    HW223232   3.752   0.744   9.779 -0.6590 -1.6580  1.2111
 3867SOL     OW23233   2.496   3.143   6.349  0.4873  0.3619  0.0841
 3867SOL    HW123234   2.432   3.114   6.415  0.4982 -0.9294 -0.4602
 3867SOL    HW223235   2.518   3.056   6.314  1.1626  0.4606  0.2652
 3868SOL     OW23236   3.872   0.178   6.826 -0.1828  0.2484  0.1947
 3868SOL    HW123237   3.921   0.258   6.806  2.2451 -0.9174  1.4082
 3868SOL    HW223238   3.939   0.114   6.804  2.0184  1.2080  3.9550
 3869SOL     OW23239   2.334   1.970   7.729  0.1558 -0.2705  0.2021
 3869SOL    HW123240   2.255   1.928   7.696  0.7623 -0.6110 -0.8048
 3869SOL    HW223241   2.322   1.964   7.824  0.9677 -0.9496  0.2594
 3870SOL     OW23242   2.117   4.399   8.418 -0.4133  0.3724  0.3230
 3870SOL    HW123243   2.201   4.408   8.374 -1.2267  0.9093 -1.1362
 3870SOL    HW223244   2.122   4.478   8.472 -1.5882  2.0220 -1.9737
 3871SOL     OW23245   3.641   3.333  11.429  0.1652  0.1431 -0.0940
 3871SOL    HW123246   3.713   3.377  11.473 -0.6639  1.0361  0.3816
 3871SOL    HW223247   3.595   3.410  11.397 -0.0695 -0.4981 -1.3296
 3872SOL     OW23248   0.961   0.457   8.666  0.5885 -0.0590 -0.0098
 3872SOL    HW123249   1.039   0.438   8.614  1.4248  2.9029  0.1775
 3872SOL    HW223250   0.975   0.402   8.743  2.9278  0.3119 -0.1912
 3873SOL     OW23251   0.026   2.048   6.339  0.6904  0.9620  0.4964
 3873SOL    HW123252   0.028   1.971   6.396  0.4563  0.9017  0.4202
 3873SOL    HW223253   4.674   2.071   6.321 -0.1762 -3.5140 -0.8604
 3874SOL     OW23254   1.754   2.876  15.006  0.1794 -0.4908 -0.4177
 3874SOL    HW123255   1.800   2.796  14.981 -3.6316 -2.8325  0.0718
 3874SOL    HW223256   1.706   2.892  14.925 -1.0406  0.7066  0.5333
 3875SOL     OW23257   0.055   1.282   5.848  0.4766 -0.2486 -0.4168
 3875SOL    HW123258   0.060   1.321   5.936  1.6218 -1.9151  0.2553
 3875SOL    HW223259   0.038   1.359   5.794 -2.4753  0.3776  1.3900
 3876SOL     OW23260   1.120   1.572   3.892  0.5180  0.0716  0.5613
 3876SOL    HW123261   1.164   1.525   3.963  2.2106  0.6708 -0.0791
 3876SOL    HW223262   1.168   1.557   3.810  0.6834  2.8224  0.1512
 3877SOL     OW23263   3.421   3.246   0.015  0.0873  0.3800 -0.8346
 3877SOL    HW123264   3.427   3.317   0.080  0.4308  0.0719 -0.5280
 3877SOL    HW223265   3.346   3.279  17.718  0.3519  0.3640 -1.2399
 3878SOL     OW23266   3.587   3.335   6.242 -0.2105 -0.4526  0.4522
 3878SOL    HW123267   3.558   3.307   6.329 -0.6062 -0.2021  0.4021
 3878SOL    HW223268   3.502   3.341   6.199 -0.7552 -1.6864  1.3416
 3879SOL     OW23269   4.548   3.796   8.094 -0.2794  0.1669 -0.6105
 3879SOL    HW123270   4.500   3.752   8.024 -2.1272  1.2765 -0.0460
 3879SOL    HW223271   4.639   3.770   8.084 -1.0480 -2.0554 -1.7603
 3880SOL     OW23272   3.093   4.317   6.543  0.2142 -0.1272  0.7690
 3880SOL    HW123273   3.032   4.343   6.612  0.1069 -2.0286  1.3665
 3880SOL    HW223274   3.175   4.306   6.591  0.3857 -0.1815  0.4643
 3881SOL     OW23275   1.038   1.269   7.069  0.5080  0.0783  0.0742
 3881SOL    HW123276   0.950   1.263   7.106  0.5628 -0.0399  0.1862
 3881SOL    HW223277   1.099   1.276   7.143  1.0835  0.0909 -0.3991
 3882SOL     OW23278   2.305   1.331  14.435  0.7069  0.0777  0.1925
 3882SOL    HW123279   2.341   1.376  14.360  0.0384  0.0014 -0.1790
 3882SOL    HW223280   2.222   1.290  14.407 -0.1709  3.0922 -1.6015
 3883SOL     OW23281   1.755   1.672   0.165  0.0813 -0.1358 -0.8928
 3883SOL    HW123282   1.794   1.619   0.096 -2.1193 -2.3413 -0.3967
 3883SOL    HW223283   1.666   1.673   0.130  0.2670 -2.5579 -1.3845
 3884SOL     OW23284   0.446   2.939   3.468  0.0319 -0.3953 -0.2482
 3884SOL    HW123285   0.489   2.853   3.470 -1.1712 -0.9673  0.8656
 3884SOL    HW223286   0.509   2.991   3.417 -0.3559 -0.0647 -0.3890
 3885SOL     OW23287   4.198   3.397  13.260 -0.0781  0.0941 -0.2898
 3885SOL    HW123288   4.181   3.406  13.354 -3.0475  1.4324 -0.9187
 3885SOL    HW223289   4.247   3.479  13.259  0.8886 -0.5020 -1.6157
 3886SOL     OW23290   0.694   0.368   2.161  0.3612  0.2162 -0.4001
 3886SOL    HW123291   0.622   0.416   2.121 -2.5220 -1.7983  2.4500
 3886SOL    HW223292   0.669   0.277   2.144 -0.1967  0.4879 -1.0343
 3887SOL     OW23293   3.354   2.329  11.233 -0.3727  0.1368  0.4221
 3887SOL    HW123294   3.406   2.249  11.231  1.4159  1.2422  2.2090
 3887SOL    HW223295   3.274   2.301  11.277 -1.9062  0.5331 -2.1132
 3888SOL     OW23296   4.059   4.531   7.016  0.2237 -0.2725 -0.4795
 3888SOL    HW123297   4.147   4.533   7.054 -0.6593  1.3482  1.4874
 3888SOL    HW223298   4.003   4.513   7.092 -0.0052  1.0354 -0.3477
 3889SOL     OW23299   1.584   0.727   3.735  0.2465  0.0723 -0.8902
 3889SOL    HW123300   1.546   0.640   3.719 -0.2867 -0.0476  1.0457
 3889SOL    HW223301   1.592   0.734   3.830  1.7383  0.2942 -1.0382
 3890SOL     OW23302   2.896   1.347   4.606  0.3919 -0.2470 -0.5334
 3890SOL    HW123303   2.874   1.432   4.567 -1.3311 -0.6414 -0.3960
 3890SOL    HW223304   2.823   1.319   4.660  0.7738 -1.0261 -0.4221
 3891SOL     OW23305   1.121   2.404   6.433  0.3492  0.4074 -0.3630
 3891SOL    HW123306   1.051   2.350   6.470  0.7508 -1.4654 -2.3553
 3891SOL    HW223307   1.200   2.378   6.480 -0.3765 -1.2069 -0.0479
 3892SOL     OW23308   2.090   1.925   9.858  0.3217 -0.0198  0.3211
 3892SOL    HW123309   2.091   1.830   9.872 -0.7466 -0.3823 -2.1188
 3892SOL    HW223310   2.135   1.960   9.935  1.4865 -0.4409 -0.1784
 3893SOL     OW23311   2.802   1.402   5.997 -0.9565  0.1171 -0.1425
 3893SOL    HW123312   2.824   1.489   6.030  1.5222 -1.3941  2.1821
 3893SOL    HW223313   2.759   1.368   6.076 -0.2888 -1.7546 -0.5845
 3894SOL     OW23314   0.372   1.206   8.364  0.0663 -0.0660  0.7687
 3894SOL    HW123315   0.418   1.137   8.315 -1.8115 -0.3257 -0.6706
 3894SOL    HW223316   0.434   1.222   8.435 -0.2984  3.5424  0.2537
 3895SOL     OW23317   0.489   2.479   3.672 -0.0505  0.2483 -0.5460
 3895SOL    HW123318   0.434   2.524   3.736  0.2025  1.1081 -0.9363
 3895SOL    HW223319   0.515   2.397   3.716 -2.6449  0.6417  1.6765
 3896SOL     OW23320   2.694   3.473   9.562  0.1489 -0.0283 -0.2710
 3896SOL    HW123321   2.740   3.420   9.627 -1.9705  1.3004  2.3279
 3896SOL    HW223322   2.649   3.529   9.625  1.4744  1.2118 -0.4178
 3897SOL     OW23323   4.084   4.183   6.102 -0.7148 -0.2901  0.5656
 3897SOL    HW123324   4.172   4.179   6.066  0.2857 -1.2116  3.0759
 3897SOL    HW223325   4.037   4.183   6.019 -1.5216 -0.8955  1.0199
 3898SOL     OW23326   4.030   2.970   8.742 -0.0431  0.7626  0.2415
 3898SOL    HW123327   4.069   3.048   8.780  0.8817  0.0870  0.6863
 3898SOL    HW223328   4.052   2.911   8.814 -0.5735  1.7439  1.2007
 3899SOL     OW23329   1.664   2.150   5.467 -0.3100  0.3250 -0.2727
 3899SOL    HW123330   1.711   2.231   5.486 -0.1190  0.3556 -0.8725
 3899SOL    HW223331   1.688   2.126   5.377 -2.6198 -3.7836  0.1971
 3900SOL     OW23332   1.821   4.528   7.440  0.3221 -0.8622  0.2032
 3900SOL    HW123333   1.864   4.598   7.490  1.9199 -0.9793 -1.0327
 3900SOL    HW223334   1.869   4.539   7.358 -0.6807 -0.8762 -0.3912
 3901SOL     OW23335   0.908   3.333  16.525  0.1550 -0.0429  0.4956
 3901SOL    HW123336   0.856   3.270  16.475  0.6643 -1.6828  2.0686
 3901SOL    HW223337   0.993   3.337  16.482  0.7649 -2.3055  1.5242
 3902SOL     OW23338   3.829   1.349   3.244  0.1474  0.4692  0.0022
 3902SOL    HW123339   3.855   1.441   3.254 -1.0185  0.8538 -0.4156
 3902SOL    HW223340   3.740   1.352   3.208 -0.6159  1.8977  1.9683
 3903SOL     OW23341   1.021   3.509  10.994  0.1164 -0.2730  0.2389
 3903SOL    HW123342   0.946   3.567  10.980  0.7070  0.1814 -1.0561
 3903SOL    HW223343   1.090   3.567  11.027  0.1336 -0.5213  0.6448
 3904SOL     OW23344   4.082   2.538   6.671 -0.1893 -0.4238  0.1336
 3904SOL    HW123345   4.124   2.583   6.745 -1.3677  1.3031 -0.2267
 3904SOL    HW223346   4.157   2.481   6.658  0.0727 -0.2580  0.8705
 3905SOL     OW23347   0.070   1.053   5.249  0.4011 -0.3236 -0.4226
 3905SOL    HW123348   4.714   1.043   5.246  0.5207 -2.8063  3.7786
 3905SOL    HW223349   0.078   1.006   5.332  1.6860 -2.0444 -1.5219
 3906SOL     OW23350   1.746   4.439  14.389  0.0832  0.4193 -0.0515
 3906SOL    HW123351   1.772   4.353  14.355  0.1683  0.7905 -0.9285
 3906SOL    HW223352   1.662   4.408  14.423  0.2977 -1.7267 -1.4651
 3907SOL     OW23353   2.931   0.170  13.857  0.2604 -0.3496 -0.2290
 3907SOL    HW123354   2.841   0.178  13.826 -0.7057 -1.8814  2.2329
 3907SOL    HW223355   2.932   0.222  13.937  1.6513 -1.4972  0.4918
 3908SOL     OW23356   4.016   2.445  16.364  0.4854 -0.4032  0.4647
 3908SOL    HW123357   4.016   2.452  16.460  0.5966  1.5343  0.3227
 3908SOL    HW223358   4.048   2.529  16.332 -1.3104  0.5609  1.1936
 3909SOL     OW23359   1.150   2.469   5.854  0.1793 -0.0502  0.3158
 3909SOL    HW123360   1.233   2.517   5.843 -0.0595  0.1995 -0.4189
 3909SOL    HW223361   1.179   2.380   5.837  0.2142  0.3418 -1.6753
 3910SOL     OW23362   0.401   4.597   6.229  0.8235 -0.3164 -0.3743
 3910SOL    HW123363   0.414   4.691   6.217 -2.4073 -0.0808 -1.8805
 3910SOL    HW223364   0.329   4.580   6.169  1.6218  0.5102 -1.5596
 3911SOL     OW23365   1.580   4.056  13.688 -0.1156  0.4724  0.6928
 3911SOL    HW123366   1.613   4.098  13.609  0.1538  1.0396  1.1059
 3911SOL    HW223367   1.634   3.978  13.697 -0.4158  0.2218  0.2807
 3912SOL     OW23368   2.634   0.242  10.885  1.0197  0.0494 -0.4943
 3912SOL    HW123369   2.550   0.274  10.919  1.1093 -2.3297  1.9171
 3912SOL    HW223370   2.692   0.298  10.937  1.6839  0.5048 -1.7291
 3913SOL     OW23371   0.032   1.151   6.177  0.0334 -0.3473  0.1783
 3913SOL    HW123372   4.688   1.104   6.186  0.2120 -0.3081  1.9334
 3913SOL    HW223373   0.086   1.072   6.181  0.4184 -0.0352  1.1999
 3914SOL     OW23374   4.230   0.784   7.610  0.0125 -0.3184  0.4140
 3914SOL    HW123375   4.298   0.841   7.645 -1.2833 -0.3331  2.9510
 3914SOL    HW223376   4.157   0.845   7.626  1.6396  2.0021 -1.0102
 3915SOL     OW23377   2.056   1.874  17.620  0.0650 -0.1284  0.1528
 3915SOL    HW123378   2.147   1.881  17.650 -0.5966  0.0517  2.1041
 3915SOL    HW223379   2.027   1.953  17.666  1.1710  0.5519 -0.3175
 3916SOL     OW23380   0.232   4.581   3.058 -0.1230 -0.4793  0.0441
 3916SOL    HW123381   0.216   4.651   2.994 -1.9708  0.3426  1.3992
 3916SOL    HW223382   0.297   4.529   3.011 -0.6289 -2.7557  1.8659
 3917SOL     OW23383   0.824   2.559   6.318 -0.0652 -0.1766 -0.2608
 3917SOL    HW123384   0.810   2.498   6.391 -0.6650  0.6491  0.3190
 3917SOL    HW223385   0.747   2.616   6.323  0.1514  0.3368 -3.3052
 3918SOL     OW23386   1.488   3.989   0.626  0.4384 -0.3399 -0.4768
 3918SOL    HW123387   1.430   4.034   0.564 -1.3770 -3.6522 -1.1893
 3918SOL    HW223388   1.540   4.065   0.651 -0.5365  0.4978 -1.0190
 3919SOL     OW23389   2.760   4.019   6.368 -0.2922 -0.1083 -0.7550
 3919SOL    HW123390   2.689   3.964   6.398 -0.7198 -0.0012 -1.5788
 3919SOL    HW223391   2.836   4.002   6.425  0.4514  0.4468 -1.5792
 3920SOL     OW23392   1.391   0.822   7.933  0.3338  0.2954 -0.1721
 3920SOL    HW123393   1.391   0.834   7.838 -1.4878 -1.1296 -0.3655
 3920SOL    HW223394   1.450   0.746   7.936  1.2569  1.0355  0.3226
 3921SOL     OW23395   1.464   4.129  12.592  0.1257  0.0627  0.6821
 3921SOL    HW123396   1.458   4.086  12.678 -3.1667 -2.5788 -0.8662
 3921SOL    HW223397   1.555   4.110  12.572 -0.4357 -1.7220 -0.1634
 3922SOL     OW23398   2.595   0.587   6.919 -0.4882 -0.0212 -0.0386
 3922SOL    HW123399   2.664   0.572   6.854 -0.2045 -1.8566  0.6778
 3922SOL    HW223400   2.645   0.626   6.991 -2.3315 -1.9657  2.2563
 3923SOL     OW23401   0.175   4.064   3.227 -0.0246 -0.0351 -0.3146
 3923SOL    HW123402   0.227   4.139   3.258  3.1960 -2.6449  0.6426
 3923SOL    HW223403   0.184   4.081   3.133  0.9065  1.2546  0.0094
 3924SOL     OW23404   1.678   1.411  17.682 -0.0530  0.2725 -0.3093
 3924SOL    HW123405   1.678   1.469  17.606  0.6893  2.9165  1.6784
 3924SOL    HW223406   1.736   1.341  17.654  0.1371  0.8358 -1.3045
 3925SOL     OW23407   3.442   0.407   3.291 -0.7669 -1.0644 -0.4837
 3925SOL    HW123408   3.469   0.413   3.383 -1.0697  0.5934 -0.4946
 3925SOL    HW223409   3.347   0.402   3.298 -0.9383  0.0066 -2.0927
 3926SOL     OW23410   0.448   0.126   6.784  0.3721  0.4624  0.5958
 3926SOL    HW123411   0.389   0.054   6.808  0.4048  1.1051  2.6570
 3926SOL    HW223412   0.458   0.179   6.864  1.5796 -0.0561  0.7961
 3927SOL     OW23413   2.514   2.333   5.651  0.1204 -0.2212 -0.1254
 3927SOL    HW123414   2.567   2.254   5.667  1.8682  0.6194 -1.6805
 3927SOL    HW223415   2.467   2.343   5.733  1.7074 -1.2299  0.8933
 3928SOL     OW23416   1.114   3.316   9.132 -0.0630 -0.3082  0.1611
 3928SOL    HW123417   1.188   3.376   9.122 -0.6185  0.4259  0.4210
 3928SOL    HW223418   1.074   3.355   9.210 -2.5457 -1.6606 -0.4627
 3929SOL     OW23419   1.498   4.580   7.714 -0.0189  0.5351 -0.9028
 3929SOL    HW123420   1.406   4.579   7.686 -0.5551  0.1185  0.8772
 3929SOL    HW223421   1.505   4.661   7.763 -1.4499  0.1478 -0.0585
 3930SOL     OW23422   3.190   0.277   2.090  0.3083 -0.0431 -0.0180
 3930SOL    HW123423   3.169   0.370   2.095 -0.5024 -0.1821 -0.9052
 3930SOL    HW223424   3.188   0.260   1.996  3.6920  1.2271 -0.3276
 3931SOL     OW23425   3.696   4.028   3.700 -0.3742 -0.1480  0.5777
 3931SOL    HW123426   3.780   3.988   3.721 -0.4404 -1.5975 -1.9748
 3931SOL    HW223427   3.728   4.083   3.629 -1.7709 -3.0300 -2.3260
 3932SOL     OW23428   1.282   2.315   4.894  0.3938 -0.6841  0.0438
 3932SOL    HW123429   1.275   2.230   4.937  3.8708 -1.1109 -0.2844
 3932SOL    HW223430   1.375   2.321   4.874 -0.5000 -2.2437 -4.6857
 3933SOL     OW23431   3.997   1.813   9.120 -0.1222 -0.1407 -0.3296
 3933SOL    HW123432   3.982   1.859   9.037 -0.5054 -1.2566 -0.8718
 3933SOL    HW223433   3.906   1.816   9.149 -0.4730  0.0550 -1.4407
 3934SOL     OW23434   0.025   3.896  13.324  0.0393 -0.4368 -0.0467
 3934SOL    HW123435   0.019   3.990  13.310  1.8243 -0.2221  0.5963
 3934SOL    HW223436   0.023   3.857  13.236 -2.4310  0.1534 -0.2449
 3935SOL     OW23437   1.111   3.872   6.895 -0.2385 -0.1100  0.4006
 3935SOL    HW123438   1.167   3.895   6.969  1.2168  0.6072 -0.9071
 3935SOL    HW223439   1.089   3.962   6.872  0.3670  0.4588  2.0201
 3936SOL     OW23440   1.121   3.049  11.363  0.3194 -0.7363 -0.5959
 3936SOL    HW123441   1.146   3.065  11.454  0.1614  0.5930 -0.7930
 3936SOL    HW223442   1.190   3.094  11.314 -2.4682  3.1226 -0.9577
 3937SOL     OW23443   1.060   0.039  11.311 -0.1896 -0.0208  0.5795
 3937SOL    HW123444   1.127   4.711  11.300 -2.1852 -1.4821 -2.5271
 3937SOL    HW223445   1.112   0.117  11.329  0.0565 -0.7157  2.9206
 3938SOL     OW23446   0.828   2.461   0.203 -0.2719 -0.6573  0.2060
 3938SOL    HW123447   0.800   2.457   0.111 -5.6930  0.0279  1.8057
 3938SOL    HW223448   0.921   2.480   0.199 -0.5044  0.6391  0.9326
 3939SOL     OW23449   2.782   2.880   4.265  0.5273  0.2685 -0.3781
 3939SOL    HW123450   2.688   2.876   4.245  0.0931 -1.1473  2.0061
 3939SOL    HW223451   2.789   2.975   4.278  2.6234  0.1569 -0.6934
 3940SOL     OW23452   1.013   1.424  16.529  0.4991 -0.3852 -0.4599
 3940SOL    HW123453   0.958   1.421  16.451 -0.7642 -0.0642  0.4066
 3940SOL    HW223454   1.087   1.373  16.499  0.4656 -0.3053 -0.6777
 3941SOL     OW23455   0.548   4.561   3.606  0.1269 -0.4645 -0.3236
 3941SOL    HW123456   0.543   4.475   3.564  2.3264 -0.1233 -1.2982
 3941SOL    HW223457   0.459   4.593   3.590 -0.9644 -3.5974 -0.4411
 3942SOL     OW23458   2.823   1.463   9.967  0.1998  0.0360  0.1003
 3942SOL    HW123459   2.859   1.450   9.879 -0.0971  0.5201 -0.0885
 3942SOL    HW223460   2.907   1.494  10.003  0.6040 -0.6779 -0.2242
 3943SOL     OW23461   3.488   4.533   7.599  0.4416  0.0987  0.0643
 3943SOL    HW123462   3.551   4.492   7.540  1.1496 -0.0248  0.9080
 3943SOL    HW223463   3.417   4.560   7.541  1.0498 -0.5524 -0.9756
 3944SOL     OW23464   4.635   4.190   2.473  0.7549  0.3349 -0.0476
 3944SOL    HW123465   4.564   4.255   2.479  1.6190  1.1775  1.0862
 3944SOL    HW223466   4.638   4.163   2.564  2.3562  0.5107 -0.0414
 3945SOL     OW23467   3.911   2.575   6.988  0.1319 -0.1813  0.4846
 3945SOL    HW123468   3.963   2.513   7.040 -1.1446 -1.1030  0.6570
 3945SOL    HW223469   3.968   2.627   6.931 -1.7974 -1.3777 -2.5701
 3946SOL     OW23470   0.295   4.227   7.850 -0.4609 -0.2905 -0.0614
 3946SOL    HW123471   0.286   4.218   7.755 -1.8646 -0.0460  0.0590
 3946SOL    HW223472   0.321   4.319   7.841 -0.7947 -0.1358  0.5559
 3947SOL     OW23473   4.018   3.835   8.657  0.0450 -0.3095 -0.1760
 3947SOL    HW123474   3.992   3.900   8.591  2.1363  1.2532  0.5102
 3947SOL    HW223475   3.938   3.825   8.709 -0.1250 -1.5669 -0.6861
 3948SOL     OW23476   3.714   3.195   1.087  0.1285 -0.1014  0.3537
 3948SOL    HW123477   3.763   3.158   1.014 -0.6460 -1.7732  0.6592
 3948SOL    HW223478   3.772   3.263   1.120  0.7193 -0.7399  0.6412
 3949SOL     OW23479   2.357   4.341   2.941  0.0083 -0.0394 -0.0586
 3949SOL    HW123480   2.295   4.347   2.869 -0.3790 -2.0284  0.1012
 3949SOL    HW223481   2.391   4.430   2.939 -0.5056  0.1804  0.7307
 3950SOL     OW23482   4.370   2.630   6.394 -0.5290 -0.1258  0.3444
 3950SOL    HW123483   4.447   2.666   6.439  0.3123  1.9411 -2.7286
 3950SOL    HW223484   4.400   2.540   6.381  2.4363  0.6618  1.5730
 3951SOL     OW23485   0.140   4.195  11.596 -0.1569 -0.1584  0.3411
 3951SOL    HW123486   0.215   4.178  11.539  1.2229 -1.4854  2.5597
 3951SOL    HW223487   0.066   4.198  11.535  0.2417 -1.4609 -0.2141
 3952SOL     OW23488   2.143   3.795   9.586 -0.0793  0.1468  0.6763
 3952SOL    HW123489   2.141   3.881   9.544  1.5751 -0.1208  0.0865
 3952SOL    HW223490   2.198   3.817   9.661  0.7234  0.2987  0.0380
 3953SOL     OW23491   1.957   2.492  13.727 -0.2039  0.2920  0.3760
 3953SOL    HW123492   2.024   2.434  13.762  1.5626  2.1454  0.0822
 3953SOL    HW223493   1.918   2.435  13.662  0.1225  0.7903 -0.2529
 3954SOL     OW23494   4.649   3.960   3.235  0.0889  0.4118 -0.5394
 3954SOL    HW123495   0.005   3.970   3.243 -0.0907  1.3607  0.4044
 3954SOL    HW223496   4.624   4.035   3.289 -1.1187  0.7306 -1.5545
 3955SOL     OW23497   1.090   0.242   3.809  0.0452 -0.2930 -0.2286
 3955SOL    HW123498   1.073   0.206   3.896 -1.6566  0.7304 -0.1335
 3955SOL    HW223499   1.180   0.273   3.822  0.4291 -0.9714 -1.3341
 3956SOL     OW23500   3.372   0.065   8.497  0.2839 -0.1768  0.3148
 3956SOL    HW123501   3.302   0.002   8.511 -0.2686  0.0660 -1.3316
 3956SOL    HW223502   3.437   0.012   8.541 -1.2063 -1.6153  0.7792
 3957SOL     OW23503   4.152   0.945   1.551 -0.3637 -0.3049  0.3053
 3957SOL    HW123504   4.226   0.913   1.500  0.3827 -0.5915  1.5751
 3957SOL    HW223505   4.100   0.864   1.553 -1.1102  0.1829  0.8735
 3958SOL     OW23506   2.612   1.571   6.671  0.3459 -0.5591 -0.8706
 3958SOL    HW123507   2.668   1.634   6.718  0.9307  0.4467 -2.9272
 3958SOL    HW223508   2.520   1.596   6.679  0.7399 -0.2629  3.1384
 3959SOL     OW23509   3.799   3.415  17.164 -0.3774 -0.6670  0.0603
 3959SOL    HW123510   3.747   3.417  17.083 -0.5207 -0.8585  0.1463
 3959SOL    HW223511   3.796   3.502  17.203 -2.5206 -0.8521  0.2877
 3960SOL     OW23512   0.489   1.969   8.660 -0.2601 -0.2801 -0.3215
 3960SOL    HW123513   0.539   1.937   8.735  0.2867  2.7975  0.6525
 3960SOL    HW223514   0.517   2.059   8.644 -2.4717  0.1158 -1.9724
 3961SOL     OW23515   2.758   1.110   5.769  0.8418 -0.4195 -0.3009
 3961SOL    HW123516   2.686   1.048   5.777  0.5970 -0.0504  0.3981
 3961SOL    HW223517   2.799   1.064   5.696 -0.6196 -1.4495 -0.4701
 3962SOL     OW23518   4.100   2.872  16.854  0.1925  0.3658 -0.5034
 3962SOL    HW123519   4.105   2.822  16.936  2.4410 -1.3720 -1.7173
 3962SOL    HW223520   4.051   2.946  16.892  2.2029  0.1484  2.5421
 3963SOL     OW23521   2.290   3.250  11.682  1.1650 -0.4505  0.4949
 3963SOL    HW123522   2.267   3.341  11.702 -2.8988 -1.2018 -0.7784
 3963SOL    HW223523   2.372   3.258  11.633  0.1736 -0.2353 -1.1361
 3964SOL     OW23524   0.647   2.166   4.622 -0.1980  0.1404  0.4826
 3964SOL    HW123525   0.688   2.222   4.556  0.9563  1.0215  1.9493
 3964SOL    HW223526   0.576   2.123   4.574  1.4232 -0.3243 -1.5319
 3965SOL     OW23527   0.689   3.358  16.876 -0.5687 -0.1525  0.1174
 3965SOL    HW123528   0.777   3.330  16.852 -1.2061 -0.2259 -2.1423
 3965SOL    HW223529   0.631   3.318  16.811 -0.5792 -0.9617  0.6204
 3966SOL     OW23530   3.959   3.025   5.022  0.0477 -0.1868 -0.4346
 3966SOL    HW123531   3.971   3.092   4.955 -0.6710  2.0314  1.6740
 3966SOL    HW223532   3.962   3.081   5.099 -0.3494 -0.2245 -0.3932
 3967SOL     OW23533   3.193   3.639   3.807 -1.1300 -0.4181  0.0746
 3967SOL    HW123534   3.284   3.611   3.817 -1.1483 -0.3860  0.3261
 3967SOL    HW223535   3.196   3.698   3.732 -0.0309 -0.3450  0.1790
 3968SOL     OW23536   0.111   3.544  10.829  0.1223 -0.2557 -0.0008
 3968SOL    HW123537   0.048   3.473  10.842  1.5273 -2.0470 -3.0334
 3968SOL    HW223538   0.171   3.538  10.903  0.8304  0.1059 -0.5431
 3969SOL     OW23539   1.477   1.556   0.969 -0.0963  0.1945 -0.2419
 3969SOL    HW123540   1.468   1.470   0.928 -0.7533  0.0705  0.1524
 3969SOL    HW223541   1.440   1.545   1.057  3.4521 -0.8428  1.1349
 3970SOL     OW23542   2.920   2.892   4.619  0.1934 -0.3849 -0.4248
 3970SOL    HW123543   3.003   2.935   4.599 -1.4542  2.3274 -1.3886
 3970SOL    HW223544   2.852   2.959   4.627  0.1523 -0.5167  0.3192
 3971SOL     OW23545   2.590   4.490   9.077 -0.5271 -0.5102 -0.9083
 3971SOL    HW123546   2.578   4.581   9.047  1.5716  0.0735  0.0462
 3971SOL    HW223547   2.580   4.433   9.001  0.1602 -0.1780 -1.2435
 3972SOL     OW23548   0.913   2.146   3.447 -0.2972  0.0358  0.0781
 3972SOL    HW123549   0.989   2.123   3.501 -0.8207  1.3940  1.3811
 3972SOL    HW223550   0.948   2.223   3.401 -0.1742 -0.9126 -1.4240
 3973SOL     OW23551   0.396   3.145   2.151 -0.2428 -0.6568 -0.1936
 3973SOL    HW123552   0.437   3.231   2.143  0.0012 -0.7924 -0.3957
 3973SOL    HW223553   0.352   3.146   2.066  2.1662 -0.9230 -1.4392
 3974SOL     OW23554   2.713   4.069   5.258  0.0465 -0.2920  0.3228
 3974SOL    HW123555   2.718   3.977   5.286  0.9374 -0.2351  0.3404
 3974SOL    HW223556   2.688   4.112   5.340  0.5506 -0.6987  0.6943
 3975SOL     OW23557   1.560   0.089   3.860 -0.3321  0.4813  0.0226
 3975SOL    HW123558   1.600   0.173   3.885 -2.6042  1.4845  0.3292
 3975SOL    HW223559   1.619   0.062   3.790 -0.8012 -0.0562 -0.1648
 3976SOL     OW23560   0.728   3.992  12.394  0.1059  1.1782 -0.0012
 3976SOL    HW123561   0.769   3.968  12.477 -0.2029  0.7298  0.0254
 3976SOL    HW223562   0.647   4.038  12.414 -1.1237 -1.0344  0.1799
 3977SOL     OW23563   1.103   4.188   2.665 -0.5083 -0.7175 -0.2512
 3977SOL    HW123564   1.049   4.135   2.606  0.3858  0.0070 -1.7175
 3977SOL    HW223565   1.146   4.249   2.605 -1.5369  1.2326  0.9800
 3978SOL     OW23566   4.380   4.124   1.493 -0.8294 -0.0722  0.1206
 3978SOL    HW123567   4.412   4.214   1.497  0.7720 -0.6962  1.0113
 3978SOL    HW223568   4.415   4.091   1.575 -2.6978 -0.8466  0.6184
 3979SOL     OW23569   2.585   3.055   5.663  0.6608  0.6305  0.0434
 3979SOL    HW123570   2.534   3.075   5.742 -0.4575  2.8452 -1.2546
 3979SOL    HW223571   2.564   3.138   5.621  1.3335 -0.1597 -1.8563
 3980SOL     OW23572   1.385   4.386   5.875 -0.2591  0.1543  0.3062
 3980SOL    HW123573   1.362   4.330   5.800  0.2722  0.2324  0.0874
 3980SOL    HW223574   1.441   4.321   5.917 -0.7068 -0.3700  0.0973
 3981SOL     OW23575   3.579   2.479   3.749  0.2381  0.4674 -0.1454
 3981SOL    HW123576   3.520   2.416   3.790 -0.7142  0.8531 -0.9065
 3981SOL    HW223577   3.667   2.463   3.784  0.6380  1.5004 -0.6691
 3982SOL     OW23578   0.338   2.362  13.472  0.3352 -0.1299  0.7245
 3982SOL    HW123579   0.257   2.387  13.516 -2.1628  0.5823 -4.3497
 3982SOL    HW223580   0.303   2.362  13.383  0.7731  0.5567  0.5516
 3983SOL     OW23581   3.837   3.639  12.984 -1.2133  0.1040 -0.2569
 3983SOL    HW123582   3.859   3.712  13.043  1.0986 -0.1470 -0.8090
 3983SOL    HW223583   3.909   3.578  13.002 -2.6048 -1.6357 -0.6019
 3984SOL     OW23584   0.406   4.140   5.777 -0.0077 -0.2343  0.0232
 3984SOL    HW123585   0.456   4.064   5.806 -0.4879  0.0589  1.6320
 3984SOL    HW223586   0.480   4.190   5.743 -1.9633  2.4691 -0.2508
 3985SOL     OW23587   0.562   4.385   8.909  0.1442  0.4119 -0.3925
 3985SOL    HW123588   0.477   4.351   8.934  0.2219 -0.6358 -1.5613
 3985SOL    HW223589   0.581   4.323   8.838  2.7991  1.7602 -0.8434
 3986SOL     OW23590   3.162   2.888  12.395 -0.5132 -0.2436  0.2502
 3986SOL    HW123591   3.207   2.940  12.462 -0.0231 -1.8338  1.1709
 3986SOL    HW223592   3.133   2.953  12.332  0.6853  1.1726  1.1700
 3987SOL     OW23593   4.345   4.121   2.178  0.6976 -0.1159 -0.0515
 3987SOL    HW123594   4.329   4.131   2.272  1.2156  0.2584 -0.0015
 3987SOL    HW223595   4.435   4.091   2.190  0.3327 -1.7015 -1.2857
 3988SOL     OW23596   0.582   1.281   8.858 -0.0603 -0.1769 -0.3804
 3988SOL    HW123597   0.561   1.223   8.931  0.1585  0.1814 -0.0310
 3988SOL    HW223598   0.672   1.304   8.883 -1.0025  1.9333  1.0485
 3989SOL     OW23599   3.664   1.706   3.461  0.0516 -0.2847  0.3609
 3989SOL    HW123600   3.717   1.715   3.540 -0.1528  0.4842  0.4131
 3989SOL    HW223601   3.688   1.786   3.415 -1.4598  0.6449  1.1729
 3990SOL     OW23602   2.579   1.715   5.749  0.1927 -0.1338  0.1933
 3990SOL    HW123603   2.500   1.756   5.714 -0.5567  1.2371  3.4812
 3990SOL    HW223604   2.557   1.625   5.727  0.5920  0.2589 -1.8086
 3991SOL     OW23605   2.967   3.925  13.868 -0.1733  0.2342 -0.4116
 3991SOL    HW123606   3.056   3.893  13.886  0.5897  2.2427 -0.5762
 3991SOL    HW223607   2.980   4.020  13.867 -1.2767  0.3674 -1.2386
 3992SOL     OW23608   2.512   2.523  15.302 -0.3379 -0.4144  0.2289
 3992SOL    HW123609   2.434   2.475  15.331 -0.1779 -1.0818 -0.4255
 3992SOL    HW223610   2.569   2.466  15.251 -0.7273 -1.8104  1.3381
 3993SOL     OW23611   0.048   2.365  13.556  0.1200 -0.1684 -0.2318
 3993SOL    HW123612   4.728   2.371  13.481  0.0712  1.2331 -0.0812
 3993SOL    HW223613   0.005   2.319  13.628  0.6239 -1.7242 -0.9332
 3994SOL     OW23614   2.932   2.267   6.016  0.1172 -0.5017 -0.3578
 3994SOL    HW123615   2.980   2.272   5.933  1.7902  0.0149  0.6316
 3994SOL    HW223616   2.888   2.351   6.029 -0.4690 -1.4172  3.6102
 3995SOL     OW23617   3.331   0.242   6.465 -0.1528  0.1104  0.8076
 3995SOL    HW123618   3.363   0.173   6.406 -2.0008 -1.6947  1.9264
 3995SOL    HW223619   3.339   0.197   6.549  1.6975  1.5756  1.4190
 3996SOL     OW23620   4.709   4.123  15.587 -0.2735  0.5070  0.1231
 3996SOL    HW123621   4.735   4.039  15.548 -1.9925 -1.0037  2.2454
 3996SOL    HW223622   4.635   4.097  15.642 -0.9947 -0.5289 -1.3590
 3997SOL     OW23623   2.110   3.003   9.515  0.4346 -0.3684 -0.4364
 3997SOL    HW123624   2.195   3.046   9.522  0.6687 -0.7989 -0.6153
 3997SOL    HW223625   2.133   2.917   9.550 -0.7911 -0.2407  0.7104
 3998SOL     OW23626   0.022   2.603  10.450 -0.2506  0.0882 -0.4577
 3998SOL    HW123627   0.027   2.509  10.467 -1.7106 -0.0689 -0.8246
 3998SOL    HW223628   4.668   2.609  10.474 -0.3187  1.5567 -1.0855
 3999SOL     OW23629   1.257   4.250   1.041  0.2421  0.1533 -0.2260
 3999SOL    HW123630   1.230   4.291   1.123  0.5397  0.8711 -0.4876
 3999SOL    HW223631   1.327   4.188   1.064 -0.5565 -0.6729  0.0067
 4000SOL     OW23632   2.521   2.834  16.445  0.0645  0.2635  0.1412
 4000SOL    HW123633   2.471   2.759  16.476 -2.1893  0.4371 -3.0964
 4000SOL    HW223634   2.456   2.868  16.384 -1.1624  1.8494  2.3116
 4001SOL     OW23635   0.887   4.057  14.856  0.2648 -0.4870 -0.0209
 4001SOL    HW123636   0.891   4.079  14.949  0.3274 -3.3509  0.6339
 4001SOL    HW223637   0.879   3.963  14.868  0.8149 -0.4748  0.4510
 4002SOL     OW23638   4.225   1.755   1.650  0.2924 -0.1874  0.5672
 4002SOL    HW123639   4.198   1.826   1.593 -0.1838 -0.5082  0.3979
 4002SOL    HW223640   4.170   1.682   1.623  5.5386 -3.0040 -2.4250
 4003SOL     OW23641   0.954   4.452   7.631  0.2698 -0.1815  0.1935
 4003SOL    HW123642   0.930   4.373   7.583  0.7772 -2.2332  3.3281
 4003SOL    HW223643   0.877   4.499   7.601 -0.7290 -1.7896  0.2370
 4004SOL     OW23644   3.001   0.062   2.069  0.2647  0.1257 -0.5655
 4004SOL    HW123645   2.960   0.072   2.156  0.1742  1.5443 -0.7672
 4004SOL    HW223646   3.016   0.155   2.049  0.6621  0.2071  0.1214
 4005SOL     OW23647   3.882   2.037   7.165  0.2006 -0.1192  0.2031
 4005SOL    HW123648   3.976   2.052   7.169  0.2605 -0.4929  0.1851
 4005SOL    HW223649   3.857   2.124   7.135 -1.0572 -0.7554 -0.6366
 4006SOL     OW23650   2.634   3.429  17.025 -0.0718 -0.1910 -0.7221
 4006SOL    HW123651   2.690   3.352  17.037 -1.2150 -0.8767  0.3068
 4006SOL    HW223652   2.592   3.410  16.941 -0.5002  2.3585 -1.0702
 4007SOL     OW23653   2.069   0.710   2.611  0.0614 -0.0483  0.3064
 4007SOL    HW123654   2.041   0.619   2.621  1.9639 -0.4225  2.1940
 4007SOL    HW223655   2.013   0.738   2.538  0.9056  2.6190  0.6737
 4008SOL     OW23656   3.831   0.632  15.467 -0.5105  0.0345 -0.0799
 4008SOL    HW123657   3.850   0.661  15.378 -0.0932 -1.3739 -0.4577
 4008SOL    HW223658   3.843   0.712  15.517 -0.0634  0.6138 -1.1197
 4009SOL     OW23659   4.131   3.038   4.037  0.0317 -0.2724 -0.3604
 4009SOL    HW123660   4.088   3.034   3.952  0.1198  0.2852 -0.4318
 4009SOL    HW223661   4.083   2.969   4.083 -0.4635  0.3666  0.0661
 4010SOL     OW23662   0.466   3.955   6.964  0.0777 -0.0929  0.1128
 4010SOL    HW123663   0.467   3.952   7.059 -3.0630 -1.6471  0.1059
 4010SOL    HW223664   0.522   3.880   6.946  0.4502  0.6621 -1.9038
 4011SOL     OW23665   0.127   4.708   8.000  0.0571  0.2909 -0.2939
 4011SOL    HW123666   0.148   0.062   7.989  0.8546  0.1976  0.3904
 4011SOL    HW223667   0.178   4.691   8.079 -0.5738  0.5714  0.1772
 4012SOL     OW23668   1.755   0.434   4.295  0.2458  0.4022  0.2444
 4012SOL    HW123669   1.673   0.446   4.344 -0.6110  1.8796 -1.5692
 4012SOL    HW223670   1.774   0.526   4.279  0.6520  0.3338  0.3303
 4013SOL     OW23671   0.384   3.339   8.770  0.0044  0.1257  0.0389
 4013SOL    HW123672   0.288   3.339   8.765 -0.0396 -1.1803  1.0480
 4013SOL    HW223673   0.402   3.266   8.829  0.1500 -0.3810 -0.6195
 4014SOL     OW23674   3.485   1.336   3.860 -0.1156 -0.9056 -0.1241
 4014SOL    HW123675   3.506   1.421   3.898 -3.3077 -2.9265  6.1254
 4014SOL    HW223676   3.545   1.280   3.909 -0.0011 -1.6552 -1.1075
 4015SOL     OW23677   2.243   2.931   6.994 -0.0601  0.4202  0.3710
 4015SOL    HW123678   2.177   2.963   7.055  0.3893  0.7780  0.6723
 4015SOL    HW223679   2.199   2.863   6.942  2.9630 -0.8773 -0.5180
 4016SOL     OW23680   3.943   3.746   7.049  0.2631 -0.3102 -0.1449
 4016SOL    HW123681   4.004   3.748   6.975  0.7376 -0.3573  0.2439
 4016SOL    HW223682   3.936   3.651   7.058 -1.8436 -0.0983  0.3813
 4017SOL     OW23683   4.398   0.061   6.502 -0.0684  0.2342 -0.2709
 4017SOL    HW123684   4.313   0.084   6.540  1.0846  2.5285  0.8782
 4017SOL    HW223685   4.378   0.084   6.412  0.9241 -2.0662 -1.0867
 4018SOL     OW23686   0.955   1.655  17.162 -0.5694  0.3997  0.6203
 4018SOL    HW123687   0.934   1.562  17.173  0.1279  0.1118 -0.4834
 4018SOL    HW223688   1.045   1.665  17.194 -0.3457 -1.0173  0.4561
 4019SOL     OW23689   1.215   4.455  12.225  0.6232  0.1128 -0.5086
 4019SOL    HW123690   1.277   4.384  12.243  0.1153 -0.3985 -0.7940
 4019SOL    HW223691   1.195   4.495  12.310  0.3231 -2.7189  0.7687
 4020SOL     OW23692   0.051   1.315   0.393 -0.2355 -0.3374  0.5357
 4020SOL    HW123693   4.727   1.369   0.344 -0.6626 -0.4783  0.9347
 4020SOL    HW223694   0.125   1.308   0.332  0.4523 -2.7985  1.6471
 4021SOL     OW23695   0.891   4.262  11.240  0.6999  0.1232 -0.0532
 4021SOL    HW123696   0.952   4.319  11.194  0.8825  0.3154  0.4286
 4021SOL    HW223697   0.842   4.218  11.171  0.4459 -0.4101  0.4655
 4022SOL     OW23698   3.701   0.603   0.580  0.0238 -0.3403  0.3593
 4022SOL    HW123699   3.716   0.693   0.608  2.8914 -1.0250  0.9875
 4022SOL    HW223700   3.606   0.598   0.565  0.3207 -0.9476 -1.2962
 4023SOL     OW23701   1.876   0.960   4.212 -0.0388 -0.4995 -0.3532
 4023SOL    HW123702   1.945   1.011   4.254  0.1640 -0.7412 -0.3912
 4023SOL    HW223703   1.919   0.952   4.126 -1.6647  0.3868 -1.2397
 4024SOL     OW23704   2.218   0.979   9.377  0.4432  0.1456 -0.1927
 4024SOL    HW123705   2.154   0.921   9.419  1.0167 -0.1677  0.2401
 4024SOL    HW223706   2.293   0.920   9.388  0.6970  0.6879  0.9606
 4025SOL     OW23707   3.521   0.865   6.623  0.1765 -0.0499 -0.2887
 4025SOL    HW123708   3.525   0.902   6.534  1.0475  1.5052  0.4016
 4025SOL    HW223709   3.560   0.938   6.671 -0.4412  0.1879 -0.1467
 4026SOL     OW23710   0.938   3.270   1.443 -0.1136 -0.4971  0.0557
 4026SOL    HW123711   0.981   3.338   1.495 -0.5579  0.1829 -0.4793
 4026SOL    HW223712   1.017   3.248   1.392 -0.5462 -0.4099 -0.6469
 4027SOL     OW23713   1.785   2.266  10.067 -0.1291 -0.3900 -0.0223
 4027SOL    HW123714   1.747   2.317   9.995 -1.5366 -0.9650  0.3190
 4027SOL    HW223715   1.791   2.181  10.025  2.6568 -0.1617 -0.1301
 4028SOL     OW23716   1.557   4.230   2.751  0.0903 -0.0936  0.1572
 4028SOL    HW123717   1.646   4.208   2.722  0.2422 -0.6491  1.0477
 4028SOL    HW223718   1.508   4.153   2.724 -0.2882  0.6855 -1.3939
 4029SOL     OW23719   2.199   3.426   5.117 -0.0390 -0.2365 -0.7217
 4029SOL    HW123720   2.259   3.500   5.106  1.4239 -1.5850 -1.7815
 4029SOL    HW223721   2.179   3.400   5.028 -2.9204  0.5684 -0.3071
 4030SOL     OW23722   4.348   2.371  10.582  0.1458 -0.6426 -0.0138
 4030SOL    HW123723   4.442   2.389  10.576  0.0410  0.1195  0.6651
 4030SOL    HW223724   4.323   2.376  10.489 -3.5927 -0.6504  1.0241
 4031SOL     OW23725   3.838   3.999   9.024  0.2756 -0.2212  0.3563
 4031SOL    HW123726   3.800   3.949   9.096  0.4851 -0.7380  0.1081
 4031SOL    HW223727   3.826   3.941   8.948 -0.7045 -0.8692  1.0116
 4032SOL     OW23728   1.654   0.742   2.642 -0.4045 -0.5109  0.1759
 4032SOL    HW123729   1.638   0.808   2.575  3.1053  0.6213  0.4902
 4032SOL    HW223730   1.591   0.673   2.621 -2.9714  1.5315  1.1927
 4033SOL     OW23731   0.036   1.896   0.625 -0.1645 -0.4713 -0.1231
 4033SOL    HW123732   0.116   1.931   0.585  0.5244 -0.9144  0.8517
 4033SOL    HW223733   4.713   1.910   0.553  1.6045  1.1796 -1.3348
 4034SOL     OW23734   3.303   0.472  10.943  0.5004  0.1769  0.1258
 4034SOL    HW123735   3.387   0.516  10.931  0.7210 -0.6243 -1.3307
 4034SOL    HW223736   3.322   0.400  11.003 -2.3876 -2.6869 -2.3689
 4035SOL     OW23737   4.389   0.074  12.206  0.3110 -0.0434  0.5696
 4035SOL    HW123738   4.366   0.029  12.287 -0.4127  1.3839  1.1581
 4035SOL    HW223739   4.382   4.732  12.154 -0.8937  1.0284 -0.9130
 4036SOL     OW23740   1.602   1.768   8.206 -0.2339 -0.2155  0.3282
 4036SOL    HW123741   1.631   1.792   8.118  1.0742  1.3888  1.1929
 4036SOL    HW223742   1.616   1.852   8.251 -0.3586 -1.4996  2.7949
 4037SOL     OW23743   3.316   0.378  13.652 -0.5823 -0.0166 -0.5229
 4037SOL    HW123744   3.319   0.406  13.561 -0.0908  0.2298 -0.4284
 4037SOL    HW223745   3.230   0.337  13.662 -0.5231 -0.3422 -1.3671
 4038SOL     OW23746   4.503   2.326   8.376 -0.8230 -0.5137  0.1554
 4038SOL    HW123747   4.473   2.339   8.286 -0.0009 -0.6640 -0.1418
 4038SOL    HW223748   4.483   2.406   8.424 -0.2489 -0.6762  0.6679
 4039SOL     OW23749   4.232   4.344   7.722  0.4584  0.4934  0.2301
 4039SOL    HW123750   4.317   4.323   7.761  1.6994  0.3692 -2.4962
 4039SOL    HW223751   4.203   4.416   7.777 -2.3822 -1.1665  0.9125
 4040SOL     OW23752   1.896   1.257  14.052 -0.1195  0.0157 -0.3930
 4040SOL    HW123753   1.977   1.308  14.043 -0.4881  1.3732  3.9205
 4040SOL    HW223754   1.839   1.316  14.100 -1.3877 -1.6691  0.1358
 4041SOL     OW23755   2.775   3.486   0.576  0.1868 -0.0721  0.2672
 4041SOL    HW123756   2.694   3.444   0.548  0.4092 -1.0155  1.0338
 4041SOL    HW223757   2.769   3.551   0.507 -2.5778 -1.7103 -1.0325
 4042SOL     OW23758   3.067   4.726   6.193  0.6203  0.2041  0.1149
 4042SOL    HW123759   3.039   4.694   6.278 -1.5833 -0.5909 -0.9219
 4042SOL    HW223760   3.049   0.081   6.198 -0.9648  0.0645 -2.6266
 4043SOL     OW23761   2.146   2.041  15.972 -0.5785 -0.5558  0.7256
 4043SOL    HW123762   2.051   2.056  15.974 -0.6959 -0.7324 -3.4030
 4043SOL    HW223763   2.187   2.116  16.013  0.0474 -0.2981 -0.3778
 4044SOL     OW23764   4.519   0.226  17.619  0.0021 -0.7192  0.2852
 4044SOL    HW123765   4.519   0.186  17.532 -1.7935  1.3073 -0.6200
 4044SOL    HW223766   4.581   0.174  17.670  0.7648  1.3019  1.4212
 4045SOL     OW23767   2.770   4.537   2.588  0.4751  0.3387  0.3821
 4045SOL    HW123768   2.686   4.583   2.584  1.2579  1.6287 -0.9626
 4045SOL    HW223769   2.830   4.612   2.590 -0.5386  1.1737 -0.8882
 4046SOL     OW23770   0.824   1.287   4.968  0.3097  0.2951 -0.2413
 4046SOL    HW123771   0.774   1.227   5.022 -0.0066 -2.2242 -3.3215
 4046SOL    HW223772   0.861   1.227   4.903 -0.1920  1.9774 -2.0910
 4047SOL     OW23773   2.561   0.052   9.254 -0.1336  0.2249  0.1382
 4047SOL    HW123774   2.569   0.029   9.161 -2.3507  0.6146 -0.1592
 4047SOL    HW223775   2.611   0.134   9.258  0.0330  0.1372 -0.1150
 4048SOL     OW23776   1.817   2.275   9.199 -0.2569 -0.2475 -0.6707
 4048SOL    HW123777   1.786   2.221   9.127  1.1830 -1.1295 -0.6273
 4048SOL    HW223778   1.741   2.265   9.256  0.6632 -1.1402  0.4062
 4049SOL     OW23779   2.151   3.242   0.630 -0.9547  0.6792 -0.1027
 4049SOL    HW123780   2.118   3.201   0.709 -1.3985 -0.0606 -0.6724
 4049SOL    HW223781   2.224   3.295   0.661 -1.2670 -0.0733  1.8990
 4050SOL     OW23782   1.481   1.680   0.645  0.4033  0.1677  0.4753
 4050SOL    HW123783   1.502   1.722   0.561  1.9001 -0.1035  0.7266
 4050SOL    HW223784   1.567   1.679   0.688  0.4533  0.4740  0.3870
 4051SOL     OW23785   2.088   3.117  16.879  0.4705 -0.5555 -0.1008
 4051SOL    HW123786   2.070   3.196  16.828 -1.3113 -0.3182  0.8730
 4051SOL    HW223787   2.180   3.131  16.901  0.1119  2.0092 -0.2861
 4052SOL     OW23788   0.425   1.785   6.103  0.3162  0.7810 -0.4862
 4052SOL    HW123789   0.369   1.857   6.133  0.3020  0.6335 -0.1568
 4052SOL    HW223790   0.389   1.778   6.015  0.1432 -0.3774 -0.3256
 4053SOL     OW23791   3.260   0.768   2.156 -0.1052 -0.0142 -0.5085
 4053SOL    HW123792   3.249   0.862   2.143  0.2943  0.6183  3.6063
 4053SOL    HW223793   3.351   0.760   2.185 -0.5991  0.5670  1.2205
 4054SOL     OW23794   0.896   2.960  17.630 -0.1075  0.0175 -0.1892
 4054SOL    HW123795   0.906   3.050  17.660 -0.7483  0.0023  0.0664
 4054SOL    HW223796   0.988   2.937  17.617  0.0340  1.6946 -2.1790
 4055SOL     OW23797   3.936   1.883   6.698 -0.2285 -0.1176 -0.1089
 4055SOL    HW123798   3.920   1.847   6.611  0.9218  0.4323 -0.5596
 4055SOL    HW223799   3.858   1.847   6.739  0.6801 -2.6181 -0.5847
 4056SOL     OW23800   1.572   1.887   8.981  0.0579  0.0829 -0.3701
 4056SOL    HW123801   1.503   1.824   8.960  1.1161 -1.4397  0.6570
 4056SOL    HW223802   1.602   1.869   9.070 -1.7839 -0.0163  0.2321
 4057SOL     OW23803   2.555   4.608   7.853  0.0414 -0.4608  0.3813
 4057SOL    HW123804   2.547   4.649   7.767 -2.3294 -1.9262 -0.0999
 4057SOL    HW223805   2.466   4.609   7.889 -1.5096 -1.3039 -3.5300
 4058SOL     OW23806   0.929   4.255   3.658  0.2944 -0.0459  0.0584
 4058SOL    HW123807   1.005   4.239   3.713  0.3320  1.1065  0.3569
 4058SOL    HW223808   0.910   4.168   3.624  0.3653  0.7455 -2.0229
 4059SOL     OW23809   0.462   0.797   8.422 -0.3686 -0.3391  0.3987
 4059SOL    HW123810   0.390   0.737   8.444  0.3388 -1.0224  0.8519
 4059SOL    HW223811   0.531   0.731   8.432 -0.2866 -0.2643  0.3305
 4060SOL     OW23812   4.086   1.624  12.776  0.3165 -0.3304  0.2608
 4060SOL    HW123813   4.058   1.661  12.859 -0.2001  0.0932 -0.1048
 4060SOL    HW223814   4.018   1.557  12.771 -1.1249  1.2996 -1.9359
 4061SOL     OW23815   2.690   3.113   9.666 -0.2585 -0.1891 -0.0768
 4061SOL    HW123816   2.662   3.123   9.757 -0.7415  0.7029 -0.3276
 4061SOL    HW223817   2.764   3.173   9.655  0.2449 -0.8787 -0.4858
 4062SOL     OW23818   3.322   2.991   5.769 -0.2624 -0.1345  0.0020
 4062SOL    HW123819   3.256   3.025   5.708  1.6601  0.1094 -1.9414
 4062SOL    HW223820   3.324   2.899   5.744 -2.9521 -0.1302 -0.2079
 4063SOL     OW23821   3.588   3.400   9.118 -0.3336 -0.1142 -0.1210
 4063SOL    HW123822   3.509   3.351   9.096  0.1740 -0.3769 -1.3442
 4063SOL    HW223823   3.588   3.399   9.214 -0.3621  0.4153 -0.1149
 4064SOL     OW23824   4.608   0.158   8.383  0.0564  0.0365 -0.4909
 4064SOL    HW123825   4.685   0.102   8.373 -0.0601 -0.3623  0.8054
 4064SOL    HW223826   4.649   0.237   8.418 -1.9566  1.6912 -1.9071
 4065SOL     OW23827   4.027   0.034   2.903  0.0731 -0.7214  0.4431
 4065SOL    HW123828   3.971   0.106   2.933  1.2377  0.6747 -0.7073
 4065SOL    HW223829   3.984   4.695   2.938 -1.4514 -0.0634  0.0209
 4066SOL     OW23830   0.404   1.768   9.977  0.0157 -0.2240 -0.2669
 4066SOL    HW123831   0.311   1.744   9.970 -0.2331  1.1329 -1.7630
 4066SOL    HW223832   0.432   1.776  10.068  1.3138  0.0710 -0.6858
 4067SOL     OW23833   2.149   0.668  13.655  0.1863  0.2377 -0.4866
 4067SOL    HW123834   2.120   0.636  13.741 -1.1348  2.1333 -0.2256
 4067SOL    HW223835   2.232   0.622  13.659  0.3055  0.3293 -1.8110
 4068SOL     OW23836   0.478   1.648   7.830 -0.3204  0.2486 -0.4107
 4068SOL    HW123837   0.473   1.562   7.788 -0.5761  0.0952 -0.0658
 4068SOL    HW223838   0.573   1.659   7.835 -0.3646 -0.3547  1.8193
 4069SOL     OW23839   2.100   4.085   7.233 -0.5506 -0.0091  0.2089
 4069SOL    HW123840   2.094   4.136   7.314  0.6206  1.4297 -0.6036
 4069SOL    HW223841   2.086   4.156   7.171  3.5184 -0.0759 -0.8255
 4070SOL     OW23842   4.242   4.583   1.576 -0.1085  0.4290 -0.0917
 4070SOL    HW123843   4.196   4.590   1.493  0.4398 -0.3363 -0.4657
 4070SOL    HW223844   4.167   4.599   1.633 -0.4373 -1.1039 -0.0887
 4071SOL     OW23845   1.773   0.965   2.369  0.0066  0.1351 -0.3678
 4071SOL    HW123846   1.762   0.945   2.276  1.2657 -2.6716  0.1107
 4071SOL    HW223847   1.827   0.889   2.387 -1.7346 -0.7802  0.9405
 4072SOL     OW23848   4.541   1.593   4.263 -0.2145  0.2801 -0.1315
 4072SOL    HW123849   4.619   1.628   4.220  0.6443  1.8516  2.7197
 4072SOL    HW223850   4.514   1.528   4.199 -1.4279  0.3837  0.2736
 4073SOL     OW23851   2.267   2.380   7.534  0.2313  0.5858 -0.0677
 4073SOL    HW123852   2.265   2.285   7.551 -1.0347  0.5262 -0.5152
 4073SOL    HW223853   2.257   2.422   7.620  0.4728 -1.3884  0.9257
 4074SOL     OW23854   3.562   3.328   2.154  0.1013  0.6288  0.2528
 4074SOL    HW123855   3.533   3.321   2.063  0.6045  0.0896  0.1317
 4074SOL    HW223856   3.658   3.327   2.146  0.2625 -0.3008  2.1580
 4075SOL     OW23857   4.045   3.060   4.491 -0.0710  0.1887 -0.2837
 4075SOL    HW123858   4.076   2.978   4.453 -0.2317 -0.0440  0.0914
 4075SOL    HW223859   4.106   3.122   4.448 -0.3955 -1.4718 -3.1389
 4076SOL     OW23860   0.705   4.714   3.221  0.6415  0.6980 -0.5900
 4076SOL    HW123861   0.714   0.050   3.280  0.3716 -0.6388  1.1308
 4076SOL    HW223862   0.753   4.644   3.265 -2.0827  0.4425  1.9754
 4077SOL     OW23863   2.640   1.025  16.747 -0.1230  0.5949 -0.1751
 4077SOL    HW123864   2.707   0.961  16.772  2.2295  4.0178  2.1767
 4077SOL    HW223865   2.668   1.047  16.658 -1.0734 -0.7298 -0.8047
 4078SOL     OW23866   1.424   2.018   7.221  0.1913  0.1374  0.0388
 4078SOL    HW123867   1.376   1.947   7.263 -1.0302  0.6567 -0.4787
 4078SOL    HW223868   1.490   2.033   7.289  1.0867 -2.6945 -0.1844
 4079SOL     OW23869   1.928   2.870   2.649 -0.2212 -0.2583  0.1418
 4079SOL    HW123870   1.872   2.893   2.723 -0.2834 -0.9617  0.3067
 4079SOL    HW223871   2.008   2.909   2.685  0.8268  0.6599 -3.0836
 4080SOL     OW23872   0.354   4.109  16.609  0.1705  0.7367 -0.5888
 4080SOL    HW123873   0.297   4.115  16.686  0.8362 -0.5490  0.0075
 4080SOL    HW223874   0.390   4.198  16.612  0.8363  0.4706 -0.6826
 4081SOL     OW23875   1.845   1.631   1.602 -0.5902  0.3003  0.0291
 4081SOL    HW123876   1.757   1.668   1.611 -2.1286 -3.0152 -1.3101
 4081SOL    HW223877   1.895   1.712   1.608  2.7122 -1.7003 -0.3631
 4082SOL     OW23878   0.507   2.501  14.610  0.3714 -0.0890 -0.7211
 4082SOL    HW123879   0.594   2.463  14.620 -0.0740  0.5833  5.5710
 4082SOL    HW223880   0.458   2.433  14.563  0.1893 -1.0729  0.8928
 4083SOL     OW23881   1.362   4.717  10.590  0.1711  0.6054  0.4608
 4083SOL    HW123882   1.294   4.729  10.524 -0.8301 -1.2228  1.1435
 4083SOL    HW223883   1.344   0.056  10.643 -0.5332  0.3016  0.6681
 4084SOL     OW23884   1.163   0.969   4.633 -0.4189  0.5762  0.3071
 4084SOL    HW123885   1.162   1.023   4.554  1.8905  1.4398  0.8588
 4084SOL    HW223886   1.129   0.885   4.602  0.6424 -0.1786  1.1904
 4085SOL     OW23887   1.345   2.438   0.617 -0.1495  0.0230 -0.0632
 4085SOL    HW123888   1.322   2.501   0.549  1.0666  0.2753 -0.2562
 4085SOL    HW223889   1.266   2.432   0.670  0.5383 -0.8564  0.8902
 4086SOL     OW23890   0.441   0.624  15.460 -0.1675  0.0480  0.5119
 4086SOL    HW123891   0.407   0.577  15.383  1.0961  0.6536 -0.4032
 4086SOL    HW223892   0.477   0.546  15.503  0.8640  0.8035  0.9990
 4087SOL     OW23893   1.149   3.370   0.380 -0.1652 -0.0217  0.3195
 4087SOL    HW123894   1.069   3.329   0.345  1.3443 -1.5461 -1.3695
 4087SOL    HW223895   1.124   3.462   0.374 -1.0902 -0.2924 -0.0995
 4088SOL     OW23896   1.182   3.057   8.431 -0.0383  0.2478 -0.0736
 4088SOL    HW123897   1.170   2.965   8.411 -2.0364  0.2296  1.1771
 4088SOL    HW223898   1.151   3.056   8.522  1.6114  1.5372  0.4968
 4089SOL     OW23899   2.956   1.836   6.436 -0.2633  0.0880 -0.0103
 4089SOL    HW123900   2.986   1.753   6.398  1.5782  1.0731 -0.7366
 4089SOL    HW223901   2.867   1.828   6.403  0.3918 -1.5484 -1.3521
 4090SOL     OW23902   2.337   2.364  16.541  0.2266 -0.3185  0.6810
 4090SOL    HW123903   2.338   2.328  16.629  0.8250 -0.0927  0.7661
 4090SOL    HW223904   2.400   2.436  16.548 -1.5394  1.2829  0.1863
 4091SOL     OW23905   1.606   3.604   8.320  0.0499 -0.3184  0.2591
 4091SOL    HW123906   1.588   3.542   8.391 -0.0771 -0.4456  0.1156
 4091SOL    HW223907   1.525   3.655   8.317 -0.6236 -1.4131 -0.1203
 4092SOL     OW23908   4.580   3.069  10.328  0.2818 -0.3700  0.2052
 4092SOL    HW123909   4.646   3.001  10.346 -1.1675 -1.3872  1.6204
 4092SOL    HW223910   4.530   3.054  10.408 -0.7087 -2.9214 -0.8907
 4093SOL     OW23911   3.947   4.531   2.982  0.2621  0.0473  0.1418
 4093SOL    HW123912   3.856   4.522   3.010 -0.2256  1.1926 -1.0715
 4093SOL    HW223913   3.993   4.502   3.061 -0.2724 -1.5208 -0.1316
 4094SOL     OW23914   2.537   3.679   5.873  0.1214  0.4970  0.3025
 4094SOL    HW123915   2.614   3.695   5.929  0.2344 -0.2737  0.3598
 4094SOL    HW223916   2.501   3.766   5.854  1.8515  0.7486 -1.8325
 4095SOL     OW23917   3.214   1.153   4.926  0.3464  0.7382  0.3490
 4095SOL    HW123918   3.255   1.079   4.968 -0.7874  0.9308  1.8070
 4095SOL    HW223919   3.252   1.232   4.964  0.4201  0.3604  1.0549
 4096SOL     OW23920   0.748   4.170  11.441  0.4122  0.3410  0.1515
 4096SOL    HW123921   0.807   4.221  11.385 -0.6850  0.2128 -1.1046
 4096SOL    HW223922   0.777   4.189  11.531 -0.0284  1.1259  0.1269
 4097SOL     OW23923   3.857   2.203   3.376 -0.3892 -0.1880 -0.5161
 4097SOL    HW123924   3.911   2.181   3.451 -0.0943 -0.7578 -0.9004
 4097SOL    HW223925   3.776   2.230   3.420 -1.2944 -1.2521 -1.5014
 4098SOL     OW23926   0.481   4.152   6.682  0.4823 -1.0472 -0.8372
 4098SOL    HW123927   0.520   4.111   6.604 -1.3628 -2.0446 -1.2287
 4098SOL    HW223928   0.535   4.122   6.755 -1.2066 -3.3137 -0.5289
 4099SOL     OW23929   4.032   2.408   4.065 -0.4948 -0.5360 -0.1646
 4099SOL    HW123930   3.947   2.368   4.080 -0.3232 -0.5634  0.7050
 4099SOL    HW223931   4.091   2.340   4.032 -0.6326 -0.4989 -0.4842
 4100SOL     OW23932   4.048   2.979   7.277 -0.3572  0.2281 -0.5285
 4100SOL    HW123933   4.070   3.066   7.245 -0.4700  0.5196  0.1850
 4100SOL    HW223934   3.969   2.977   7.223 -0.2627 -3.4112 -0.5140
 4101SOL     OW23935   2.539   4.723   8.233 -0.0652 -0.2468 -0.0112
 4101SOL    HW123936   2.562   0.020   8.148 -1.2702  3.8463  1.4094
 4101SOL    HW223937   2.617   4.728   8.288  0.8639  0.8178 -1.4294
 4102SOL     OW23938   2.950   1.691   8.245  0.8174 -0.0285  0.7247
 4102SOL    HW123939   2.933   1.664   8.154 -1.1845  0.3072  1.0035
 4102SOL    HW223940   2.862   1.714   8.274  1.4025 -0.4086  2.7487
 4103SOL     OW23941   3.017   2.948   0.709  0.3398 -0.7908  0.0676
 4103SOL    HW123942   3.079   2.961   0.637 -0.0622 -0.7758 -0.2724
 4103SOL    HW223943   2.981   2.864   0.681  0.7828 -0.7436 -0.6249
 4104SOL     OW23944   0.752   3.863   2.251  0.0522  0.1116 -0.3681
 4104SOL    HW123945   0.754   3.808   2.173  1.4191  2.5471 -2.0418
 4104SOL    HW223946   0.716   3.806   2.319  0.1371 -0.2411 -0.6180
 4105SOL     OW23947   4.536   2.664  11.933  0.0514 -0.2924  0.0746
 4105SOL    HW123948   4.584   2.657  11.850  1.2487 -2.0093  0.9111
 4105SOL    HW223949   4.589   2.605  11.986  3.5317  1.5187 -1.3814
 4106SOL     OW23950   4.557   1.096  14.387 -0.0701 -0.2554 -0.0576
 4106SOL    HW123951   4.569   1.189  14.408 -1.4723  0.2853 -1.6590
 4106SOL    HW223952   4.471   1.100  14.346  0.0838  0.1104 -0.3513
 4107SOL     OW23953   3.906   1.502   6.313  0.0029  0.0245 -0.3456
 4107SOL    HW123954   3.957   1.449   6.252  1.1485 -1.2142  1.6673
 4107SOL    HW223955   3.888   1.582   6.264  2.7891  0.5352 -0.5352
 4108SOL     OW23956   2.770   4.084   7.588 -0.2331 -0.2005  0.0822
 4108SOL    HW123957   2.728   4.149   7.644 -0.3121  0.7250 -1.0326
 4108SOL    HW223958   2.706   4.015   7.575 -0.0952 -0.5912  1.4662
 4109SOL     OW23959   4.282   1.577   2.649  0.4032  0.2459  0.2669
 4109SOL    HW123960   4.328   1.607   2.728 -1.4157 -0.1271  1.4855
 4109SOL    HW223961   4.307   1.649   2.592 -0.3027  1.0006  0.9172
 4110SOL     OW23962   4.367   0.866   2.168  0.1243 -0.2584 -0.2179
 4110SOL    HW123963   4.459   0.848   2.148 -0.0434 -0.6740 -0.6233
 4110SOL    HW223964   4.363   0.961   2.174  0.2014 -0.1550 -1.7531
 4111SOL     OW23965   0.321   3.819  11.257  0.0586  0.1650 -0.3212
 4111SOL    HW123966   0.407   3.821  11.215 -0.0142 -1.8511 -0.5845
 4111SOL    HW223967   0.266   3.835  11.181  1.5344 -0.5568 -1.5428
 4112SOL     OW23968   0.907   2.218   6.326  0.0828 -0.3938  0.2559
 4112SOL    HW123969   0.910   2.297   6.271 -2.4438  0.3772  1.2650
 4112SOL    HW223970   0.814   2.211   6.344  0.5751 -1.5401  2.3285
 4113SOL     OW23971   2.472   1.468   5.656  0.5577  0.7813  0.3582
 4113SOL    HW123972   2.540   1.401   5.656  1.1348  1.3594 -1.4564
 4113SOL    HW223973   2.492   1.510   5.572  0.5559  1.7954  0.8586
 4114SOL     OW23974   0.336   0.422   4.726  0.3404 -0.0491  0.7037
 4114SOL    HW123975   0.428   0.403   4.741 -0.1561 -1.3141  2.1907
 4114SOL    HW223976   0.326   0.498   4.785 -1.5433 -0.1484  0.5175
 4115SOL     OW23977   2.647   2.971   3.486  0.3796  0.2532  0.6323
 4115SOL    HW123978   2.581   2.952   3.553 -1.8553  0.3594 -1.5722
 4115SOL    HW223979   2.711   3.016   3.542  2.1258  0.5511 -1.5915
 4116SOL     OW23980   3.016   3.164   3.332  0.1981 -0.0117 -0.1972
 4116SOL    HW123981   2.930   3.195   3.303  0.0256 -1.5468 -1.3812
 4116SOL    HW223982   3.072   3.226   3.285  1.0894 -0.2673  0.5252
 4117SOL     OW23983   1.220   3.212  10.277 -0.3654  0.3257  0.4081
 4117SOL    HW123984   1.279   3.286  10.265  1.2142 -0.9112  0.5186
 4117SOL    HW223985   1.141   3.265  10.288  0.0649  1.2260 -0.8169
 4118SOL     OW23986   3.030   3.438  13.464 -0.0858 -0.2032  0.2612
 4118SOL    HW123987   2.987   3.359  13.496  0.9240 -0.7555  0.2683
 4118SOL    HW223988   2.968   3.471  13.399  0.4714 -0.8586 -0.6000
 4119SOL     OW23989   3.101   3.425  17.114  0.4839  0.4119  0.2288
 4119SOL    HW123990   3.097   3.330  17.124  0.5265  0.5406  1.5490
 4119SOL    HW223991   3.026   3.441  17.057  0.6639 -1.7450 -0.5917
 4120SOL     OW23992   2.003   3.406   5.835 -0.1930 -0.2703 -0.1084
 4120SOL    HW123993   2.063   3.467   5.793 -2.7747  1.4409 -1.2737
 4120SOL    HW223994   2.029   3.328   5.785  0.3292 -1.0748  1.4085
 4121SOL     OW23995   1.613   4.500   2.603  0.2413  0.1312 -0.7000
 4121SOL    HW123996   1.577   4.453   2.678 -0.8837  1.1180 -0.6218
 4121SOL    HW223997   1.535   4.546   2.574 -0.0790 -0.1861 -0.3374
 4122SOL     OW23998   1.921   4.298  16.220  0.4676 -0.1847 -0.7735
 4122SOL    HW123999   1.917   4.361  16.149 -0.4598  0.9059  0.2511
 4122SOL    HW224000   1.864   4.224  16.200 -0.1603 -0.4517  1.9832
 4123SOL     OW24001   4.296   4.307   1.999 -0.9473  0.5050  0.2632
 4123SOL    HW124002   4.322   4.248   2.070  3.7274  1.6179 -0.5196
 4123SOL    HW224003   4.205   4.278   1.998  0.0130 -2.5153 -0.8225
 4124SOL     OW24004   4.402   2.429   6.057  0.3224  0.4496  0.9213
 4124SOL    HW124005   4.424   2.515   6.023  2.1527 -0.1192  0.6239
 4124SOL    HW224006   4.366   2.382   5.981  1.4904 -1.0914  1.3110
 4125SOL     OW24007   3.732   3.744  17.548 -0.5433 -0.0943  0.0369
 4125SOL    HW124008   3.808   3.726  17.604  0.5590 -0.4979 -1.5866
 4125SOL    HW224009   3.715   3.837  17.557  0.6837  0.3464 -2.2305
 4126SOL     OW24010   0.512   1.370   7.762  0.5419  0.3127  0.0304
 4126SOL    HW124011   0.576   1.305   7.790 -2.7177 -1.9472  2.2647
 4126SOL    HW224012   0.446   1.314   7.721  1.2967 -0.5574  0.0070
 4127SOL     OW24013   3.538   1.701   1.673 -0.5328 -0.2376 -0.4673
 4127SOL    HW124014   3.507   1.778   1.721  3.2668  0.2516  1.1516
 4127SOL    HW224015   3.622   1.699   1.719  0.3039 -0.5000 -2.0338
 4128SOL     OW24016   4.373   4.319  10.230 -0.2170 -0.5460  0.1082
 4128SOL    HW124017   4.292   4.328  10.181 -1.1671 -0.2891  1.7124
 4128SOL    HW224018   4.391   4.413  10.239 -1.1531 -0.4627  1.1704
 4129SOL     OW24019   0.998   0.737   1.866  0.5273 -0.0016 -0.8327
 4129SOL    HW124020   0.953   0.784   1.936  2.1230  2.8588 -1.7208
 4129SOL    HW224021   1.034   0.659   1.907  0.7739  0.9135  0.7088
 4130SOL     OW24022   3.079   3.146  13.602  0.0689  0.1283 -0.4933
 4130SOL    HW124023   3.045   3.057  13.600  0.1974  0.0634  0.1849
 4130SOL    HW224024   3.127   3.150  13.684 -1.8727 -0.5506  0.6732
 4131SOL     OW24025   3.127   4.473   9.390  0.4398  0.1320 -0.0542
 4131SOL    HW124026   3.055   4.412   9.406  0.3771  0.9236  2.7148
 4131SOL    HW224027   3.200   4.418   9.362 -0.0124 -0.8724  0.7254
 4132SOL     OW24028   4.501   4.397   7.025 -0.6524 -0.0215  0.1921
 4132SOL    HW124029   4.417   4.435   7.053 -0.4136 -0.3035  1.2963
 4132SOL    HW224030   4.485   4.308   7.058  0.1102 -1.1269 -2.4496
 4133SOL     OW24031   3.719   4.557   8.072  0.6399  0.2116 -0.1275
 4133SOL    HW124032   3.788   4.622   8.086 -0.1644  1.4459 -1.8768
 4133SOL    HW224033   3.766   4.476   8.091 -1.2408 -0.5054  1.3628
 4134SOL     OW24034   1.027   0.835   0.324 -0.3368 -0.3137  0.2797
 4134SOL    HW124035   1.118   0.860   0.312 -0.7583 -0.0590 -2.3994
 4134SOL    HW224036   1.026   0.756   0.270  0.6613  2.2767 -3.5276
 4135SOL     OW24037   3.864   0.095   2.645 -0.2136  0.0292  0.0084
 4135SOL    HW124038   3.800   0.099   2.717 -2.5903  1.8967 -2.2110
 4135SOL    HW224039   3.945   0.089   2.695 -0.8942  0.3151  1.1478
 4136SOL     OW24040   3.176   3.481   3.454  0.4167 -0.0859 -0.0313
 4136SOL    HW124041   3.100   3.429   3.481  2.3168 -2.1430  1.2972
 4136SOL    HW224042   3.241   3.466   3.522  0.2520  1.7334  0.5430
 4137SOL     OW24043   0.314   0.268   9.326  0.2733 -0.2753  0.6143
 4137SOL    HW124044   0.276   0.326   9.260  2.5409 -0.7609 -1.1069
 4137SOL    HW224045   0.243   0.251   9.388  1.6272 -0.6247  2.0578
 4138SOL     OW24046   2.446   3.721   0.292  0.0355 -0.0110 -0.2577
 4138SOL    HW124047   2.511   3.716   0.361  0.8853 -0.2109 -1.0711
 4138SOL    HW224048   2.475   3.800   0.246 -2.5095  1.4109  0.6057
 4139SOL     OW24049   4.501   0.600  12.438  0.6490 -0.3549  0.2473
 4139SOL    HW124050   4.453   0.518  12.443 -0.3641  0.1013 -1.8871
 4139SOL    HW224051   4.567   0.591  12.369  0.9675 -4.4272  1.1135
 4140SOL     OW24052   2.912   0.576   3.728 -0.1799  0.1785 -0.4298
 4140SOL    HW124053   3.002   0.574   3.762 -1.2960  1.2977  2.5326
 4140SOL    HW224054   2.861   0.595   3.806  0.0576  0.1799 -0.2733
 4141SOL     OW24055   4.332   0.700   9.930  0.8221  0.0825 -0.2502
 4141SOL    HW124056   4.326   0.767   9.998 -2.9109 -0.1410 -0.3792
 4141SOL    HW224057   4.396   0.651   9.981 -0.1917  0.5229  1.4155
 4142SOL     OW24058   0.738   3.359   3.426  0.1546  0.4903 -0.8026
 4142SOL    HW124059   0.778   3.441   3.455  2.2165 -0.9179  0.3339
 4142SOL    HW224060   0.653   3.371   3.469  0.0650 -0.1826 -0.8004
 4143SOL     OW24061   0.064   2.572   3.107  0.7158  0.7211 -0.2872
 4143SOL    HW124062   0.079   2.495   3.051 -1.2439  1.1492 -1.4314
 4143SOL    HW224063   0.022   2.632   3.045  1.9100  1.7226 -0.1202
 4144SOL     OW24064   2.807   1.679   9.678  0.1542 -0.8161  0.1410
 4144SOL    HW124065   2.854   1.715   9.603  0.7863 -1.9863 -0.0233
 4144SOL    HW224066   2.719   1.701   9.650  0.7852  1.3429 -0.1651
 4145SOL     OW24067   3.650   0.210   2.818  0.1473  0.1754 -0.3294
 4145SOL    HW124068   3.639   0.305   2.816  2.8813  0.5871  3.2240
 4145SOL    HW224069   3.689   0.194   2.904  1.9556 -0.3852 -1.2405
 4146SOL     OW24070   4.581   1.377   7.017 -0.8342  0.3219 -0.2463
 4146SOL    HW124071   4.530   1.452   6.988  0.3364  1.0366 -0.4701
 4146SOL    HW224072   4.570   1.316   6.943  1.1612  0.3104 -0.5543
 4147SOL     OW24073   2.604   1.189  14.241 -0.1343  0.7118 -0.1413
 4147SOL    HW124074   2.650   1.182  14.158  1.5523 -1.6899  1.0060
 4147SOL    HW224075   2.522   1.226  14.207 -2.2688 -2.8273  1.1266
 4148SOL     OW24076   0.415   0.977   8.628  0.0581 -0.0992  0.3858
 4148SOL    HW124077   0.444   0.934   8.548 -1.4275 -0.6445  0.1356
 4148SOL    HW224078   0.449   0.918   8.695  1.0910  0.2544  0.1682
 4149SOL     OW24079   3.413   1.363   5.011 -0.0522  0.2818  0.1070
 4149SOL    HW124080   3.481   1.307   5.047  0.0088 -0.3078 -0.9151
 4149SOL    HW224081   3.444   1.365   4.921 -2.2499 -1.8028 -0.6971
 4150SOL     OW24082   1.044   4.127   6.778  0.3605 -0.0926 -0.2982
 4150SOL    HW124083   0.997   4.209   6.791  3.2943  1.7165 -1.0472
 4150SOL    HW224084   1.018   4.112   6.687  0.1383  1.1123 -0.4371
 4151SOL     OW24085   1.271   4.554  11.687 -0.5651  0.5392  0.1231
 4151SOL    HW124086   1.179   4.538  11.667 -0.0770  0.3112 -1.9664
 4151SOL    HW224087   1.308   4.613  11.621 -1.0067 -0.3994 -0.9614
 4152SOL     OW24088   1.843   2.451   6.514 -0.1243 -0.0756  0.4271
 4152SOL    HW124089   1.864   2.537   6.551 -3.8081  1.1451 -0.3486
 4152SOL    HW224090   1.922   2.402   6.536  0.0221  0.3621  0.8846
 4153SOL     OW24091   3.977   2.510   1.044 -0.3240  0.1785  0.7240
 4153SOL    HW124092   3.923   2.584   1.072 -0.7437  0.2598 -0.3005
 4153SOL    HW224093   3.984   2.535   0.952  0.9842 -1.5529  0.3554
 4154SOL     OW24094   2.984   1.447   7.022 -0.0406  0.8176 -0.0621
 4154SOL    HW124095   3.073   1.411   7.027 -0.8078 -1.2205 -0.9463
 4154SOL    HW224096   2.941   1.415   7.101 -0.0381  0.9873  0.0084
 4155SOL     OW24097   3.478   1.809   8.581  0.7632  0.2357  0.0191
 4155SOL    HW124098   3.385   1.807   8.555  0.0820  0.0992  2.4850
 4155SOL    HW224099   3.510   1.754   8.509 -2.7635  0.0688 -1.4601
 4156SOL     OW24100   0.210   0.989  14.862 -0.4864 -0.5731  0.4167
 4156SOL    HW124101   0.300   0.964  14.841 -1.3417 -2.0862 -1.4000
 4156SOL    HW224102   0.172   0.910  14.825 -2.3091  0.9526 -0.9576
 4157SOL     OW24103   0.885   3.411   0.394 -0.9720 -0.6163  0.1137
 4157SOL    HW124104   0.853   3.431   0.482 -2.5833 -2.5967 -0.0250
 4157SOL    HW224105   0.828   3.462   0.337  1.1245 -1.1026 -2.4174
 4158SOL     OW24106   2.857   2.774  14.975 -0.9726  0.5390 -0.1902
 4158SOL    HW124107   2.930   2.834  14.989  0.2225 -0.9081 -0.1938
 4158SOL    HW224108   2.892   2.694  15.016 -0.0298  1.1282  0.1429
 4159SOL     OW24109   1.186   2.471   3.752  0.4979  0.2551  0.1872
 4159SOL    HW124110   1.216   2.419   3.678  1.1858  0.2891  0.4403
 4159SOL    HW224111   1.104   2.508   3.719 -0.0110 -1.0555 -0.0161
 4160SOL     OW24112   2.241   4.174  12.816  0.0120  0.2553  0.1683
 4160SOL    HW124113   2.277   4.254  12.855  1.0480  0.5536 -1.4052
 4160SOL    HW224114   2.262   4.114  12.888 -1.9554 -1.1284 -0.4128
 4161SOL     OW24115   0.774   4.030   7.176  0.3531  1.2713 -0.2338
 4161SOL    HW124116   0.819   3.990   7.250 -0.0300 -1.0313 -1.2716
 4161SOL    HW224117   0.785   3.974   7.099 -0.6168 -2.0059  2.0269
 4162SOL     OW24118   1.214   4.176   3.379  0.1928 -0.0781 -0.4798
 4162SOL    HW124119   1.199   4.082   3.379 -0.9151  0.0798  1.9524
 4162SOL    HW224120   1.277   4.187   3.451 -1.1716  0.2936  0.6596
 4163SOL     OW24121   0.165   4.231   6.938  0.3260  0.8601  0.2973
 4163SOL    HW124122   0.123   4.316   6.953 -0.9651  0.7430 -2.6677
 4163SOL    HW224123   0.141   4.211   6.847 -0.0723  0.7997  0.4170
 4164SOL     OW24124   4.424   0.403   5.708  0.1314 -0.0980  0.1167
 4164SOL    HW124125   4.445   0.360   5.791 -2.4031  0.0239  0.8459
 4164SOL    HW224126   4.451   0.493   5.728 -0.6774 -0.1978  1.7106
 4165SOL     OW24127   4.689   0.508   3.592 -0.5815 -0.3440 -0.1755
 4165SOL    HW124128   4.711   0.526   3.684 -0.3567  0.9902 -0.4926
 4165SOL    HW224129   4.659   0.591   3.556  0.7357 -0.9604 -2.6828
 4166SOL     OW24130   3.984   3.263   5.829  0.4316  0.1150 -0.4224
 4166SOL    HW124131   4.068   3.262   5.876  0.0294 -1.2051  0.2885
 4166SOL    HW224132   3.992   3.352   5.797 -1.9132  0.5740  0.2647
 4167SOL     OW24133   2.179   3.301   4.337  0.2479 -0.4046  0.6884
 4167SOL    HW124134   2.134   3.321   4.254  1.2545 -1.4828 -0.1112
 4167SOL    HW224135   2.249   3.366   4.341  1.6171 -1.8276 -0.4196
 4168SOL     OW24136   3.810   0.175   3.650  0.3487  0.0995  0.2954
 4168SOL    HW124137   3.813   0.080   3.641  0.2775  0.2816 -1.7482
 4168SOL    HW224138   3.748   0.189   3.578 -1.4338  0.0072  1.8136
 4169SOL     OW24139   1.180   2.861   0.341  0.0402 -0.2800  0.0158
 4169SOL    HW124140   1.227   2.848   0.259 -0.6171 -0.4979 -0.3233
 4169SOL    HW224141   1.091   2.865   0.306 -0.5986  0.7670  1.7056
 4170SOL     OW24142   2.864   3.307   2.978 -0.3672  0.0437  0.7956
 4170SOL    HW124143   2.855   3.385   2.922 -0.9168 -1.1408 -0.7552
 4170SOL    HW224144   2.934   3.261   2.932  1.8121  2.8886  1.2717
 4171SOL     OW24145   3.377   3.804  17.643 -0.4844  0.7699  0.1267
 4171SOL    HW124146   3.407   3.757  17.565  1.3445  2.4255 -0.1784
 4171SOL    HW224147   3.420   3.888  17.626  2.0174 -0.7031 -0.8105
 4172SOL     OW24148   4.373   0.045   7.212  0.2013 -0.0282  0.5908
 4172SOL    HW124149   4.363   0.135   7.182 -1.3647  0.4333  2.4915
 4172SOL    HW224150   4.382   0.065   7.305 -1.1393  0.3918  0.6286
 4173SOL     OW24151   0.433   3.289   2.423  0.0322  0.1437 -0.2385
 4173SOL    HW124152   0.414   3.197   2.406  1.0611 -0.5226  2.1883
 4173SOL    HW224153   0.349   3.322   2.456  0.7176 -0.8374  2.4964
 4174SOL     OW24154   2.312   2.296  17.214 -0.1854 -0.2215 -0.7702
 4174SOL    HW124155   2.374   2.340  17.156 -0.3493 -1.7292 -2.0858
 4174SOL    HW224156   2.364   2.310  17.293 -0.7646  1.1866 -0.6303
 4175SOL     OW24157   1.312   1.345  12.227 -0.4571  0.0120  0.4435
 4175SOL    HW124158   1.403   1.315  12.229 -0.8807 -1.2089  1.3501
 4175SOL    HW224159   1.270   1.262  12.203 -1.7039  1.3301 -1.9770
 4176SOL     OW24160   3.511   3.560   8.288  0.4304 -0.1547  0.1147
 4176SOL    HW124161   3.466   3.591   8.209  0.0100  0.7265  0.6973
 4176SOL    HW224162   3.525   3.475   8.247  0.2112 -0.3116  0.3686
 4177SOL     OW24163   1.130   1.957  10.899 -0.0567  0.0395  0.1990
 4177SOL    HW124164   1.072   2.023  10.859 -0.9661 -1.7722 -1.4745
 4177SOL    HW224165   1.069   1.929  10.968  0.8977 -0.0648  0.9901
 4178SOL     OW24166   2.059   3.970   5.043  0.9134  0.0177  0.4929
 4178SOL    HW124167   1.970   3.940   5.026  0.2982  1.6602  0.7518
 4178SOL    HW224168   2.070   4.043   4.982 -0.3251  1.2571  1.7516
 4179SOL     OW24169   3.575   0.359  12.631  0.2917  0.3651  0.4472
 4179SOL    HW124170   3.638   0.431  12.635  1.1570 -0.3820  0.0312
 4179SOL    HW224171   3.605   0.308  12.706  0.5724  0.9453  0.7323
 4180SOL     OW24172   1.331   1.910   5.384  0.0356  0.5697  0.1499
 4180SOL    HW124173   1.352   1.982   5.444 -0.1338  0.2556  0.5896
 4180SOL    HW224174   1.408   1.912   5.327  1.4235 -1.2469  1.9446
 4181SOL     OW24175   2.684   2.218   7.936  0.4361  0.3703  0.0471
 4181SOL    HW124176   2.604   2.171   7.960 -0.0365  1.1053 -0.0861
 4181SOL    HW224177   2.664   2.310   7.957 -1.3835 -0.3805  1.6382
 4182SOL     OW24178   4.386   1.184   1.518 -0.3445  0.3045  0.0269
 4182SOL    HW124179   4.299   1.195   1.556 -0.8518  1.1236 -1.3641
 4182SOL    HW224180   4.381   1.109   1.459 -1.6553  0.1367  0.3580
 4183SOL     OW24181   4.719   3.833   4.764 -0.1781  0.0647  0.3525
 4183SOL    HW124182   4.665   3.763   4.728  0.4622  0.4242 -1.3006
 4183SOL    HW224183   4.658   3.896   4.804 -1.1509 -0.0211 -0.9638
 4184SOL     OW24184   0.536   4.718   8.520  0.2269 -0.2467 -0.4530
 4184SOL    HW124185   0.580   4.721   8.435  0.1300 -1.0253 -0.5340
 4184SOL    HW224186   0.521   4.625   8.537 -0.0871  0.0100  0.6824
 4185SOL     OW24187   0.318   1.812   3.081  0.9671  0.3746 -0.0905
 4185SOL    HW124188   0.246   1.841   3.137  1.5867  0.1939  0.8103
 4185SOL    HW224189   0.370   1.892   3.086 -1.2818  1.8176  0.0194
 4186SOL     OW24190   0.996   3.435   7.042 -0.4321 -0.0967 -0.7207
 4186SOL    HW124191   0.993   3.369   6.972 -1.0701 -2.2897  1.3941
 4186SOL    HW224192   1.057   3.495   6.999 -1.4041  1.7797  0.5711
 4187SOL     OW24193   0.121   0.465   9.693  0.0600 -0.6007 -0.1768
 4187SOL    HW124194   0.137   0.551   9.732  2.3229  0.0804 -2.6892
 4187SOL    HW224195   0.051   0.441   9.755  0.3282  0.4970  0.5447
 4188SOL     OW24196   0.655   3.311   6.902 -0.0833 -0.4277  0.1795
 4188SOL    HW124197   0.680   3.224   6.871 -1.6568 -0.9627  0.4357
 4188SOL    HW224198   0.623   3.288   6.989  3.9647 -0.7943  1.5533
 4189SOL     OW24199   0.652   4.294   8.261  0.7016 -0.5450  0.9085
 4189SOL    HW124200   0.583   4.331   8.317  1.5856  0.1090  1.5622
 4189SOL    HW224201   0.611   4.214   8.229 -2.8883  0.7254  2.2890
 4190SOL     OW24202   3.775   3.217   4.285  0.2318 -0.0364 -0.3386
 4190SOL    HW124203   3.755   3.289   4.344 -4.0626  0.1968 -2.0724
 4190SOL    HW224204   3.870   3.232   4.279 -0.1690  2.6778  0.5247
 4191SOL     OW24205   0.209   3.779   3.315  0.2861 -0.3476  0.3282
 4191SOL    HW124206   0.288   3.831   3.333  0.2708 -1.3911  3.3857
 4191SOL    HW224207   0.200   3.779   3.219 -0.0980  1.0404  0.3661
 4192SOL     OW24208   2.597   4.128   4.621  0.1563  0.8379  0.5908
 4192SOL    HW124209   2.595   4.077   4.540 -1.5381  1.5617  0.1668
 4192SOL    HW224210   2.502   4.124   4.634  0.2699 -1.1572  0.9033
 4193SOL     OW24211   1.961   3.699   4.504  0.2543  0.2863  0.1105
 4193SOL    HW124212   1.887   3.688   4.565 -0.0673 -1.9021 -0.6645
 4193SOL    HW224213   1.933   3.648   4.428  1.6178 -0.6002  0.2104
 4194SOL     OW24214   2.829   3.804   4.590 -0.7895  0.2474  0.6430
 4194SOL    HW124215   2.769   3.760   4.530 -1.8114  0.6027  1.4036
 4194SOL    HW224216   2.798   3.779   4.678 -2.3017  0.8502  0.2821
 4195SOL     OW24217   0.561   1.311  13.700 -0.1018 -0.3796  0.2463
 4195SOL    HW124218   0.531   1.241  13.642  0.9137 -0.1282 -0.5846
 4195SOL    HW224219   0.580   1.378  13.634  1.6779 -1.8440 -0.7197
 4196SOL     OW24220   1.812   0.374  10.016  0.3693 -0.0698 -0.5892
 4196SOL    HW124221   1.807   0.279  10.019  0.6133 -0.1101 -1.3991
 4196SOL    HW224222   1.822   0.389  10.110  1.4036 -1.9583 -0.4146
 4197SOL     OW24223   3.413   1.098   7.787  0.1186  0.3400 -0.1265
 4197SOL    HW124224   3.422   1.174   7.844 -0.4226  0.1659  0.1847
 4197SOL    HW224225   3.335   1.061   7.827 -1.1170  1.9220 -1.0551
 4198SOL     OW24226   3.044   4.726   5.463 -0.3032 -0.1791  0.4355
 4198SOL    HW124227   3.008   0.037   5.390  2.1967 -0.7624 -1.1789
 4198SOL    HW224228   3.002   0.022   5.543  0.4223  2.7784 -0.4737
 4199SOL     OW24229   3.871   1.139   7.951 -0.7029  0.4950 -0.4674
 4199SOL    HW124230   3.892   1.231   7.968  1.4706  0.1047 -1.0381
 4199SOL    HW224231   3.791   1.118   7.999  1.4016 -1.1278  2.3268
 4200SOL     OW24232   4.444   1.973   6.738  0.5407  0.5752 -0.5126
 4200SOL    HW124233   4.366   1.933   6.777 -0.2131  1.4848 -1.1036
 4200SOL    HW224234   4.416   2.048   6.686 -4.0903 -0.7864 -0.0047
 4201SOL     OW24235   4.073   3.395   3.478 -0.6700 -0.5708 -0.4423
 4201SOL    HW124236   4.039   3.312   3.511  0.1162 -1.0084 -0.7332
 4201SOL    HW224237   4.011   3.455   3.519 -1.1006 -0.9022 -0.6124
 4202SOL     OW24238   0.606   1.538   6.374 -0.1017 -0.3047  0.1328
 4202SOL    HW124239   0.568   1.477   6.438  0.3870 -0.0325  0.6774
 4202SOL    HW224240   0.691   1.539   6.417 -0.8427  1.4259  1.5224
 4203SOL     OW24241   0.582   1.561   6.111 -0.4311 -0.0179  0.1496
 4203SOL    HW124242   0.593   1.523   6.198  0.9507  0.7612  0.3121
 4203SOL    HW224243   0.522   1.631   6.135 -1.9377 -0.2564 -2.8753
 4204SOL     OW24244   0.335   2.947   7.951 -0.1942  0.1888  0.2942
 4204SOL    HW124245   0.255   2.939   7.900 -1.0774  3.4402  1.1745
 4204SOL    HW224246   0.393   2.993   7.890 -1.3378  0.7671 -0.3456
 4205SOL     OW24247   0.452   1.376   2.441  0.0086  0.5728 -0.1324
 4205SOL    HW124248   0.475   1.346   2.529  0.6883 -0.2418 -0.5840
 4205SOL    HW224249   0.536   1.376   2.394  0.4591  0.9080  0.6901
 4206SOL     OW24250   3.991   2.696   7.835 -0.1424  0.2051 -0.3281
 4206SOL    HW124251   4.019   2.787   7.844  0.0468 -0.0105  1.3258
 4206SOL    HW224252   3.896   2.706   7.826 -0.2946 -0.2182  0.7276
 4207SOL     OW24253   3.376   0.754  12.364  0.1519 -0.0013 -0.0632
 4207SOL    HW124254   3.301   0.706  12.330  0.4436 -1.5744  1.4936
 4207SOL    HW224255   3.412   0.702  12.437 -0.8175  1.2934  1.3475
 4208SOL     OW24256   2.346   1.813  15.780 -0.2133 -0.3910  0.2137
 4208SOL    HW124257   2.319   1.869  15.707 -1.4781 -0.3318  0.7094
 4208SOL    HW224258   2.435   1.847  15.789  0.7925 -2.6632 -1.1715
 4209SOL     OW24259   1.863   0.997  12.419  0.7504 -0.3001 -0.0370
 4209SOL    HW124260   1.772   0.991  12.448  0.8399 -0.2362  0.2547
 4209SOL    HW224261   1.867   1.092  12.418 -0.5884 -0.2405  1.2292
 4210SOL     OW24262   3.230   4.691  11.466 -0.2916 -0.1438 -0.0952
 4210SOL    HW124263   3.149   4.674  11.417 -0.6384  1.8165 -0.2188
 4210SOL    HW224264   3.257   4.603  11.492  2.4282  1.4232  2.4308
 4211SOL     OW24265   0.884   3.560   2.245 -0.5401 -0.1449  0.4871
 4211SOL    HW124266   0.867   3.492   2.179 -2.0365  0.6242  0.0699
 4211SOL    HW224267   0.977   3.576   2.230 -0.5305  1.0037  1.8111
 4212SOL     OW24268   2.138   1.138   6.714  0.0668  0.3337  0.3260
 4212SOL    HW124269   2.057   1.091   6.694  0.9026 -0.8481 -0.2882
 4212SOL    HW224270   2.100   1.205   6.772  0.8254  1.7301 -0.7997
 4213SOL     OW24271   3.055   4.472   8.195  0.1150  0.0800  0.2096
 4213SOL    HW124272   3.131   4.486   8.251 -0.0109 -1.3518  0.7442
 4213SOL    HW224273   3.106   4.445   8.119  1.1173 -0.2252  0.9882
 4214SOL     OW24274   1.658   3.123   7.848  0.2085  0.2421 -0.2184
 4214SOL    HW124275   1.667   3.070   7.928 -0.3616 -0.3452 -0.5433
 4214SOL    HW224276   1.567   3.099   7.827 -0.0759 -0.3602  1.6994
 4215SOL     OW24277   3.689   0.598   7.541 -0.3723  0.0426 -0.2381
 4215SOL    HW124278   3.660   0.584   7.451 -0.4730  0.7507 -0.3221
 4215SOL    HW224279   3.619   0.656   7.571 -1.1282  0.1447 -2.2570
 4216SOL     OW24280   2.270   0.475   6.052  0.0645  0.3675 -0.5016
 4216SOL    HW124281   2.238   0.417   5.982  2.5590 -1.3460 -0.2083
 4216SOL    HW224282   2.284   0.557   6.005  1.4076  0.9439  0.9098
 4217SOL     OW24283   4.552   4.160   4.220 -0.1581 -0.1088 -0.5804
 4217SOL    HW124284   4.599   4.193   4.297  1.0450  0.2801 -1.4906
 4217SOL    HW224285   4.620   4.100   4.189  0.6557  1.2309 -1.3567
 4218SOL     OW24286   1.893   3.263   4.425  0.4284  0.1365  0.1957
 4218SOL    HW124287   1.970   3.213   4.397  1.2387  1.6198 -0.1929
 4218SOL    HW224288   1.832   3.189   4.427  1.6249 -0.8677 -0.8637
 4219SOL     OW24289   0.440   0.891   1.239  1.1425  0.2569 -0.3565
 4219SOL    HW124290   0.356   0.932   1.216  0.3350 -1.5785 -0.6515
 4219SOL    HW224291   0.468   0.869   1.151 -1.8093 -1.4394 -0.8657
 4220SOL     OW24292   3.686   3.863   6.555  0.0829 -0.3879  0.4635
 4220SOL    HW124293   3.655   3.779   6.590  1.0559 -1.8387 -2.1387
 4220SOL    HW224294   3.754   3.837   6.492 -1.0578  0.3650 -1.0602
 4221SOL     OW24295   2.239   0.042   4.031 -0.4674 -0.0570 -0.0989
 4221SOL    HW124296   2.180   0.022   3.958  1.1646  1.2524 -1.7797
 4221SOL    HW224297   2.248   4.691   4.063 -0.5545 -0.4236 -1.0832
 4222SOL     OW24298   1.040   4.055   1.112  0.0260  0.1612 -0.3015
 4222SOL    HW124299   1.100   4.111   1.063 -0.1887  1.7936  1.2737
 4222SOL    HW224300   1.003   4.114   1.178  0.0765  2.5988 -2.4245
 4223SOL     OW24301   1.481   3.929   6.550 -0.4136 -0.2811 -0.2248
 4223SOL    HW124302   1.504   3.962   6.637  1.0080  0.1774 -0.7764
 4223SOL    HW224303   1.513   3.839   6.540  1.9906  0.6261 -0.6787
 4224SOL     OW24304   1.175   2.917   8.916 -0.4108 -0.8131 -0.1028
 4224SOL    HW124305   1.099   2.974   8.927 -0.0661 -0.7531  2.0989
 4224SOL    HW224306   1.186   2.924   8.821  0.1262 -0.8957 -0.0493
 4225SOL     OW24307   1.178   2.009   3.194  0.1209  0.3436  0.0476
 4225SOL    HW124308   1.101   2.067   3.193  1.0204  1.5492  0.7305
 4225SOL    HW224309   1.246   2.065   3.232  0.2053 -2.7836  4.5105
 4226SOL     OW24310   4.505   0.736   3.513 -0.3274  0.1452  0.1719
 4226SOL    HW124311   4.446   0.711   3.584 -0.5370  0.8634  0.2515
 4226SOL    HW224312   4.471   0.680   3.443  0.9897 -0.9035  0.3841
 4227SOL     OW24313   1.023   3.999   2.497  0.4390  0.0463  0.4542
 4227SOL    HW124314   0.998   4.031   2.410 -0.8977  0.7216  1.0875
 4227SOL    HW224315   1.005   3.905   2.497 -0.0401  0.1355  1.1023
 4228SOL     OW24316   3.244   3.737  15.809 -0.0841 -0.2156  0.6360
 4228SOL    HW124317   3.329   3.747  15.765  0.3083 -1.7117  1.0793
 4228SOL    HW224318   3.247   3.792  15.887 -2.5087 -0.3504  0.8104
 4229SOL     OW24319   1.528   2.052  11.316 -0.3963 -0.3512 -0.1943
 4229SOL    HW124320   1.487   1.976  11.275  0.4097 -2.2587  2.4969
 4229SOL    HW224321   1.608   2.017  11.356 -1.4178  0.1305  2.3195
 4230SOL     OW24322   1.995   4.618   8.001  0.1487  0.3970 -0.3135
 4230SOL    HW124323   1.968   4.566   7.926 -2.0724  2.4367 -0.9266
 4230SOL    HW224324   1.979   4.556   8.072 -1.3095  0.4830 -0.5745
 4231SOL     OW24325   4.095   1.431   1.312 -0.1851 -0.2792 -0.0477
 4231SOL    HW124326   4.090   1.346   1.268 -2.4113 -0.1760 -0.0018
 4231SOL    HW224327   4.153   1.483   1.257  0.2130 -1.3555 -0.6488
 4232SOL     OW24328   1.152   1.386   6.114  0.1254  0.1659 -0.1499
 4232SOL    HW124329   1.064   1.382   6.152  0.6426 -1.2484  0.9173
 4232SOL    HW224330   1.131   1.461   6.059 -0.8158  0.9750  1.2853
 4233SOL     OW24331   3.291   1.640   4.286 -0.1133 -0.4367 -0.3005
 4233SOL    HW124332   3.378   1.653   4.248  0.5776 -0.7277  1.1713
 4233SOL    HW224333   3.302   1.549   4.315 -2.9041  0.1326  2.4866
 4234SOL     OW24334   3.740   0.891   5.355  1.0250 -0.8760 -0.1245
 4234SOL    HW124335   3.654   0.869   5.320 -0.7664  0.1071  3.7963
 4234SOL    HW224336   3.711   0.972   5.395  0.5793  0.3347 -2.8802
 4235SOL     OW24337   4.323   2.314  10.256 -0.1049  0.3229 -0.1395
 4235SOL    HW124338   4.394   2.355  10.208  0.3539 -0.4561 -0.1230
 4235SOL    HW224339   4.247   2.347  10.208 -0.7812  1.2073  1.5372
 4236SOL     OW24340   0.231   4.299  10.681 -0.2658  0.1189  0.0989
 4236SOL    HW124341   0.282   4.326  10.604 -0.6338  2.6331  0.7312
 4236SOL    HW224342   0.144   4.329  10.655 -0.5229 -0.3635  0.4098
 4237SOL     OW24343   2.861   3.240   9.208 -0.2286  0.1853 -0.1681
 4237SOL    HW124344   2.812   3.228   9.289 -0.0855  0.2124 -0.0778
 4237SOL    HW224345   2.809   3.212   9.133 -3.4379  0.8672  1.8066
 4238SOL     OW24346   3.538   2.152   0.192  0.2275  0.2476  0.1594
 4238SOL    HW124347   3.494   2.174   0.110 -2.3706 -1.6321  1.0459
 4238SOL    HW224348   3.462   2.166   0.248  2.0433  0.2249  2.6450
 4239SOL     OW24349   2.186   4.035   9.464 -0.2685  0.0916 -0.2648
 4239SOL    HW124350   2.174   4.119   9.508 -2.1149  1.3077 -3.0871
 4239SOL    HW224351   2.270   4.043   9.418 -1.3760  1.9520 -1.9621
 4240SOL     OW24352   1.075   1.967   8.075  0.6353  1.2349 -0.1676
 4240SOL    HW124353   1.114   1.881   8.067  0.0613  0.8245  1.3270
 4240SOL    HW224354   1.008   1.955   8.142  0.1448  0.4317 -0.7981
 4241SOL     OW24355   3.821   4.100   1.858  0.2199 -0.1224 -0.0804
 4241SOL    HW124356   3.736   4.107   1.901  1.0126 -0.2612  1.5217
 4241SOL    HW224357   3.833   4.011   1.892  1.0388  0.1292  0.2973
 4242SOL     OW24358   2.560   3.433   1.752  0.4557  0.1405  0.1690
 4242SOL    HW124359   2.520   3.431   1.665 -2.4951  1.5311  1.4773
 4242SOL    HW224360   2.637   3.378   1.744  0.3523  0.0959 -0.5242
 4243SOL     OW24361   4.344   3.367   3.562  0.2887 -0.1889 -0.1012
 4243SOL    HW124362   4.324   3.277   3.535 -0.8105 -0.1969  0.7462
 4243SOL    HW224363   4.270   3.408   3.516 -0.1479 -0.6438  0.1976
 4244SOL     OW24364   1.858   0.690   6.816  0.6706 -0.3715 -0.6492
 4244SOL    HW124365   1.952   0.700   6.799  0.6846 -0.8322 -0.8515
 4244SOL    HW224366   1.857   0.701   6.911 -0.2806  0.6705 -0.7874
 4245SOL     OW24367   2.701   0.295   3.345  0.0549  0.2064  0.5658
 4245SOL    HW124368   2.738   0.300   3.434  0.7040 -1.7466  0.4037
 4245SOL    HW224369   2.724   0.377   3.303  0.7927 -0.2407  0.0939
 4246SOL     OW24370   3.338   3.479   2.937  0.2607  0.0184 -0.0868
 4246SOL    HW124371   3.307   3.531   2.863 -2.3822 -0.5161  0.6426
 4246SOL    HW224372   3.379   3.401   2.901 -2.5643 -2.1911  1.5279
 4247SOL     OW24373   2.610   3.995   0.195  0.4641  0.3043  0.5479
 4247SOL    HW124374   2.572   4.080   0.173  0.9034 -0.1020 -1.7830
 4247SOL    HW224375   2.635   4.017   0.285  0.1644  0.6310  0.5484
 4248SOL     OW24376   2.096   2.483   5.234 -0.0298  0.0251  0.5117
 4248SOL    HW124377   2.025   2.512   5.291  0.4655 -0.4567  1.3751
 4248SOL    HW224378   2.086   2.388   5.243  2.2816 -0.2844 -0.2241
 4249SOL     OW24379   2.487   1.732   7.096 -0.0674 -0.1628 -0.0153
 4249SOL    HW124380   2.539   1.660   7.060  1.1468  1.7056 -1.9889
 4249SOL    HW224381   2.557   1.780   7.141 -1.0433 -0.9368  2.3633
 4250SOL     OW24382   4.495   1.903   8.818 -0.6413 -0.0318  0.1128
 4250SOL    HW124383   4.415   1.938   8.858  0.4150 -0.3478  2.4654
 4250SOL    HW224384   4.539   1.987   8.801 -1.2434  0.0693 -0.9461
 4251SOL     OW24385   2.341   3.897   4.696  0.2264  0.3693  0.7905
 4251SOL    HW124386   2.300   3.880   4.611  0.5708  0.7814  0.5436
 4251SOL    HW224387   2.259   3.924   4.739 -0.5601 -0.6331 -0.0927
 4252SOL     OW24388   4.037   3.421   4.473  0.1299  0.0600  0.4426
 4252SOL    HW124389   4.065   3.431   4.564 -0.5081  3.1878  0.2962
 4252SOL    HW224390   4.080   3.339   4.449 -1.0099 -0.3024 -0.3237
 4253SOL     OW24391   0.283   4.287  10.953  0.0191  0.1543  0.1057
 4253SOL    HW124392   0.196   4.283  10.991  0.3012  0.9920  0.8531
 4253SOL    HW224393   0.264   4.305  10.861 -0.3320 -1.0924 -0.0711
 4254SOL     OW24394   1.720   0.937   4.901  0.4277  0.0179  0.3652
 4254SOL    HW124395   1.753   0.932   4.991 -3.7203 -1.3051  1.8033
 4254SOL    HW224396   1.795   0.985   4.865  0.5738  0.0036  0.6505
 4255SOL     OW24397   1.355   0.869   3.120 -0.2269  0.0252  0.0021
 4255SOL    HW124398   1.284   0.850   3.058 -0.4491  0.5537  0.0952
 4255SOL    HW224399   1.431   0.881   3.063 -0.2331  0.0720  0.0041
 4256SOL     OW24400   1.398   4.730  11.502 -0.0226  0.5243  0.1892
 4256SOL    HW124401   1.407   0.080  11.537 -1.4442  1.6224 -2.2318
 4256SOL    HW224402   1.444   4.736  11.418 -0.6898  0.9205 -0.1478
 4257SOL     OW24403   0.689   3.539  11.701  0.0672 -0.0313 -0.4334
 4257SOL    HW124404   0.607   3.587  11.689 -0.9777 -1.1364  2.0927
 4257SOL    HW224405   0.701   3.551  11.796  1.6749 -0.5798 -0.5680
 4258SOL     OW24406   0.835   3.499   7.793  0.0570 -0.1640  0.1572
 4258SOL    HW124407   0.830   3.558   7.869 -0.7949 -1.8684  1.4206
 4258SOL    HW224408   0.928   3.477   7.802  1.3116  4.7067 -1.0632
 4259SOL     OW24409   0.599   0.549  10.314 -0.5212  0.2404 -0.0790
 4259SOL    HW124410   0.582   0.460  10.282 -0.0180 -0.1635  0.7770
 4259SOL    HW224411   0.594   0.537  10.409  2.4066 -0.2246  0.0157
 4260SOL     OW24412   0.286   4.386  10.422 -0.1799  0.1789  0.3497
 4260SOL    HW124413   0.253   4.437  10.348  1.5800 -1.7839 -1.7735
 4260SOL    HW224414   0.362   4.352  10.377  0.5683  1.4433  0.6561
 4261SOL     OW24415   0.409   0.263   3.853  0.1483  0.3296 -0.2192
 4261SOL    HW124416   0.438   0.177   3.823 -0.6210 -0.0859  0.2060
 4261SOL    HW224417   0.316   0.241   3.859  0.7642 -2.1035  0.5564
 4262SOL     OW24418   3.243   2.251  10.115 -0.0207 -0.3473  0.0483
 4262SOL    HW124419   3.160   2.240  10.069 -0.0800  0.4943 -0.0421
 4262SOL    HW224420   3.274   2.166  10.147  2.1628  0.4496  0.0593
 4263SOL     OW24421   2.761   1.526   4.288 -0.2802 -0.1922 -0.7537
 4263SOL    HW124422   2.848   1.488   4.300 -0.2661  0.4097  1.0224
 4263SOL    HW224423   2.719   1.449   4.251 -2.7455  0.1334  1.3627
 4264SOL     OW24424   2.662   0.002  12.788  0.2950 -0.3620  0.1503
 4264SOL    HW124425   2.613   4.659  12.778  0.3231 -0.2465 -0.9076
 4264SOL    HW224426   2.750   4.716  12.817  0.4288  0.2317  0.2512
 4265SOL     OW24427   3.285   2.695   5.743  0.6820 -0.3655  0.7076
 4265SOL    HW124428   3.306   2.675   5.651  2.1538  0.0783  0.9371
 4265SOL    HW224429   3.190   2.696   5.734  0.6057  1.3141  1.7045
 4266SOL     OW24430   4.572   2.438   3.627  0.1048 -0.5032 -0.1752
 4266SOL    HW124431   4.481   2.470   3.628  1.3160  2.7733  3.0022
 4266SOL    HW224432   4.607   2.527   3.631  0.1070 -0.5137  0.0379
 4267SOL     OW24433   1.592   1.318   8.444  0.0050 -0.1028 -0.7219
 4267SOL    HW124434   1.555   1.245   8.395 -0.5564 -0.3705  0.1084
 4267SOL    HW224435   1.520   1.379   8.431  0.2588  0.5331  0.7878
 4268SOL     OW24436   1.774   3.997  17.289  0.0765  0.3089  0.0851
 4268SOL    HW124437   1.761   4.027  17.199 -1.0146 -0.6506 -0.0758
 4268SOL    HW224438   1.821   3.915  17.275  0.4825  0.7080 -0.8589
 4269SOL     OW24439   1.744   0.213   7.620  0.2623 -0.0556 -0.0218
 4269SOL    HW124440   1.738   0.119   7.640  1.9927 -0.4403 -1.3975
 4269SOL    HW224441   1.831   0.206   7.582  0.1593  2.3811 -0.7038
 4270SOL     OW24442   0.527   1.592   7.567  0.1886 -0.2755 -0.2650
 4270SOL    HW124443   0.534   1.529   7.495  2.0573  1.5111 -1.6276
 4270SOL    HW224444   0.608   1.574   7.615 -0.0522 -2.1849 -0.5909
 4271SOL     OW24445   4.307   0.844   3.776  0.6942 -0.5936  0.7540
 4271SOL    HW124446   4.308   0.754   3.744  0.1871 -0.9667  1.7941
 4271SOL    HW224447   4.397   0.845   3.809  0.1306  0.3857  2.2518
 4272SOL     OW24448   3.899   4.156   0.273  0.5691  0.4281 -0.2888
 4272SOL    HW124449   3.958   4.188   0.341  1.5351 -1.3610 -0.2947
 4272SOL    HW224450   3.874   4.239   0.231  2.4247  0.5145 -1.2523
 4273SOL     OW24451   2.718   2.025   9.106 -0.0695  0.3425 -0.4726
 4273SOL    HW124452   2.648   2.011   9.043  1.0472 -0.1754 -1.6150
 4273SOL    HW224453   2.714   2.121   9.105 -0.6069  0.3390  2.9421
 4274SOL     OW24454   2.508   1.867   2.248 -0.5683  0.0632 -0.4009
 4274SOL    HW124455   2.421   1.848   2.285 -0.7060  0.9887 -0.2387
 4274SOL    HW224456   2.567   1.810   2.298 -0.3911 -0.0418 -0.7354
 4275SOL     OW24457   2.055   3.365   1.015  0.0336 -0.2126 -0.1412
 4275SOL    HW124458   2.113   3.304   0.970 -0.9191 -2.4094  1.6515
 4275SOL    HW224459   2.024   3.423   0.945 -1.0331 -2.1285 -1.2768
 4276SOL     OW24460   0.958   1.113   4.816 -0.4611  0.6747 -0.0070
 4276SOL    HW124461   0.908   1.059   4.755 -0.6838 -0.5412  1.2453
 4276SOL    HW224462   0.980   1.052   4.887  0.6948 -0.7505 -1.6042
 4277SOL     OW24463   1.654   2.347  10.866 -0.1230  0.1988  0.4514
 4277SOL    HW124464   1.604   2.357  10.947  0.8857 -0.5531  1.1585
 4277SOL    HW224465   1.666   2.438  10.838  1.4536 -0.6600 -1.6718
 4278SOL     OW24466   2.127   0.692   4.542 -0.3191 -0.3195  0.6618
 4278SOL    HW124467   2.210   0.739   4.546 -0.8684  0.7251 -0.1517
 4278SOL    HW224468   2.083   0.741   4.472  1.6484 -1.5839 -1.4749
 4279SOL     OW24469   2.567   1.387  13.635 -0.0795  0.1057  0.1834
 4279SOL    HW124470   2.560   1.483  13.639 -0.9033  0.1260 -1.5362
 4279SOL    HW224471   2.625   1.376  13.559  0.5631 -0.7779  0.8152
 4280SOL     OW24472   4.346   0.740   8.455  0.2905 -0.2125  0.1166
 4280SOL    HW124473   4.326   0.763   8.546 -1.5943 -0.2471 -0.2926
 4280SOL    HW224474   4.310   0.652   8.451 -1.1510  0.4384 -1.2204
 4281SOL     OW24475   3.129   3.829   2.784  0.1384  0.0463 -0.7849
 4281SOL    HW124476   3.114   3.920   2.760 -1.2576  0.0859  0.2109
 4281SOL    HW224477   3.070   3.783   2.724  0.2400 -2.0868  0.7475
 4282SOL     OW24478   1.570   3.947   8.263 -0.2898 -0.3800  0.1407
 4282SOL    HW124479   1.605   4.009   8.327  0.2582 -0.2057 -0.3167
 4282SOL    HW224480   1.650   3.897   8.244  0.6392  0.3909  2.0766
 4283SOL     OW24481   0.985   3.932   7.957  0.3854 -0.8432  0.1806
 4283SOL    HW124482   0.986   3.866   7.888 -0.0174 -0.2633 -0.3816
 4283SOL    HW224483   1.072   3.969   7.943  0.1329 -0.2423  0.1880
 4284SOL     OW24484   3.813   1.300   3.695 -0.2557 -0.1730  0.4408
 4284SOL    HW124485   3.893   1.290   3.746 -0.7991 -0.9488  1.1293
 4284SOL    HW224486   3.778   1.387   3.715  0.7805  1.1927 -3.5179
 4285SOL     OW24487   0.310   2.513   4.904  0.0483 -0.4871  0.1732
 4285SOL    HW124488   0.247   2.462   4.955  0.1437 -0.0895  0.6906
 4285SOL    HW224489   0.296   2.604   4.928  1.6705 -0.2179  0.0739
 4286SOL     OW24490   2.720   3.270   4.890 -0.1739 -0.0298 -0.3690
 4286SOL    HW124491   2.706   3.239   4.979  0.6109  0.3159 -0.1295
 4286SOL    HW224492   2.780   3.344   4.899 -0.7406  0.8138 -3.2898
 4287SOL     OW24493   1.827   3.460   2.884  0.0400  0.1999  0.0760
 4287SOL    HW124494   1.820   3.555   2.878 -1.2885 -0.0544 -2.5173
 4287SOL    HW224495   1.919   3.455   2.911  0.6778  1.8389 -1.8062
 4288SOL     OW24496   0.399   2.454   8.607 -0.1613  0.2368  0.4324
 4288SOL    HW124497   0.424   2.545   8.624  0.3039 -0.4387  3.4370
 4288SOL    HW224498   0.359   2.468   8.522 -3.2355 -0.3858  1.7826
 4289SOL     OW24499   4.093   2.875   2.806 -0.1403 -0.6394  0.1856
 4289SOL    HW124500   4.167   2.824   2.773  0.0547 -0.7229  0.7512
 4289SOL    HW224501   4.040   2.853   2.729  0.9067 -1.9217 -0.1646
 4290SOL     OW24502   4.617   0.004   8.039  0.3621  0.3110 -0.4033
 4290SOL    HW124503   4.702   4.717   8.003  0.2348 -2.5949  1.3060
 4290SOL    HW224504   4.591   0.068   7.973 -0.9908 -0.9348 -1.0600
 4291SOL     OW24505   1.917   2.021  17.350  0.7000  0.0663  0.0215
 4291SOL    HW124506   1.917   2.030  17.254  0.7111  1.9000  0.1911
 4291SOL    HW224507   1.989   2.084  17.359  1.2061 -0.6168  0.6902
 4292SOL     OW24508   0.222   3.081   0.765  0.2184  0.3412 -0.2655
 4292SOL    HW124509   0.294   3.020   0.785 -0.2342  0.2115  0.9977
 4292SOL    HW224510   0.218   3.131   0.847 -1.0413  1.9366 -1.3093
 4293SOL     OW24511   2.054   3.884  10.395  0.0380  0.4098 -0.7732
 4293SOL    HW124512   2.079   3.949  10.329 -0.0019 -0.4092 -1.5952
 4293SOL    HW224513   2.080   3.801  10.353  0.5952 -0.4392  1.2556
 4294SOL     OW24514   0.881   2.860   8.621 -0.1625 -0.2624 -0.6169
 4294SOL    HW124515   0.852   2.889   8.535  1.4249  1.0852 -0.6930
 4294SOL    HW224516   0.972   2.890   8.630 -0.1095 -0.4791 -0.4401
 4295SOL     OW24517   2.839   3.693   0.377 -0.1969 -0.0507 -0.4985
 4295SOL    HW124518   2.875   3.779   0.356  3.9968 -1.2788  1.5169
 4295SOL    HW224519   2.871   3.645   0.300  1.3940 -1.6827  1.1845
 4296SOL     OW24520   3.108   3.907   7.820  0.1019 -0.4131  0.0312
 4296SOL    HW124521   3.074   3.842   7.882 -1.7407  0.2959 -0.2530
 4296SOL    HW224522   3.058   3.887   7.741 -2.4381 -1.1432  1.8417
 4297SOL     OW24523   3.475   3.186   3.869 -0.1665 -0.1276  0.2415
 4297SOL    HW124524   3.422   3.263   3.846 -0.3570 -0.3859 -0.1760
 4297SOL    HW224525   3.473   3.200   3.964  0.5791 -0.5918  0.3245
 4298SOL     OW24526   4.364   1.046   3.385  0.0864  0.3899  0.3815
 4298SOL    HW124527   4.338   1.055   3.293  1.8396 -0.7498 -0.2292
 4298SOL    HW224528   4.447   1.001   3.370 -0.3951 -1.0964  2.2109
 4299SOL     OW24529   4.012   2.510   6.187  0.0580 -0.2506  0.5040
 4299SOL    HW124530   3.930   2.539   6.147  0.6359 -1.5495 -1.6075
 4299SOL    HW224531   4.033   2.583   6.245 -1.4206 -0.9487  1.9312
 4300SOL     OW24532   4.617   2.843  12.329 -0.1163  0.7317  0.2181
 4300SOL    HW124533   4.608   2.887  12.245 -1.3128 -1.5491 -0.8337
 4300SOL    HW224534   4.712   2.847  12.338 -0.1754  1.8879  0.3184
 4301SOL     OW24535   2.181   1.260   0.954  0.1384 -0.2726 -0.0656
 4301SOL    HW124536   2.129   1.267   1.034 -0.3432  1.5298 -0.5364
 4301SOL    HW224537   2.265   1.285   0.994  0.2884  0.4574 -0.8585
 4302SOL     OW24538   4.436   4.599  13.156 -0.0149  0.1174  0.3316
 4302SOL    HW124539   4.347   4.613  13.188 -0.6162 -0.2539 -1.1671
 4302SOL    HW224540   4.489   4.590  13.235  0.0978 -0.7795  0.1559
 4303SOL     OW24541   2.883   2.376  12.028 -0.1061 -0.6724 -0.2381
 4303SOL    HW124542   2.814   2.441  12.033  0.2068 -0.1876 -2.0475
 4303SOL    HW224543   2.930   2.380  12.112 -1.1201  1.0348  0.2386
 4304SOL     OW24544   0.707   3.111  16.735  0.4566 -0.3564  0.0596
 4304SOL    HW124545   0.800   3.135  16.740 -0.4139  3.2620 -1.0126
 4304SOL    HW224546   0.703   3.094  16.641  0.1848  0.6590 -0.1188
 4305SOL     OW24547   4.310   0.474   5.160 -0.2666  0.3202 -0.2202
 4305SOL    HW124548   4.298   0.494   5.253  3.5475  0.7997  0.1600
 4305SOL    HW224549   4.227   0.438   5.129 -1.1076  1.4947  0.6474
 4306SOL     OW24550   4.210   3.068  14.381 -0.2756  0.5412 -0.3231
 4306SOL    HW124551   4.175   3.078  14.293 -1.1506  0.4244  0.0065
 4306SOL    HW224552   4.211   2.973  14.391 -0.0950  0.5155 -0.5945
 4307SOL     OW24553   4.170   2.648   7.370  0.2106  0.0893 -0.6335
 4307SOL    HW124554   4.259   2.612   7.378  0.0157 -0.3151 -0.2995
 4307SOL    HW224555   4.163   2.691   7.455  0.5164 -1.1109  0.0089
 4308SOL     OW24556   1.470   0.495   5.196  0.3072 -0.0300  0.0293
 4308SOL    HW124557   1.385   0.494   5.153 -0.7115  2.5254  1.9813
 4308SOL    HW224558   1.520   0.521   5.119 -2.1717  0.2776 -1.4779
 4309SOL     OW24559   1.670   3.484  13.701  0.5705 -0.4942 -0.4736
 4309SOL    HW124560   1.612   3.515  13.632  1.3965  0.7601 -0.6175
 4309SOL    HW224561   1.654   3.558  13.761  3.6667  0.0018 -0.2457
 4310SOL     OW24562   4.177   0.136   4.806  0.5671 -0.2833  0.4554
 4310SOL    HW124563   4.199   0.136   4.899  3.2871 -2.8143 -0.1556
 4310SOL    HW224564   4.092   0.093   4.813 -0.5628  1.9345  0.1198
 4311SOL     OW24565   2.449   2.687  17.030  0.0405 -0.5436  0.5836
 4311SOL    HW124566   2.381   2.667  16.966 -0.6715  0.6240  0.9637
 4311SOL    HW224567   2.402   2.742  17.093 -1.9687  1.7739 -2.9541
 4312SOL     OW24568   2.499   4.608   2.269  0.5630  0.7822 -0.0607
 4312SOL    HW124569   2.559   4.540   2.240  1.6481  0.9939  1.6894
 4312SOL    HW224570   2.426   4.598   2.208  0.1628 -0.1260  0.5764
 4313SOL     OW24571   2.898   0.819   6.358 -0.0678  0.6386  0.0032
 4313SOL    HW124572   2.807   0.805   6.330  0.6277 -0.3747 -1.7412
 4313SOL    HW224573   2.896   0.783   6.446 -0.0203 -0.7588 -0.5626
 4314SOL     OW24574   3.873   2.660   7.451 -0.1180 -0.4798  0.1924
 4314SOL    HW124575   3.861   2.689   7.361 -0.6143 -1.0554  0.0725
 4314SOL    HW224576   3.968   2.645   7.450  0.1751  1.3853  0.9693
 4315SOL     OW24577   2.580   0.888   9.209  0.4093 -0.0189  0.1815
 4315SOL    HW124578   2.549   0.847   9.290  0.0684 -3.2457 -1.5483
 4315SOL    HW224579   2.563   0.818   9.145 -0.0557  0.3699 -0.1250
 4316SOL     OW24580   2.548   3.289  15.175  0.0926  0.2004 -0.0631
 4316SOL    HW124581   2.604   3.333  15.239  0.3885  0.8854 -0.7962
 4316SOL    HW224582   2.545   3.207  15.225 -1.8155 -0.2277 -0.9061
 4317SOL     OW24583   3.849   1.995  16.110  0.0561 -1.1348 -0.4998
 4317SOL    HW124584   3.909   2.064  16.138 -0.9728 -0.3854 -0.1281
 4317SOL    HW224585   3.784   2.058  16.079  1.0409 -0.9555 -2.2098
 4318SOL     OW24586   0.875   4.620   4.430  0.1253  0.5569  0.0896
 4318SOL    HW124587   0.847   4.701   4.387  0.9540  0.5368 -0.4866
 4318SOL    HW224588   0.908   4.578   4.351 -1.7053 -2.5939  0.9813
 4319SOL     OW24589   0.463   0.057   3.238  0.9165  0.1671  0.5944
 4319SOL    HW124590   0.433   0.038   3.149 -0.9888 -2.2450  1.7555
 4319SOL    HW224591   0.548   0.017   3.221  0.9573  0.3892  0.2817
 4320SOL     OW24592   0.727   1.548   4.016 -0.0309 -0.0416 -0.3656
 4320SOL    HW124593   0.701   1.511   4.101 -0.3346  0.4521 -0.2419
 4320SOL    HW224594   0.714   1.483   3.948 -0.6030  0.1380 -0.4239
 4321SOL     OW24595   2.934   4.275   8.963 -0.4601 -0.3059 -0.5970
 4321SOL    HW124596   2.895   4.207   8.908 -1.2733 -0.5901  0.3267
 4321SOL    HW224597   3.016   4.300   8.922 -0.7059  0.0270 -0.8902
 4322SOL     OW24598   0.368   1.174   3.957  0.0821 -0.3352 -0.1617
 4322SOL    HW124599   0.304   1.205   3.892  2.0486 -1.7638 -2.7503
 4322SOL    HW224600   0.345   1.241   4.022 -0.3381  0.5965 -1.2702
 4323SOL     OW24601   3.981   1.893   3.289 -0.5839 -0.2395  0.5758
 4323SOL    HW124602   4.038   1.913   3.362 -1.3902  1.4353  0.7540
 4323SOL    HW224603   4.038   1.929   3.221  1.1875  1.4147  2.9215
 4324SOL     OW24604   4.352   1.107   2.656 -0.2268  0.0270  0.3455
 4324SOL    HW124605   4.376   1.053   2.581 -1.6576 -1.5635  1.0340
 4324SOL    HW224606   4.326   1.186   2.609  0.2602 -0.6185 -0.9980
 4325SOL     OW24607   2.814   0.667  11.897  0.1265 -0.8318  0.2867
 4325SOL    HW124608   2.839   0.641  11.986 -2.6386  2.0479  1.8784
 4325SOL    HW224609   2.740   0.609  11.880 -2.1339  1.9632  0.6782
 4326SOL     OW24610   2.807   0.264   6.893  0.6652 -0.9505 -0.3998
 4326SOL    HW124611   2.857   0.273   6.973  2.6871 -1.9912 -1.5489
 4326SOL    HW224612   2.717   0.282   6.921  1.1701  0.7146  0.1077
 4327SOL     OW24613   2.885   2.562   3.650 -0.0835 -0.3008 -0.0268
 4327SOL    HW124614   2.861   2.652   3.673  2.9394  0.4539  0.1219
 4327SOL    HW224615   2.849   2.501   3.714 -0.2116 -1.0793 -0.8344
 4328SOL     OW24616   1.436   1.151   8.823 -0.1398  0.0287  0.4335
 4328SOL    HW124617   1.401   1.076   8.776  2.1209 -0.8560  0.1886
 4328SOL    HW224618   1.500   1.189   8.762 -0.5443 -1.8106 -1.1400
 4329SOL     OW24619   3.536   2.929   3.617  0.4927  0.1106  0.3309
 4329SOL    HW124620   3.517   2.835   3.619  0.8213  0.0265 -0.4693
 4329SOL    HW224621   3.469   2.963   3.676 -0.6869  0.0117 -0.9715
 4330SOL     OW24622   4.370   3.571   9.183 -0.7636  0.4024 -0.5610
 4330SOL    HW124623   4.436   3.618   9.130  0.8680 -0.0734  1.0499
 4330SOL    HW224624   4.300   3.636   9.183  0.5020  1.7432  2.0607
 4331SOL     OW24625   3.483   3.962   7.654  0.6341 -0.1358 -0.1024
 4331SOL    HW124626   3.496   3.876   7.616  1.7927 -0.5608  1.2669
 4331SOL    HW224627   3.542   3.962   7.729  0.0306 -2.0402  0.3693
 4332SOL     OW24628   4.578   1.473   0.246  0.1132 -0.3925  0.1692
 4332SOL    HW124629   4.597   1.558   0.286  0.0951  0.6241 -1.9973
 4332SOL    HW224630   4.521   1.514   0.182 -1.0687 -1.4601  0.5319
 4333SOL     OW24631   0.068   3.667   6.165  0.1130 -0.2048  0.3056
 4333SOL    HW124632   4.725   3.625   6.190  0.0929  0.5519  1.5182
 4333SOL    HW224633   0.031   3.738   6.113 -0.0217 -1.1618 -0.9168
 4334SOL     OW24634   1.317   2.983   2.878  0.7381 -0.7300 -0.0337
 4334SOL    HW124635   1.291   3.045   2.946 -0.4058 -0.9317 -0.2879
 4334SOL    HW224636   1.365   2.916   2.925  0.6206 -0.6174  0.2431
 4335SOL     OW24637   2.262   3.655  16.523  0.5753  0.0058  0.6116
 4335SOL    HW124638   2.171   3.642  16.550  0.6462 -0.6190  0.5604
 4335SOL    HW224639   2.304   3.609  16.596  1.6933  0.2270  0.1137
 4336SOL     OW24640   3.541   0.133   1.678  0.1482 -0.0638 -0.6318
 4336SOL    HW124641   3.508   0.057   1.727  0.4399 -0.0647 -0.4370
 4336SOL    HW224642   3.591   0.098   1.605  1.9062 -1.7046  1.3354
 4337SOL     OW24643   1.205   1.813   1.328 -0.3021  0.2304 -0.4983
 4337SOL    HW124644   1.199   1.883   1.263 -1.7572  0.0435 -0.5632
 4337SOL    HW224645   1.116   1.779   1.337 -0.2756  0.5488  0.9533
 4338SOL     OW24646   0.949   4.483   4.186 -0.6729 -0.9704 -0.0535
 4338SOL    HW124647   1.027   4.436   4.156 -1.3366 -1.3834 -1.1295
 4338SOL    HW224648   0.873   4.471   4.129  1.1351  1.8017 -3.1054
 4339SOL     OW24649   3.611   3.604   2.030  0.8390  0.1144  0.4247
 4339SOL    HW124650   3.691   3.563   2.062  0.8373 -1.0247 -1.0494
 4339SOL    HW224651   3.552   3.529   2.025 -0.2522  0.8456  1.9994
 4340SOL     OW24652   3.698   2.600   2.108  0.1774  0.2851  0.1596
 4340SOL    HW124653   3.717   2.554   2.189  0.8829 -1.2916 -0.9025
 4340SOL    HW224654   3.772   2.661   2.104  0.0044  0.3344 -2.7360
 4341SOL     OW24655   0.281   3.204   9.337  0.5124 -0.6763 -0.2476
 4341SOL    HW124656   0.222   3.192   9.262  1.1641  1.5142 -1.1022
 4341SOL    HW224657   0.257   3.289   9.374 -1.0584 -0.9244 -0.7154
 4342SOL     OW24658   0.062   1.499   2.546  0.0069 -0.3076 -0.4857
 4342SOL    HW124659   0.089   1.583   2.584 -0.4789 -0.4291  0.1193
 4342SOL    HW224660   0.030   1.528   2.460  2.2404  1.8980 -0.5904
 4343SOL     OW24661   2.986   2.914  13.866  0.0328  0.5374 -0.2625
 4343SOL    HW124662   2.975   2.933  13.959 -0.4179  0.6400 -0.3400
 4343SOL    HW224663   3.047   2.985  13.846 -0.8047  1.4409  0.3962
 4344SOL     OW24664   4.554   4.570   8.260  0.2643  0.7315 -0.0781
 4344SOL    HW124665   4.602   4.635   8.209 -0.2604  2.1450  1.2178
 4344SOL    HW224666   4.466   4.598   8.233  0.1530 -0.1282 -0.6226
 4345SOL     OW24667   1.663   0.404   5.648  0.7013  0.2469 -0.1765
 4345SOL    HW124668   1.656   0.309   5.646  2.0589  0.1666 -1.3038
 4345SOL    HW224669   1.745   0.422   5.602  0.7290 -1.5016 -0.8264
 4346SOL     OW24670   1.690   3.848   5.339 -0.3394  0.7650  0.3360
 4346SOL    HW124671   1.624   3.914   5.319 -0.0786  0.0102 -2.8816
 4346SOL    HW224672   1.716   3.878   5.427  1.8543  1.0421 -0.4050
 4347SOL     OW24673   3.335   2.183   4.264  0.6563  0.3826  0.0532
 4347SOL    HW124674   3.367   2.195   4.175 -0.0671 -1.5338 -0.4387
 4347SOL    HW224675   3.242   2.187   4.246  0.6407  0.9414  0.2316
 4348SOL     OW24676   4.043   0.307   9.683  0.5697  0.1420 -0.0780
 4348SOL    HW124677   4.069   0.391   9.644 -2.2514  1.1249  0.1510
 4348SOL    HW224678   4.007   0.258   9.609  0.0217  0.0684  0.2384
 4349SOL     OW24679   0.194   3.176   7.291  0.3053 -0.4965 -0.1679
 4349SOL    HW124680   0.124   3.148   7.350  1.7391 -1.3855  1.0650
 4349SOL    HW224681   0.227   3.091   7.263  4.3501  1.7341 -2.1254
 4350SOL     OW24682   4.703   4.048  12.920 -0.1245  0.0911 -0.8501
 4350SOL    HW124683   4.632   4.029  12.859  0.0707 -0.6879 -0.8389
 4350SOL    HW224684   4.710   3.958  12.952  3.7573  0.1329 -1.5114
 4351SOL     OW24685   1.097   3.198   7.221 -0.6612 -0.0265 -0.0740
 4351SOL    HW124686   1.058   3.186   7.134  0.7975  0.5296 -0.8036
 4351SOL    HW224687   1.109   3.293   7.217  0.2648 -0.2377 -2.5621
 4352SOL     OW24688   2.955   3.396  13.017 -0.2522 -0.3948  0.1213
 4352SOL    HW124689   2.977   3.311  13.055  0.4639  1.2594  3.4360
 4352SOL    HW224690   2.898   3.376  12.943 -1.0090  0.0342  0.5883
 4353SOL     OW24691   2.381   3.892   6.792  0.7313  0.4127  0.2058
 4353SOL    HW124692   2.353   3.843   6.715  2.0715 -1.2991  0.7893
 4353SOL    HW224693   2.310   3.884   6.855 -0.5748  2.9346 -0.9216
 4354SOL     OW24694   1.408   3.726   7.002 -0.1472  0.4610  0.4596
 4354SOL    HW124695   1.493   3.702   7.039 -0.6744 -1.5642  0.3679
 4354SOL    HW224696   1.383   3.662   6.935  0.8971 -2.4118  2.7919
 4355SOL     OW24697   1.392   3.429   0.519 -0.0173 -0.2688 -0.2857
 4355SOL    HW124698   1.368   3.416   0.611  0.2174 -0.4676 -0.2521
 4355SOL    HW224699   1.307   3.413   0.478 -0.9347 -1.1603  1.9830
 4356SOL     OW24700   4.550   3.883  10.683 -0.2046  0.0975  0.3674
 4356SOL    HW124701   4.538   3.955  10.745  1.6593 -0.3136  1.2345
 4356SOL    HW224702   4.645   3.868  10.688  0.0628  2.0354  1.1614
 4357SOL     OW24703   1.175   0.310   7.335  0.3817  0.7413 -0.6973
 4357SOL    HW124704   1.116   0.243   7.370  0.4214 -0.0440 -2.1165
 4357SOL    HW224705   1.233   0.261   7.277 -0.6680 -0.3227 -0.8485
 4358SOL     OW24706   3.853   1.606   5.031 -0.0047  0.1816 -0.0642
 4358SOL    HW124707   3.789   1.582   5.098  0.3459  3.5493  1.4981
 4358SOL    HW224708   3.802   1.669   4.980 -3.2072 -1.5748  0.9599
 4359SOL     OW24709   2.593   0.257   7.271  0.4303 -0.0712 -0.1677
 4359SOL    HW124710   2.572   0.346   7.299  0.2863  1.0706 -3.8448
 4359SOL    HW224711   2.515   0.246   7.216 -0.1009 -1.3186  0.8551
 4360SOL     OW24712   0.336   2.030  12.417  0.2085 -0.1028  0.4400
 4360SOL    HW124713   0.287   2.031  12.335  0.2788  2.3601  0.4210
 4360SOL    HW224714   0.271   1.992  12.475 -0.2527 -1.9023 -1.2582
 4361SOL     OW24715   4.635   1.606   8.489 -0.4512 -0.2322  0.5476
 4361SOL    HW124716   4.683   1.537   8.534  0.4046 -1.3282 -2.0463
 4361SOL    HW224717   4.699   1.667   8.451  0.4681  0.3439  3.0535
 4362SOL     OW24718   1.649   0.852   3.234  0.1791  0.7287 -0.1704
 4362SOL    HW124719   1.639   0.885   3.145 -1.0783  3.3022  0.9395
 4362SOL    HW224720   1.586   0.909   3.277 -1.8097 -1.3214 -0.3562
 4363SOL     OW24721   4.001   0.248   0.710 -0.2806  0.3514  0.2972
 4363SOL    HW124722   3.976   0.158   0.688  0.5205  0.2510 -0.2228
 4363SOL    HW224723   4.044   0.273   0.628 -1.8916 -3.8546 -1.8102
 4364SOL     OW24724   4.532   0.622   9.580 -0.0138 -0.2905 -0.5344
 4364SOL    HW124725   4.529   0.695   9.643 -1.0283 -1.1813  0.4496
 4364SOL    HW224726   4.488   0.558   9.636  1.8044  0.1383  1.4309
 4365SOL     OW24727   0.397   2.704   7.722  0.5069  0.0660 -0.0638
 4365SOL    HW124728   0.470   2.755   7.687 -1.0121  2.0595 -0.3361
 4365SOL    HW224729   0.442   2.662   7.796 -0.1155  0.4356  0.5180
 4366SOL     OW24730   0.659   2.118  13.794  0.0864 -0.0731  0.2728
 4366SOL    HW124731   0.590   2.185  13.801  0.6864  0.6822 -1.1276
 4366SOL    HW224732   0.736   2.175  13.791  1.8588 -2.4723  0.2635
 4367SOL     OW24733   2.832   2.391  16.630 -0.3377  0.3019 -0.5594
 4367SOL    HW124734   2.792   2.309  16.658  0.3472 -0.0936 -0.7429
 4367SOL    HW224735   2.895   2.402  16.701 -2.6752  0.4533  1.4670
 4368SOL     OW24736   1.291   2.247   0.307  0.1758 -0.0003 -0.0127
 4368SOL    HW124737   1.251   2.167   0.272 -0.6496  1.0120 -1.3520
 4368SOL    HW224738   1.231   2.261   0.379 -0.5462 -0.2911 -0.5581
 4369SOL     OW24739   0.752   3.461   0.647  0.0385  0.2019 -0.0364
 4369SOL    HW124740   0.776   3.461   0.740  1.9197  2.1568 -0.5207
 4369SOL    HW224741   0.664   3.434   0.671  0.3880  1.6011  2.8316
 4370SOL     OW24742   3.298   2.211  12.306  0.3646 -0.1455  0.0844
 4370SOL    HW124743   3.368   2.275  12.290  0.6539 -0.5527 -0.2610
 4370SOL    HW224744   3.256   2.207  12.221 -0.0775 -0.3429  0.3157
 4371SOL     OW24745   2.100   4.322   0.059  0.8930 -0.1890 -0.1621
 4371SOL    HW124746   2.052   4.400   0.087  1.6252  0.1615  0.1251
 4371SOL    HW224747   2.032   4.310  17.745 -0.1005  0.0015  0.8279
 4372SOL     OW24748   1.877   1.498  17.046 -0.3964 -0.3845  0.6215
 4372SOL    HW124749   1.895   1.574  17.102 -2.0019  1.6303 -1.5644
 4372SOL    HW224750   1.824   1.539  16.978 -2.2692  2.1759  3.5902
 4373SOL     OW24751   0.606   4.682  13.916 -0.0017  0.0182  0.0814
 4373SOL    HW124752   0.534   4.683  13.980 -0.1962  2.1375 -0.1708
 4373SOL    HW224753   0.553   4.698  13.838 -0.6028 -0.1123  0.4585
 4374SOL     OW24754   2.689   1.258   3.749 -0.0111 -0.6652 -0.0156
 4374SOL    HW124755   2.758   1.297   3.696  0.9171 -1.8420  0.3437
 4374SOL    HW224756   2.701   1.302   3.832  1.2111 -1.3053  0.1495
 4375SOL     OW24757   3.014   0.883   7.523  0.1009  0.5904  0.3794
 4375SOL    HW124758   3.022   0.814   7.590 -0.1248  1.6330  1.4788
 4375SOL    HW224759   3.000   0.836   7.441 -0.2368  0.2570  0.6246
 4376SOL     OW24760   2.529   1.304   9.711  0.8416 -0.3454  0.8562
 4376SOL    HW124761   2.578   1.287   9.630 -0.8911  0.0016 -0.2751
 4376SOL    HW224762   2.445   1.278   9.673  0.5412  1.4708  0.2989
 4377SOL     OW24763   2.390   0.915   6.423  0.3990 -0.2908 -0.1333
 4377SOL    HW124764   2.428   0.828   6.418 -1.8250 -1.2349 -0.4452
 4377SOL    HW224765   2.336   0.914   6.343 -1.1855  0.1017  0.9243
 4378SOL     OW24766   1.117   1.244   4.088 -0.0671 -0.3315  0.1733
 4378SOL    HW124767   1.195   1.256   4.142 -0.5697  0.8485  0.6289
 4378SOL    HW224768   1.106   1.151   4.067  0.1744  0.2077 -2.2384
 4379SOL     OW24769   3.585   2.270   5.305 -0.4994  0.0680  0.2620
 4379SOL    HW124770   3.679   2.277   5.291 -0.2584 -0.2127  1.7338
 4379SOL    HW224771   3.562   2.278   5.213  0.4528 -0.6287 -0.0337
 4380SOL     OW24772   2.029   3.324  17.148 -0.3799  0.0462 -0.0480
 4380SOL    HW124773   2.042   3.230  17.160  0.8505  0.7217  3.8382
 4380SOL    HW224774   2.088   3.341  17.075 -1.6281  0.6232 -0.9275
 4381SOL     OW24775   4.080   2.847  13.040 -0.2926 -0.0271  0.1081
 4381SOL    HW124776   4.091   2.922  12.981  3.7585  0.7292  1.8058
 4381SOL    HW224777   4.158   2.868  13.092 -2.4098  2.4654  2.2528
 4382SOL     OW24778   0.265   0.430   5.121  0.4414 -0.3167  0.1392
 4382SOL    HW124779   0.352   0.391   5.127 -0.4242 -2.2682  0.3768
 4382SOL    HW224780   0.282   0.499   5.057 -1.1618  1.0194  1.1573
 4383SOL     OW24781   4.102   4.256  11.437 -0.0560  0.0087  0.3571
 4383SOL    HW124782   4.077   4.254  11.345 -1.5468  1.2680  0.7375
 4383SOL    HW224783   4.190   4.221  11.421 -0.7652 -1.4898 -0.2721
 4384SOL     OW24784   3.612   1.240   4.572 -0.2821 -0.0416 -0.6845
 4384SOL    HW124785   3.666   1.188   4.631 -0.6076 -1.0308 -1.2676
 4384SOL    HW224786   3.562   1.297   4.630 -2.4623 -0.6786 -1.9210
 4385SOL     OW24787   2.384   1.120   8.798 -0.2902  0.3032 -0.0124
 4385SOL    HW124788   2.410   1.046   8.853 -0.5761 -0.7346 -1.2753
 4385SOL    HW224789   2.400   1.087   8.709 -0.3431  0.9872 -0.2742
 4386SOL     OW24790   4.421   0.236   2.120 -0.2019  0.2036 -0.3844
 4386SOL    HW124791   4.350   0.182   2.088  0.3623 -1.1425  0.6434
 4386SOL    HW224792   4.452   0.177   2.189 -0.3276  1.0400  0.3863
 4387SOL     OW24793   3.862   0.756  17.375  0.4500 -0.2563 -0.0908
 4387SOL    HW124794   3.950   0.736  17.344 -1.2181 -2.8823 -3.0818
 4387SOL    HW224795   3.845   0.849  17.361 -0.5229 -0.0258  2.5129
 4388SOL     OW24796   3.358   2.211   4.849  0.9368  0.1960  0.2295
 4388SOL    HW124797   3.284   2.271   4.858  1.2053  0.6134 -0.4043
 4388SOL    HW224798   3.426   2.269   4.882 -0.3555  2.2151 -0.6221
 4389SOL     OW24799   3.050   2.247   7.463 -0.3632  0.0274 -0.3880
 4389SOL    HW124800   3.138   2.280   7.441  0.0967  0.1808  1.6497
 4389SOL    HW224801   3.040   2.175   7.402  2.0803 -0.5765 -0.1071
 4390SOL     OW24802   3.074   2.860   8.249  0.2240  0.3919  0.1915
 4390SOL    HW124803   3.091   2.951   8.225  1.5197 -0.1553 -0.9479
 4390SOL    HW224804   3.056   2.828   8.161  0.4312 -1.4160  0.8111
 4391SOL     OW24805   0.923   0.445   2.335  0.1253 -0.5740  0.0671
 4391SOL    HW124806   0.840   0.407   2.306 -0.9167  1.8302 -0.0911
 4391SOL    HW224807   0.903   0.535   2.308 -2.9353 -0.6570  2.1241
 4392SOL     OW24808   1.483   0.564   2.363 -0.1538 -0.0116 -0.3203
 4392SOL    HW124809   1.575   0.551   2.387 -0.7582 -0.4468  1.7845
 4392SOL    HW224810   1.487   0.567   2.268 -3.1458 -1.0263 -0.4581
 4393SOL     OW24811   3.378   2.465   6.684  0.4752  0.0506  0.2071
 4393SOL    HW124812   3.320   2.531   6.722 -1.7975 -2.0437  0.3527
 4393SOL    HW224813   3.390   2.497   6.595  0.8626  0.2208  0.3206
 4394SOL     OW24814   1.372   3.710   0.754  0.0149 -0.7824 -0.0147
 4394SOL    HW124815   1.417   3.776   0.805 -1.3644  0.2864 -0.1639
 4394SOL    HW224816   1.349   3.766   0.680  1.0771 -1.5868 -0.9480
 4395SOL     OW24817   1.073   4.439  11.087  0.5846  0.1598 -0.3091
 4395SOL    HW124818   1.118   4.408  11.008  0.2167 -2.7676  0.6410
 4395SOL    HW224819   1.008   4.500  11.054  1.1161  0.2532 -1.2003
 4396SOL     OW24820   1.712   1.524  14.835  0.4987  0.5110 -0.2890
 4396SOL    HW124821   1.666   1.497  14.756  0.2243 -0.0371  0.0614
 4396SOL    HW224822   1.794   1.474  14.824  0.7331  0.3887  2.0241
 4397SOL     OW24823   3.869   0.761   7.191 -0.5275  0.2554  0.5304
 4397SOL    HW124824   3.851   0.685   7.137  0.4383  0.2542  0.2161
 4397SOL    HW224825   3.892   0.817   7.116 -0.3000  0.3719  0.6886
 4398SOL     OW24826   4.520   4.285   2.873  0.2684 -0.1888  0.1495
 4398SOL    HW124827   4.582   4.281   2.946  1.1329  2.6001 -0.4271
 4398SOL    HW224828   4.549   4.222   2.807  1.6817  0.4906  0.1004
 4399SOL     OW24829   0.915   4.261   7.454 -0.3779  0.0636  0.3601
 4399SOL    HW124830   0.844   4.197   7.463 -0.6377  0.0607 -1.7117
 4399SOL    HW224831   0.991   4.209   7.428 -0.3127  0.0178  0.6421
 4400SOL     OW24832   1.384   3.630  10.797 -0.7910  0.0426 -0.4858
 4400SOL    HW124833   1.423   3.708  10.836  0.9811 -2.2227  2.2685
 4400SOL    HW224834   1.294   3.636  10.830  0.2609 -0.9485  2.5349
 4401SOL     OW24835   1.617   3.556   8.654 -0.1559 -0.0755 -0.0674
 4401SOL    HW124836   1.564   3.596   8.723 -0.8849  0.8506 -1.1620
 4401SOL    HW224837   1.555   3.533   8.585 -0.0160 -1.8586  0.4067
 4402SOL     OW24838   4.424   1.523   7.432 -0.0398 -0.2576  0.3363
 4402SOL    HW124839   4.349   1.470   7.409 -0.4037 -0.1552  1.2726
 4402SOL    HW224840   4.452   1.472   7.508 -0.7951 -1.3885 -0.1522
 4403SOL     OW24841   3.713   3.916   1.484  0.1568  0.1986 -0.7835
 4403SOL    HW124842   3.653   3.953   1.549  0.4503 -1.3309  0.3722
 4403SOL    HW224843   3.779   3.881   1.544 -1.1456 -0.9052  0.0214
 4404SOL     OW24844   1.555   3.141  11.488  0.7942 -0.2091  0.3079
 4404SOL    HW124845   1.627   3.109  11.434  1.1740 -3.7795  2.8985
 4404SOL    HW224846   1.570   3.093  11.570  2.3643 -0.5379 -0.1759
 4405SOL     OW24847   0.473   2.252   9.241  0.3473  1.1071 -0.4400
 4405SOL    HW124848   0.459   2.317   9.311 -0.1891  1.8437 -1.2225
 4405SOL    HW224849   0.524   2.297   9.174 -0.1071  1.8653 -0.2783
 4406SOL     OW24850   3.643   4.160  12.294  0.2331  0.7831  0.4156
 4406SOL    HW124851   3.597   4.113  12.224  1.0941 -0.1047  0.4518
 4406SOL    HW224852   3.582   4.227  12.327  3.0411  3.0899  0.8621
 4407SOL     OW24853   2.300   1.434  14.709 -0.5674  0.0577 -0.3463
 4407SOL    HW124854   2.325   1.444  14.617  1.0223  1.7164  0.2700
 4407SOL    HW224855   2.229   1.370  14.712 -0.4003 -0.1889 -1.6042
 4408SOL     OW24856   1.215   0.236  15.360 -0.3880  0.6802  0.1059
 4408SOL    HW124857   1.233   0.195  15.444 -0.2134  0.7641  0.1096
 4408SOL    HW224858   1.125   0.267  15.374 -0.1632  1.1280  0.5547
 4409SOL     OW24859   4.099   4.088   3.452 -0.2978 -0.0597  0.0908
 4409SOL    HW124860   4.018   4.080   3.402  1.3004 -0.8572 -2.3560
 4409SOL    HW224861   4.144   4.008   3.426 -0.6745 -0.8420  1.8616
 4410SOL     OW24862   1.509   2.965   1.223  0.3537 -0.4727  0.2964
 4410SOL    HW124863   1.512   3.058   1.248 -0.9204 -0.4130  0.2396
 4410SOL    HW224864   1.604   2.964   1.212  0.2955 -0.7939 -0.1609
 4411SOL     OW24865   1.123   2.641   0.491 -0.3820 -0.5500  0.4062
 4411SOL    HW124866   1.041   2.650   0.442  2.2108  1.0742 -3.6478
 4411SOL    HW224867   1.183   2.690   0.434 -1.7307 -0.0135 -0.5688
 4412SOL     OW24868   4.525   0.563  10.090  0.7806 -0.6022 -0.1801
 4412SOL    HW124869   4.473   0.495  10.133  0.2809 -1.1183 -1.6083
 4412SOL    HW224870   4.594   0.583  10.154  0.7843  3.1482 -1.3644
 4413SOL     OW24871   4.542   2.429   0.739  0.1702 -0.1799 -0.5660
 4413SOL    HW124872   4.599   2.390   0.672  1.9133 -0.2347  0.9618
 4413SOL    HW224873   4.555   2.367   0.810  0.7309 -1.2335 -1.5710
 4414SOL     OW24874   3.474   0.911   7.194  0.7542 -0.2172  0.6519
 4414SOL    HW124875   3.460   0.874   7.107  0.1616  0.2092  0.5611
 4414SOL    HW224876   3.387   0.912   7.235  0.2210 -1.4111 -0.4575
 4415SOL     OW24877   1.333   0.212   7.114 -0.2488  0.0679 -0.4378
 4415SOL    HW124878   1.333   0.119   7.136  1.3465  0.1178 -0.1941
 4415SOL    HW224879   1.414   0.220   7.064  0.2446  0.2220  0.3988
 4416SOL     OW24880   4.046   2.189   5.407 -0.4218 -0.0646  0.3666
 4416SOL    HW124881   3.986   2.115   5.401  2.6512 -2.4200 -1.3462
 4416SOL    HW224882   4.037   2.239   5.326  0.4422  0.0573  0.3525
 4417SOL     OW24883   2.630   3.181   2.555 -0.2837 -0.0766  0.3550
 4417SOL    HW124884   2.606   3.119   2.624  1.1727 -0.3410  0.6389
 4417SOL    HW224885   2.660   3.253   2.611  0.6681 -0.4058  0.2824
 4418SOL     OW24886   2.721   3.941   7.896  0.2094 -0.3708 -0.0842
 4418SOL    HW124887   2.646   3.970   7.948  0.7754 -0.2229  0.6537
 4418SOL    HW224888   2.781   4.015   7.906  0.5091 -0.8417  1.6618
 4419SOL     OW24889   1.112   3.973   7.164 -0.3942 -0.7875 -0.1108
 4419SOL    HW124890   1.146   3.928   7.241 -0.7116  0.9252  1.0205
 4419SOL    HW224891   1.028   4.005   7.196 -0.0968 -1.0741  0.9544
 4420SOL     OW24892   1.940   0.408   4.513 -0.6374 -0.9262  0.0923
 4420SOL    HW124893   1.894   0.422   4.430  0.2212  0.3667 -0.1682
 4420SOL    HW224894   1.999   0.340   4.483 -1.6462 -1.5235 -0.5707
 4421SOL     OW24895   1.804   2.396   4.844  0.2123 -0.3807 -0.0914
 4421SOL    HW124896   1.832   2.476   4.889 -1.1305  0.0046  0.0803
 4421SOL    HW224897   1.878   2.337   4.854 -0.5041 -1.5241 -1.5261
 4422SOL     OW24898   0.227   4.072   7.414 -0.0094 -0.2917  0.4195
 4422SOL    HW124899   0.209   4.062   7.320 -0.2337 -0.8603  0.5195
 4422SOL    HW224900   0.319   4.096   7.412 -0.0527 -0.2712 -1.7374
 4423SOL     OW24901   4.665   0.973   8.165 -0.1127  0.4107 -0.3549
 4423SOL    HW124902   4.600   0.905   8.148  1.0552 -0.6834 -0.4446
 4423SOL    HW224903   4.651   1.030   8.090  1.1654 -1.1014 -1.7300
 4424SOL     OW24904   2.662   1.020   2.345  0.0497 -0.2379 -0.2608
 4424SOL    HW124905   2.610   1.099   2.361  0.2764 -0.4107  1.3258
 4424SOL    HW224906   2.663   1.031   2.250  1.3701 -0.2607 -0.2444
 4425SOL     OW24907   1.639   2.053   3.427  0.0231 -0.0525  0.5010
 4425SOL    HW124908   1.626   2.119   3.495  0.1092  0.1440  0.3288
 4425SOL    HW224909   1.724   2.070   3.386 -0.3996 -0.3741 -0.5234
 4426SOL     OW24910   2.863   4.181   1.545  0.3959  0.3571  0.2064
 4426SOL    HW124911   2.866   4.112   1.611  0.8889  0.7931  0.6404
 4426SOL    HW224912   2.772   4.178   1.516 -0.0109  1.2614  1.4145
 4427SOL     OW24913   2.570   3.483  14.728 -0.1165 -0.3341  0.1514
 4427SOL    HW124914   2.638   3.540  14.692 -0.5555  1.3759  1.9827
 4427SOL    HW224915   2.602   3.483  14.818 -1.0121 -2.3304  0.4554
 4428SOL     OW24916   1.892   3.165  14.998 -0.6386  0.2941  0.2197
 4428SOL    HW124917   1.826   3.229  14.970 -0.3454  1.8097  2.9856
 4428SOL    HW224918   1.842   3.104  15.053 -0.7990  1.0778  0.9396
 4429SOL     OW24919   4.547   3.302   1.334  0.3488 -0.0250 -0.5056
 4429SOL    HW124920   4.634   3.262   1.330  0.7422  0.7471  0.4281
 4429SOL    HW224921   4.509   3.242   1.397 -3.0863 -0.0326 -2.5602
 4430SOL     OW24922   4.388   3.216   2.033 -0.2926 -0.1035 -0.1186
 4430SOL    HW124923   4.388   3.187   1.942 -0.3350 -0.3765 -0.0325
 4430SOL    HW224924   4.453   3.287   2.031  3.9987 -3.9364  1.2845
 4431SOL     OW24925   1.142   2.755   7.991  0.4463 -0.0181  0.0918
 4431SOL    HW124926   1.226   2.799   7.983  2.0046 -3.0997 -0.4218
 4431SOL    HW224927   1.095   2.808   8.056  0.9216  1.2350 -0.5966
 4432SOL     OW24928   0.416   2.430  12.948  0.5613 -0.4601 -0.2370
 4432SOL    HW124929   0.445   2.345  12.915  4.0600  0.5222  0.3211
 4432SOL    HW224930   0.491   2.454  13.002 -1.8873 -0.3974  3.1608
 4433SOL     OW24931   1.081   1.393  14.807  0.4933 -0.4499 -0.2849
 4433SOL    HW124932   1.134   1.449  14.750 -0.0779  1.1266  0.7069
 4433SOL    HW224933   1.148   1.356  14.865 -0.6392  2.5614  2.9777
 4434SOL     OW24934   0.613   1.200   4.445  1.0501  0.4591  0.2962
 4434SOL    HW124935   0.580   1.114   4.417  2.4882  0.0177 -0.0440
 4434SOL    HW224936   0.547   1.209   4.514  0.3262 -1.8085 -0.0979
 4435SOL     OW24937   0.929   3.090  13.609  0.7703  0.0777  0.3133
 4435SOL    HW124938   0.852   3.043  13.578 -0.3735  2.7044 -0.7798
 4435SOL    HW224939   0.998   3.081  13.543  0.6114 -2.5587  0.4856
 4436SOL     OW24940   1.177   0.113   8.705 -0.2007  0.4479  0.0769
 4436SOL    HW124941   1.104   0.160   8.745  1.7912  1.8255  2.0520
 4436SOL    HW224942   1.138   0.037   8.662  1.0857 -0.8832  1.2576
 4437SOL     OW24943   0.323   1.345   2.193  0.1609  0.5054 -0.1179
 4437SOL    HW124944   0.393   1.324   2.131  0.1896  2.1412 -0.6545
 4437SOL    HW224945   0.375   1.352   2.273 -0.1471 -2.7995  0.3554
 4438SOL     OW24946   2.543   4.084   8.094  0.5000  0.0585  0.0721
 4438SOL    HW124947   2.576   4.024   8.161 -1.4113 -1.6820 -0.5601
 4438SOL    HW224948   2.551   4.169   8.137  0.9604  1.7984 -3.4395
 4439SOL     OW24949   4.395   4.606  12.687  0.0911 -0.1645  0.6018
 4439SOL    HW124950   4.345   4.618  12.607  0.0647 -1.6308  0.4107
 4439SOL    HW224951   4.331   4.606  12.758 -0.8646 -0.6746 -0.2727
 4440SOL     OW24952   3.014   2.601   2.716 -0.3034 -0.3301 -0.2325
 4440SOL    HW124953   3.066   2.531   2.755 -1.2585 -0.2299  1.2587
 4440SOL    HW224954   2.941   2.555   2.675  0.5488 -2.0156  0.1564
 4441SOL     OW24955   3.148   1.795   4.856  0.4999  0.2977  0.4737
 4441SOL    HW124956   3.063   1.757   4.836  1.4501 -0.9139 -1.2002
 4441SOL    HW224957   3.143   1.878   4.808 -0.4085  0.1099  0.2367
 4442SOL     OW24958   0.625   1.218   8.120  0.9753  0.8085  0.5918
 4442SOL    HW124959   0.585   1.145   8.167  1.4533 -0.8437 -1.5817
 4442SOL    HW224960   0.574   1.232   8.040 -2.5392 -2.9037  2.2089
 4443SOL     OW24961   2.775   4.227  15.086 -0.2828 -0.0027  0.5985
 4443SOL    HW124962   2.687   4.189  15.090 -0.6133  0.2870 -3.3690
 4443SOL    HW224963   2.752   4.318  15.069  1.3668  0.2540 -0.2668
 4444SOL     OW24964   1.540   1.945   1.176 -0.0495  0.1675 -0.2827
 4444SOL    HW124965   1.554   1.858   1.213  0.3583 -0.2355 -1.4053
 4444SOL    HW224966   1.464   1.930   1.120  0.4615 -0.1104 -0.9047
 4445SOL     OW24967   2.708   1.742   6.346 -0.2368 -0.4047 -0.2425
 4445SOL    HW124968   2.630   1.737   6.291  1.7207  0.9520 -3.1432
 4445SOL    HW224969   2.673   1.809   6.405 -0.5424 -1.0300  0.2919
 4446SOL     OW24970   1.170   4.496  14.317  0.0730  0.1524  0.6549
 4446SOL    HW124971   1.101   4.489  14.383  0.3435  0.2693  0.9484
 4446SOL    HW224972   1.121   4.529  14.242 -1.5805  0.4164  1.8650
 4447SOL     OW24973   0.635   3.363   5.106 -0.0250 -0.0155 -0.4038
 4447SOL    HW124974   0.686   3.440   5.132  1.5887 -0.7463 -1.4307
 4447SOL    HW224975   0.677   3.288   5.149  2.0940  0.0634 -2.3537
 4448SOL     OW24976   0.193   0.051   3.917  0.4764 -0.2357  0.6918
 4448SOL    HW124977   0.212   0.010   3.833 -1.3121  3.4292 -1.4963
 4448SOL    HW224978   0.098   0.058   3.924  0.2059 -2.9401 -0.3037
 4449SOL     OW24979   0.676   3.980   3.833  0.4015  0.1165  0.2754
 4449SOL    HW124980   0.768   3.985   3.860  0.1144  0.6780  1.1336
 4449SOL    HW224981   0.660   3.886   3.831 -1.2923  0.4307 -0.9772
 4450SOL     OW24982   1.053   0.215   3.265 -0.1568  0.4113  0.5501
 4450SOL    HW124983   1.047   0.165   3.184 -2.0185 -1.9770  2.1861
 4450SOL    HW224984   0.971   0.183   3.302  0.2895 -2.3375 -0.8253
 4451SOL     OW24985   3.350   0.291   8.348 -0.1536  0.0307  0.1985
 4451SOL    HW124986   3.291   0.312   8.420  0.8061  0.0801  0.9651
 4451SOL    HW224987   3.389   0.208   8.373  0.7518  0.1939 -0.7070
 4452SOL     OW24988   0.726   4.349   6.708  0.1508 -0.5946 -0.1383
 4452SOL    HW124989   0.725   4.297   6.628 -1.4697 -0.6691 -0.0746
 4452SOL    HW224990   0.713   4.269   6.758 -0.5491 -0.2515  0.2279
 4453SOL     OW24991   4.504   4.487  13.423  0.3898 -0.1919  0.4478
 4453SOL    HW124992   4.487   4.537  13.503  0.2328 -0.9876  0.9095
 4453SOL    HW224993   4.451   4.407  13.424 -0.2917  0.2486 -1.1179
 4454SOL     OW24994   1.480   3.768   3.331 -0.6505  0.0369  0.6648
 4454SOL    HW124995   1.414   3.779   3.263  0.7041  2.3046 -0.2999
 4454SOL    HW224996   1.524   3.687   3.307  0.8944  1.4032 -1.1346
 4455SOL     OW24997   2.286   3.489   3.312  0.4719  0.0499 -0.0169
 4455SOL    HW124998   2.375   3.505   3.344  0.0578  1.3450  0.4535
 4455SOL    HW224999   2.304   3.430   3.238 -0.2484 -1.1828  0.8059
 4456SOL     OW25000   3.830   1.692   6.148  0.2366 -0.0644 -0.6540
 4456SOL    HW125001   3.884   1.692   6.068  0.5602  0.9890 -0.4334
 4456SOL    HW225002   3.749   1.738   6.124 -0.1221 -0.4734 -0.2177
 4457SOL     OW25003   0.753   4.569  17.575  0.3759  0.2738 -0.3235
 4457SOL    HW125004   0.725   4.642  17.631  0.9890 -0.8231  1.4377
 4457SOL    HW225005   0.837   4.604  17.547  0.8789  0.3981  1.3503
 4458SOL     OW25006   0.834   1.109   0.638  0.1228  0.6286 -0.0800
 4458SOL    HW125007   0.919   1.138   0.604  1.0275 -0.7945  0.9747
 4458SOL    HW225008   0.811   1.184   0.692  1.5815 -1.5971  3.6533
 4459SOL     OW25009   1.137   4.252   7.145 -0.4404 -0.0956 -0.3754
 4459SOL    HW125010   1.232   4.257   7.143 -0.3419 -1.7616  0.0948
 4459SOL    HW225011   1.136   4.163   7.110  2.4151 -0.0989 -0.4448
 4460SOL     OW25012   1.662   3.827   7.133  0.4846 -0.2627  0.5549
 4460SOL    HW125013   1.736   3.836   7.073 -0.7886  2.1121 -0.6904
 4460SOL    HW225014   1.631   3.918   7.142  1.5349  0.0928  0.5889
 4461SOL     OW25015   4.363   1.135   7.352 -0.9505  0.0766 -0.1110
 4461SOL    HW125016   4.315   1.151   7.433  0.5037 -3.1513  1.3722
 4461SOL    HW225017   4.320   1.196   7.293  0.0007 -1.4707 -2.4100
 4462SOL     OW25018   1.720   3.631   9.024  0.6863  0.2781 -0.0241
 4462SOL    HW125019   1.696   3.676   9.106  0.4487 -0.7606  0.4801
 4462SOL    HW225020   1.635   3.601   8.993 -0.1461  2.2435  0.3440
 4463SOL     OW25021   3.276   4.180   6.706 -0.2714  0.2929 -0.6149
 4463SOL    HW125022   3.323   4.208   6.784  0.5563  1.2789 -1.4647
 4463SOL    HW225023   3.352   4.165   6.650 -1.7838 -2.8107 -1.8359
 4464SOL     OW25024   2.302   3.319  17.271  0.4093 -0.3880  0.1234
 4464SOL    HW125025   2.363   3.252  17.239  0.7953  0.4338 -0.8683
 4464SOL    HW225026   2.269   3.354  17.188  2.0375 -0.3242 -0.5150
 4465SOL     OW25027   1.454   3.353   0.192  0.3439 -0.4082  0.0794
 4465SOL    HW125028   1.411   3.285   0.140  1.4010  1.2399 -2.9377
 4465SOL    HW225029   1.422   3.339   0.282 -0.8398  1.2631 -0.0652
 4466SOL     OW25030   4.276   4.663  12.421  0.2946  0.0936 -0.1272
 4466SOL    HW125031   4.186   4.630  12.414 -0.5109  2.4180 -0.7444
 4466SOL    HW225032   4.332   4.593  12.387  0.8554  0.4043  0.1463
 4467SOL     OW25033   4.414   2.983   9.405 -0.2016 -0.2775  0.1820
 4467SOL    HW125034   4.461   2.900   9.401 -0.2774 -0.2652 -1.3109
 4467SOL    HW225035   4.417   3.000   9.499 -0.1592  1.6609 -0.1732
 4468SOL     OW25036   0.439   4.312   7.101 -0.5324 -0.3541  0.6383
 4468SOL    HW125037   0.474   4.386   7.051  2.1182 -0.5538  2.1870
 4468SOL    HW225038   0.356   4.301   7.054 -0.2026  1.4397 -0.3473
 4469SOL     OW25039   3.934   4.114  11.683  0.5573 -0.3890 -0.8123
 4469SOL    HW125040   3.973   4.201  11.681 -1.0340  0.4051  3.2714
 4469SOL    HW225041   3.842   4.138  11.687  0.0150 -2.3725 -1.2711
 4470SOL     OW25042   3.205   1.454   3.373  0.5695 -0.2438  0.2635
 4470SOL    HW125043   3.266   1.466   3.445  2.6010 -1.6574 -1.2522
 4470SOL    HW225044   3.172   1.543   3.357 -1.4734 -0.7543  1.6388
 4471SOL     OW25045   0.686   3.070   3.382  0.2906  0.5254  0.0374
 4471SOL    HW125046   0.709   3.038   3.295  1.0031 -0.7233  0.6932
 4471SOL    HW225047   0.661   3.162   3.374  1.5427  1.0119  1.8086
 4472SOL     OW25048   1.247   4.461   1.636 -0.3591 -0.5792  0.1043
 4472SOL    HW125049   1.187   4.387   1.647  0.2419 -0.7822  1.8793
 4472SOL    HW225050   1.329   4.429   1.598  0.5302  1.0983  0.6439
 4473SOL     OW25051   1.235   3.969   4.939 -0.0588 -0.0151 -0.1788
 4473SOL    HW125052   1.142   3.962   4.916 -0.5466  1.3023  1.4512
 4473SOL    HW225053   1.230   3.898   5.003 -3.7222  1.6207  1.3044
 4474SOL     OW25054   3.275   0.115  17.302  0.5276 -0.1289  0.1366
 4474SOL    HW125055   3.210   0.072  17.247 -1.0431  0.9954  1.1022
 4474SOL    HW225056   3.262   0.058  17.378  2.0643 -1.0039 -0.2558
 4475SOL     OW25057   0.953   4.182   1.955 -0.1359 -0.0688 -0.3460
 4475SOL    HW125058   0.899   4.241   1.901  1.8370  1.4405 -0.6490
 4475SOL    HW225059   0.964   4.115   1.888 -0.0260  0.3463 -0.7494
 4476SOL     OW25060   3.886   1.054  11.263  0.1537 -0.0887  0.0712
 4476SOL    HW125061   3.911   0.974  11.309 -1.1954 -0.7250 -0.2946
 4476SOL    HW225062   3.932   1.125  11.307 -0.7436  0.5662 -0.0471
 4477SOL     OW25063   2.228   2.947   5.626  0.2539 -0.0440  0.3957
 4477SOL    HW125064   2.302   2.897   5.661 -0.7898 -1.5806  0.3926
 4477SOL    HW225065   2.244   2.929   5.533 -1.8549 -1.3412  0.2900
 4478SOL     OW25066   3.994   3.320   2.264  0.5868 -0.0522  0.4781
 4478SOL    HW125067   3.975   3.376   2.340  0.3296  0.9647 -0.3226
 4478SOL    HW225068   4.082   3.298   2.294  1.4158  2.1175 -0.3590
 4479SOL     OW25069   4.658   4.286   3.585  0.6305  0.1773 -0.6876
 4479SOL    HW125070   0.014   4.301   3.588  0.6681 -0.2229  0.2087
 4479SOL    HW225071   4.634   4.378   3.586  5.2322  1.3479  0.4915
 4480SOL     OW25072   2.905   0.630  15.144  0.1471  0.6216  0.1347
 4480SOL    HW125073   2.817   0.602  15.169 -0.0639 -0.5841 -1.9491
 4480SOL    HW225074   2.936   0.677  15.222 -1.5913 -1.8036  2.3098
 4481SOL     OW25075   2.219   2.487   1.054 -0.1618  0.9572 -0.0894
 4481SOL    HW125076   2.174   2.569   1.071 -2.5484 -0.6006  1.1268
 4481SOL    HW225077   2.147   2.426   1.038  1.5931 -0.9910 -0.5958
 4482SOL     OW25078   3.588   2.250   8.578 -0.0050 -0.3398  0.7961
 4482SOL    HW125079   3.500   2.220   8.556 -0.2905  0.2526  1.1487
 4482SOL    HW225080   3.634   2.171   8.606  2.0845  0.2887 -0.8580
 4483SOL     OW25081   0.214   2.441   5.561 -0.0525  0.1232  0.0626
 4483SOL    HW125082   0.118   2.446   5.568 -0.0152  0.0989  0.5642
 4483SOL    HW225083   0.233   2.349   5.577 -3.0675 -0.7334 -1.3063
 4484SOL     OW25084   3.388   1.915  14.597 -0.3944 -0.0257 -0.1173
 4484SOL    HW125085   3.341   1.967  14.531 -1.4945  2.3164  2.5108
 4484SOL    HW225086   3.370   1.963  14.677  0.2996  2.1963 -1.3132
 4485SOL     OW25087   1.164   3.031   2.650  0.6960 -0.3305 -0.0368
 4485SOL    HW125088   1.197   2.988   2.729  0.6102  0.2062  0.2917
 4485SOL    HW225089   1.101   3.092   2.690  1.6650  1.1462 -0.7825
 4486SOL     OW25090   0.248   3.182  10.917 -0.0084  0.3044 -0.0281
 4486SOL    HW125091   0.281   3.131  10.991 -1.2949 -2.0606 -1.0924
 4486SOL    HW225092   0.169   3.221  10.954  1.2338  0.2465  2.7773
 4487SOL     OW25093   3.689   1.414   0.324  0.1825  0.4138  0.4857
 4487SOL    HW125094   3.601   1.395   0.358  1.0833  0.2711  2.7367
 4487SOL    HW225095   3.723   1.334   0.283  0.3740 -0.1386  1.7206
 4488SOL     OW25096   0.865   4.147   4.762  0.2016 -0.3020 -0.0341
 4488SOL    HW125097   0.896   4.197   4.838 -0.6756 -2.3273  1.6734
 4488SOL    HW225098   0.785   4.107   4.797  0.0383  0.5515  0.5691
 4489SOL     OW25099   3.638   2.420  13.947  0.1294  0.3058  0.3578
 4489SOL    HW125100   3.623   2.483  13.876 -2.4583  0.8187  1.3453
 4489SOL    HW225101   3.564   2.439  14.005  0.0952 -0.2323  0.4949
 4490SOL     OW25102   1.802   4.420   1.792  0.1488 -0.4792  0.1980
 4490SOL    HW125103   1.782   4.403   1.884  0.3678  1.2318  0.5579
 4490SOL    HW225104   1.897   4.434   1.792  0.2242 -0.9728  0.1352
 4491SOL     OW25105   2.959   3.880  10.694  0.3190  0.1920  0.1758
 4491SOL    HW125106   2.992   3.937  10.763  2.1223 -3.3687  2.2232
 4491SOL    HW225107   2.907   3.946  10.648  1.4578  1.0591  0.1319
 4492SOL     OW25108   3.710   2.467   2.365 -0.1646 -0.0606  0.2977
 4492SOL    HW125109   3.741   2.457   2.455  0.0198 -2.3310 -0.0194
 4492SOL    HW225110   3.766   2.399   2.328 -1.5841 -0.5413 -0.9752
 4493SOL     OW25111   1.666   2.893   8.825  0.1152 -0.0118 -0.0409
 4493SOL    HW125112   1.760   2.907   8.835 -0.0973  0.9510  0.6422
 4493SOL    HW225113   1.634   2.818   8.874 -1.2638  1.2035  0.9161
 4494SOL     OW25114   2.896   3.821   3.541 -0.2255 -0.0836 -0.5120
 4494SOL    HW125115   2.860   3.906   3.513 -1.8208 -0.4520  0.4268
 4494SOL    HW225116   2.979   3.843   3.582  1.3604 -3.7011 -1.8291
 4495SOL     OW25117   3.974   4.077   5.107 -0.6864 -0.6504 -0.2306
 4495SOL    HW125118   3.982   3.983   5.090 -1.6862 -0.8922  0.6956
 4495SOL    HW225119   3.931   4.070   5.192 -0.5661  1.3770 -0.0013
 4496SOL     OW25120   2.077   2.203   7.664 -0.6570 -0.3098  0.2888
 4496SOL    HW125121   2.071   2.111   7.688 -1.1444 -0.8758 -1.9765
 4496SOL    HW225122   2.014   2.198   7.591  0.5443  1.6277 -0.8788
 4497SOL     OW25123   2.758   4.243   3.827  0.3827 -0.5676 -0.1316
 4497SOL    HW125124   2.685   4.304   3.837  1.4211  0.1894  2.5692
 4497SOL    HW225125   2.756   4.189   3.906 -1.2813  0.1663  0.3225
 4498SOL     OW25126   0.857   0.714   6.192  0.6199 -0.2412 -0.4077
 4498SOL    HW125127   0.907   0.760   6.124  0.5559 -1.5930 -1.3845
 4498SOL    HW225128   0.815   0.790   6.231  2.4557  0.3445  0.4560
 4499SOL     OW25129   1.931   4.028   6.644  0.1080  0.1912 -0.0543
 4499SOL    HW125130   1.876   4.064   6.574  0.5591  1.0288  0.0325
 4499SOL    HW225131   1.953   3.940   6.613 -3.0771 -0.8587  0.6416
 4500SOL     OW25132   0.740   3.894  11.906 -0.0917 -1.0385  0.6261
 4500SOL    HW125133   0.686   3.818  11.928  0.5183 -1.8375 -0.6321
 4500SOL    HW225134   0.825   3.874  11.945  0.4758 -1.3036 -0.7510
 4501SOL     OW25135   3.693   2.608  13.742  0.1117 -0.1708 -0.3247
 4501SOL    HW125136   3.628   2.636  13.678 -1.1518  1.6751  1.7609
 4501SOL    HW225137   3.764   2.672  13.743  1.7745 -1.9823 -0.2103
 4502SOL     OW25138   0.425   0.833  11.332  0.2747  0.3695 -0.1270
 4502SOL    HW125139   0.341   0.835  11.378 -0.3407 -1.2386 -1.1975
 4502SOL    HW225140   0.482   0.887  11.386 -0.6525  0.3903  0.8144
 4503SOL     OW25141   2.424   4.311  13.205  0.2389 -0.5037 -0.2197
 4503SOL    HW125142   2.519   4.307  13.209  0.3998  3.5963  0.4261
 4503SOL    HW225143   2.409   4.240  13.142  3.1499 -1.9433  0.7207
 4504SOL     OW25144   1.219   4.678   7.163 -0.7496  0.0567  0.0443
 4504SOL    HW125145   1.134   4.637   7.148 -1.0880  0.8778 -0.3170
 4504SOL    HW225146   1.274   4.619   7.111 -2.5417 -1.3562 -0.2464
 4505SOL     OW25147   1.976   1.460   6.690  0.3054  0.0124  0.0237
 4505SOL    HW125148   1.880   1.458   6.698  0.4869 -1.4495  1.8333
 4505SOL    HW225149   1.991   1.550   6.660  0.4668  0.2851  0.9298
 4506SOL     OW25150   2.162   2.552  16.073  0.5382  0.6774 -0.2187
 4506SOL    HW125151   2.141   2.461  16.094 -0.6947  0.9275 -0.3641
 4506SOL    HW225152   2.076   2.593  16.074  0.3302  0.2128  0.3933
 4507SOL     OW25153   1.183   2.427   4.250 -0.1035  0.2287 -0.5987
 4507SOL    HW125154   1.174   2.378   4.332 -0.1953  0.1787 -0.6383
 4507SOL    HW225155   1.249   2.495   4.265  0.8822 -1.2801  2.0642
 4508SOL     OW25156   3.071   2.174   8.494  0.2807 -0.2447 -0.1319
 4508SOL    HW125157   3.006   2.115   8.455 -1.0537  1.6756 -0.8188
 4508SOL    HW225158   3.043   2.256   8.453  2.1119  0.1119 -0.6739
 4509SOL     OW25159   2.961   3.378  16.868 -0.0747 -0.0606 -0.3841
 4509SOL    HW125160   2.946   3.345  16.779 -1.6855 -0.7860  0.1625
 4509SOL    HW225161   2.937   3.298  16.915  0.8478 -1.1188 -1.6696
 4510SOL     OW25162   4.725   2.690  11.732  0.3671  0.2049  0.2904
 4510SOL    HW125163   0.018   2.751  11.799  1.8292  1.9192 -1.9428
 4510SOL    HW225164   0.074   2.657  11.714 -1.1957 -2.7473 -1.8445
 4511SOL     OW25165   3.550   2.676  12.867 -0.5220  0.0251 -0.3676
 4511SOL    HW125166   3.600   2.757  12.882  1.1875 -1.2127  0.4963
 4511SOL    HW225167   3.614   2.629  12.816 -1.4057 -2.9710  1.3069
 4512SOL     OW25168   3.883   3.757   6.404  0.4978  0.0977  0.1463
 4512SOL    HW125169   3.959   3.763   6.461 -0.4516  1.2690  1.2967
 4512SOL    HW225170   3.909   3.789   6.318 -2.5173  0.0370 -0.7982
 4513SOL     OW25171   1.171   2.329   3.101 -0.1848  0.6380 -0.2535
 4513SOL    HW125172   1.239   2.390   3.072  0.7073 -0.7777 -1.1364
 4513SOL    HW225173   1.156   2.275   3.024 -0.8302 -0.5889  0.7370
 4514SOL     OW25174   2.327   2.352   7.034  0.1572  0.3364  0.2916
 4514SOL    HW125175   2.285   2.403   7.104  2.1578  1.4890  0.6636
 4514SOL    HW225176   2.393   2.413   7.002  0.0932  0.1150 -0.2598
 4515SOL     OW25177   2.519   2.334   2.162 -0.0329 -0.2939  0.0662
 4515SOL    HW125178   2.497   2.242   2.175 -0.7094 -0.2446 -0.6962
 4515SOL    HW225179   2.590   2.332   2.225  0.5511  0.2091 -0.5733
 4516SOL     OW25180   2.809   1.912   5.251 -0.0184  0.8622  0.4057
 4516SOL    HW125181   2.733   1.881   5.300 -1.7060 -0.2142 -2.8808
 4516SOL    HW225182   2.789   2.005   5.264 -0.2342  1.1980 -2.3209
 4517SOL     OW25183   2.557   1.627  17.198 -0.3587 -0.2842 -0.3225
 4517SOL    HW125184   2.603   1.639  17.115  1.9649 -0.3251  0.9546
 4517SOL    HW225185   2.476   1.587  17.166  0.3654 -1.0620 -1.1678
 4518SOL     OW25186   4.556   2.786  14.224  0.1719 -0.3465  0.1739
 4518SOL    HW125187   4.497   2.809  14.152 -2.0351  0.3936  2.2222
 4518SOL    HW225188   4.640   2.779  14.180  0.2984  0.0213  0.3623
 4519SOL     OW25189   1.918   1.066  12.990 -0.3070  0.3892 -0.4662
 4519SOL    HW125190   1.977   1.050  13.063 -1.5434 -1.6421  0.1032
 4519SOL    HW225191   1.846   1.014  13.025 -1.0386  1.5415 -0.2627
 4520SOL     OW25192   4.479   0.123   4.813  0.1293 -0.0288  0.0547
 4520SOL    HW125193   4.399   0.130   4.762  0.5367  2.3842 -0.2317
 4520SOL    HW225194   4.545   0.168   4.760  1.0075  0.1827  1.3265
 4521SOL     OW25195   1.446   1.319   1.153 -0.2687 -0.1090 -0.1655
 4521SOL    HW125196   1.481   1.235   1.123  1.6498  0.4885  0.4238
 4521SOL    HW225197   1.360   1.288   1.181 -0.1880 -0.6258 -0.4923
 4522SOL     OW25198   0.516   4.249   2.980 -0.3056 -0.0218 -0.1447
 4522SOL    HW125199   0.504   4.266   3.073  4.5343 -0.0712  0.4650
 4522SOL    HW225200   0.473   4.328   2.946 -1.5832 -0.2558  0.9324
 4523SOL     OW25201   1.720   1.099   8.664  0.4178  0.6116 -0.4833
 4523SOL    HW125202   1.628   1.072   8.654  0.2346  1.5487 -1.2878
 4523SOL    HW225203   1.770   1.035   8.613  3.1404  2.0066  0.4659
 4524SOL     OW25204   2.347   1.821   3.682 -0.6343  0.3104 -0.1446
 4524SOL    HW125205   2.275   1.833   3.745  0.4359  2.5376  0.6462
 4524SOL    HW225206   2.415   1.789   3.742 -0.9918 -0.2807 -0.0483
 4525SOL     OW25207   1.326   0.489   3.523  0.1394  0.2629  0.0507
 4525SOL    HW125208   1.247   0.435   3.518  0.9842 -0.8217 -1.5198
 4525SOL    HW225209   1.310   0.555   3.455 -1.7100 -0.0899  0.1543
 4526SOL     OW25210   3.079   0.338   3.144  0.2754  1.1302 -0.3815
 4526SOL    HW125211   3.104   0.373   3.229 -1.9902 -0.4863  0.9346
 4526SOL    HW225212   3.109   0.247   3.145 -1.3335  0.6176  0.9965
 4527SOL     OW25213   4.282   3.468   0.796 -0.2840 -0.0368 -0.0659
 4527SOL    HW125214   4.242   3.553   0.812 -0.2410 -0.2553  1.2188
 4527SOL    HW225215   4.204   3.413   0.800 -0.1219 -0.2468  0.2402
 4528SOL     OW25216   0.381   3.798  14.670  0.3367  0.0300 -0.0781
 4528SOL    HW125217   0.382   3.776  14.763  0.7529  0.6330  0.0598
 4528SOL    HW225218   0.288   3.780  14.656 -0.1692  2.1426  0.5688
 4529SOL     OW25219   4.457   4.656  11.187  0.3570 -0.3498 -0.2903
 4529SOL    HW125220   4.388   4.679  11.249 -0.8278 -2.5635 -0.8039
 4529SOL    HW225221   4.448   4.730  11.127  0.0330  1.3590  1.8753
 4530SOL     OW25222   2.576   2.840  15.073  0.0510  0.0278  0.3653
 4530SOL    HW125223   2.612   2.907  15.015 -1.1032  0.4415  0.1382
 4530SOL    HW225224   2.647   2.776  15.061  1.0106  1.7577 -3.1454
 4531SOL     OW25225   3.239   1.347   7.418  0.3843  0.2087  0.0898
 4531SOL    HW125226   3.170   1.286   7.442 -0.4389  0.6987 -1.0116
 4531SOL    HW225227   3.308   1.287   7.388  0.1139  0.2307 -0.5939
 4532SOL     OW25228   2.990   0.625  14.865 -0.1459 -0.0765  0.5042
 4532SOL    HW125229   3.049   0.699  14.850 -0.5520  0.6220  2.4102
 4532SOL    HW225230   2.966   0.635  14.957 -1.2173  0.0808  0.2072
 4533SOL     OW25231   3.388   1.666  14.464  0.1879 -0.3206 -0.5743
 4533SOL    HW125232   3.408   1.732  14.530  1.7899 -1.1772 -0.2083
 4533SOL    HW225233   3.420   1.709  14.385  0.6574  1.7130  0.7306
 4534SOL     OW25234   1.370   1.985   4.657  0.1603 -0.1289  0.2265
 4534SOL    HW125235   1.366   1.967   4.751  0.1394 -0.9061  0.0807
 4534SOL    HW225236   1.287   1.953   4.621  0.2052  0.1686 -0.1415
 4535SOL     OW25237   3.733   3.724   7.741  0.3244  1.3058 -0.5803
 4535SOL    HW125238   3.692   3.789   7.798 -0.0803  0.3189  0.2379
 4535SOL    HW225239   3.821   3.714   7.776 -0.5872 -1.1322  1.0180
 4536SOL     OW25240   1.681   3.740   5.731  0.5379  0.1955 -0.4743
 4536SOL    HW125241   1.632   3.697   5.661  0.4400 -0.6552  0.1147
 4536SOL    HW225242   1.744   3.797   5.687  1.6633 -0.1690  0.6374
 4537SOL     OW25243   3.148   1.687   7.849 -0.2279 -0.6426 -0.6176
 4537SOL    HW125244   3.232   1.651   7.879  0.0016  0.4078  0.0221
 4537SOL    HW225245   3.166   1.777   7.823  0.3275  0.0540  2.1776
 4538SOL     OW25246   2.535   3.289   5.541  0.0262 -0.0983  0.2176
 4538SOL    HW125247   2.462   3.322   5.490  0.5359  0.4518 -0.1646
 4538SOL    HW225248   2.567   3.364   5.591 -1.5784  0.4523  0.4044
 4539SOL     OW25249   0.009   3.704  14.944 -0.0114  0.0771  0.0520
 4539SOL    HW125250   0.076   3.758  14.988  0.2214 -1.4966  1.6028
 4539SOL    HW225251   0.048   3.711  14.857 -0.4638 -0.7374 -0.2117
 4540SOL     OW25252   1.512   1.851   3.274 -0.0823  0.4892 -0.0172
 4540SOL    HW125253   1.485   1.893   3.192  1.3348  0.9754 -0.2301
 4540SOL    HW225254   1.547   1.918   3.333  0.6307 -0.1814  0.3133
 4541SOL     OW25255   4.050   0.397  15.479 -0.5058 -0.3789  0.6259
 4541SOL    HW125256   4.042   0.369  15.388 -0.6139  0.1606  0.4730
 4541SOL    HW225257   3.983   0.465  15.488 -1.8010 -1.5491 -0.1366
 4542SOL     OW25258   2.793   2.575  12.480  0.4758  0.0722 -0.0988
 4542SOL    HW125259   2.814   2.569  12.573  0.1929 -2.3036 -0.1908
 4542SOL    HW225260   2.880   2.559  12.443  0.3113  2.2319 -1.3872
 4543SOL     OW25261   2.077   2.706   1.958 -0.1630  0.1939  0.3340
 4543SOL    HW125262   2.095   2.739   1.870 -0.9011 -2.9948 -1.0161
 4543SOL    HW225263   2.074   2.791   2.001 -2.5048  0.7378 -0.8907
 4544SOL     OW25264   1.254   4.717   4.238  0.0600  0.1015  0.6432
 4544SOL    HW125265   1.347   4.714   4.219 -0.0592  1.0604 -0.0702
 4544SOL    HW225266   1.221   4.668   4.162 -0.2962  0.6086  0.4668
 4545SOL     OW25267   3.811   3.711   2.905 -0.3719  0.2378 -0.5709
 4545SOL    HW125268   3.831   3.792   2.857 -0.8450 -0.0142 -1.1854
 4545SOL    HW225269   3.902   3.683   2.902 -1.0496 -1.5854 -3.2690
 4546SOL     OW25270   2.476   2.863   3.687  0.0045  0.1480 -0.0838
 4546SOL    HW125271   2.437   2.801   3.625 -0.3600  0.3443 -0.0572
 4546SOL    HW225272   2.456   2.836   3.776  1.1068  0.4752  0.2632
 4547SOL     OW25273   2.007   1.725   6.615  0.5071 -0.3322  0.1939
 4547SOL    HW125274   1.945   1.768   6.556 -0.4428  0.3233  1.6434
 4547SOL    HW225275   2.082   1.714   6.558  0.5493  2.8824 -0.3589
 4548SOL     OW25276   0.570   3.554   5.955 -0.7195 -0.5990  0.3318
 4548SOL    HW125277   0.489   3.594   5.984 -0.1038 -0.1485  1.4254
 4548SOL    HW225278   0.532   3.502   5.884 -0.7220 -0.0069 -0.1032
 4549SOL     OW25279   4.139   3.471  14.430  0.4002  0.2911 -0.2651
 4549SOL    HW125280   4.139   3.472  14.334  0.4542  0.5901 -0.2614
 4549SOL    HW225281   4.121   3.380  14.456 -3.1700  0.7664 -1.0921
 4550SOL     OW25282   3.092   4.414   9.953 -0.3594  0.3200  0.0466
 4550SOL    HW125283   3.036   4.364   9.894 -3.3023  1.8725  1.5278
 4550SOL    HW225284   3.149   4.352   9.999  0.0033 -0.1521 -1.0437
 4551SOL     OW25285   3.470   3.274   8.803  0.4164  0.1586 -0.1906
 4551SOL    HW125286   3.500   3.308   8.888 -2.6596  3.2651 -0.3351
 4551SOL    HW225287   3.434   3.190   8.831  1.0761 -0.6205 -1.7062
 4552SOL     OW25288   1.636   3.312  17.038 -0.1753 -0.1411 -0.4743
 4552SOL    HW125289   1.554   3.315  17.088  0.5986  0.2860  0.7736
 4552SOL    HW225290   1.666   3.222  17.049  0.1694 -0.1348 -1.3482
 4553SOL     OW25291   2.108   2.854  16.822 -0.1863  0.1344  0.0691
 4553SOL    HW125292   2.201   2.835  16.807 -0.3700 -0.8945  0.2304
 4553SOL    HW225293   2.107   2.950  16.819 -0.9927  0.1132 -0.1934
 4554SOL     OW25294   1.690   1.177   7.573  0.3687  0.1538 -0.1196
 4554SOL    HW125295   1.772   1.178   7.523  1.4558  0.1431  1.6448
 4554SOL    HW225296   1.667   1.084   7.583  0.9702  0.0087 -0.0597
 4555SOL     OW25297   2.187   3.707   8.231  0.7733  0.5261 -0.4764
 4555SOL    HW125298   2.186   3.619   8.195 -0.0842  0.3015  0.0789
 4555SOL    HW225299   2.247   3.742   8.166  1.4659  1.1965  0.5209
 4556SOL     OW25300   1.853   3.113   5.547  0.0108 -0.0668  0.0222
 4556SOL    HW125301   1.814   3.149   5.627  0.6813  0.1144  0.2640
 4556SOL    HW225302   1.780   3.132   5.488  1.0411 -0.8316 -1.4744
 4557SOL     OW25303   1.536   3.496   7.105  0.0673  0.1871  0.7222
 4557SOL    HW125304   1.477   3.492   7.030  0.5548  1.4253  0.2687
 4557SOL    HW225305   1.621   3.460   7.077 -0.0041  0.1898  0.5024
 4558SOL     OW25306   1.747   2.666  14.849 -0.1221 -0.2505 -0.7114
 4558SOL    HW125307   1.685   2.654  14.776  0.8541  0.2706 -1.6301
 4558SOL    HW225308   1.806   2.595  14.823  0.4027 -0.2524  0.4740
 4559SOL     OW25309   3.206   4.621   4.421  0.3709  0.1719  0.5172
 4559SOL    HW125310   3.296   4.654   4.423 -0.3379  1.9806  3.3248
 4559SOL    HW225311   3.222   4.532   4.451 -0.0222 -0.1496 -0.2341
 4560SOL     OW25312   3.760   0.551  17.545 -0.0946  0.3873 -0.3053
 4560SOL    HW125313   3.771   0.581  17.636 -2.8311  1.0680 -0.1970
 4560SOL    HW225314   3.797   0.626  17.499 -1.8537  0.9478 -0.8228
 4561SOL     OW25315   4.298   1.796   7.339  0.0793  0.0272 -0.3451
 4561SOL    HW125316   4.255   1.771   7.257 -1.7068 -1.8498  1.1360
 4561SOL    HW225317   4.340   1.712   7.358  0.1375  0.4790  1.5112
 4562SOL     OW25318   0.583   2.073  10.841  0.1502  0.4005  0.0611
 4562SOL    HW125319   0.673   2.044  10.830 -0.1655 -1.0467  1.2956
 4562SOL    HW225320   0.546   2.023  10.914 -0.9879  1.4953  0.2365
 4563SOL     OW25321   4.318   2.386  12.159 -0.0784  0.2736 -0.4834
 4563SOL    HW125322   4.354   2.332  12.229 -0.6800 -2.2841 -2.1594
 4563SOL    HW225323   4.387   2.380  12.093  2.1711 -0.1009  1.9073
 4564SOL     OW25324   3.622   4.209   3.892  0.2681  0.1576 -0.7107
 4564SOL    HW125325   3.642   4.159   3.812 -2.3311 -1.6538 -0.2270
 4564SOL    HW225326   3.610   4.132   3.946  0.7874  0.6912  0.1758
 4565SOL     OW25327   3.340   4.507   9.679 -0.4496 -0.6926  0.4235
 4565SOL    HW125328   3.296   4.499   9.763 -1.2371 -0.6056  0.0163
 4565SOL    HW225329   3.259   4.530   9.633  0.0304 -0.7821 -0.4671
 4566SOL     OW25330   0.858   0.987   4.398  0.4386 -0.2997  0.0066
 4566SOL    HW125331   0.839   1.077   4.426 -0.7110 -0.7593  0.7186
 4566SOL    HW225332   0.916   0.994   4.322  1.8242  0.0501  1.1087
 4567SOL     OW25333   3.414   4.121   4.527  0.0539  0.5926  0.4542
 4567SOL    HW125334   3.410   4.094   4.619  0.8948 -0.6185  0.1321
 4567SOL    HW225335   3.509   4.120   4.514 -0.2085  2.1808 -1.5633
 4568SOL     OW25336   4.391   0.214   9.497  0.0872  0.1319  0.3249
 4568SOL    HW125337   4.428   0.245   9.580 -1.5128 -0.6336  1.3481
 4568SOL    HW225338   4.377   0.121   9.514 -2.0707 -0.1674 -3.0314
 4569SOL     OW25339   4.138   4.236   7.074 -0.5058 -0.1049 -0.0152
 4569SOL    HW125340   4.086   4.307   7.036 -0.5981 -1.4517 -2.3629
 4569SOL    HW225341   4.079   4.163   7.092  1.1044 -1.4586 -0.2467
 4570SOL     OW25342   3.154   0.899   8.302 -0.0988  0.4112  0.1737
 4570SOL    HW125343   3.117   0.960   8.366 -1.4472 -3.8039  3.4253
 4570SOL    HW225344   3.244   0.930   8.318  0.6945 -1.8983  0.0884
 4571SOL     OW25345   0.708   0.195   6.652 -0.0896  0.1813 -0.3947
 4571SOL    HW125346   0.626   0.171   6.694 -1.9190  2.7538 -2.5223
 4571SOL    HW225347   0.663   0.236   6.578  1.9808 -0.6642 -2.1677
 4572SOL     OW25348   2.294   3.155   6.804 -1.0079 -0.0090  0.3550
 4572SOL    HW125349   2.323   3.224   6.864  1.2381 -2.1754  1.7693
 4572SOL    HW225350   2.342   3.079   6.838 -0.2022  0.9692  1.4020
 4573SOL     OW25351   0.061   0.465   8.220  0.1558 -0.2124 -0.1432
 4573SOL    HW125352   0.114   0.524   8.167 -1.9744  1.8100 -0.0366
 4573SOL    HW225353   4.711   0.491   8.195  0.0627 -1.4396 -1.0838
 4574SOL     OW25354   2.947   0.353   5.011 -0.8735  0.2925 -0.1059
 4574SOL    HW125355   2.880   0.363   5.079  0.6411 -0.3403  1.4699
 4574SOL    HW225356   2.895   0.370   4.933 -0.3461 -0.7119 -0.6648
 4575SOL     OW25357   0.582   0.256   0.131 -0.6344  0.3453 -0.3115
 4575SOL    HW125358   0.654   0.270   0.193 -0.0268  0.2832 -1.0112
 4575SOL    HW225359   0.524   0.328   0.159  0.6368  1.0431  0.5379
 4576SOL     OW25360   0.635   0.778   9.213 -0.0535  0.1873  0.1543
 4576SOL    HW125361   0.630   0.725   9.133 -0.0671  2.0898 -1.1012
 4576SOL    HW225362   0.545   0.811   9.213 -0.5430 -1.1187 -1.6454
 4577SOL     OW25363   1.341   2.945   6.955 -0.3778  0.6124 -0.0774
 4577SOL    HW125364   1.367   2.933   6.864  0.1906 -2.8235  0.5608
 4577SOL    HW225365   1.285   2.869   6.967 -1.7023  1.5183 -0.5430
 4578SOL     OW25366   1.015   0.006   3.548  0.3094 -0.3544 -0.7740
 4578SOL    HW125367   1.084   0.033   3.609 -2.5203  1.6976  1.4922
 4578SOL    HW225368   0.961   4.685   3.601 -0.1312 -0.7180 -1.6396
 4579SOL     OW25369   0.741   3.018   1.976 -0.5025  0.0632  0.0661
 4579SOL    HW125370   0.670   2.977   2.025  1.8393 -0.9349  2.6513
 4579SOL    HW225371   0.692   3.055   1.903 -0.8728 -0.7254 -0.0884
 4580SOL     OW25372   0.274   2.202   2.736 -0.9498 -0.4218  0.0721
 4580SOL    HW125373   0.362   2.207   2.773 -0.4718 -0.2329 -1.0877
 4580SOL    HW225374   0.290   2.174   2.646  1.0645  2.7658 -0.5671
 4581SOL     OW25375   3.173   0.914  14.458  0.7371  0.3460 -1.1238
 4581SOL    HW125376   3.254   0.921  14.407  1.3829  1.6185  0.0944
 4581SOL    HW225377   3.119   0.977  14.410  1.9431 -0.2237 -3.2228
 4582SOL     OW25378   1.467   2.565   8.048 -0.0639  0.1038 -0.2565
 4582SOL    HW125379   1.455   2.537   7.958  0.1743 -0.3734 -0.1444
 4582SOL    HW225380   1.544   2.512   8.069  1.0402  1.5078 -0.7719
 4583SOL     OW25381   0.419   4.476   8.309  0.6063 -0.3563  0.1153
 4583SOL    HW125382   0.379   4.430   8.383 -0.7031 -0.2152 -0.4958
 4583SOL    HW225383   0.377   4.424   8.240 -0.8247 -1.1385  1.5544
 4584SOL     OW25384   0.512   2.598  13.888  0.1177  0.0816 -0.4924
 4584SOL    HW125385   0.424   2.563  13.904  0.7289 -1.9924 -1.6359
 4584SOL    HW225386   0.540   2.549  13.811  0.7336  2.4989 -1.7916
 4585SOL     OW25387   0.023   2.476   5.887  0.4933  0.3303  0.0102
 4585SOL    HW125388   0.002   2.491   5.795 -3.2061 -1.3627  0.5567
 4585SOL    HW225389   4.716   2.394   5.910 -1.7170  1.8003  0.9094
 4586SOL     OW25390   0.725   2.444   5.759  0.5867 -0.0192  0.3798
 4586SOL    HW125391   0.751   2.398   5.838 -0.4413 -0.8443  0.2341
 4586SOL    HW225392   0.633   2.468   5.771  0.4019  0.2363 -1.4678
 4587SOL     OW25393   0.519   0.189  12.568 -0.3132 -0.0058  0.3635
 4587SOL    HW125394   0.493   0.223  12.653  0.0006 -1.7106  1.1261
 4587SOL    HW225395   0.610   0.164  12.578  0.9274  4.0699 -0.5184
 4588SOL     OW25396   4.624   1.289   8.983  0.5473  0.0733  0.4209
 4588SOL    HW125397   4.582   1.360   9.032  0.1844 -0.2228  0.5362
 4588SOL    HW225398   4.550   1.235   8.955 -0.5279  0.9222  1.6156
 4589SOL     OW25399   0.361   2.596   1.380  0.1216  0.6780  0.3423
 4589SOL    HW125400   0.417   2.518   1.381 -0.4730  0.2478  0.0389
 4589SOL    HW225401   0.287   2.566   1.433  0.1113 -0.1407 -0.1333
 4590SOL     OW25402   2.923   0.883   7.970  0.1376  0.4215 -0.0778
 4590SOL    HW125403   2.854   0.865   7.906  0.2808 -0.8374  0.1300
 4590SOL    HW225404   2.959   0.795   7.984 -0.8081  0.0860  0.2806
 4591SOL     OW25405   2.168   3.515   3.553  0.0711 -0.1381 -0.0281
 4591SOL    HW125406   2.093   3.552   3.508  0.4137 -2.1902 -2.3224
 4591SOL    HW225407   2.225   3.480   3.484  0.4236 -0.0246  0.2033
 4592SOL     OW25408   0.332   4.450   2.462  0.3207  0.3786  0.0942
 4592SOL    HW125409   0.407   4.393   2.444 -0.7004 -0.7625 -0.5705
 4592SOL    HW225410   0.268   4.419   2.397 -0.4093  0.6364  0.6865
 4593SOL     OW25411   3.868   2.319   9.265  0.3093 -0.0652  0.5052
 4593SOL    HW125412   3.912   2.391   9.220 -0.1963  0.4167  0.7667
 4593SOL    HW225413   3.941   2.260   9.283 -0.5617 -2.1856 -3.0038
 4594SOL     OW25414   0.524   2.292   3.954 -0.3156  0.4902  0.1069
 4594SOL    HW125415   0.475   2.309   4.035 -0.5286  1.8079 -0.3040
 4594SOL    HW225416   0.453   2.271   3.894  1.0988 -2.1883 -0.6270
 4595SOL     OW25417   3.674   0.306   2.530 -0.7029  0.3592 -0.2880
 4595SOL    HW125418   3.596   0.252   2.521 -0.7731  0.0227  2.3163
 4595SOL    HW225419   3.722   0.262   2.600  1.3534 -1.2412 -2.7218
 4596SOL     OW25420   0.277   2.859   2.818 -0.0538 -0.3870  0.3947
 4596SOL    HW125421   0.277   2.812   2.901  0.1130  1.8786  1.6673
 4596SOL    HW225422   0.183   2.870   2.811  0.1211  0.9188  0.1014
 4597SOL     OW25423   1.349   2.120   9.110 -0.3558 -0.4882  0.2129
 4597SOL    HW125424   1.343   2.095   9.018  0.9205 -0.2826  0.0726
 4597SOL    HW225425   1.272   2.082   9.151 -2.6757  1.5863 -2.2086
 4598SOL     OW25426   1.132   4.393   5.590 -0.2578  0.1822 -0.2775
 4598SOL    HW125427   1.184   4.316   5.611 -0.3135 -0.0425 -0.9728
 4598SOL    HW225428   1.143   4.441   5.672 -0.9278 -1.4609  0.7576
 4599SOL     OW25429   0.498   0.540   4.252 -0.3625 -0.4572  0.1674
 4599SOL    HW125430   0.536   0.623   4.282 -1.1156 -0.1094  0.1542
 4599SOL    HW225431   0.462   0.563   4.166  2.1337  1.4795 -0.3902
 4600SOL     OW25432   0.840   3.527   7.271 -0.2966 -0.1062  0.0225
 4600SOL    HW125433   0.816   3.436   7.290 -1.2747  0.4743  1.4933
 4600SOL    HW225434   0.888   3.506   7.191 -0.4729 -0.7827  0.0879
 4601SOL     OW25435   1.363   2.720   6.317 -0.2093 -0.4578 -0.1973
 4601SOL    HW125436   1.344   2.718   6.223 -0.4845 -0.5244 -0.1390
 4601SOL    HW225437   1.409   2.803   6.327  1.3496 -1.2786 -0.5976
 4602SOL     OW25438   1.776   3.631  17.690  0.0048  0.3335  0.1725
 4602SOL    HW125439   1.704   3.620  17.752 -0.1866 -0.7424 -0.2524
 4602SOL    HW225440   1.747   3.591  17.608 -2.6505 -1.1317  1.8285
 4603SOL     OW25441   1.159   4.712   8.183  0.2158  0.1360  0.1149
 4603SOL    HW125442   1.238   4.720   8.130 -0.3889 -0.4387 -0.8888
 4603SOL    HW225443   1.190   4.696   8.272 -1.6996 -2.2940  0.3704
 4604SOL     OW25444   2.391   2.712   8.590  0.5834  0.0119 -0.5669
 4604SOL    HW125445   2.307   2.666   8.600  1.4843 -1.6220 -0.4277
 4604SOL    HW225446   2.392   2.742   8.499  1.5563  0.8026 -0.2880
 4605SOL     OW25447   4.447   3.530   7.999  0.1017  0.3303  0.1157
 4605SOL    HW125448   4.510   3.467   7.965 -0.9567 -1.0762  0.7610
 4605SOL    HW225449   4.466   3.530   8.093 -1.3934  1.0925  0.4299
 4606SOL     OW25450   3.722   2.824   2.439 -0.1302  0.0140  0.0271
 4606SOL    HW125451   3.687   2.797   2.355  0.9136  0.4452 -0.5389
 4606SOL    HW225452   3.757   2.910   2.414  0.9844 -0.6927 -0.8300
 4607SOL     OW25453   0.441   1.174  14.019  0.0426  0.1917  0.0160
 4607SOL    HW125454   0.456   1.172  14.114  2.8072  0.4541 -0.4025
 4607SOL    HW225455   0.509   1.108  14.003 -1.6283 -1.5131 -0.1102
 4608SOL     OW25456   2.975   4.656   6.946 -0.5817  0.3319 -0.0560
 4608SOL    HW125457   2.898   4.660   7.002 -0.0647 -1.7306  0.8102
 4608SOL    HW225458   2.952   4.717   6.877 -2.6557  0.2043  0.5367
 4609SOL     OW25459   1.392   4.499   3.464 -0.3645 -0.4465  0.1576
 4609SOL    HW125460   1.342   4.457   3.394 -1.1244 -0.5661  0.7700
 4609SOL    HW225461   1.344   4.471   3.542 -1.5525 -0.8469 -0.7163
 4610SOL     OW25462   2.984   0.374   8.851 -0.3741  0.5449 -0.1778
 4610SOL    HW125463   3.029   0.455   8.877 -0.7402  1.2911 -1.8925
 4610SOL    HW225464   3.023   0.362   8.765  0.7958 -2.0857  0.7185
 4611SOL     OW25465   1.133   2.807   7.300  0.0616 -0.3154  0.3071
 4611SOL    HW125466   1.049   2.836   7.263 -0.4008 -2.8960 -0.6740
 4611SOL    HW225467   1.187   2.785   7.225  0.0951  1.1075 -0.0898
 4612SOL     OW25468   0.935   2.178   8.550 -0.2943  0.5801  0.2550
 4612SOL    HW125469   0.873   2.231   8.499 -1.2646 -1.8357 -1.0282
 4612SOL    HW225470   0.890   2.094   8.557  1.0546 -0.0446  1.3846
 4613SOL     OW25471   3.141   2.175   9.069  0.3475 -0.2750  0.5883
 4613SOL    HW125472   3.077   2.239   9.038 -0.9092 -2.6476 -1.6792
 4613SOL    HW225473   3.105   2.089   9.049  0.5656 -0.9546  3.0910
 4614SOL     OW25474   2.514   2.779  13.018 -0.3510 -0.0245 -0.4226
 4614SOL    HW125475   2.509   2.698  13.069 -0.7208  0.9122  1.0106
 4614SOL    HW225476   2.540   2.845  13.082  1.6632 -1.3724  0.1459
 4615SOL     OW25477   4.250   2.121   5.649 -0.0429  0.7913  0.2134
 4615SOL    HW125478   4.240   2.037   5.693 -0.1829  1.8743  2.2684
 4615SOL    HW225479   4.164   2.143   5.614 -1.4849 -2.9165  1.3893
 4616SOL     OW25480   1.450   1.146  14.742  0.5702  0.3647  0.5010
 4616SOL    HW125481   1.540   1.140  14.709  0.2865  0.0996 -0.2436
 4616SOL    HW225482   1.445   1.240  14.759 -0.1730  0.0131  2.2048
 4617SOL     OW25483   2.798   0.746   5.352 -0.0744 -0.3607 -0.1061
 4617SOL    HW125484   2.882   0.791   5.340  1.2623 -2.3023  2.1245
 4617SOL    HW225485   2.761   0.751   5.263  2.0725  1.3985 -0.9224
 4618SOL     OW25486   4.122   2.405   8.723 -0.2318 -0.4667 -0.3554
 4618SOL    HW125487   4.067   2.332   8.751  0.1357 -1.1017 -1.2791
 4618SOL    HW225488   4.058   2.473   8.699  1.9211  0.8098 -2.4745
 4619SOL     OW25489   1.437   2.634   0.429  0.0567  0.0242  0.6507
 4619SOL    HW125490   1.523   2.657   0.394 -0.5474  0.6585 -0.3978
 4619SOL    HW225491   1.393   2.598   0.353  0.2288 -1.0856  1.0677
 4620SOL     OW25492   0.470   4.169   3.557  0.5299 -0.0227 -0.2064
 4620SOL    HW125493   0.538   4.162   3.624  0.7374  3.0393 -0.1217
 4620SOL    HW225494   0.490   4.096   3.499  0.3597 -1.6294  1.7253
 4621SOL     OW25495   0.481   0.480   5.882  0.0672  0.2253  0.2185
 4621SOL    HW125496   0.393   0.446   5.902  0.1911 -1.7953 -2.6491
 4621SOL    HW225497   0.476   0.573   5.906  2.3032 -0.3428  2.8108
 4622SOL     OW25498   0.519   2.282   8.310  0.1663  0.4494  0.3023
 4622SOL    HW125499   0.467   2.207   8.280  2.4924 -0.9983 -0.1179
 4622SOL    HW225500   0.455   2.352   8.299 -0.3873 -0.1707 -0.3646
 4623SOL     OW25501   3.778   4.539  14.554  0.8025  0.5637  0.0379
 4623SOL    HW125502   3.755   4.446  14.559  1.2001  0.4230 -0.9093
 4623SOL    HW225503   3.871   4.529  14.576  0.4953 -1.3873  0.4238
 4624SOL     OW25504   0.418   1.742   5.384  0.0392  0.1999 -0.5059
 4624SOL    HW125505   0.438   1.650   5.369 -1.2898  0.2285 -2.3875
 4624SOL    HW225506   0.472   1.758   5.461  0.3479  3.0346 -1.3239
 4625SOL     OW25507   3.425   0.050   8.943  0.4607 -0.1607 -0.1861
 4625SOL    HW125508   3.452   4.698   8.944  3.0463  0.6235 -0.1655
 4625SOL    HW225509   3.453   0.065   9.033  0.2858 -1.9717  0.1645
 4626SOL     OW25510   1.722   3.247   7.120 -0.5354  0.0441 -0.1771
 4626SOL    HW125511   1.722   3.253   7.216 -0.8480  1.1923 -0.2518
 4626SOL    HW225512   1.651   3.183   7.116  0.2447 -0.7195 -1.4489
 4627SOL     OW25513   3.663   2.107   7.490  0.1277 -0.3966 -0.5018
 4627SOL    HW125514   3.642   2.188   7.445  2.3219  1.0714  1.1241
 4627SOL    HW225515   3.599   2.109   7.562 -1.5800 -0.8250 -2.0193
 4628SOL     OW25516   2.054   4.617   9.186  0.5827  0.5618  0.1298
 4628SOL    HW125517   2.139   4.662   9.185 -0.2556  2.0999 -2.0163
 4628SOL    HW225518   1.996   4.658   9.250  1.3575  0.1748  1.0959
 4629SOL     OW25519   1.279   2.922   4.942  0.3946  0.1632 -0.4165
 4629SOL    HW125520   1.283   2.830   4.917 -0.7336 -0.2132  0.7461
 4629SOL    HW225521   1.250   2.919   5.033 -1.0731 -0.2837 -0.8984
 4630SOL     OW25522   1.210   2.102   4.327 -0.0493 -0.1075  0.2188
 4630SOL    HW125523   1.139   2.146   4.372 -1.9392 -1.8927 -0.9757
 4630SOL    HW225524   1.164   2.073   4.247  0.8847 -1.8031  0.2850
 4631SOL     OW25525   4.185   2.209  13.060 -0.2651 -0.0857 -0.3529
 4631SOL    HW125526   4.109   2.207  13.002 -0.2546 -0.6218 -0.3421
 4631SOL    HW225527   4.216   2.294  13.027  0.6578 -0.2493  0.0891
 4632SOL     OW25528   2.148   2.806   9.987  0.1359  0.4279  0.0559
 4632SOL    HW125529   2.083   2.875  10.006 -1.8402 -1.5120  0.3533
 4632SOL    HW225530   2.093   2.748   9.933 -2.1634  0.9521  1.8126
 4633SOL     OW25531   2.263   3.674   2.701 -0.2949  0.0126 -0.3038
 4633SOL    HW125532   2.312   3.618   2.761 -2.4131  0.4446  1.8355
 4633SOL    HW225533   2.330   3.700   2.638 -0.0211  0.1229  0.0368
 4634SOL     OW25534   0.096   3.006   5.398 -0.3342  0.1921  0.8830
 4634SOL    HW125535   0.007   3.004   5.432 -0.3455  1.4014  0.9111
 4634SOL    HW225536   0.088   3.033   5.307 -1.4429 -0.4336  0.7976
 4635SOL     OW25537   3.014   2.283   3.055  0.4023 -0.2106  0.5450
 4635SOL    HW125538   2.943   2.270   2.991 -0.9533  1.5068  1.6816
 4635SOL    HW225539   2.973   2.262   3.139  3.2636 -0.0380  1.9743
 4636SOL     OW25540   4.531   3.227  10.909 -0.1693 -0.0762 -0.2658
 4636SOL    HW125541   4.562   3.244  10.998  0.9381 -1.6411 -0.3357
 4636SOL    HW225542   4.553   3.133  10.904  0.6156  0.1574 -1.2690
 4637SOL     OW25543   0.201   1.908   2.045 -0.3512 -0.0747 -0.1612
 4637SOL    HW125544   0.216   1.994   2.004 -1.9872  0.5799  0.6015
 4637SOL    HW225545   0.112   1.884   2.020  0.4290 -1.9639 -1.1466
 4638SOL     OW25546   3.915   0.735  11.680 -0.3648  0.2187  0.1698
 4638SOL    HW125547   3.841   0.677  11.658 -0.1195  0.0192 -0.1286
 4638SOL    HW225548   3.883   0.823  11.661 -3.2700 -0.9655 -0.4217
 4639SOL     OW25549   2.409   1.159  10.284  0.1465 -0.0202  0.4618
 4639SOL    HW125550   2.399   1.239  10.335 -1.7210  0.1531 -0.1695
 4639SOL    HW225551   2.419   1.191  10.194 -0.2851 -0.6988  0.1722
 4640SOL     OW25552   0.425   2.836  17.450 -0.1255  0.3663  0.0087
 4640SOL    HW125553   0.391   2.921  17.421 -1.2723 -0.2154 -0.3577
 4640SOL    HW225554   0.513   2.871  17.461  0.8057 -1.5611 -1.3537
 4641SOL     OW25555   1.303   1.269   8.542 -0.3270  0.0430 -0.3285
 4641SOL    HW125556   1.297   1.309   8.628 -5.6948 -2.0868  0.3336
 4641SOL    HW225557   1.358   1.191   8.549  0.3807  0.4973 -0.8685
 4642SOL     OW25558   2.768   1.835   2.389  1.0153  0.5902 -0.0104
 4642SOL    HW125559   2.831   1.872   2.451  0.8041  0.5893  0.2042
 4642SOL    HW225560   2.820   1.806   2.314 -2.5424 -1.7350 -1.5779
 4643SOL     OW25561   2.702   0.375  11.122 -0.0010 -0.1374  0.2069
 4643SOL    HW125562   2.793   0.377  11.152 -0.9320 -0.5042  3.1175
 4643SOL    HW225563   2.676   0.303  11.180  0.8368  0.7443  1.6900
 4644SOL     OW25564   1.784   0.537  16.440 -0.0618  0.1456  0.0238
 4644SOL    HW125565   1.720   0.479  16.398 -1.4600  2.8374 -1.5426
 4644SOL    HW225566   1.762   0.625  16.409 -0.9080 -0.3688 -0.8016
 4645SOL     OW25567   2.754   3.975  15.275  0.1225  0.1605  0.0830
 4645SOL    HW125568   2.841   3.936  15.262 -0.0514  0.5463 -2.2008
 4645SOL    HW225569   2.755   3.958  15.369  0.8822  1.1426  0.2600
 4646SOL     OW25570   2.142   1.367   4.736 -0.1006  0.0875 -0.6622
 4646SOL    HW125571   2.156   1.276   4.711  0.9236  0.1941 -0.5078
 4646SOL    HW225572   2.078   1.348   4.803 -0.6173  0.2827 -1.1016
 4647SOL     OW25573   2.407   1.555   4.179  0.5583  0.7378  0.1170
 4647SOL    HW125574   2.489   1.590   4.143  0.6885  0.9051  0.5824
 4647SOL    HW225575   2.337   1.601   4.131 -0.7357 -0.5243  0.7912
 4648SOL     OW25576   4.339   2.769   8.442 -0.5133  0.8233  0.0812
 4648SOL    HW125577   4.301   2.842   8.492 -0.2889  0.0103  1.4351
 4648SOL    HW225578   4.381   2.820   8.372  1.2667  0.4487  0.8956
 4649SOL     OW25579   3.715   2.819  10.438  0.0363  0.7345  0.4632
 4649SOL    HW125580   3.717   2.825  10.342  1.7818  0.5731  0.5048
 4649SOL    HW225581   3.729   2.724  10.436 -0.3116  0.6864  0.0686
 4650SOL     OW25582   0.097   3.766   8.086  0.4638  0.1588 -0.5601
 4650SOL    HW125583   0.141   3.692   8.044 -0.7397 -0.7175 -0.2749
 4650SOL    HW225584   0.122   3.840   8.031 -1.6543  0.2537 -1.3908
 4651SOL     OW25585   4.718   3.904   6.084 -0.4934 -0.2457 -0.3888
 4651SOL    HW125586   0.048   3.940   6.140  1.0702  1.8096 -3.6123
 4651SOL    HW225587   4.652   3.974   6.089  1.3313  1.3966  0.7612
 4652SOL     OW25588   2.775   1.957  12.984  0.4527  0.4285 -0.1193
 4652SOL    HW125589   2.801   1.914  12.903 -0.7529  0.0230 -0.2948
 4652SOL    HW225590   2.861   1.958  13.028 -0.8073  1.5072  2.3434
 4653SOL     OW25591   1.680   3.520  16.871  0.3299 -0.1580 -0.0073
 4653SOL    HW125592   1.659   3.427  16.883  0.2627  0.0146  1.2061
 4653SOL    HW225593   1.724   3.543  16.953  1.0796 -0.9118 -0.1941
 4654SOL     OW25594   0.908   4.546   3.708  0.4671  0.1640  0.8380
 4654SOL    HW125595   0.924   4.553   3.802 -0.7267 -1.2308  1.1504
 4654SOL    HW225596   0.941   4.459   3.685  0.5208  0.2503  0.5928
 4655SOL     OW25597   4.230   1.625  15.809 -0.5007  0.8971 -0.1484
 4655SOL    HW125598   4.324   1.642  15.815 -0.2338 -0.4887 -0.2954
 4655SOL    HW225599   4.185   1.687  15.866 -2.6255  0.0872 -0.9180
 4656SOL     OW25600   3.652   4.543   2.932 -0.5817  0.1674 -0.1853
 4656SOL    HW125601   3.654   4.458   2.887  2.6736  0.3044 -0.2729
 4656SOL    HW225602   3.652   4.601   2.856 -2.5523 -2.3113 -2.0775
 4657SOL     OW25603   3.541   0.572   4.041 -0.0240  0.0303 -0.6619
 4657SOL    HW125604   3.505   0.584   3.954 -1.4009  0.6379 -0.0063
 4657SOL    HW225605   3.507   0.651   4.083  0.1401 -0.3231  0.1427
 4658SOL     OW25606   2.677   2.847   6.690  0.4794 -0.4716 -0.3487
 4658SOL    HW125607   2.613   2.881   6.752  1.9512  1.7210 -0.0064
 4658SOL    HW225608   2.729   2.793   6.750  0.9291 -0.7508 -0.9862
 4659SOL     OW25609   4.723   3.268   8.370  0.3538  0.1935  0.1887
 4659SOL    HW125610   4.704   3.182   8.408 -1.6983  1.0819  1.1323
 4659SOL    HW225611   4.713   3.327   8.445 -1.3729  0.3424 -0.1704
 4660SOL     OW25612   1.704   3.265   9.117  0.3140 -0.5522 -0.3972
 4660SOL    HW125613   1.745   3.181   9.097 -1.5442 -1.6356  0.2923
 4660SOL    HW225614   1.772   3.322   9.153  0.8385 -0.2150 -1.9448
 4661SOL     OW25615   0.844   3.097  17.304  0.3046  0.2658 -0.1966
 4661SOL    HW125616   0.859   3.115  17.211 -1.7879 -0.3126 -0.6631
 4661SOL    HW225617   0.768   3.154  17.315  1.0842  1.4938 -1.2579
 4662SOL     OW25618   1.933   3.072   3.865 -0.1910  0.7071  0.1760
 4662SOL    HW125619   1.851   3.052   3.820 -0.6130 -1.1959  1.7796
 4662SOL    HW225620   1.908   3.079   3.957  0.5199 -0.6987  0.4793
 4663SOL     OW25621   2.483   0.743   6.710  0.4112 -0.4955 -0.1833
 4663SOL    HW125622   2.511   0.678   6.774  2.0914  0.4607  0.0536
 4663SOL    HW225623   2.403   0.783   6.745  0.7962 -0.1680  0.3154
 4664SOL     OW25624   1.841   1.462   1.361 -0.4080 -0.0125 -0.2928
 4664SOL    HW125625   1.856   1.483   1.453  1.5188 -0.9003 -0.4043
 4664SOL    HW225626   1.749   1.439   1.375 -1.1405  1.4787 -2.5407
 4665SOL     OW25627   0.698   2.637   3.270 -0.1136 -0.0749 -0.1046
 4665SOL    HW125628   0.640   2.686   3.212 -0.1629 -0.0001  0.0080
 4665SOL    HW225629   0.781   2.632   3.221 -0.2429  1.0632 -0.4420
 4666SOL     OW25630   1.883   3.504   3.955 -0.0317  0.9324 -0.3427
 4666SOL    HW125631   1.799   3.549   3.955 -0.4443  0.1417  1.6594
 4666SOL    HW225632   1.906   3.483   3.865  0.6942  0.5798 -0.0769
 4667SOL     OW25633   0.241   2.236  17.187  0.0369  0.0684  0.2150
 4667SOL    HW125634   0.222   2.316  17.137  0.0334 -0.8678 -1.2975
 4667SOL    HW225635   0.334   2.223  17.171  0.0998 -0.5037  1.0366
 4668SOL     OW25636   3.113   3.629  16.760 -0.1948 -0.2276 -0.8257
 4668SOL    HW125637   3.079   3.546  16.793 -0.6577  0.3983  0.2376
 4668SOL    HW225638   3.037   3.683  16.783 -1.2992 -2.6358  1.2276
 4669SOL     OW25639   0.897   1.940   4.310 -0.2349 -0.6180 -0.2086
 4669SOL    HW125640   0.888   2.030   4.340 -0.2918  0.2138 -2.6975
 4669SOL    HW225641   0.887   1.941   4.214  0.6087  0.1577 -0.2929
 4670SOL     OW25642   2.965   2.059   7.284 -0.4441 -0.0462  0.7094
 4670SOL    HW125643   2.972   2.006   7.205 -0.3792 -0.0676  0.7293
 4670SOL    HW225644   2.877   2.097   7.277  0.0992  1.2978  1.0486
 4671SOL     OW25645   1.074   4.349   8.740  0.6012  0.2876  0.5046
 4671SOL    HW125646   1.052   4.264   8.701  3.9478 -0.5985  0.6211
 4671SOL    HW225647   0.990   4.392   8.759 -0.0228 -0.0172 -1.4892
 4672SOL     OW25648   2.588   1.562   4.847 -0.1886 -0.2521  0.1655
 4672SOL    HW125649   2.646   1.595   4.915  1.3290  0.3084 -1.4043
 4672SOL    HW225650   2.552   1.480   4.882  0.1019 -0.9500 -1.1469
 4673SOL     OW25651   4.563   3.439   8.225 -0.3472 -0.7627 -0.0476
 4673SOL    HW125652   4.593   3.356   8.263  2.0766 -0.4812 -1.3399
 4673SOL    HW225653   4.646   3.485   8.233 -1.5714  1.7647 -1.9532
 4674SOL     OW25654   2.606   4.127   1.453 -0.0957 -0.1418 -0.5818
 4674SOL    HW125655   2.565   4.192   1.511  0.7097 -1.0883  1.0528
 4674SOL    HW225656   2.557   4.157   1.377 -1.6423 -1.9565 -0.2844
 4675SOL     OW25657   1.959   2.192   8.574  0.2209 -0.3034 -0.2423
 4675SOL    HW125658   1.960   2.197   8.479 -1.1578 -2.6526 -0.3660
 4675SOL    HW225659   2.051   2.210   8.590 -0.1137 -1.5783  3.0764
 4676SOL     OW25660   0.765   4.600   6.585  0.3247  0.1888 -0.0104
 4676SOL    HW125661   0.691   4.652   6.616  0.0121  0.3881 -1.0809
 4676SOL    HW225662   0.738   4.510   6.602  2.6408 -0.4483  0.2532
 4677SOL     OW25663   2.252   4.461   7.288 -0.0104  0.0801 -0.7088
 4677SOL    HW125664   2.299   4.404   7.227  0.3428 -0.7114  0.3046
 4677SOL    HW225665   2.283   4.436   7.376  0.2146 -1.3960 -1.2039
 4678SOL     OW25666   2.732   0.111   2.695 -0.3908  0.2867  0.8623
 4678SOL    HW125667   2.731   0.066   2.779  1.8801 -1.1434  0.1090
 4678SOL    HW225668   2.669   0.181   2.715 -1.1702 -0.1459 -0.0771
 4679SOL     OW25669   2.345   4.041  11.133 -0.0457 -0.6503  0.0859
 4679SOL    HW125670   2.341   4.014  11.041  0.5225 -3.7516  0.9608
 4679SOL    HW225671   2.291   3.968  11.164 -1.3740  0.0322 -0.6132
 4680SOL     OW25672   1.913   1.960   1.395  0.4398 -0.3780 -0.3587
 4680SOL    HW125673   1.842   1.899   1.377 -0.6088  0.6853  0.1602
 4680SOL    HW225674   1.954   1.925   1.473 -1.0625  0.6264  0.8712
 4681SOL     OW25675   4.377   3.837  13.794  0.0189  0.7590 -0.3227
 4681SOL    HW125676   4.472   3.840  13.787  0.2226 -2.7420  0.8889
 4681SOL    HW225677   4.358   3.804  13.882 -0.3013 -0.9817 -1.0413
 4682SOL     OW25678   0.611   0.391   9.257  0.2743 -0.5761  0.3950
 4682SOL    HW125679   0.596   0.390   9.162  2.1274  1.9391  0.0716
 4682SOL    HW225680   0.520   0.408   9.282 -0.1232 -0.7582 -0.9332
 4683SOL     OW25681   3.072   1.995   8.045 -0.7249  0.0185 -0.3125
 4683SOL    HW125682   3.103   1.959   7.962  2.0201  0.1708  0.6817
 4683SOL    HW225683   3.102   2.086   8.041  0.4131 -0.3023  1.3983
 4684SOL     OW25684   1.489   4.411   1.484  0.4251  0.2336  0.3796
 4684SOL    HW125685   1.509   4.331   1.533 -0.3264  0.8180  1.6573
 4684SOL    HW225686   1.543   4.470   1.536  0.6361  1.1361 -0.8558
 4685SOL     OW25687   0.112   4.004  14.563 -0.7444  0.0202  0.9277
 4685SOL    HW125688   0.099   3.911  14.582  1.2424 -0.4792 -0.1904
 4685SOL    HW225689   0.191   3.999  14.509 -2.8617 -1.1473 -2.0471
 4686SOL     OW25690   3.556   2.079   9.291 -0.7738  0.2066  0.1182
 4686SOL    HW125691   3.474   2.106   9.250 -1.2985  1.3105  1.8818
 4686SOL    HW225692   3.589   2.162   9.325 -1.8796  1.3834 -1.6694
 4687SOL     OW25693   2.303   4.461  15.017  0.0083 -0.4266 -0.1792
 4687SOL    HW125694   2.371   4.507  14.968 -0.5849  0.1092 -0.5178
 4687SOL    HW225695   2.229   4.506  14.975 -1.4526 -1.7449  0.9682
 4688SOL     OW25696   0.765   0.131   9.041  0.6113  0.4522 -0.8673
 4688SOL    HW125697   0.671   0.138   9.061  0.6381  0.7873 -0.8632
 4688SOL    HW225698   0.786   0.038   9.041 -0.6664  0.1572  0.0616
 4689SOL     OW25699   1.704   2.393   5.255  0.2243 -0.5263 -0.3743
 4689SOL    HW125700   1.782   2.372   5.204 -0.4932 -0.0953 -1.6397
 4689SOL    HW225701   1.755   2.407   5.334  3.4424  0.3759 -2.6172
 4690SOL     OW25702   2.380   1.295  14.125 -0.4147  0.4074  0.6100
 4690SOL    HW125703   2.293   1.333  14.115  0.1148  1.1675 -1.2513
 4690SOL    HW225704   2.385   1.246  14.042  0.6876  1.6244 -0.0412
 4691SOL     OW25705   0.448   3.280   6.702 -0.3543 -0.8448 -0.4747
 4691SOL    HW125706   0.443   3.371   6.733 -2.4307  0.0531 -3.4144
 4691SOL    HW225707   0.530   3.259   6.746 -0.2854 -3.0744 -1.6813
 4692SOL     OW25708   0.741   3.044   7.261 -0.3062 -0.2355 -0.2299
 4692SOL    HW125709   0.682   3.092   7.202 -0.4100 -0.6239 -0.4408
 4692SOL    HW225710   0.788   3.110   7.313 -4.0403  3.3184 -1.3566
 4693SOL     OW25711   1.273   0.565  11.035  0.3404  0.4711  0.2052
 4693SOL    HW125712   1.180   0.554  11.058  0.6009 -1.5349  0.3756
 4693SOL    HW225713   1.289   0.648  11.080  0.1239  1.1570 -0.9950
 4694SOL     OW25714   3.149   1.406  13.791 -0.4456 -0.2257 -0.2386
 4694SOL    HW125715   3.153   1.311  13.776 -1.3999 -0.0878 -1.4047
 4694SOL    HW225716   3.058   1.428  13.769 -0.2285  0.6103 -0.3049
 4695SOL     OW25717   3.965   3.832   2.525 -0.0710  0.5309  0.1677
 4695SOL    HW125718   3.974   3.776   2.448 -0.5757  1.3076 -0.4585
 4695SOL    HW225719   3.872   3.852   2.531 -0.8728 -2.5760 -1.7319
 4696SOL     OW25720   4.006   4.250   7.590  0.8771 -0.5233 -0.1340
 4696SOL    HW125721   3.972   4.337   7.568 -0.5355 -0.7321  1.1396
 4696SOL    HW225722   4.088   4.271   7.634  0.2459  0.9906  0.3548
 4697SOL     OW25723   1.310   3.605   4.648 -0.3908  0.4100  0.1947
 4697SOL    HW125724   1.384   3.547   4.629 -1.0455  0.1152 -1.4400
 4697SOL    HW225725   1.357   3.688   4.659  0.4034 -0.3615  2.6504
 4698SOL     OW25726   3.899   1.400   9.676  0.7360  0.0962  0.4013
 4698SOL    HW125727   3.935   1.381   9.589 -2.0948 -2.8988 -0.1420
 4698SOL    HW225728   3.840   1.474   9.663  1.7396  0.8050 -0.1931
 4699SOL     OW25729   3.567   2.812   3.950  0.4013 -0.0820 -0.2186
 4699SOL    HW125730   3.542   2.872   4.020 -3.1677 -1.8315 -0.0240
 4699SOL    HW225731   3.489   2.758   3.941 -1.0207  1.7433  1.3252
 4700SOL     OW25732   2.268   3.832   6.189 -0.6741  0.1477  0.4928
 4700SOL    HW125733   2.282   3.821   6.095  1.8550 -0.5362  0.9318
 4700SOL    HW225734   2.265   3.738   6.205  1.0299  0.4620  2.8109
 4701SOL     OW25735   1.097   2.479   0.720  0.5235  0.1617  0.0848
 4701SOL    HW125736   1.095   2.528   0.638 -1.0420  0.5557  0.3654
 4701SOL    HW225737   1.077   2.543   0.788 -1.1030  0.7716 -0.9568
 4702SOL     OW25738   4.475   1.096   9.629 -0.8073 -0.1870 -0.1329
 4702SOL    HW125739   4.528   1.089   9.549  0.3192 -0.9738  0.6832
 4702SOL    HW225740   4.472   1.190   9.646  1.3951 -0.4409  1.5934
 4703SOL     OW25741   2.895   1.089  13.895  0.3767  0.0109  0.5094
 4703SOL    HW125742   2.989   1.101  13.905  0.6008 -0.3708 -1.0798
 4703SOL    HW225743   2.886   1.074  13.800  1.4294  0.2978  0.3644
 4704SOL     OW25744   4.283   0.110   2.902  0.3526  0.4391 -0.1929
 4704SOL    HW125745   4.265   0.193   2.859  0.1994  0.7235  0.4178
 4704SOL    HW225746   4.195   0.072   2.905 -0.1788  1.5326 -2.2218
 4705SOL     OW25747   1.576   2.376   5.982 -0.2460 -0.2223 -0.4565
 4705SOL    HW125748   1.554   2.466   6.006 -0.4634  0.2936 -2.6404
 4705SOL    HW225749   1.666   2.390   5.953 -0.7496 -2.7906 -3.2553
 4706SOL     OW25750   1.791   3.377  14.686 -0.6883  0.1696 -0.2270
 4706SOL    HW125751   1.724   3.442  14.663  0.0024  1.0298  0.2057
 4706SOL    HW225752   1.748   3.331  14.758 -1.4666  1.0196 -0.1514
 4707SOL     OW25753   1.262   1.776   4.930  0.2460 -0.2360 -0.0978
 4707SOL    HW125754   1.210   1.711   4.979  1.4564  1.7099  3.7529
 4707SOL    HW225755   1.271   1.727   4.848  0.0291  1.1347 -0.9449
 4708SOL     OW25756   3.255   1.833   9.630 -0.1048 -0.0846  0.0006
 4708SOL    HW125757   3.185   1.831   9.695 -1.4438 -2.0347 -1.5394
 4708SOL    HW225758   3.265   1.915   9.582  1.7931  0.1156  0.7292
 4709SOL     OW25759   0.023   3.413   2.268  0.0538 -0.0434 -0.0087
 4709SOL    HW125760   4.694   3.478   2.287 -0.2527 -0.7093  1.1490
 4709SOL    HW225761   0.015   3.352   2.341  1.1110  0.5422  0.5968
 4710SOL     OW25762   1.607   4.330  11.714 -0.0932  1.0192 -0.2939
 4710SOL    HW125763   1.669   4.258  11.726 -0.6872  0.5383 -0.1134
 4710SOL    HW225764   1.671   4.400  11.700  1.9820 -1.2530 -2.2123
 4711SOL     OW25765   0.522   1.138  13.492 -0.1562  0.0903 -0.0475
 4711SOL    HW125766   0.614   1.113  13.495  0.0708  0.7163 -1.6036
 4711SOL    HW225767   0.496   1.087  13.416 -2.1028 -1.3806  1.6049
 4712SOL     OW25768   4.634   3.807   3.782  0.1094  0.6779 -0.6009
 4712SOL    HW125769   4.680   3.783   3.701  2.1294  0.8437  0.5033
 4712SOL    HW225770   4.672   3.895   3.779  0.3388  0.6010  0.2047
 4713SOL     OW25771   0.169   0.615   4.490 -0.0664 -0.1251 -0.2910
 4713SOL    HW125772   0.117   0.661   4.424 -0.8847 -0.2277  0.2917
 4713SOL    HW225773   0.230   0.559   4.442 -1.4320 -0.8295 -1.2056
 4714SOL     OW25774   2.606   1.305   5.359  0.4493 -0.0553 -0.0940
 4714SOL    HW125775   2.649   1.223   5.380  1.8178 -0.7102 -5.5321
 4714SOL    HW225776   2.686   1.356   5.372  1.3076 -1.9485  2.2094
 4715SOL     OW25777   1.658   3.123   1.546 -0.3674  0.6134  0.6401
 4715SOL    HW125778   1.623   3.039   1.574  0.9713  0.2553  1.2316
 4715SOL    HW225779   1.744   3.100   1.512 -1.1186 -0.6850 -0.4044
 4716SOL     OW25780   4.153   4.075   7.941  0.0131 -0.1714  0.4883
 4716SOL    HW125781   4.171   3.986   7.911  4.1824  0.0377  2.3662
 4716SOL    HW225782   4.234   4.125   7.930 -1.2600  1.6243 -0.7991
 4717SOL     OW25783   1.473   2.074   2.187  0.4197  0.5795  0.6329
 4717SOL    HW125784   1.384   2.105   2.173  1.1151  2.7822  1.2282
 4717SOL    HW225785   1.516   2.112   2.110 -0.9875 -0.6343 -0.7806
 4718SOL     OW25786   2.346   4.391  12.922 -0.1703  0.1192 -0.5264
 4718SOL    HW125787   2.350   4.449  12.846 -1.8755 -0.5465 -1.1107
 4718SOL    HW225788   2.439   4.390  12.946 -0.5114  0.8773  0.8565
 4719SOL     OW25789   0.169   2.413   1.526 -0.4073  0.0860 -0.1349
 4719SOL    HW125790   0.239   2.348   1.528 -2.6099 -2.2749  0.1860
 4719SOL    HW225791   0.097   2.360   1.491 -0.9610  1.8808 -1.6972
 4720SOL     OW25792   2.343   0.913   1.914 -0.2706 -0.3218 -0.4364
 4720SOL    HW125793   2.341   0.863   1.996 -0.5746 -2.1854 -1.5831
 4720SOL    HW225794   2.438   0.919   1.907 -0.5297  1.8902 -2.1880
 4721SOL     OW25795   3.433   0.456   0.372 -0.2090 -0.6662 -0.5876
 4721SOL    HW125796   3.509   0.415   0.330 -0.8862 -0.9415 -1.5654
 4721SOL    HW225797   3.396   0.489   0.290 -1.6369  0.3253  0.4610
 4722SOL     OW25798   2.629   4.348   5.766  0.5624 -0.0228  0.6169
 4722SOL    HW125799   2.683   4.360   5.845 -1.0009 -3.0054  2.1222
 4722SOL    HW225800   2.544   4.355   5.809 -0.1715 -1.1896 -0.6706
 4723SOL     OW25801   2.318   2.142   3.073  0.1434  0.0142  0.0063
 4723SOL    HW125802   2.298   2.055   3.037  2.2228 -0.4142 -0.1090
 4723SOL    HW225803   2.323   2.112   3.164 -0.7248 -0.6972 -0.1796
 4724SOL     OW25804   4.004   4.593   8.915  0.1183  0.1082 -0.3607
 4724SOL    HW125805   4.093   4.595   8.880  0.5959 -1.1435  0.8003
 4724SOL    HW225806   4.014   4.588   9.010 -0.2943  0.1899 -0.3105
 4725SOL     OW25807   1.541   3.339   5.316  0.2742 -0.9702 -0.1415
 4725SOL    HW125808   1.562   3.396   5.242 -2.3611 -0.1664 -0.2704
 4725SOL    HW225809   1.625   3.344   5.363 -0.4698  1.6422  0.8734
 4726SOL     OW25810   1.918   3.299   0.227  0.8939 -0.2512 -0.8263
 4726SOL    HW125811   2.012   3.304   0.246  0.8757 -1.9027 -0.2760
 4726SOL    HW225812   1.885   3.370   0.282  1.6722  0.7388 -1.6372
 4727SOL     OW25813   2.055   0.765  10.497 -0.5529 -0.4535  0.6831
 4727SOL    HW125814   2.037   0.679  10.460  1.2065 -0.7561  0.5593
 4727SOL    HW225815   1.973   0.774  10.546 -0.1365 -1.0166  1.4780
 4728SOL     OW25816   3.416   4.097  11.706  0.5400 -0.1423 -0.7030
 4728SOL    HW125817   3.462   4.014  11.694 -1.3227 -1.0039 -1.7941
 4728SOL    HW225818   3.324   4.072  11.703 -0.3662  2.9680  0.5555
 4729SOL     OW25819   2.290   2.634  16.416 -0.1701 -0.1418 -0.1932
 4729SOL    HW125820   2.260   2.668  16.331  2.4244  2.2660 -0.1343
 4729SOL    HW225821   2.219   2.576  16.443 -0.8641 -0.2193 -2.1636
 4730SOL     OW25822   1.607   4.658   7.193 -0.1865  0.0430 -0.4408
 4730SOL    HW125823   1.624   4.648   7.287  0.2291  0.6609 -0.4497
 4730SOL    HW225824   1.673   4.725   7.176 -1.1395  1.7133  2.3414
 4731SOL     OW25825   1.126   1.138   7.772 -0.4884  0.2273  0.0406
 4731SOL    HW125826   1.186   1.213   7.768  0.0306 -0.2159 -0.7145
 4731SOL    HW225827   1.187   1.072   7.806  0.8442  2.5479  2.1630
 4732SOL     OW25828   1.141   3.352  12.497 -0.8289 -0.1583  0.0866
 4732SOL    HW125829   1.087   3.309  12.431  1.3393  2.0127 -3.0883
 4732SOL    HW225830   1.210   3.290  12.520 -1.5632 -1.5318 -1.4309
 4733SOL     OW25831   1.388   2.397   7.812 -0.0402 -0.1874 -0.0838
 4733SOL    HW125832   1.368   2.488   7.786  0.0284 -0.1182  0.1102
 4733SOL    HW225833   1.307   2.375   7.857  0.4698 -0.8774  0.4806
 4734SOL     OW25834   1.327   1.088  15.105  0.2082 -0.1510 -0.1884
 4734SOL    HW125835   1.331   1.020  15.172 -0.5693 -0.6108 -0.6032
 4734SOL    HW225836   1.238   1.070  15.076  0.6092 -1.4954 -0.6029
 4735SOL     OW25837   0.524   3.186   7.148 -0.4358  0.5387  0.4200
 4735SOL    HW125838   0.436   3.152   7.132  0.7493 -2.2958 -0.0900
 4735SOL    HW225839   0.514   3.280   7.162 -0.2481  0.4047  1.4717
 4736SOL     OW25840   1.119   2.585   3.320  0.2843  0.0235  0.0806
 4736SOL    HW125841   1.125   2.681   3.322  2.7414 -0.0970 -0.8996
 4736SOL    HW225842   1.209   2.553   3.314  0.5488  0.3299  2.6453
 4737SOL     OW25843   1.520   4.194   1.641  0.0576  0.3905 -1.1604
 4737SOL    HW125844   1.588   4.199   1.708 -1.5105  1.0711  0.3389
 4737SOL    HW225845   1.464   4.119   1.661 -0.1962  1.2236  1.1335
 4738SOL     OW25846   1.287   4.396   7.531  0.1671  0.2814  0.6801
 4738SOL    HW125847   1.371   4.369   7.494  0.5310 -0.9422  2.4025
 4738SOL    HW225848   1.264   4.328   7.594 -0.9950 -0.3183 -0.3855
 4739SOL     OW25849   0.718   3.164   1.326  0.2814 -0.0707  0.0021
 4739SOL    HW125850   0.744   3.101   1.393 -2.2808 -2.2301 -1.0095
 4739SOL    HW225851   0.780   3.235   1.342  0.7926 -0.0926 -1.8529
 4740SOL     OW25852   1.971   0.123   7.545  0.2174  0.8566 -0.3560
 4740SOL    HW125853   2.008   0.133   7.633 -1.6292  1.6936  0.3157
 4740SOL    HW225854   2.042   0.068   7.510 -0.5976  0.2923 -1.1057
 4741SOL     OW25855   4.679   2.655   4.137 -0.0357  0.4185 -0.2851
 4741SOL    HW125856   4.622   2.685   4.208  0.3159 -1.1599  0.6626
 4741SOL    HW225857   0.022   2.699   4.161  0.0346 -0.3430  0.8192
 4742SOL     OW25858   1.175   4.173   3.738 -0.2140  0.8526  0.1163
 4742SOL    HW125859   1.231   4.174   3.660  0.3738  1.2599  0.5474
 4742SOL    HW225860   1.217   4.112   3.798 -0.6295  0.6465  0.1949
 4743SOL     OW25861   0.952   0.447   2.647  0.0517  0.3834  0.0566
 4743SOL    HW125862   0.875   0.395   2.671  0.7866 -1.0555 -0.6427
 4743SOL    HW225863   0.954   0.426   2.553 -0.9463  0.9961 -0.1069
 4744SOL     OW25864   4.066   1.541   3.112  0.0465  0.3284  0.1086
 4744SOL    HW125865   4.018   1.595   3.175  1.7410  1.2517  0.6310
 4744SOL    HW225866   4.055   1.587   3.029  0.3470  0.8333  0.3425
 4745SOL     OW25867   4.484   2.068   6.303  0.2563  0.1546  0.7791
 4745SOL    HW125868   4.471   1.974   6.291  1.5179  0.0726  0.0817
 4745SOL    HW225869   4.409   2.120   6.274 -1.7626 -3.0162  0.3356
 4746SOL     OW25870   1.366   2.620   2.835  0.0550  0.2285 -0.3590
 4746SOL    HW125871   1.385   2.567   2.912 -1.9100 -0.6672 -0.4847
 4746SOL    HW225872   1.454   2.637   2.802  1.7812  0.4351  4.4162
 4747SOL     OW25873   3.352   0.603  16.809 -0.5789 -0.7035 -0.0193
 4747SOL    HW125874   3.289   0.536  16.786 -1.7496  0.0854  0.8423
 4747SOL    HW225875   3.426   0.567  16.760 -2.3661 -1.9065 -1.8221
 4748SOL     OW25876   4.595   3.107  15.087  0.7279 -0.0249  0.3540
 4748SOL    HW125877   4.565   3.195  15.063 -0.4503 -0.6159 -0.3966
 4748SOL    HW225878   4.526   3.046  15.057  1.0198 -0.4411  0.5386
 4749SOL     OW25879   1.098   2.065   4.096 -0.3920  0.2317  0.0128
 4749SOL    HW125880   1.101   2.001   4.024 -1.7995 -0.2821  0.3984
 4749SOL    HW225881   1.080   2.141   4.041 -1.2951 -0.8583 -1.2196
 4750SOL     OW25882   3.339   0.338   7.886 -0.0266 -0.1552 -0.1750
 4750SOL    HW125883   3.374   0.262   7.933  0.4936  0.9917  1.2866
 4750SOL    HW225884   3.400   0.406   7.913 -0.1804 -0.6690  1.4797
 4751SOL     OW25885   3.860   2.792   2.013 -0.6517 -0.0197 -0.0562
 4751SOL    HW125886   3.918   2.853   1.968 -2.2765  2.8257  1.7298
 4751SOL    HW225887   3.866   2.713   1.959 -0.8075  0.3391 -0.5874
 4752SOL     OW25888   3.102   0.230   7.746 -0.7662 -0.8062 -0.4266
 4752SOL    HW125889   3.053   0.177   7.809 -0.4861  0.8032  1.1224
 4752SOL    HW225890   3.184   0.251   7.790 -0.2052  0.0710 -1.8885
 4753SOL     OW25891   2.832   2.811   3.379 -0.3234  0.4792  0.2217
 4753SOL    HW125892   2.800   2.724   3.404  0.3851  0.2301  0.2621
 4753SOL    HW225893   2.764   2.871   3.411  0.3983  1.5005 -0.1716
 4754SOL     OW25894   0.387   0.416   8.441  0.3059 -0.0515 -0.2186
 4754SOL    HW125895   0.402   0.444   8.531  0.4379 -0.3480 -0.1447
 4754SOL    HW225896   0.343   0.498   8.419  0.7198  0.5161  1.0947
 4755SOL     OW25897   4.518   4.115   3.789  0.1185  0.3887 -0.2953
 4755SOL    HW125898   4.430   4.100   3.755 -1.1182  0.4834  2.8895
 4755SOL    HW225899   4.568   4.159   3.720 -0.3247 -0.1731 -0.9656
 4756SOL     OW25900   1.092   4.601   8.608 -0.1001  0.2863  0.3825
 4756SOL    HW125901   1.060   4.520   8.646  0.0027 -0.5314 -1.2807
 4756SOL    HW225902   1.011   4.652   8.601  0.4094  0.8410 -1.4526
 4757SOL     OW25903   2.737   3.418  10.508 -0.5438 -0.2313 -0.8101
 4757SOL    HW125904   2.829   3.404  10.488  0.3639 -0.5824  3.7906
 4757SOL    HW225905   2.746   3.493  10.567 -0.4628 -0.6233 -0.3328
 4758SOL     OW25906   3.351   4.283   8.928 -0.6011 -0.4392 -0.2109
 4758SOL    HW125907   3.287   4.231   8.977  0.6002 -0.8716  0.8963
 4758SOL    HW225908   3.430   4.231   8.914 -0.3074 -0.1844  0.4752
 4759SOL     OW25909   3.957   3.711   9.318  0.2701 -0.1949 -0.8054
 4759SOL    HW125910   4.038   3.761   9.327 -1.2883  1.4900  3.7669
 4759SOL    HW225911   3.989   3.625   9.291 -0.8538 -0.6390 -0.7193
 4760SOL     OW25912   0.525   3.050  13.651  0.3941 -0.0155  0.0368
 4760SOL    HW125913   0.564   3.046  13.738  0.9051  3.8047 -0.0037
 4760SOL    HW225914   0.476   3.132  13.656  1.0574  0.4796 -1.6161
 4761SOL     OW25915   2.350   3.896   5.632  0.1112 -0.4181 -0.3572
 4761SOL    HW125916   2.414   3.959   5.600 -0.5130 -0.4697 -1.7018
 4761SOL    HW225917   2.387   3.818   5.589 -0.5341 -0.1958 -1.3161
 4762SOL     OW25918   2.902   0.102  14.162  0.1383 -0.5956  0.5579
 4762SOL    HW125919   2.948   0.051  14.229  1.1031  0.5869  0.7961
 4762SOL    HW225920   2.943   0.188  14.178  1.5389 -0.9484 -1.1507
 4763SOL     OW25921   1.975   3.647   2.634  0.5151 -0.2826 -0.9779
 4763SOL    HW125922   2.067   3.625   2.627  1.5362  3.6971  0.1131
 4763SOL    HW225923   1.978   3.743   2.637 -0.1685 -0.3285  0.9813
 4764SOL     OW25924   3.437   0.376  17.284 -0.1582  0.4842 -0.6695
 4764SOL    HW125925   3.399   0.432  17.216 -0.8429  0.8377  0.0100
 4764SOL    HW225926   3.425   0.288  17.247  0.8888 -0.7221  1.9327
 4765SOL     OW25927   0.066   4.474   3.818 -0.0987 -0.1155  0.4203
 4765SOL    HW125928   0.096   4.560   3.791 -0.5435  0.7268  2.6247
 4765SOL    HW225929   0.138   4.425   3.777 -0.0179  1.2740 -1.0997
 4766SOL     OW25930   3.707   4.604   1.761  0.5302  0.2105 -0.2747
 4766SOL    HW125931   3.728   4.638   1.674 -3.6901 -0.0933 -1.4083
 4766SOL    HW225932   3.743   4.516   1.770 -2.0856 -0.8606 -0.0764
 4767SOL     OW25933   1.005   2.025   7.452 -0.2306 -0.3978  0.5711
 4767SOL    HW125934   0.928   2.057   7.499 -0.6122 -0.2124 -0.1885
 4767SOL    HW225935   0.986   1.932   7.445 -1.4882  0.0937 -2.4610
 4768SOL     OW25936   0.486   1.622  12.967  0.0687  0.1343 -0.5042
 4768SOL    HW125937   0.418   1.581  13.020 -0.0657  1.9425  0.7253
 4768SOL    HW225938   0.560   1.629  13.028 -0.7453 -1.1659  0.6182
 4769SOL     OW25939   1.327   4.639  12.021 -0.2203 -0.4878  0.4834
 4769SOL    HW125940   1.321   4.594  12.105 -0.5599 -2.2611 -0.4871
 4769SOL    HW225941   1.365   4.564  11.975  0.0744  0.9712 -1.6094
 4770SOL     OW25942   3.291   1.739   5.667 -0.1949  0.1601 -0.1508
 4770SOL    HW125943   3.220   1.762   5.607 -0.8778  0.4748  0.7856
 4770SOL    HW225944   3.260   1.749   5.757  0.1740  1.6047 -0.1851
 4771SOL     OW25945   2.728   1.329   5.047 -0.1198 -0.0578 -0.1022
 4771SOL    HW125946   2.758   1.293   4.963 -1.5679 -0.7305 -0.3323
 4771SOL    HW225947   2.636   1.344   5.029 -1.0066 -1.1190  3.5975
 4772SOL     OW25948   0.261   3.828  17.284 -0.0010 -0.1835 -0.1629
 4772SOL    HW125949   0.175   3.858  17.312 -0.5588 -1.5994 -0.3619
 4772SOL    HW225950   0.276   3.882  17.207  2.4537 -1.7206 -0.7688
 4773SOL     OW25951   1.011   3.256   2.682 -0.3267  0.0978 -0.6906
 4773SOL    HW125952   1.079   3.289   2.742  0.9051  2.1785 -3.2518
 4773SOL    HW225953   1.018   3.313   2.606  0.6280 -1.4943 -1.7825
 4774SOL     OW25954   3.315   0.277   6.781  0.0630 -0.0282 -0.0899
 4774SOL    HW125955   3.252   0.347   6.798  2.3224  2.3464 -1.4085
 4774SOL    HW225956   3.260   0.198   6.782  3.1679 -2.1677  1.9029
 4775SOL     OW25957   3.520   4.710   4.043  0.0805 -0.1249 -0.0587
 4775SOL    HW125958   3.583   4.639   4.034  0.2469 -0.1798  1.3887
 4775SOL    HW225959   3.440   4.667   4.071  0.0999  1.0702  1.8831
 4776SOL     OW25960   4.437   0.801  11.701 -0.0169 -0.0718 -0.1752
 4776SOL    HW125961   4.359   0.780  11.650 -0.8341  0.8646  0.6845
 4776SOL    HW225962   4.464   0.885  11.664  1.6790 -1.2345 -1.5811
 4777SOL     OW25963   3.513   0.352   6.112 -0.0640  0.3217 -0.5746
 4777SOL    HW125964   3.462   0.352   6.031  1.0878  0.2497 -1.2990
 4777SOL    HW225965   3.533   0.258   6.119 -0.7804  0.3191  1.5722
 4778SOL     OW25966   2.229   2.295  13.566 -0.7097  0.1729 -0.2958
 4778SOL    HW125967   2.261   2.353  13.635 -0.0405 -0.6188  0.0621
 4778SOL    HW225968   2.310   2.257  13.530  0.8442  3.0404  0.2120
 4779SOL     OW25969   2.117   1.249  11.137 -0.1194 -0.0697 -0.5604
 4779SOL    HW125970   2.095   1.328  11.187 -1.8193 -0.1746 -1.1329
 4779SOL    HW225971   2.112   1.181  11.204  0.5858  1.5593  1.1676
 4780SOL     OW25972   3.157   0.494   2.928 -0.2160  0.1005  0.4524
 4780SOL    HW125973   3.187   0.557   2.993  1.8111 -0.1156 -0.2739
 4780SOL    HW225974   3.134   0.416   2.980  0.4615  0.4334  1.2439
 4781SOL     OW25975   3.136   1.606  10.613  0.2132 -0.0415 -0.0330
 4781SOL    HW125976   3.154   1.653  10.531  3.1499 -0.7414  0.2084
 4781SOL    HW225977   3.229   1.590  10.632  0.1544 -0.6342 -0.2312
 4782SOL     OW25978   1.010   0.689  12.437  0.5909  0.1837  0.0630
 4782SOL    HW125979   0.990   0.603  12.474  1.5517 -0.0149  0.1058
 4782SOL    HW225980   0.931   0.709  12.386 -0.2372 -0.1335  1.2387
 4783SOL     OW25981   4.497   0.080  12.991  0.0594 -0.6813 -0.4480
 4783SOL    HW125982   4.484   0.024  13.068 -2.8483 -0.9921 -1.1555
 4783SOL    HW225983   4.420   0.065  12.936  1.3756  1.1065 -2.7549
 4784SOL     OW25984   4.564   3.944   5.324  0.3329 -0.5084  0.2248
 4784SOL    HW125985   4.646   3.896   5.319  1.0116  0.8457 -1.6179
 4784SOL    HW225986   4.562   3.957   5.419  1.2583  1.3003 -0.0121
 4785SOL     OW25987   2.991   2.424   6.971 -0.0159  0.3664 -0.5264
 4785SOL    HW125988   2.978   2.508   6.928 -1.7170  0.3807  0.0064
 4785SOL    HW225989   3.025   2.376   6.895  1.1939  0.2174  0.1009
 4786SOL     OW25990   0.487   2.549   2.025  0.7264  0.4973  0.6456
 4786SOL    HW125991   0.508   2.471   1.974 -0.7015  1.0541 -0.8157
 4786SOL    HW225992   0.544   2.543   2.101 -0.5717 -0.1869  1.5616
 4787SOL     OW25993   0.688   3.709   6.538  0.3340  0.2965 -0.0642
 4787SOL    HW125994   0.603   3.742   6.567  0.3089  1.2106 -1.2215
 4787SOL    HW225995   0.660   3.627   6.497 -0.6623 -0.9624  3.1498
 4788SOL     OW25996   3.215   2.599   0.533 -0.3209 -0.1320 -0.3290
 4788SOL    HW125997   3.269   2.659   0.585  2.1825 -2.2001 -0.5272
 4788SOL    HW225998   3.176   2.537   0.594  3.0579  2.2576  4.2828
 4789SOL     OW25999   2.186   3.072   7.774  0.3443 -0.3486 -0.3790
 4789SOL    HW126000   2.218   3.000   7.719  0.3928 -0.6867  0.0984
 4789SOL    HW226001   2.095   3.045   7.788  1.1154 -0.8240  3.5151
 4790SOL     OW26002   1.489   4.596   6.542  0.2273  0.2154 -0.7167
 4790SOL    HW126003   1.477   4.686   6.512  2.7883  1.2105  1.2469
 4790SOL    HW226004   1.401   4.559   6.532 -0.0640  0.3624  1.2203
 4791SOL     OW26005   0.839   3.814   6.935  0.0843  0.0104 -0.0428
 4791SOL    HW126006   0.932   3.793   6.928  0.4466  1.2566  0.9871
 4791SOL    HW226007   0.826   3.835   6.843  2.7306  0.0195 -0.4193
 4792SOL     OW26008   0.785   4.659   2.938  0.2291  0.1070 -0.2471
 4792SOL    HW126009   0.783   4.576   2.986 -0.0938 -1.0890 -2.3731
 4792SOL    HW226010   0.781   4.715   3.016 -1.5618 -1.2471  0.6444
 4793SOL     OW26011   2.909   2.236  12.406 -0.0055 -0.3151  0.0703
 4793SOL    HW126012   2.849   2.290  12.354 -0.0447  0.6603  1.1087
 4793SOL    HW226013   2.990   2.278  12.379  0.8344 -1.7412  0.4144
 4794SOL     OW26014   2.075   1.083   3.536 -0.1254  0.2156 -0.2887
 4794SOL    HW126015   2.054   1.028   3.461  1.0188  0.0448 -0.4965
 4794SOL    HW226016   1.998   1.092   3.592  0.0659  0.4774 -0.0647
 4795SOL     OW26017   3.521   4.364   9.981  0.5491  0.1103 -0.3982
 4795SOL    HW126018   3.484   4.452   9.989 -0.9023 -0.4157 -1.2295
 4795SOL    HW226019   3.609   4.362  10.018  1.1381 -1.7648 -1.8869
 4796SOL     OW26020   0.396   2.050   8.197 -0.3740 -0.5634  0.7403
 4796SOL    HW126021   0.311   2.085   8.223 -1.0516 -0.9576 -0.9465
 4796SOL    HW226022   0.377   1.965   8.157 -0.7600  0.0075 -0.2861
 4797SOL     OW26023   0.319   4.718  12.857 -0.9321 -0.3928  0.4173
 4797SOL    HW126024   0.363   4.715  12.772 -0.3440  0.5832  0.6938
 4797SOL    HW226025   0.332   4.627  12.884  0.7598 -0.3503 -0.3051
 4798SOL     OW26026   0.971   3.802  14.211 -0.1746 -0.1252  0.3568
 4798SOL    HW126027   0.938   3.838  14.293 -2.3503  2.3110 -1.5291
 4798SOL    HW226028   1.011   3.879  14.171 -1.8148 -0.1210 -1.3045
 4799SOL     OW26029   1.000   1.503   7.410 -0.3927  0.7283  0.0905
 4799SOL    HW126030   0.967   1.419   7.377  0.4172  0.3087  0.3512
 4799SOL    HW226031   0.995   1.485   7.504 -2.6002  0.3134 -0.1010
 4800SOL     OW26032   3.274   3.120   3.049  0.1433  0.0059  0.5483
 4800SOL    HW126033   3.212   3.162   3.110 -0.8151  0.5759 -0.8103
 4800SOL    HW226034   3.295   3.044   3.104 -0.0306 -1.0296 -0.8273
 4801SOL     OW26035   3.107   1.139  11.962 -0.2892 -0.1500  0.5152
 4801SOL    HW126036   3.081   1.049  11.942  0.3323 -0.4014  0.8488
 4801SOL    HW226037   3.087   1.136  12.055 -3.4705  2.1633 -0.0725
 4802SOL     OW26038   0.857   3.121   0.290  0.4752  0.4489  0.0498
 4802SOL    HW126039   0.896   3.161   0.368  2.2874 -3.4692  1.1431
 4802SOL    HW226040   0.764   3.124   0.314 -0.0820 -0.0030 -2.0554
 4803SOL     OW26041   3.690   0.121   2.131 -0.1173 -0.0303  0.1772
 4803SOL    HW126042   3.758   0.059   2.105  0.4691  0.3687  0.7834
 4803SOL    HW226043   3.694   0.181   2.055  0.1599 -0.7533 -0.3765
 4804SOL     OW26044   2.677   3.472  16.369 -0.4126 -0.6735 -0.1596
 4804SOL    HW126045   2.718   3.550  16.332 -0.5468 -0.8656 -0.7115
 4804SOL    HW226046   2.714   3.498  16.454  0.1401 -0.2685 -0.5288
 4805SOL     OW26047   2.193   4.406  12.648  0.3413 -0.4892 -0.0608
 4805SOL    HW126048   2.194   4.314  12.675  1.4165  0.0577  1.7744
 4805SOL    HW226049   2.231   4.407  12.561 -1.6875 -0.5799 -0.9504
 4806SOL     OW26050   0.063   3.820   3.524 -0.1676  0.0933  0.1332
 4806SOL    HW126051   0.146   3.783   3.555 -0.1999 -0.2334 -0.1782
 4806SOL    HW226052   0.104   3.832   3.439 -0.1145  1.4312  0.3496
 4807SOL     OW26053   2.796   1.575   7.592  0.5502  0.3018  0.3567
 4807SOL    HW126054   2.798   1.492   7.639 -1.4097 -0.2727 -0.5624
 4807SOL    HW226055   2.887   1.583   7.565  0.4700  2.6464  0.7244
 4808SOL     OW26056   1.127   2.305   6.124  0.2337 -0.5515 -0.1825
 4808SOL    HW126057   1.155   2.392   6.094 -0.8310  0.0535  0.5522
 4808SOL    HW226058   1.194   2.271   6.183  0.1428 -0.1946  0.1288
 4809SOL     OW26059   4.536   2.072   2.848 -0.2432 -0.4031  0.4094
 4809SOL    HW126060   4.598   2.030   2.789 -0.2435 -1.9393  1.5065
 4809SOL    HW226061   4.585   2.120   2.914  0.7086  1.9243 -1.9886
 4810SOL     OW26062   4.296   4.136   2.434 -0.4597  0.2844  0.4647
 4810SOL    HW126063   4.332   4.218   2.467 -0.6089  1.7134 -2.8708
 4810SOL    HW226064   4.202   4.143   2.452  0.0311 -0.2000  3.2291
 4811SOL     OW26065   3.326   1.555  12.947 -0.2315  0.4275  0.0168
 4811SOL    HW126066   3.321   1.470  12.992  0.8081 -0.4162 -1.4575
 4811SOL    HW226067   3.284   1.536  12.863 -0.4593  0.8960  0.0295
 4812SOL     OW26068   1.164   1.201   2.510 -0.3948 -0.3223 -0.5102
 4812SOL    HW126069   1.188   1.251   2.588 -2.7301  1.2830 -0.8041
 4812SOL    HW226070   1.210   1.118   2.511 -1.4730 -0.8811  2.0499
 4813SOL     OW26071   1.789   2.550  17.390  0.3637 -0.6001  0.2084
 4813SOL    HW126072   1.848   2.511  17.325 -1.4338  0.4554 -2.0763
 4813SOL    HW226073   1.804   2.644  17.389  0.3624 -0.6047 -0.4548
 4814SOL     OW26074   4.577   2.110   4.896 -0.2075  0.6720 -0.3465
 4814SOL    HW126075   4.518   2.146   4.829 -2.4738 -1.3542  0.5560
 4814SOL    HW226076   4.647   2.175   4.892  2.3988 -2.1539 -0.4593
 4815SOL     OW26077   0.920   1.833   2.898  0.2561 -0.3249 -0.1151
 4815SOL    HW126078   0.855   1.877   2.953  0.5988  2.0921 -1.6570
 4815SOL    HW226079   0.986   1.826   2.967 -0.8338 -0.5776  0.9020
 4816SOL     OW26080   0.190   4.300   5.891  0.0985 -0.2453  0.0007
 4816SOL    HW126081   0.176   4.213   5.853 -0.2256 -0.7885  1.3592
 4816SOL    HW226082   0.148   4.358   5.827 -0.4793  0.5079  1.0626
 4817SOL     OW26083   0.777   3.633   5.092  0.1420 -0.5246 -0.2026
 4817SOL    HW126084   0.806   3.624   5.001  1.4431 -0.3520  0.1936
 4817SOL    HW226085   0.863   3.636   5.133  0.7822 -1.6290 -1.4488
 4818SOL     OW26086   2.681   0.245   4.087  0.0389 -0.1525 -0.0904
 4818SOL    HW126087   2.686   0.165   4.139  0.3413  0.2018  0.4298
 4818SOL    HW226088   2.591   0.269   4.111  0.9763  1.6880  1.6455
 4819SOL     OW26089   0.785   2.518   5.476  0.2878  0.3992  0.2705
 4819SOL    HW126090   0.771   2.471   5.558  2.5028 -1.7684 -0.5814
 4819SOL    HW226091   0.816   2.440   5.429 -1.0350  0.8136 -1.2845
 4820SOL     OW26092   2.264   3.219  12.466  0.5885  0.7418 -0.0524
 4820SOL    HW126093   2.248   3.191  12.556 -0.9141 -0.8745 -0.8108
 4820SOL    HW226094   2.359   3.215  12.458  0.6482  1.7576  0.1975
 4821SOL     OW26095   4.307   4.544   7.149 -0.1741  0.6077  0.1037
 4821SOL    HW126096   4.327   4.499   7.231 -0.1711 -0.9882 -0.7761
 4821SOL    HW226097   4.332   4.634   7.169  0.1911  0.9215 -1.7991
 4822SOL     OW26098   0.701   3.307   7.369  0.4399  0.7828  0.3595
 4822SOL    HW126099   0.613   3.335   7.394  0.7323  1.0526  1.1001
 4822SOL    HW226100   0.742   3.294   7.455  0.5163  1.2206  0.3925
 4823SOL     OW26101   2.098   3.172  14.841  0.2738 -0.2726  0.5242
 4823SOL    HW126102   2.142   3.088  14.853  1.5200  0.2504 -0.5080
 4823SOL    HW226103   2.018   3.168  14.894 -1.2421  0.2371 -1.7435
 4824SOL     OW26104   3.002   0.521   4.068 -0.7364  0.6904  0.1123
 4824SOL    HW126105   3.044   0.437   4.081 -2.0286 -0.0859 -0.7668
 4824SOL    HW226106   3.039   0.549   3.985 -0.6793  0.7900  0.1706
 4825SOL     OW26107   3.278   3.226   4.520  0.6400  0.3908 -0.2257
 4825SOL    HW126108   3.350   3.162   4.516  1.0886  0.8470  0.4673
 4825SOL    HW226109   3.337   3.300   4.532  1.7151 -0.3130 -1.1835
 4826SOL     OW26110   1.157   2.469  16.864 -0.1502  0.0322  0.0164
 4826SOL    HW126111   1.185   2.519  16.941 -1.6853  0.5927  0.2136
 4826SOL    HW226112   1.221   2.500  16.799  1.6719  1.2238  2.3665
 4827SOL     OW26113   1.067   0.888   4.247  0.0823  0.5595 -0.0084
 4827SOL    HW126114   1.098   0.813   4.299 -1.3130  0.4094  0.6255
 4827SOL    HW226115   1.113   0.967   4.275 -1.3668  1.7203 -0.8843
 4828SOL     OW26116   1.736   0.295  15.128 -0.0322 -0.2199  0.2220
 4828SOL    HW126117   1.817   0.340  15.152 -1.3853  1.2502  2.0171
 4828SOL    HW226118   1.702   0.279  15.216 -3.0433 -1.7908 -1.2255
 4829SOL     OW26119   2.754   0.669   2.353  0.1026 -0.7750 -0.5053
 4829SOL    HW126120   2.798   0.751   2.330  0.8631 -1.0698 -0.0859
 4829SOL    HW226121   2.820   0.639   2.415 -2.3904  1.8840  3.4121
 4830SOL     OW26122   2.046   4.313   6.596 -0.3003 -0.3549 -0.2709
 4830SOL    HW126123   2.070   4.392   6.547  1.5570 -2.1094 -2.2049
 4830SOL    HW226124   2.059   4.247   6.528 -0.9873  1.6994 -2.3833
 4831SOL     OW26125   0.037   2.389   8.607  0.0867 -0.4472 -0.2947
 4831SOL    HW126126   0.083   2.324   8.660  1.7536 -0.2454 -1.4590
 4831SOL    HW226127   4.736   2.427   8.685  1.4241  2.4149 -0.9839
 4832SOL     OW26128   2.941   1.943   3.173 -0.1782 -0.0695  0.0455
 4832SOL    HW126129   2.927   1.927   3.079  1.4710  0.9275 -0.3636
 4832SOL    HW226130   2.849   1.929   3.196 -0.5578 -0.0746 -1.4642
 4833SOL     OW26131   1.842   3.261   1.137 -0.4528  0.3058  0.5039
 4833SOL    HW126132   1.909   3.286   1.074 -1.6405  1.1218 -0.4150
 4833SOL    HW226133   1.802   3.344   1.162  1.0756  1.2146 -0.0228
 4834SOL     OW26134   0.681   2.318  16.405 -0.7715  0.5161 -0.9080
 4834SOL    HW126135   0.670   2.244  16.464  1.1179  0.6255 -0.4044
 4834SOL    HW226136   0.697   2.270  16.324 -0.7033 -2.6785  1.0336
 4835SOL     OW26137   1.520   0.466   3.685  1.0365 -0.1478  0.0562
 4835SOL    HW126138   1.588   0.417   3.638 -0.3993 -2.3098  0.2336
 4835SOL    HW226139   1.455   0.490   3.619  1.2283 -0.5576 -0.2861
 4836SOL     OW26140   3.295   1.889  13.115  0.8767  0.2263  0.5715
 4836SOL    HW126141   3.291   1.976  13.156 -1.5402  0.6477 -0.5339
 4836SOL    HW226142   3.287   1.828  13.188  0.7922 -0.6745 -0.2011
 4837SOL     OW26143   3.981   0.398   2.622  0.1505  0.8686 -0.0457
 4837SOL    HW126144   3.998   0.308   2.593  0.0248  1.0261 -0.6140
 4837SOL    HW226145   3.991   0.445   2.539  1.2370  1.2712  0.3209
 4838SOL     OW26146   2.082   3.489   1.253  0.1592  0.5742  0.3030
 4838SOL    HW126147   2.078   3.442   1.170  0.6264  1.5682 -0.2911
 4838SOL    HW226148   2.096   3.576   1.214  2.1082 -0.5969 -1.6037
 4839SOL     OW26149   3.721   4.303   3.508 -0.2789 -0.2084  0.0044
 4839SOL    HW126150   3.776   4.256   3.444  1.9042 -0.9251  2.4105
 4839SOL    HW226151   3.782   4.322   3.580  0.4408 -0.9654 -0.3974
 4840SOL     OW26152   0.078   2.439   7.771  0.8034  0.2978 -0.3859
 4840SOL    HW126153   0.128   2.394   7.839  0.3078 -0.0260 -0.2372
 4840SOL    HW226154   0.085   2.386   7.691  0.3145 -1.1840  0.5565
 4841SOL     OW26155   3.201   1.263   7.061  0.3513  0.0192  0.1574
 4841SOL    HW126156   3.273   1.273   7.123 -1.0811 -0.7267  1.9513
 4841SOL    HW226157   3.152   1.196   7.108  0.5491  1.2293  2.0979
 4842SOL     OW26158   1.872   0.485   5.897 -0.4075  0.1408  0.8303
 4842SOL    HW126159   1.848   0.511   5.808 -1.2605  0.3572  1.1161
 4842SOL    HW226160   1.917   0.406   5.869 -0.1066 -0.5085  3.1176
 4843SOL     OW26161   1.401   1.220   7.328 -0.2171 -0.2014  0.7071
 4843SOL    HW126162   1.490   1.197   7.301  0.3008  1.6423  0.7735
 4843SOL    HW226163   1.417   1.264   7.412 -0.8839 -1.8211  1.6817
 4844SOL     OW26164   3.758   4.442   5.689 -0.3116  0.4855  0.3892
 4844SOL    HW126165   3.720   4.425   5.775 -1.5538  1.9900  0.1463
 4844SOL    HW226166   3.852   4.452   5.704 -0.6266 -0.4872  3.0182
 4845SOL     OW26167   4.359   0.439   6.550  0.1427 -0.0661 -0.6125
 4845SOL    HW126168   4.435   0.497   6.555  0.1252 -0.0242 -0.8585
 4845SOL    HW226169   4.390   0.376   6.485 -0.7709 -1.7924  0.6070
 4846SOL     OW26170   2.923   2.590   9.761 -0.2506  0.9006 -0.0353
 4846SOL    HW126171   3.004   2.615   9.715  0.1105 -1.1943 -0.5453
 4846SOL    HW226172   2.967   2.552   9.837  1.0898  0.4345 -1.0267
 4847SOL     OW26173   3.854   1.741   3.636 -0.7413  0.3815  0.3345
 4847SOL    HW126174   3.916   1.683   3.680  1.8119  3.3598  0.6622
 4847SOL    HW226175   3.880   1.817   3.688  2.0774 -0.6062  0.3720
 4848SOL     OW26176   2.440   4.396  17.684  0.3936  0.2457  0.6055
 4848SOL    HW126177   2.376   4.390  17.613  0.3734  0.2840  0.6201
 4848SOL    HW226178   2.465   4.488  17.683  1.2378 -0.0027 -0.4801
 4849SOL     OW26179   0.642   0.009   5.234  0.8560  0.4213 -0.0526
 4849SOL    HW126180   0.701   0.028   5.307  1.0245  1.2051 -0.3897
 4849SOL    HW226181   0.593   4.679   5.279  1.3103  1.1206  1.4996
 4850SOL     OW26182   3.322   3.138  16.770  0.3233 -0.2550 -0.0855
 4850SOL    HW126183   3.342   3.123  16.862  0.1370 -0.3031 -0.0515
 4850SOL    HW226184   3.381   3.213  16.766 -0.3067  0.1229 -2.4570
 4851SOL     OW26185   0.816   3.587   3.902  0.1243 -0.6044  0.1150
 4851SOL    HW126186   0.724   3.613   3.909  0.0868  0.4478 -4.2330
 4851SOL    HW226187   0.843   3.626   3.985  0.1253  1.2322 -0.7465
 4852SOL     OW26188   0.741   1.507  11.045  0.0551 -0.7621 -0.0008
 4852SOL    HW126189   0.650   1.519  11.071  0.9105  1.9962  1.7083
 4852SOL    HW226190   0.750   1.417  11.017 -2.9485 -1.1549  0.2768
 4853SOL     OW26191   3.142   1.858   5.482 -0.5731 -0.0793  0.3856
 4853SOL    HW126192   3.080   1.829   5.415 -0.9182 -0.1965  0.7551
 4853SOL    HW226193   3.219   1.815   5.444 -0.9649 -0.1296 -0.3505
 4854SOL     OW26194   0.599   2.729   5.046 -0.2548 -0.3858 -0.1689
 4854SOL    HW126195   0.637   2.641   5.041 -0.0946 -0.2806 -0.8817
 4854SOL    HW226196   0.617   2.741   5.139  0.6444 -2.1646 -0.0955
 4855SOL     OW26197   3.240   3.885   8.460 -0.9424 -0.3003 -0.2466
 4855SOL    HW126198   3.299   3.811   8.468 -0.1847  0.3358  0.0736
 4855SOL    HW226199   3.263   3.937   8.537  2.1073 -1.3546 -0.4186
 4856SOL     OW26200   1.613   3.191  13.672 -0.3863  0.4711  0.2946
 4856SOL    HW126201   1.566   3.187  13.588  0.9761 -1.3368 -0.3821
 4856SOL    HW226202   1.647   3.281  13.671  2.3816 -0.6146 -1.8754
 4857SOL     OW26203   3.289   1.432   6.204 -0.2422  0.5582 -0.1646
 4857SOL    HW126204   3.380   1.462   6.195 -0.1342  0.0882 -0.5844
 4857SOL    HW226205   3.295   1.354   6.149  0.5678  1.6260 -1.5885
 4858SOL     OW26206   0.308   3.892  15.742  0.0519 -0.5770  0.3515
 4858SOL    HW126207   0.398   3.876  15.713  0.2600  0.1971  0.5725
 4858SOL    HW226208   0.265   3.904  15.657  2.2638  2.3657 -0.3451
 4859SOL     OW26209   3.519   0.650   6.138  0.8707 -0.5968 -0.3043
 4859SOL    HW126210   3.545   0.597   6.213  1.3754  0.5229  0.3142
 4859SOL    HW226211   3.553   0.603   6.062 -0.7870 -1.3510 -0.5766
 4860SOL     OW26212   2.159   3.338   2.716 -0.1392 -0.4712  0.4553
 4860SOL    HW126213   2.133   3.385   2.795 -2.7708 -0.6280 -0.3211
 4860SOL    HW226214   2.254   3.352   2.719 -0.3484  1.1826 -0.5043
 4861SOL     OW26215   2.342   2.684   7.363  0.3622  0.1125  0.1589
 4861SOL    HW126216   2.358   2.614   7.427 -1.2149 -1.3564 -1.0437
 4861SOL    HW226217   2.247   2.686   7.351  0.5200  0.3123 -1.0596
 4862SOL     OW26218   1.024   3.011   3.111 -0.7366  0.2442 -0.1731
 4862SOL    HW126219   0.929   3.021   3.114 -0.6422  1.1241 -0.0292
 4862SOL    HW226220   1.031   2.940   3.047 -0.3268  0.9103 -0.8581
 4863SOL     OW26221   0.684   1.054   3.370  0.3671  0.1582 -0.3001
 4863SOL    HW126222   0.672   0.996   3.295 -1.4630  1.0187 -0.6772
 4863SOL    HW226223   0.745   1.010   3.430 -2.0050  1.7236  3.2637
 4864SOL     OW26224   2.083   4.463   5.488  0.5085 -0.1382  0.4209
 4864SOL    HW126225   1.987   4.456   5.481  0.7972 -0.9317 -3.2352
 4864SOL    HW226226   2.090   4.552   5.523  1.0945 -0.6758  1.6455
 4865SOL     OW26227   2.292   1.894  17.154 -0.2230 -0.3273 -0.0123
 4865SOL    HW126228   2.220   1.871  17.214 -2.8870  0.2517 -3.0139
 4865SOL    HW226229   2.368   1.891  17.212  1.1369  0.7320 -1.7556
 4866SOL     OW26230   4.180   4.464   6.485 -0.1185  0.2267 -0.2242
 4866SOL    HW126231   4.129   4.420   6.552  1.2598  0.6937  1.1247
 4866SOL    HW226232   4.118   4.533   6.461 -1.3367  0.0569  2.4276
 4867SOL     OW26233   0.611   1.581   8.965 -0.3591  0.0836 -0.4443
 4867SOL    HW126234   0.607   1.495   8.924 -1.6022  0.6686 -1.5620
 4867SOL    HW226235   0.519   1.581   8.992 -0.5104 -1.1472 -0.9572
 4868SOL     OW26236   4.654   0.201   3.033 -0.2528  0.0043 -0.0654
 4868SOL    HW126237   4.666   0.294   3.051  0.7906  0.0664 -1.0906
 4868SOL    HW226238   4.600   0.209   2.954 -0.5523 -0.8688  0.0477
 4869SOL     OW26239   4.695   1.222  11.632  0.3995 -0.2383  0.4082
 4869SOL    HW126240   0.009   1.293  11.597  1.3389 -1.8368 -1.3813
 4869SOL    HW226241   4.734   1.196  11.716  1.4248 -1.4634 -0.4498
 4870SOL     OW26242   0.357   0.117   7.722 -0.5779  0.5055 -0.6599
 4870SOL    HW126243   0.374   0.148   7.811  0.0177  0.4852 -0.7650
 4870SOL    HW226244   0.296   0.043   7.727 -1.9579  1.7747  1.3488
 4871SOL     OW26245   4.090   3.346  11.311  0.7585  0.6929 -0.1812
 4871SOL    HW126246   4.048   3.278  11.258 -0.5565  0.9577  0.5220
 4871SOL    HW226247   4.137   3.391  11.241  2.1875 -1.1858 -0.4567
 4872SOL     OW26248   2.686   2.532   5.696  0.7143 -0.4793  0.2418
 4872SOL    HW126249   2.602   2.489   5.682 -0.0463  0.4484  2.0332
 4872SOL    HW226250   2.696   2.528   5.791  1.5239 -0.7854  0.1395
 4873SOL     OW26251   2.766   4.091   2.951 -0.2626  0.2180 -0.3148
 4873SOL    HW126252   2.675   4.098   2.922 -0.2382  1.4060 -0.0786
 4873SOL    HW226253   2.780   3.996   2.945  4.1206  0.9614 -1.2614
 4874SOL     OW26254   2.662   0.299  14.009 -0.0499 -0.2086  0.3484
 4874SOL    HW126255   2.601   0.361  14.050 -1.0803 -0.9310 -0.1019
 4874SOL    HW226256   2.649   0.217  14.056 -1.1637 -0.6259 -0.6848
 4875SOL     OW26257   1.606   0.101   6.742 -0.1623  0.5131 -0.4649
 4875SOL    HW126258   1.600   0.119   6.836 -1.0060 -1.6527 -0.0954
 4875SOL    HW226259   1.516   0.089   6.711 -0.2707 -0.3329  0.1566
 4876SOL     OW26260   3.103   3.827   9.146  0.1530 -0.0857 -0.0511
 4876SOL    HW126261   3.102   3.821   9.050 -0.7544  0.9939 -0.1011
 4876SOL    HW226262   3.040   3.764   9.181 -1.3301  0.7082 -1.3108
 4877SOL     OW26263   0.398   4.712   4.599  1.0701 -0.1332  0.2963
 4877SOL    HW126264   0.346   4.729   4.521  1.2180  0.7938  0.4049
 4877SOL    HW226265   0.337   4.666   4.657 -1.5320  0.5702 -1.9107
 4878SOL     OW26266   2.429   3.711   2.438  0.0148 -0.4136  0.3867
 4878SOL    HW126267   2.489   3.786   2.433  0.4584 -0.8014 -0.0870
 4878SOL    HW226268   2.489   3.643   2.408  2.0974  0.7764  1.8510
 4879SOL     OW26269   1.577   0.162   8.252  0.1476 -0.2624  0.2851
 4879SOL    HW126270   1.567   0.069   8.274  0.9178 -0.4840 -0.2852
 4879SOL    HW226271   1.502   0.202   8.296 -0.3502  0.3815 -1.1662
 4880SOL     OW26272   1.484   2.140   9.863  0.4664 -0.2988  0.1905
 4880SOL    HW126273   1.401   2.098   9.885 -0.6265  1.8011  0.1054
 4880SOL    HW226274   1.543   2.066   9.877 -1.0736 -1.5693 -0.1016
 4881SOL     OW26275   2.961   0.124   7.350  0.0992  0.2619  0.1922
 4881SOL    HW126276   3.041   0.132   7.402 -1.4182 -0.0813  2.5589
 4881SOL    HW226277   3.002   0.160   7.271 -0.9635  0.2059 -0.3778
 4882SOL     OW26278   3.320   0.743   9.309 -0.2782  0.6178 -0.1227
 4882SOL    HW126279   3.264   0.667   9.320 -2.3805  2.3509  1.1290
 4882SOL    HW226280   3.299   0.812   9.372 -2.0461  1.5155 -1.6948
 4883SOL     OW26281   2.217   1.188  13.100  0.0567 -0.0794  0.4031
 4883SOL    HW126282   2.229   1.093  13.099 -0.6756 -0.1728 -0.3642
 4883SOL    HW226283   2.270   1.223  13.171 -1.0016  0.3702  0.9796
 4884SOL     OW26284   4.584   2.782  13.150 -0.2919 -0.1234  0.4763
 4884SOL    HW126285   4.506   2.823  13.112  1.3274 -1.0424 -3.7730
 4884SOL    HW226286   4.617   2.730  13.077 -2.5367 -1.0043  0.0913
 4885SOL     OW26287   0.188   0.460   4.098 -0.9472 -0.2461  0.2014
 4885SOL    HW126288   0.160   0.437   4.009  1.5304  2.4089 -1.2584
 4885SOL    HW226289   0.239   0.536   4.072 -0.1839 -1.0484 -0.6349
 4886SOL     OW26290   4.669   2.129  16.518 -0.1575 -0.1549  0.6625
 4886SOL    HW126291   4.674   2.189  16.444 -0.2867  1.5944  2.0630
 4886SOL    HW226292   4.608   2.065  16.484 -1.9234  1.6984  0.3553
 4887SOL     OW26293   2.851   3.369  15.256  0.5040  0.3910 -0.1774
 4887SOL    HW126294   2.866   3.441  15.195 -1.6098  0.9750 -0.0021
 4887SOL    HW226295   2.779   3.407  15.306 -0.4929  0.5971 -1.7610
 4888SOL     OW26296   4.434   3.453   5.850  0.3790 -0.6925 -0.0074
 4888SOL    HW126297   4.445   3.429   5.758 -1.7043 -1.6954  0.0024
 4888SOL    HW226298   4.520   3.487   5.874  1.1561 -0.7933 -2.6771
 4889SOL     OW26299   4.467   2.214   8.119  0.6677 -0.5614 -0.1566
 4889SOL    HW126300   4.506   2.144   8.170 -1.3333 -2.2978 -1.0104
 4889SOL    HW226301   4.475   2.179   8.030 -0.4162 -0.9213 -0.1140
 4890SOL     OW26302   4.125   3.620   8.443 -0.2365  0.4613 -0.0366
 4890SOL    HW126303   4.038   3.651   8.416 -0.3324  0.1988 -0.0384
 4890SOL    HW226304   4.119   3.644   8.536  0.1081  1.3028 -0.2375
 4891SOL     OW26305   3.076   4.626   9.188  0.1366  0.6081  0.3235
 4891SOL    HW126306   2.995   4.585   9.158  1.1940 -2.1094  1.2143
 4891SOL    HW226307   3.095   4.591   9.275  1.7534 -0.8624 -0.6023
 4892SOL     OW26308   1.460   4.163   4.091 -0.1377 -0.3408 -0.3063
 4892SOL    HW126309   1.499   4.220   4.157 -0.1672  1.5474 -1.9541
 4892SOL    HW226310   1.486   4.206   4.010 -0.9247 -1.9535 -1.4331
 4893SOL     OW26311   4.128   2.009  17.543  0.1298  0.1320  0.2227
 4893SOL    HW126312   4.076   2.053  17.610  0.9419  3.7047 -1.4766
 4893SOL    HW226313   4.060   1.952  17.509  1.6832  0.1948 -2.9668
 4894SOL     OW26314   0.824   2.408   7.000 -0.3123  0.3854  0.6227
 4894SOL    HW126315   0.747   2.462   7.016 -1.3425 -1.5752  2.2725
 4894SOL    HW226316   0.885   2.430   7.070 -0.8876  0.7699  0.9948
 4895SOL     OW26317   1.790   2.198   5.072 -0.1711  0.2400  0.7876
 4895SOL    HW126318   1.731   2.265   5.037  0.1601  0.6580  1.0330
 4895SOL    HW226319   1.863   2.204   5.011 -0.5461  3.2354  0.6598
 4896SOL     OW26320   3.184   0.772  12.134  0.0181 -0.7431 -0.6148
 4896SOL    HW126321   3.134   0.819  12.067  2.7185  0.9256 -1.4856
 4896SOL    HW226322   3.176   0.838  12.203 -1.0233 -0.0318 -1.4084
 4897SOL     OW26323   0.851   2.874  15.294  0.7689  0.2226 -0.4327
 4897SOL    HW126324   0.927   2.909  15.341  0.7074 -0.6040  0.2814
 4897SOL    HW226325   0.809   2.815  15.357  1.0021  0.8791  0.3397
 4898SOL     OW26326   1.931   0.746   5.987 -0.1381  0.2654 -0.0905
 4898SOL    HW126327   1.955   0.780   5.901  0.6187  1.0263  0.4162
 4898SOL    HW226328   1.909   0.654   5.971  2.1833 -0.2111 -0.5573
 4899SOL     OW26329   0.400   0.717   0.042  0.3728  0.2457 -0.4135
 4899SOL    HW126330   0.475   0.728   0.101 -0.6282  1.4079  0.6153
 4899SOL    HW226331   0.444   0.680  17.718  1.6483 -0.1664  0.5109
 4900SOL     OW26332   3.423   0.952   8.334 -0.1124 -0.2942  0.4318
 4900SOL    HW126333   3.423   1.016   8.263 -1.9465  1.9508  2.4247
 4900SOL    HW226334   3.457   1.008   8.403 -0.1127 -0.2841  0.4238
 4901SOL     OW26335   3.512   1.405   2.343 -0.3360  0.0693 -0.2835
 4901SOL    HW126336   3.545   1.357   2.418 -1.0736  1.4261  0.9010
 4901SOL    HW226337   3.510   1.339   2.274  0.4948 -1.1646  0.9017
 4902SOL     OW26338   0.375   3.613   8.777 -0.3126  1.2577  0.1066
 4902SOL    HW126339   0.373   3.517   8.774 -1.1705  1.2812  0.0289
 4902SOL    HW226340   0.289   3.623   8.817 -1.3809 -0.6252 -1.7045
 4903SOL     OW26341   2.923   3.962   0.436  0.5353  0.5230  0.3672
 4903SOL    HW126342   2.828   3.975   0.441  0.6018  1.6049 -1.4171
 4903SOL    HW226343   2.951   3.995   0.522 -2.0681 -0.1418  1.4847
 4904SOL     OW26344   4.350   1.161  11.398 -0.1663 -0.0597 -0.0645
 4904SOL    HW126345   4.313   1.249  11.404 -1.1620 -0.3753 -1.4155
 4904SOL    HW226346   4.420   1.167  11.333 -0.0422 -0.4745  0.0301
 4905SOL     OW26347   3.327   3.927   0.680  0.2634  0.4195  0.4339
 4905SOL    HW126348   3.404   3.920   0.736 -0.7741 -0.4587  1.7325
 4905SOL    HW226349   3.264   3.867   0.719  0.2516 -0.0761 -0.3432
 4906SOL     OW26350   3.642   2.192  10.493 -0.5278 -0.6184 -0.2365
 4906SOL    HW126351   3.666   2.197  10.585  0.6975 -0.5198 -0.5593
 4906SOL    HW226352   3.724   2.202  10.444 -0.0752  1.1110  0.9024
 4907SOL     OW26353   1.614   3.654   7.353  0.0160 -0.2103  0.0783
 4907SOL    HW126354   1.590   3.598   7.280  1.3849 -2.9634  1.7020
 4907SOL    HW226355   1.647   3.727   7.302  2.7437 -2.2169 -1.0240
 4908SOL     OW26356   1.802   3.458  17.202  0.3036  0.5387 -0.3526
 4908SOL    HW126357   1.884   3.414  17.183  0.2781 -0.7040  2.4964
 4908SOL    HW226358   1.740   3.393  17.168 -2.3004  2.8598 -0.0066
 4909SOL     OW26359   2.525   1.615   5.425  0.2847 -0.2600 -0.0524
 4909SOL    HW126360   2.561   1.602   5.337  2.2776  3.0582  0.2892
 4909SOL    HW226361   2.432   1.615   5.402  0.4525  2.5775 -0.7977
 4910SOL     OW26362   0.749   0.268  16.801  0.1907  0.3773  0.1746
 4910SOL    HW126363   0.692   0.249  16.726  1.5604  0.1876 -0.8139
 4910SOL    HW226364   0.832   0.280  16.755  0.8219 -2.7877  0.4985
 4911SOL     OW26365   0.443   4.662  12.608  0.4989  0.4884 -0.0210
 4911SOL    HW126366   0.354   4.655  12.572  0.0164  1.5292  0.9559
 4911SOL    HW226367   0.489   4.736  12.570  2.4988 -0.6653  0.1442
 4912SOL     OW26368   4.371   3.427  10.870 -0.5566  0.3116 -0.3458
 4912SOL    HW126369   4.421   3.345  10.875  0.8296  1.0929 -1.3763
 4912SOL    HW226370   4.419   3.473  10.801  1.9182 -1.3514  0.2540
 4913SOL     OW26371   4.616   1.836  13.503 -0.2053 -0.0975 -0.2413
 4913SOL    HW126372   4.559   1.760  13.520 -1.7883  1.2326  0.3994
 4913SOL    HW226373   4.550   1.902  13.485  0.4646  1.0892  1.6794
 4914SOL     OW26374   1.934   3.396   3.700 -0.8863 -0.1739  0.3109
 4914SOL    HW126375   2.012   3.434   3.661 -1.3933  0.4806 -0.0687
 4914SOL    HW226376   1.942   3.307   3.665 -1.0884  0.0017 -0.1773
 4915SOL     OW26377   1.398   1.979   6.533  0.3121 -0.0422  0.0634
 4915SOL    HW126378   1.430   2.066   6.557 -2.0219  0.1055  2.7416
 4915SOL    HW226379   1.304   1.997   6.538 -0.1728 -1.9490 -2.1469
 4916SOL     OW26380   1.710   3.942   3.367 -0.3414  0.3033 -0.0596
 4916SOL    HW126381   1.765   3.901   3.300 -1.1380 -0.5427 -0.2032
 4916SOL    HW226382   1.634   3.884   3.371  1.7516 -2.3773  1.6234
 4917SOL     OW26383   4.535   4.653  16.567 -0.1629 -0.5287  0.0528
 4917SOL    HW126384   4.603   4.622  16.507  0.5397  1.8505 -0.3676
 4917SOL    HW226385   4.592   4.642  16.643  0.1509 -0.5102 -0.1798
 4918SOL     OW26386   1.542   3.148  11.021 -0.4560 -0.1982 -0.4730
 4918SOL    HW126387   1.615   3.206  10.998 -1.2823  1.5658  1.3548
 4918SOL    HW226388   1.593   3.069  11.040 -0.2429 -0.5287 -2.4125
 4919SOL     OW26389   2.266   3.029   8.493  0.0331  0.1811 -0.0413
 4919SOL    HW126390   2.248   2.936   8.501 -1.3224  0.3872 -0.8393
 4919SOL    HW226391   2.199   3.066   8.436  0.5860  1.4344  0.1165
 4920SOL     OW26392   1.170   4.288   2.055  0.1127 -0.1133 -0.0627
 4920SOL    HW126393   1.097   4.235   2.024 -0.8300 -0.0589  2.0189
 4920SOL    HW226394   1.137   4.371   2.020  0.0447 -0.8298 -1.6826
 4921SOL     OW26395   4.320   1.137   6.860  0.1728 -0.3637 -0.2518
 4921SOL    HW126396   4.253   1.142   6.793 -1.1119 -0.9674  0.9803
 4921SOL    HW226397   4.289   1.212   6.910  0.4460  0.0703 -0.7389
 4922SOL     OW26398   1.710   1.243   4.833 -0.1043 -0.2797 -0.2436
 4922SOL    HW126399   1.691   1.243   4.740 -0.4940 -4.7605 -0.1734
 4922SOL    HW226400   1.638   1.196   4.874 -1.3010  1.2472 -0.6007
 4923SOL     OW26401   2.093   3.632  10.305  0.1935 -0.1281  0.4431
 4923SOL    HW126402   2.087   3.611  10.212  0.4682 -0.6901  0.5489
 4923SOL    HW226403   2.178   3.591  10.322  0.5933  0.7771  0.6427
 4924SOL     OW26404   0.536   2.142   2.820  0.8746  0.3576 -0.0249
 4924SOL    HW126405   0.503   2.118   2.907  1.5144 -2.5376 -0.6093
 4924SOL    HW226406   0.527   2.061   2.770  0.7949  0.9089 -0.9087
 4925SOL     OW26407   2.359   2.520   5.234 -0.1855 -0.0351 -0.0393
 4925SOL    HW126408   2.265   2.526   5.253  0.2385  0.5525  1.8545
 4925SOL    HW226409   2.394   2.598   5.277  0.1229 -0.1827 -0.0249
 4926SOL     OW26410   1.419   3.409  10.095 -0.1337 -0.2264  0.1857
 4926SOL    HW126411   1.482   3.462  10.045 -1.1270  0.8613  0.0834
 4926SOL    HW226412   1.460   3.323  10.099  0.8052  0.1414 -1.3467
 4927SOL     OW26413   0.526   3.554   5.437  0.4953 -0.3384 -0.3789
 4927SOL    HW126414   0.507   3.619   5.505  0.2067 -1.2053  0.3649
 4927SOL    HW226415   0.542   3.473   5.486  1.7114  0.9410  1.3643
 4928SOL     OW26416   2.719   1.524  15.868  0.3065 -0.1887 -0.3280
 4928SOL    HW126417   2.679   1.610  15.859  0.2332 -0.3442 -1.5260
 4928SOL    HW226418   2.813   1.538  15.857  0.3266  1.2980  1.7620
 4929SOL     OW26419   0.546   2.595  11.835 -0.2082  0.5301 -0.0997
 4929SOL    HW126420   0.570   2.503  11.836  1.2371  0.8850 -2.3788
 4929SOL    HW226421   0.626   2.643  11.815  0.9660 -2.1607 -1.8269
 4930SOL     OW26422   2.392   3.503  13.464  0.4047 -0.3284 -0.6279
 4930SOL    HW126423   2.488   3.511  13.466  0.2922  1.3215 -1.7370
 4930SOL    HW226424   2.367   3.477  13.552 -2.5382  0.9150 -1.1155
 4931SOL     OW26425   4.608   0.098   1.836  0.6019  0.3541  0.0405
 4931SOL    HW126426   4.546   0.170   1.826  1.3558  0.8078 -1.3629
 4931SOL    HW226427   4.545   0.034   1.803 -0.1206  0.8895  0.3849
 4932SOL     OW26428   0.883   4.589  14.683  0.3618  0.2542  0.6909
 4932SOL    HW126429   0.914   4.540  14.606  2.0126  0.1320  1.4339
 4932SOL    HW226430   0.810   4.530  14.697 -0.7226  1.3562 -0.2869
 4933SOL     OW26431   4.214   2.447  12.873 -0.3846 -0.2286 -0.6003
 4933SOL    HW126432   4.190   2.407  12.789  0.5522  1.2400 -1.5549
 4933SOL    HW226433   4.141   2.505  12.893 -0.6786 -0.5430 -0.7596
 4934SOL     OW26434   3.876   3.543   8.905  0.1061  0.0007  0.1849
 4934SOL    HW126435   3.958   3.550   8.855  0.0923 -0.9593  0.0133
 4934SOL    HW226436   3.870   3.451   8.931  1.8465  0.3469  1.7599
 4935SOL     OW26437   2.588   3.148   9.170  0.0268  0.1622 -0.1223
 4935SOL    HW126438   2.586   3.233   9.213  1.7508  0.3172 -0.3505
 4935SOL    HW226439   2.525   3.165   9.100 -0.1988 -0.3567 -0.0439
 4936SOL     OW26440   0.213   2.647   5.795 -0.0519  0.4751  0.2720
 4936SOL    HW126441   0.280   2.587   5.762 -0.0531  1.4213 -1.4669
 4936SOL    HW226442   0.154   2.591   5.846  0.7607 -1.3656 -0.7786
 4937SOL     OW26443   0.951   3.601   6.595 -0.1344 -0.3856  0.4472
 4937SOL    HW126444   0.925   3.571   6.683 -1.4690 -1.9699 -0.4943
 4937SOL    HW226445   0.876   3.653   6.567  0.1672 -0.9309 -1.3338
 4938SOL     OW26446   2.624   0.030   4.247  0.4529  0.0975 -0.2499
 4938SOL    HW126447   2.578   4.689   4.274  0.7753 -0.5818 -1.6828
 4938SOL    HW226448   2.715   0.007   4.266  0.0351 -1.2358  0.1314
 4939SOL     OW26449   1.287   0.080   4.925  0.5169  0.1124  0.5784
 4939SOL    HW126450   1.265   0.160   4.971 -0.1039 -0.3429  1.0841
 4939SOL    HW226451   1.232   0.091   4.847 -0.1286 -1.6900  0.7728
 4940SOL     OW26452   2.736   0.702   3.214 -0.1101 -0.2896  0.2872
 4940SOL    HW126453   2.675   0.658   3.273 -0.8302  2.0915  1.3149
 4940SOL    HW226454   2.782   0.744   3.286 -0.3219 -0.5552  0.5754
 4941SOL     OW26455   2.205   0.005  17.607  0.4047 -0.4499 -0.1608
 4941SOL    HW126456   2.262   4.736  17.684 -0.9211 -0.4074  0.8301
 4941SOL    HW226457   2.142   0.068  17.641 -0.3936 -2.0299  1.3422
 4942SOL     OW26458   1.558   4.540   4.367  0.4094  0.1221  0.2056
 4942SOL    HW126459   1.623   4.605   4.342 -1.5108  2.2451  0.7441
 4942SOL    HW226460   1.560   4.547   4.463 -0.1196  1.8485  0.0905
 4943SOL     OW26461   2.851   0.646  16.217  0.7411  0.4211 -0.3020
 4943SOL    HW126462   2.812   0.635  16.131 -0.7482  0.7325  0.3303
 4943SOL    HW226463   2.796   0.709  16.263  0.7166  0.0798  0.1425
 4944SOL     OW26464   3.659   4.351   1.477 -0.2722  0.4132  0.4192
 4944SOL    HW126465   3.614   4.435   1.467 -0.8808  0.1242  0.6930
 4944SOL    HW226466   3.635   4.306   1.396  2.1249 -0.0772 -0.0139
 4945SOL     OW26467   0.717   1.743  11.192 -0.1381 -0.2001 -0.6054
 4945SOL    HW126468   0.731   1.660  11.148  0.2532 -0.3252 -0.2526
 4945SOL    HW226469   0.655   1.769  11.124 -0.5876  2.3112  0.7567
 4946SOL     OW26470   0.018   4.567   2.115 -0.8923  0.5145 -0.5657
 4946SOL    HW126471   4.665   4.543   2.103 -1.5978  1.8310  2.1113
 4946SOL    HW226472   0.019   4.662   2.128 -0.4331  0.1586  2.1503
 4947SOL     OW26473   4.144   0.847   9.508 -0.1319 -0.1472 -0.3167
 4947SOL    HW126474   4.103   0.874   9.591  0.0317  1.1733 -0.6758
 4947SOL    HW226475   4.196   0.923   9.484 -0.3388  0.6509  1.7765
 4948SOL     OW26476   4.445   4.323   5.752  0.2487 -0.2585  0.5167
 4948SOL    HW126477   4.468   4.413   5.779  2.2520 -0.9745  1.2506
 4948SOL    HW226478   4.501   4.308   5.676  0.4389  0.9405  0.4162
 4949SOL     OW26479   1.748   1.238  17.013 -0.2741 -0.0007 -0.0860
 4949SOL    HW126480   1.795   1.321  17.000 -1.7786  0.8230 -0.3055
 4949SOL    HW226481   1.741   1.233  17.108  1.4785 -2.2996 -0.0723
 4950SOL     OW26482   0.378   1.957   3.713 -0.6027  0.3073  0.2731
 4950SOL    HW126483   0.429   1.918   3.642 -0.6812  1.9191 -0.6758
 4950SOL    HW226484   0.435   1.960   3.789  1.2397  2.7428 -1.1984
 4951SOL     OW26485   1.294   2.853   0.612 -0.7839  0.1681  0.1710
 4951SOL    HW126486   1.250   2.852   0.528 -1.3234  2.0753  0.4202
 4951SOL    HW226487   1.375   2.807   0.589  0.6697  2.4058  0.7367
 4952SOL     OW26488   2.006   2.369   8.883  0.8795  0.4326 -0.9646
 4952SOL    HW126489   1.931   2.396   8.831 -1.1102 -2.0083  0.6628
 4952SOL    HW226490   1.953   2.309   8.935 -0.3616  1.0872 -1.4970
 4953SOL     OW26491   1.119   0.554  16.481  0.3938 -0.1980  0.0716
 4953SOL    HW126492   1.080   0.543  16.394  0.7873  2.7008 -0.4882
 4953SOL    HW226493   1.059   0.611  16.531  0.1612  0.6536 -1.1688
 4954SOL     OW26494   1.039   0.840   7.523  0.0344  0.6031  0.2012
 4954SOL    HW126495   0.950   0.830   7.489  0.0995  2.2846 -0.4381
 4954SOL    HW226496   1.048   0.934   7.508  1.3562  0.6747  1.3973
 4955SOL     OW26497   2.371   4.705   0.056  0.2892 -0.7460  0.0096
 4955SOL    HW126498   2.454   0.011   0.045  0.1953 -0.8508 -1.2014
 4955SOL    HW226499   2.347   4.721   0.147  3.5636 -2.9942  1.2649
 4956SOL     OW26500   1.057   0.042   7.833  0.1951 -0.1015  0.1231
 4956SOL    HW126501   1.024   4.706   7.882  0.0991 -0.1683 -0.0454
 4956SOL    HW226502   1.083   4.730   7.756 -0.3828  0.4133 -0.4073
 4957SOL     OW26503   3.087   1.234  12.901  0.2133 -0.1925  0.3649
 4957SOL    HW126504   3.099   1.247  12.995  0.8694 -1.7869  0.4958
 4957SOL    HW226505   3.044   1.150  12.907  0.5844 -0.3686  0.5732
 4958SOL     OW26506   3.419   3.176  17.223 -0.2663 -0.1790 -0.5289
 4958SOL    HW126507   3.378   3.132  17.297 -1.2527 -0.6290 -1.3521
 4958SOL    HW226508   3.504   3.190  17.265 -0.4910  0.8616 -0.4109
 4959SOL     OW26509   3.008   1.079   3.762  0.3343  0.9386  0.5618
 4959SOL    HW126510   3.088   1.075   3.815  1.2665  0.3662 -0.8994
 4959SOL    HW226511   3.041   1.058   3.675  2.0029  1.4091  1.0805
 4960SOL     OW26512   1.670   2.406   7.766 -0.1145  0.0767  0.5792
 4960SOL    HW126513   1.672   2.465   7.691  0.6755  0.6598  1.0554
 4960SOL    HW226514   1.593   2.441   7.810 -1.4414 -2.9296  0.6185
 4961SOL     OW26515   3.355   0.696   7.836 -0.3837  0.2490  0.4129
 4961SOL    HW126516   3.332   0.657   7.751  4.4727 -0.7599 -0.4125
 4961SOL    HW226517   3.446   0.668   7.839 -0.5060 -0.1964 -0.0623
 4962SOL     OW26518   1.975   0.520   4.742 -0.1713 -0.7874 -0.2915
 4962SOL    HW126519   2.034   0.590   4.716  0.7315 -1.2146  0.6475
 4962SOL    HW226520   1.961   0.475   4.658  3.3210 -0.0278 -1.2687
 4963SOL     OW26521   0.176   3.797   5.586  0.1225 -0.3591 -0.4456
 4963SOL    HW126522   0.170   3.883   5.628 -3.2614 -0.6142 -0.3610
 4963SOL    HW226523   0.154   3.807   5.493 -4.2568 -1.4814  0.4377
 4964SOL     OW26524   3.885   2.231   0.468  0.2032 -0.2978  0.6738
 4964SOL    HW126525   3.844   2.209   0.551  0.2829  1.9115  1.3026
 4964SOL    HW226526   3.979   2.223   0.485  0.0132 -1.0749  1.3339
 4965SOL     OW26527   1.381   2.282  17.280  0.1190  0.2963  0.0437
 4965SOL    HW126528   1.408   2.373  17.268  0.9153  0.2421  1.5475
 4965SOL    HW226529   1.465   2.250  17.311 -1.0117 -0.7553  2.0672
 4966SOL     OW26530   1.623   1.529   4.525  0.5585 -0.7381  0.2341
 4966SOL    HW126531   1.558   1.600   4.525 -0.8313 -2.0178  0.1202
 4966SOL    HW226532   1.688   1.556   4.590  0.9574  0.7087 -0.7508
 4967SOL     OW26533   2.556   0.869   7.331 -0.1688  0.3015  0.2638
 4967SOL    HW126534   2.537   0.931   7.401 -2.4529  0.1360 -0.2123
 4967SOL    HW226535   2.476   0.816   7.328  0.1663 -0.0705 -1.9014
 4968SOL     OW26536   2.498   4.041   6.572  0.1519 -0.0257 -0.4935
 4968SOL    HW126537   2.469   4.002   6.655 -1.1880  1.3661 -0.2924
 4968SOL    HW226538   2.528   4.129   6.595 -3.3198  0.9021  0.5691
 4969SOL     OW26539   3.918   0.969   8.175  0.0084  0.2027  0.1195
 4969SOL    HW126540   3.837   1.006   8.140 -0.3420  0.7993  1.5573
 4969SOL    HW226541   3.932   0.900   8.110 -1.7253 -0.9489  0.9559
 4970SOL     OW26542   2.020   0.783  13.253 -0.0603  0.1139  0.0585
 4970SOL    HW126543   2.044   0.702  13.207 -1.1801 -1.7204  2.7051
 4970SOL    HW226544   1.987   0.741  13.333 -1.6467 -0.9086 -1.1362
 4971SOL     OW26545   0.980   3.634  13.661  0.1602  0.3381  0.2774
 4971SOL    HW126546   1.037   3.590  13.597 -0.5941  1.5205 -1.2079
 4971SOL    HW226547   0.992   3.582  13.740 -0.5301 -1.3745 -0.7367
 4972SOL     OW26548   3.806   1.507  17.337 -0.3027 -0.6235 -0.0414
 4972SOL    HW126549   3.781   1.597  17.356  2.2193 -0.7201  3.7269
 4972SOL    HW226550   3.827   1.509  17.243 -0.8378  0.9393 -0.1186
 4973SOL     OW26551   0.667   1.440   4.792 -0.1581 -0.0340  0.7637
 4973SOL    HW126552   0.709   1.370   4.843  0.5092  0.8557  1.4308
 4973SOL    HW226553   0.619   1.472   4.868  0.2400 -0.5031  1.2169
 4974SOL     OW26554   0.678   3.640   5.684 -0.2754  0.3075 -0.1520
 4974SOL    HW126555   0.611   3.704   5.660  0.1866  1.6052  2.0531
 4974SOL    HW226556   0.650   3.621   5.774 -0.6077 -0.3930 -0.3998
 4975SOL     OW26557   2.965   2.988   2.408 -0.5291 -0.1803 -0.3873
 4975SOL    HW126558   2.883   3.038   2.412  0.4940  1.3995  0.4214
 4975SOL    HW226559   3.015   3.044   2.466  0.8777 -0.9733 -0.8372
 4976SOL     OW26560   2.046   2.275  15.519 -0.4743 -0.2625 -0.4955
 4976SOL    HW126561   1.963   2.242  15.485 -1.6508  3.4121 -1.1645
 4976SOL    HW226562   2.081   2.198  15.566 -0.0355  0.6364  0.6549
 4977SOL     OW26563   1.916   2.859   3.246  0.6594  0.6151 -0.1083
 4977SOL    HW126564   1.974   2.821   3.180 -1.0790  1.6576 -2.2626
 4977SOL    HW226565   1.950   2.817   3.325  0.3804 -0.9710 -0.8228
 4978SOL     OW26566   0.186   0.022   2.830  0.8582  0.4941  0.0532
 4978SOL    HW126567   0.185   4.691   2.764  0.9904 -0.2290  0.8140
 4978SOL    HW226568   0.130   0.088   2.789  2.0228  1.1505 -0.4839
 4979SOL     OW26569   1.193   0.207   8.004  0.3626 -0.2968  0.5177
 4979SOL    HW126570   1.140   0.162   7.939  3.9708 -0.5350 -2.2443
 4979SOL    HW226571   1.192   0.300   7.981  0.1752 -0.1377  1.1732
 4980SOL     OW26572   0.251   1.043   1.146 -0.0964  0.0074 -0.1232
 4980SOL    HW126573   0.189   1.020   1.078 -0.5464 -0.2051  0.3630
 4980SOL    HW226574   0.209   1.122   1.181  0.0637 -1.5191  3.5627
 4981SOL     OW26575   3.602   4.689   2.709  0.3586 -0.0390 -0.9657
 4981SOL    HW126576   3.516   4.708   2.746  1.3759 -0.7279  1.7174
 4981SOL    HW226577   3.605   0.014   2.637 -0.9151  0.7290 -0.3468
 4982SOL     OW26578   1.535   0.165   4.752 -0.1934 -0.3526  0.2737
 4982SOL    HW126579   1.607   0.185   4.812 -1.0879  3.7302 -0.0229
 4982SOL    HW226580   1.521   0.070   4.750 -2.2762 -0.0604  0.9287
 4983SOL     OW26581   3.435   2.382   5.493 -0.3535 -0.1627 -0.3280
 4983SOL    HW126582   3.503   2.354   5.432  1.7413  1.3075  1.3188
 4983SOL    HW226583   3.401   2.293   5.488 -3.0536  0.8300  0.4135
 4984SOL     OW26584   3.903   4.209   4.885 -0.1381  0.0325  0.3573
 4984SOL    HW126585   3.961   4.151   4.836  0.8594  0.5160  0.9399
 4984SOL    HW226586   3.938   4.192   4.973  1.1292 -0.8961 -0.3261
 4985SOL     OW26587   1.448   2.608  11.724 -0.0093  0.6153 -0.2145
 4985SOL    HW126588   1.365   2.589  11.769 -0.2457  1.2492 -0.3792
 4985SOL    HW226589   1.411   2.645  11.644  0.9713 -0.9448 -1.3924
 4986SOL     OW26590   1.868   4.320   4.824  0.0449 -0.2246  0.1889
 4986SOL    HW126591   1.786   4.354   4.858  1.0398  2.5489 -0.1906
 4986SOL    HW226592   1.848   4.325   4.730 -3.3601  0.8253  0.9983
 4987SOL     OW26593   1.830   4.224   1.556 -0.0096 -0.6996  0.1509
 4987SOL    HW126594   1.856   4.246   1.645  1.2703 -0.4483 -0.2795
 4987SOL    HW226595   1.735   4.231   1.565 -0.1075 -1.0984 -0.5163
 4988SOL     OW26596   0.735   4.140   6.519 -0.6971  1.1919  0.0441
 4988SOL    HW126597   0.806   4.089   6.482  0.5101  3.3101 -0.5890
 4988SOL    HW226598   0.740   4.217   6.461  0.7998  0.7710 -0.3915
 4989SOL     OW26599   0.396   2.498   3.090 -0.2340 -0.1632 -0.1738
 4989SOL    HW126600   0.370   2.408   3.111 -0.9571  0.0894  0.0109
 4989SOL    HW226601   0.353   2.548   3.160 -0.4037 -1.1723  0.4528
 4990SOL     OW26602   4.566   2.319   9.101  0.2418 -0.1388  0.7519
 4990SOL    HW126603   4.506   2.249   9.127  0.0968 -0.0827  0.5640
 4990SOL    HW226604   4.503   2.388   9.082 -1.4728 -0.9895  3.4744
 4991SOL     OW26605   0.183   4.106   2.151  0.0485 -0.1215  0.1881
 4991SOL    HW126606   0.235   4.141   2.078 -0.1707 -1.6550 -0.7152
 4991SOL    HW226607   0.125   4.046   2.104  1.6839 -1.5588  0.0054
 4992SOL     OW26608   1.169   4.431   9.406 -0.2474  0.4476  0.1169
 4992SOL    HW126609   1.259   4.452   9.380  0.3883 -0.6782  1.4072
 4992SOL    HW226610   1.156   4.488   9.482 -4.1368  1.9271 -1.6334
 4993SOL     OW26611   2.655   1.113  13.981 -0.3054 -0.2762 -0.5928
 4993SOL    HW126612   2.620   1.129  13.894 -0.3657  2.1354 -0.1219
 4993SOL    HW226613   2.750   1.119  13.969 -0.4145 -0.7981 -1.6885
 4994SOL     OW26614   4.012   1.391   9.429 -0.4881  0.4582  0.1729
 4994SOL    HW126615   3.951   1.355   9.364  0.2437 -0.2614 -0.1163
 4994SOL    HW226616   4.050   1.452   9.366 -0.0480  2.3140  2.2409
 4995SOL     OW26617   0.417   2.475   6.125  0.0981 -0.6454  0.1617
 4995SOL    HW126618   0.478   2.428   6.068 -1.1669 -0.9887 -0.9024
 4995SOL    HW226619   0.455   2.474   6.213  3.0108  2.4142 -1.0754
 4996SOL     OW26620   0.457   3.289  11.848  0.6063 -0.2534 -0.0909
 4996SOL    HW126621   0.375   3.338  11.844  2.7231  3.2188 -0.6798
 4996SOL    HW226622   0.509   3.334  11.915 -1.3929 -0.4228  1.5727
 4997SOL     OW26623   4.021   1.934   0.401 -0.4515 -0.5089  0.6388
 4997SOL    HW126624   3.936   1.922   0.358  1.0613 -0.0016 -2.4794
 4997SOL    HW226625   4.055   2.009   0.354 -0.1896 -0.2235  1.2858
 4998SOL     OW26626   2.381   4.487   6.144 -0.2577  0.3855  0.2915
 4998SOL    HW126627   2.307   4.539   6.173  0.9995  1.2467  1.9542
 4998SOL    HW226628   2.368   4.414   6.205  1.3208  0.6699  0.9912
 4999SOL     OW26629   4.249   1.301  13.843  0.4263 -0.0018 -0.3103
 4999SOL    HW126630   4.201   1.219  13.829  2.3889 -0.8327 -2.0790
 4999SOL    HW226631   4.237   1.329  13.934 -0.1543 -0.8986 -0.1084
 5000SOL     OW26632   1.180   1.631   7.265 -0.5909  0.1117  0.2780
 5000SOL    HW126633   1.156   1.607   7.175 -3.0232  0.4360  0.8345
 5000SOL    HW226634   1.120   1.576   7.316  0.6717  0.2668  1.9011
 5001SOL     OW26635   1.039   3.127   2.034 -0.1244 -0.6173  0.1091
 5001SOL    HW126636   0.998   3.213   2.038  1.8535  0.3915 -1.0630
 5001SOL    HW226637   1.097   3.127   2.111 -1.8929  2.1110  1.4524
 5002SOL     OW26638   0.040   2.684   1.288 -0.6044  0.3805 -0.4232
 5002SOL    HW126639   0.014   2.592   1.287  1.6491 -0.2564  0.0615
 5002SOL    HW226640   0.135   2.684   1.284 -0.6204  0.7309 -0.9292
 5003SOL     OW26641   3.980   3.810   6.728  0.0031  0.2960 -0.6821
 5003SOL    HW126642   3.887   3.795   6.748  0.5171 -0.1181  1.3814
 5003SOL    HW226643   3.980   3.881   6.664 -1.8855  2.4901  1.7163
 5004SOL     OW26644   4.541   0.408   2.833  0.1210 -0.3914  0.1791
 5004SOL    HW126645   4.615   0.446   2.787 -1.3988 -0.0389 -1.9800
 5004SOL    HW226646   4.529   0.461   2.911 -0.8545 -1.7897  0.9887
 5005SOL     OW26647   2.223   4.070   3.540 -0.2252  0.2572  0.2629
 5005SOL    HW126648   2.170   3.995   3.566 -2.4488  2.2000  1.3602
 5005SOL    HW226649   2.168   4.106   3.471  0.7066  0.2623 -0.4789
 5006SOL     OW26650   4.178   0.323   1.483  0.3381 -0.0102 -0.4452
 5006SOL    HW126651   4.237   0.399   1.476 -2.8884  2.4464 -0.9640
 5006SOL    HW226652   4.237   0.256   1.449  0.4079 -0.6562  0.9611
 5007SOL     OW26653   2.630   0.667   2.701  0.8007  0.3657 -0.4079
 5007SOL    HW126654   2.722   0.644   2.713  0.7721 -0.0375 -1.0074
 5007SOL    HW226655   2.608   0.674   2.794  1.8994  0.0832 -0.1236
 5008SOL     OW26656   2.425   1.580   2.566 -0.1437  0.2308 -0.2923
 5008SOL    HW126657   2.396   1.526   2.640 -1.5617  0.7540 -0.4625
 5008SOL    HW226658   2.517   1.602   2.579 -0.5653 -0.1858  3.3918
 5009SOL     OW26659   0.779   2.306   4.374 -0.0372  0.2138 -0.0987
 5009SOL    HW126660   0.819   2.360   4.306  0.1366 -1.2231 -1.1566
 5009SOL    HW226661   0.693   2.346   4.379 -0.1451  0.1647 -1.5305
 5010SOL     OW26662   2.036   0.043   9.586  0.0532  0.0573  0.3381
 5010SOL    HW126663   1.975   0.033   9.514  1.1355 -0.3029 -0.5228
 5010SOL    HW226664   2.031   4.697   9.631  2.7381 -0.2266  0.1212
 5011SOL     OW26665   4.055   2.397   5.851 -0.0537 -0.4856 -0.3667
 5011SOL    HW126666   4.011   2.478   5.878  0.6898  0.2035 -1.2192
 5011SOL    HW226667   4.116   2.425   5.783  0.0099 -1.8798 -0.8817
 5012SOL     OW26668   1.067   2.473   1.290  0.8261  0.4946 -0.3476
 5012SOL    HW126669   1.058   2.394   1.236  0.0261 -0.1615  0.7621
 5012SOL    HW226670   1.141   2.516   1.246  0.3829  1.3639 -0.2397
 5013SOL     OW26671   1.944   2.555   2.777 -0.6407 -0.1595 -0.1912
 5013SOL    HW126672   1.930   2.466   2.810 -0.4294 -0.2732 -0.4035
 5013SOL    HW226673   1.921   2.559   2.684 -1.1492 -0.7784 -0.0967
 5014SOL     OW26674   3.857   1.933   7.395  0.1842  0.5281 -0.3612
 5014SOL    HW126675   3.792   1.994   7.430 -0.6796 -0.7674  0.2775
 5014SOL    HW226676   3.850   1.955   7.302 -0.1648 -0.7249 -0.6311
 5015SOL     OW26677   2.005   2.296   1.815  0.4049 -0.0365 -0.1200
 5015SOL    HW126678   1.961   2.360   1.870  0.2984  0.7054 -1.0572
 5015SOL    HW226679   1.970   2.307   1.726 -1.2191 -0.7629  0.4332
 5016SOL     OW26680   3.767   2.767  15.691 -0.4081 -0.2790 -0.2973
 5016SOL    HW126681   3.807   2.742  15.608  1.8359  0.4706  0.5504
 5016SOL    HW226682   3.832   2.835  15.710  0.5143 -1.6262  1.3297
 5017SOL     OW26683   0.596   3.350  16.589 -0.4253 -0.4264 -0.6881
 5017SOL    HW126684   0.517   3.345  16.642  0.2317 -0.7862  0.2587
 5017SOL    HW226685   0.583   3.267  16.542 -1.0573  0.0507 -1.3570
 5018SOL     OW26686   1.314   4.634   4.634 -0.0285  0.0829  0.2765
 5018SOL    HW126687   1.263   4.587   4.699  0.6923 -0.4170  0.4827
 5018SOL    HW226688   1.401   4.593   4.632  0.4962  1.2977 -1.8115
 5019SOL     OW26689   4.176   3.364   7.306 -0.2865 -0.4435 -0.3283
 5019SOL    HW126690   4.241   3.423   7.266  0.7275  0.3332  2.4768
 5019SOL    HW226691   4.174   3.390   7.398  0.9421  1.3399 -0.8064
 5020SOL     OW26692   2.397   4.530   3.961  0.1531  0.3896  0.2111
 5020SOL    HW126693   2.429   4.441   3.969  0.9247  0.4065 -2.5224
 5020SOL    HW226694   2.331   4.541   4.029 -1.0337 -1.2949 -0.6806
 5021SOL     OW26695   0.103   3.366   8.136 -0.5455  0.2302  0.2832
 5021SOL    HW126696   0.081   3.339   8.225 -0.5829  0.5434  0.3693
 5021SOL    HW226697   0.187   3.325   8.116  0.0942  1.2051  0.9929
 5022SOL     OW26698   4.453   0.372   3.565 -0.0050 -0.0284 -1.0670
 5022SOL    HW126699   4.477   0.331   3.482  0.5849 -0.0199 -0.9007
 5022SOL    HW226700   4.544   0.397   3.585 -0.9935  2.0610  0.8783
 5023SOL     OW26701   1.935   4.451   7.796 -0.8270 -0.4520  0.4980
 5023SOL    HW126702   1.904   4.362   7.817  0.3371 -0.6665  1.3267
 5023SOL    HW226703   1.985   4.435   7.716 -1.2098  1.1447 -0.0467
 5024SOL     OW26704   0.540   2.376   0.385  0.2763  0.6903 -0.6248
 5024SOL    HW126705   0.560   2.403   0.296  1.5040  1.9241  0.0124
 5024SOL    HW226706   0.546   2.283   0.362  0.8173  0.2566  1.2375
 5025SOL     OW26707   1.748   1.361   1.925  1.2096  0.2232 -0.3522
 5025SOL    HW126708   1.672   1.405   1.888 -0.2479 -0.3325  2.0152
 5025SOL    HW226709   1.787   1.438   1.967 -1.2479  0.2146  1.9371
 5026SOL     OW26710   1.165   0.822   3.601 -0.1301 -0.2397  0.1603
 5026SOL    HW126711   1.129   0.734   3.595  1.4491 -0.7520 -1.7687
 5026SOL    HW226712   1.097   0.874   3.558 -1.0579 -2.0418 -0.5268
 5027SOL     OW26713   0.231   2.642  14.693 -0.3387 -0.7233  0.1053
 5027SOL    HW126714   0.213   2.550  14.673 -0.5717 -0.0638 -2.6212
 5027SOL    HW226715   0.140   2.660  14.719  0.8428  2.9071  1.7071
 5028SOL     OW26716   4.143   2.706  14.661 -0.0966 -0.1937 -0.3449
 5028SOL    HW126717   4.059   2.659  14.653  0.3734 -1.0110 -0.5205
 5028SOL    HW226718   4.166   2.714  14.568 -2.0574  1.1272 -0.7155
 5029SOL     OW26719   1.885   3.047   9.022 -0.2545 -0.0777  0.4237
 5029SOL    HW126720   1.881   3.012   8.933  2.1246 -0.0813  0.3209
 5029SOL    HW226721   1.980   3.046   9.038 -0.5022  1.0541  1.9670
 5030SOL     OW26722   2.975   0.095   7.954 -0.0414  0.1047 -0.7321
 5030SOL    HW126723   2.939   0.007   7.946 -0.9276  0.2270  2.0155
 5030SOL    HW226724   3.009   0.081   8.043 -3.8433  1.3840  0.9079
 5031SOL     OW26725   4.258   4.222   5.089  0.6240 -0.7725  0.5414
 5031SOL    HW126726   4.169   4.187   5.099 -0.0603  0.3400 -1.7577
 5031SOL    HW226727   4.279   4.189   5.001 -1.0025 -1.9945  0.6146
 5032SOL     OW26728   3.460   3.225   2.875  0.1622 -0.3090 -0.2157
 5032SOL    HW126729   3.400   3.182   2.936  0.3366 -0.0913  0.1082
 5032SOL    HW226730   3.437   3.185   2.791 -1.3029 -0.6199  0.3360
 5033SOL     OW26731   3.726   3.395   4.496  0.1343  0.1524  0.5944
 5033SOL    HW126732   3.812   3.437   4.501  1.1298 -1.6643 -1.4326
 5033SOL    HW226733   3.720   3.346   4.579  1.6272 -0.0663  0.5783
 5034SOL     OW26734   2.700   0.341  14.485  0.5246  0.1633 -0.3050
 5034SOL    HW126735   2.641   0.398  14.534 -0.7814 -1.1909 -0.3165
 5034SOL    HW226736   2.682   0.253  14.518  0.7087 -0.1951 -1.1583
 5035SOL     OW26737   2.295   2.199   4.895  0.2268 -0.2172  0.3972
 5035SOL    HW126738   2.350   2.272   4.923 -1.5813  1.7094 -1.0176
 5035SOL    HW226739   2.323   2.129   4.954  1.6688  0.0894  0.0672
 5036SOL     OW26740   2.261   4.159   8.626 -0.0309  0.1769  0.1861
 5036SOL    HW126741   2.319   4.129   8.556  1.3854  1.3029  0.8853
 5036SOL    HW226742   2.197   4.090   8.605  0.3643  0.5873 -2.2901
 5037SOL     OW26743   3.983   2.958   1.832 -0.3382 -0.2545  0.3179
 5037SOL    HW126744   4.075   2.932   1.824 -0.0738  0.4954  0.8960
 5037SOL    HW226745   3.955   2.964   1.741 -1.2000 -0.0763  0.5926
 5038SOL     OW26746   1.954   0.466  15.177  0.5252 -0.2178  0.3623
 5038SOL    HW126747   2.050   0.466  15.186  0.4976 -1.0961  0.6857
 5038SOL    HW226748   1.931   0.558  15.190  1.4396  0.0340  0.2352
 5039SOL     OW26749   0.185   1.135   8.096 -0.1690  0.3831 -0.0388
 5039SOL    HW126750   0.102   1.172   8.127 -0.2153 -0.3890  0.7511
 5039SOL    HW226751   0.245   1.157   8.168 -0.9337 -1.7072  1.2413
 5040SOL     OW26752   0.248   2.012   0.889 -0.1572  0.0949  0.2705
 5040SOL    HW126753   0.275   2.025   0.798 -0.5596  0.7464  0.2445
 5040SOL    HW226754   0.331   2.036   0.931 -0.4424  0.0674  0.8458
 5041SOL     OW26755   0.945   3.312   8.718 -0.3170 -0.9234  0.4995
 5041SOL    HW126756   0.911   3.357   8.795  0.9978 -0.1672  0.6481
 5041SOL    HW226757   0.882   3.334   8.649  0.6345 -0.5211 -0.2447
 5042SOL     OW26758   1.123   1.871   1.787  0.1082  0.5983  0.2583
 5042SOL    HW126759   1.048   1.810   1.786 -0.0914  0.8675 -1.8424
 5042SOL    HW226760   1.105   1.928   1.712  0.5731 -2.2172 -2.0161
 5043SOL     OW26761   4.658   4.019   8.969 -0.1753 -0.7730  0.6677
 5043SOL    HW126762   0.005   3.978   8.955  0.1832  0.0131  0.5488
 5043SOL    HW226763   4.693   4.104   8.996  0.5348 -0.9789  0.3953
 5044SOL     OW26764   0.332   2.006   7.378  0.3426  0.0827  0.5373
 5044SOL    HW126765   0.405   1.978   7.433  0.7456  0.1957  0.0607
 5044SOL    HW226766   0.328   2.100   7.399  0.0445 -0.0822  1.2111
 5045SOL     OW26767   3.754   1.310   8.978  0.1928 -0.3814 -0.0755
 5045SOL    HW126768   3.677   1.286   8.926  0.9892  2.0978 -2.3832
 5045SOL    HW226769   3.760   1.404   8.966 -1.5346 -0.2491  0.1567
 5046SOL     OW26770   2.020   2.257  17.652 -0.6302 -0.3311  0.6716
 5046SOL    HW126771   2.061   2.203  17.584 -0.2638 -2.0879  2.2999
 5046SOL    HW226772   2.018   2.192  17.722 -1.2074 -0.8302  0.1965
 5047SOL     OW26773   1.144   3.659   8.843  0.0752 -0.3068 -0.2527
 5047SOL    HW126774   1.094   3.577   8.841 -2.1619  1.0301  0.6724
 5047SOL    HW226775   1.097   3.709   8.909  0.4039 -0.4474  0.0861
 5048SOL     OW26776   4.460   2.582   9.028 -0.3348 -0.2998  0.0592
 5048SOL    HW126777   4.480   2.676   9.022  0.6059 -0.4027  1.5123
 5048SOL    HW226778   4.375   2.568   8.986 -1.4322  0.0504  2.1573
 5049SOL     OW26779   1.305   4.371   3.225  0.0997 -0.3865  0.0479
 5049SOL    HW126780   1.360   4.335   3.156  1.2643  0.2291  0.6590
 5049SOL    HW226781   1.294   4.286   3.269 -0.1245 -0.5278 -0.2737
 5050SOL     OW26782   2.085   0.298   3.970  0.5863 -0.1358  0.5626
 5050SOL    HW126783   2.117   0.330   3.886 -0.4921 -0.8118 -0.1109
 5050SOL    HW226784   2.135   0.216   3.973 -0.9528 -1.1137 -0.5792
 5051SOL     OW26785   0.320   2.952   1.118  0.2593  0.1723  0.0902
 5051SOL    HW126786   0.374   2.921   1.191  0.2399  1.7129  0.7697
 5051SOL    HW226787   0.274   2.872   1.094  0.7446  0.6811 -2.4977
 5052SOL     OW26788   4.287   1.494   9.564  0.2233  0.0302  0.4061
 5052SOL    HW126789   4.311   1.492   9.656  0.9424 -0.0448  0.2144
 5052SOL    HW226790   4.237   1.576   9.561 -2.2325 -1.4304  1.7537
 5053SOL     OW26791   0.793   3.146   5.190 -0.1410  0.3044 -0.5458
 5053SOL    HW126792   0.751   3.086   5.128 -2.7211  1.2554  0.2714
 5053SOL    HW226793   0.817   3.089   5.263  4.0148 -1.3817 -3.1812
 5054SOL     OW26794   0.105   1.252   6.458  0.2862 -0.0565  0.1544
 5054SOL    HW126795   0.065   1.171   6.490  1.1877 -0.3613  0.5021
 5054SOL    HW226796   0.099   1.228   6.366  2.0748  1.7418 -0.4357
 5055SOL     OW26797   0.814   4.098   8.098 -0.5017  0.1209 -0.3685
 5055SOL    HW126798   0.739   4.097   8.040 -0.5377  1.8377 -0.3522
 5055SOL    HW226799   0.863   4.032   8.050 -3.6969 -3.3674  1.1643
 5056SOL     OW26800   3.918   0.428  12.327  0.2755  0.1433  0.1914
 5056SOL    HW126801   3.935   0.512  12.369 -1.9830  0.3787  0.6215
 5056SOL    HW226802   3.832   0.448  12.290 -0.1453  1.1931  1.6894
 5057SOL     OW26803   2.249   1.466   7.215 -0.7393  0.0505  0.1853
 5057SOL    HW126804   2.246   1.524   7.139  0.4437 -0.8337 -0.5225
 5057SOL    HW226805   2.291   1.386   7.185  1.0489  0.8038  0.6707
 5058SOL     OW26806   0.125   0.482   0.853 -0.0318  0.1981 -0.1871
 5058SOL    HW126807   0.091   0.564   0.819  0.0317 -0.1994 -1.2268
 5058SOL    HW226808   0.154   0.447   0.768 -0.5393 -0.7106  0.0146
 5059SOL     OW26809   3.125   1.389   8.589 -0.1974 -0.1421  0.5211
 5059SOL    HW126810   3.199   1.437   8.626 -1.8576  2.8650 -0.0577
 5059SOL    HW226811   3.131   1.298   8.621 -1.4071 -0.9345 -1.5296
 5060SOL     OW26812   2.291   2.465   2.613  1.0252 -0.0258 -0.2519
 5060SOL    HW126813   2.369   2.421   2.580 -0.9326 -1.5363 -2.8742
 5060SOL    HW226814   2.264   2.399   2.677  1.5710  3.1857  3.2792
 5061SOL     OW26815   1.644   1.856   1.624 -0.2960  0.1921 -0.1676
 5061SOL    HW126816   1.650   1.942   1.583  0.7440  0.8808  1.4336
 5061SOL    HW226817   1.548   1.845   1.624 -0.3812  0.9405 -0.5221
 5062SOL     OW26818   4.399   1.728   9.292  0.1986 -0.2363  0.3924
 5062SOL    HW126819   4.330   1.793   9.300 -1.3315 -1.5311 -2.2281
 5062SOL    HW226820   4.453   1.766   9.222 -1.4541  0.9716 -0.2233
 5063SOL     OW26821   3.496   2.634   5.923  0.1264  0.3643  0.1296
 5063SOL    HW126822   3.431   2.688   5.878  1.0512  0.8041 -0.7091
 5063SOL    HW226823   3.548   2.609   5.846  0.1189  0.5891  0.0507
 5064SOL     OW26824   0.408   2.974  16.486  0.8970  0.6399  0.0113
 5064SOL    HW126825   0.471   2.921  16.437  1.7173  1.7800 -0.1510
 5064SOL    HW226826   0.352   3.004  16.414  0.3016 -1.4656 -0.4099
 5065SOL     OW26827   3.448   2.529   6.417 -0.5521  0.6646  0.1931
 5065SOL    HW126828   3.379   2.534   6.351 -0.0012  0.1978 -0.4137
 5065SOL    HW226829   3.474   2.619   6.437 -1.3281  0.9014  0.1175
 5066SOL     OW26830   3.292   0.450   4.278 -0.0189 -0.0858 -0.5681
 5066SOL    HW126831   3.204   0.417   4.294  1.3461 -3.7317 -0.6772
 5066SOL    HW226832   3.344   0.370   4.286 -0.6347 -0.3935  0.3019
 5067SOL     OW26833   4.711   4.148  13.357  0.2086 -0.4134  0.4431
 5067SOL    HW126834   4.713   4.195  13.274  1.6133 -0.0199  0.6993
 5067SOL    HW226835   4.733   4.220  13.416 -0.2301 -0.6953  0.9539
 5068SOL     OW26836   2.511   0.641   4.383 -0.1023  0.5608 -0.0550
 5068SOL    HW126837   2.532   0.609   4.471  0.2980 -0.8531 -0.6550
 5068SOL    HW226838   2.425   0.600   4.369 -0.3475  0.7079  0.9848
 5069SOL     OW26839   4.107   2.813   4.434  0.0986  0.0619  0.0296
 5069SOL    HW126840   4.063   2.779   4.356  0.5903  2.3529 -1.2296
 5069SOL    HW226841   4.169   2.744   4.459 -1.5050 -1.3750  0.0951
 5070SOL     OW26842   4.556   1.955   7.260 -0.2621 -0.3820  0.2853
 5070SOL    HW126843   4.595   1.957   7.348 -1.7547 -0.0536  0.9365
 5070SOL    HW226844   4.469   1.975   7.295 -0.4277 -1.2876  0.3919
 5071SOL     OW26845   0.965   1.011   6.257 -0.3907  0.2065  0.3425
 5071SOL    HW126846   1.045   1.045   6.296 -0.3670  1.0167 -0.4220
 5071SOL    HW226847   0.910   1.085   6.283 -0.5687 -0.5345  2.0878
 5072SOL     OW26848   0.309   0.751  14.453 -1.0170  0.5016  0.7216
 5072SOL    HW126849   0.345   0.840  14.453 -0.7119  0.3769  0.9472
 5072SOL    HW226850   0.235   0.767  14.394  0.1863  0.0082 -0.9202
 5073SOL     OW26851   2.873   0.573  12.143 -0.5974  0.7014  0.1666
 5073SOL    HW126852   2.943   0.613  12.195  0.1952 -1.3457  0.7065
 5073SOL    HW226853   2.827   0.531  12.216  0.9470 -1.3813 -0.0693
 5074SOL     OW26854   3.419   4.413   3.792 -0.5189  0.5841 -0.2902
 5074SOL    HW126855   3.424   4.343   3.858 -1.4350  2.1060  1.4057
 5074SOL    HW226856   3.445   4.359   3.718 -0.7473  0.8250 -0.5433
 5075SOL     OW26857   0.083   0.798   2.211 -0.3359  0.1609 -0.1998
 5075SOL    HW126858   0.090   0.834   2.300 -2.3292 -0.6367  0.2951
 5075SOL    HW226859   0.015   0.847   2.164  2.4535  3.0004 -1.2449
 5076SOL     OW26860   1.996   4.558  17.523 -0.2184 -0.5975 -0.7460
 5076SOL    HW126861   2.078   4.606  17.533 -0.4889 -0.3155  0.1793
 5076SOL    HW226862   1.967   4.549  17.614 -0.6640  2.9359 -0.5689
 5077SOL     OW26863   2.854   3.632  10.687 -0.1078 -0.2129  0.6588
 5077SOL    HW126864   2.888   3.721  10.686 -1.3540  0.2341 -1.7910
 5077SOL    HW226865   2.933   3.586  10.716 -1.1527 -0.3322  3.2881
 5078SOL     OW26866   3.878   3.193  13.004  0.0211  0.2130 -0.0892
 5078SOL    HW126867   3.804   3.184  13.063 -0.6135  1.1902 -0.7320
 5078SOL    HW226868   3.834   3.195  12.919  0.7350  0.9409 -0.4461
 5079SOL     OW26869   0.944   4.027   4.029  0.2777  0.2674 -0.1499
 5079SOL    HW126870   0.991   3.974   3.965  0.1998 -1.6481  1.3883
 5079SOL    HW226871   1.011   4.094   4.046 -1.4111  2.5349 -2.3848
 5080SOL     OW26872   0.352   1.322   5.530 -0.9409  0.6569 -0.2357
 5080SOL    HW126873   0.262   1.325   5.498 -0.5072  0.9223 -1.4350
 5080SOL    HW226874   0.366   1.230   5.552 -3.3282  0.3770  0.0852
 5081SOL     OW26875   4.647   1.258   7.726  0.0797  0.9058 -0.3164
 5081SOL    HW126876   4.724   1.217   7.766 -2.0176 -1.4258  1.3379
 5081SOL    HW226877   4.664   1.231   7.636  1.6380 -1.2813  0.6113
 5082SOL     OW26878   4.225   2.574   8.895  0.1000 -0.0620 -0.2428
 5082SOL    HW126879   4.204   2.507   8.830  1.9274  1.3874 -2.3224
 5082SOL    HW226880   4.156   2.548   8.957  0.3889 -3.4576 -1.3291
 5083SOL     OW26881   4.260   3.337  17.519 -0.0406 -0.3824  0.0758
 5083SOL    HW126882   4.178   3.346  17.470 -0.4150 -1.4558  0.4781
 5083SOL    HW226883   4.254   3.421  17.563  0.5591 -0.2973 -0.0051
 5084SOL     OW26884   1.880   0.356   8.545  0.6280  0.3060 -0.2164
 5084SOL    HW126885   1.865   0.305   8.624 -0.5376  1.8124  0.5249
 5084SOL    HW226886   1.972   0.383   8.552 -0.0037  2.2340  0.7942
 5085SOL     OW26887   3.826   0.446   1.761  0.1640 -0.3063  0.1706
 5085SOL    HW126888   3.912   0.423   1.796  1.3105  3.5317 -0.1208
 5085SOL    HW226889   3.837   0.538   1.735 -1.1157  1.0015  4.2393
 5086SOL     OW26890   1.782   0.747   8.095 -0.5991  0.3854 -0.2471
 5086SOL    HW126891   1.841   0.735   8.021  0.8948 -0.4798  1.0750
 5086SOL    HW226892   1.800   0.839   8.117 -1.7129  0.4518  0.3984
 5087SOL     OW26893   4.510   1.504   9.109  0.9039  0.0585  0.5043
 5087SOL    HW126894   4.558   1.512   9.191 -0.2433  1.2103  1.0681
 5087SOL    HW226895   4.419   1.511   9.139  0.1922  0.2868 -1.7395
 5088SOL     OW26896   0.468   3.320  12.288  0.0453  0.2375 -0.1115
 5088SOL    HW126897   0.497   3.376  12.360  1.1492 -0.8410  0.2864
 5088SOL    HW226898   0.475   3.232  12.325 -1.3366 -0.0402 -0.4740
 5089SOL     OW26899   1.671   4.301   3.956 -0.9156  0.0156  0.1570
 5089SOL    HW126900   1.693   4.347   4.038  0.6225 -1.7212  0.7124
 5089SOL    HW226901   1.760   4.292   3.924 -0.4051  1.1364  1.2777
 5090SOL     OW26902   3.302   3.767   6.940  0.9141  0.0298 -0.6922
 5090SOL    HW126903   3.303   3.672   6.935 -1.9805 -0.0457  0.1576
 5090SOL    HW226904   3.394   3.787   6.953  0.8528 -0.6452  0.8179
 5091SOL     OW26905   1.114   2.792   1.589  0.1458 -0.3968  0.9198
 5091SOL    HW126906   1.189   2.818   1.535 -2.3424  0.8333 -1.9006
 5091SOL    HW226907   1.093   2.702   1.567 -1.6790  0.5889 -1.3462
 5092SOL     OW26908   0.930   2.426   2.126  0.0394  0.3899  0.4203
 5092SOL    HW126909   0.999   2.444   2.062 -1.0324 -0.6858 -1.0396
 5092SOL    HW226910   0.891   2.510   2.149  3.9186  2.3912 -0.2490
 5093SOL     OW26911   2.135   3.858  11.177  0.1066 -0.0196 -0.0832
 5093SOL    HW126912   2.072   3.845  11.248 -0.4423  2.5291 -0.0854
 5093SOL    HW226913   2.083   3.850  11.097 -2.8898 -0.0300  1.8702
 5094SOL     OW26914   0.301   2.686  15.954 -0.0209 -0.3972 -0.5346
 5094SOL    HW126915   0.208   2.699  15.971 -0.4236 -0.5005 -2.6491
 5094SOL    HW226916   0.308   2.684  15.858 -3.0072 -0.2859 -0.7594
 5095SOL     OW26917   2.687   0.214  10.007  0.4874 -0.1054  0.1339
 5095SOL    HW126918   2.782   0.229  10.001  0.2279  2.1329  1.8766
 5095SOL    HW226919   2.651   0.299   9.981 -1.5492 -1.5630 -1.7887
 5096SOL     OW26920   4.154   1.268   7.188  0.2875 -0.5394 -0.0730
 5096SOL    HW126921   4.160   1.308   7.101  0.6861 -0.8879 -0.2080
 5096SOL    HW226922   4.071   1.222   7.182  0.5733 -1.0978  0.2902
 5097SOL     OW26923   2.636   2.615   4.810 -0.3035 -0.2631  0.0232
 5097SOL    HW126924   2.713   2.611   4.753 -0.5566  2.6022 -0.5319
 5097SOL    HW226925   2.649   2.691   4.867  1.3104  0.1499 -0.8572
 5098SOL     OW26926   1.845   2.704  13.867  0.1555 -0.5791  0.2423
 5098SOL    HW126927   1.762   2.666  13.895 -1.0891  0.9614 -1.3946
 5098SOL    HW226928   1.881   2.621  13.836  1.3644 -0.4866  1.4084
 5099SOL     OW26929   3.815   0.457   1.417  0.5105  0.8258 -0.4751
 5099SOL    HW126930   3.850   0.538   1.453  1.4056 -0.2554  1.0880
 5099SOL    HW226931   3.856   0.458   1.331  0.8393 -0.9917 -0.3462
 5100SOL     OW26932   1.622   0.369   8.049 -0.0808  0.4337 -0.8583
 5100SOL    HW126933   1.612   0.302   8.116  1.7770 -0.0013 -1.0127
 5100SOL    HW226934   1.584   0.441   8.099 -0.4232 -0.0234 -0.4622
 5101SOL     OW26935   1.150   1.728   6.564 -0.1472  0.3207  0.0824
 5101SOL    HW126936   1.204   1.744   6.641  2.5752 -2.0760 -1.2966
 5101SOL    HW226937   1.212   1.674   6.513  2.7533  1.1959  2.6513
 5102SOL     OW26938   0.059   2.929   1.444  0.3346  0.0758  0.2700
 5102SOL    HW126939   0.032   2.862   1.381 -0.5299  0.6120  0.0836
 5102SOL    HW226940   0.099   2.872   1.511  1.9282 -0.7491 -1.3912
 5103SOL     OW26941   4.052   1.924   4.380  0.0287 -0.4157 -0.3524
 5103SOL    HW126942   4.083   1.968   4.301 -2.0476  0.7386 -0.5224
 5103SOL    HW226943   4.120   1.862   4.407  0.3423 -0.9651 -2.3955
 5104SOL     OW26944   1.127   3.567   7.480 -0.5133  0.4348 -0.9092
 5104SOL    HW126945   1.181   3.494   7.511  0.6401  2.3517  1.5995
 5104SOL    HW226946   1.146   3.561   7.386  2.8079  0.7990 -0.2960
 5105SOL     OW26947   2.193   3.846   2.084  0.6169  0.5971 -0.3369
 5105SOL    HW126948   2.151   3.861   2.000  0.3989  0.5686 -0.2316
 5105SOL    HW226949   2.115   3.806   2.122  0.5893 -0.0947 -1.1160
 5106SOL     OW26950   3.254   3.357   3.857 -0.7874  0.2562 -0.4554
 5106SOL    HW126951   3.200   3.420   3.810  0.8044 -0.7472 -3.5767
 5106SOL    HW226952   3.199   3.280   3.846 -0.9685  0.1560  1.0964
 5107SOL     OW26953   2.711   2.526   5.963  0.6741  0.2544 -0.3757
 5107SOL    HW126954   2.659   2.505   6.041 -0.2081 -0.1354 -1.0715
 5107SOL    HW226955   2.770   2.597   5.989 -1.0417  1.2343  0.8872
 5108SOL     OW26956   3.284   3.718   3.330 -0.1596 -0.4059 -0.1131
 5108SOL    HW126957   3.259   3.627   3.344  2.8401 -1.4407 -1.4489
 5108SOL    HW226958   3.379   3.709   3.323  0.0495  1.7229 -0.0187
 5109SOL     OW26959   3.745   2.346  15.238 -0.4203 -0.1810 -0.1063
 5109SOL    HW126960   3.658   2.382  15.222 -0.0472  0.4777 -0.6369
 5109SOL    HW226961   3.782   2.388  15.161 -3.7392  2.4575 -0.2745
 5110SOL     OW26962   1.079   4.052   5.344 -0.4483  0.4822  0.1155
 5110SOL    HW126963   1.044   4.117   5.404 -1.0582  0.3615 -0.1136
 5110SOL    HW226964   1.016   4.060   5.273  0.7068 -0.6727 -1.0351
 5111SOL     OW26965   1.141   4.622   6.203 -0.1091 -0.2568 -0.0955
 5111SOL    HW126966   1.135   4.665   6.288 -0.8863 -2.5856  1.0275
 5111SOL    HW226967   1.053   4.588   6.187 -0.0169  0.5330 -2.4180
 5112SOL     OW26968   3.486   0.887   8.664  0.3358 -0.0488 -0.7929
 5112SOL    HW126969   3.464   0.979   8.682 -0.5128 -0.6333  1.1735
 5112SOL    HW226970   3.539   0.862   8.740 -1.0638 -1.8295 -0.3874
 5113SOL     OW26971   2.604   4.018   6.080 -0.3237  0.6629 -0.0673
 5113SOL    HW126972   2.558   3.980   6.154 -0.4697  2.9805  1.0264
 5113SOL    HW226973   2.680   4.055   6.125  1.2932  0.6178 -2.7338
 5114SOL     OW26974   0.440   1.672  15.877 -0.0999 -0.0558 -0.5464
 5114SOL    HW126975   0.532   1.654  15.898 -0.2697  0.1309  0.3562
 5114SOL    HW226976   0.427   1.614  15.802  2.3651  0.1583 -1.1363
 5115SOL     OW26977   2.653   2.185  15.928  0.8092 -0.1564  0.0766
 5115SOL    HW126978   2.592   2.179  15.854 -0.8554  0.7258  1.3924
 5115SOL    HW226979   2.599   2.244  15.981 -2.1557 -1.0909 -1.8961
 5116SOL     OW26980   4.024   4.092   2.487  0.2353  0.6484  0.0058
 5116SOL    HW126981   4.015   3.997   2.500  0.7718  0.7354  0.9967
 5116SOL    HW226982   3.989   4.133   2.566  2.1296  0.9536  0.6937
 5117SOL     OW26983   1.709   4.591   4.878 -0.0156 -1.0030  0.3614
 5117SOL    HW126984   1.749   4.575   4.964  1.4376  2.5143  0.3159
 5117SOL    HW226985   1.619   4.607   4.908  0.0336 -0.3221  0.1445
 5118SOL     OW26986   1.178   4.473   4.813 -0.0599  0.0903  0.0382
 5118SOL    HW126987   1.201   4.528   4.888  3.1791  1.2096 -1.7531
 5118SOL    HW226988   1.113   4.414   4.850 -0.7623  0.1582 -1.0985
 5119SOL     OW26989   3.264   2.320   3.348  0.4118  0.6475 -0.7966
 5119SOL    HW126990   3.205   2.348   3.418  1.7405 -2.1573  1.4121
 5119SOL    HW226991   3.230   2.231   3.345  1.5895  0.2340 -1.3576
 5120SOL     OW26992   2.510   3.587   1.359  0.2164  0.1274 -0.0813
 5120SOL    HW126993   2.551   3.664   1.398 -1.2101 -0.6467  2.9762
 5120SOL    HW226994   2.444   3.631   1.306 -0.0867  1.5446  1.4716
 5121SOL     OW26995   4.028   3.805  17.579  0.2094 -0.2329 -0.6979
 5121SOL    HW126996   3.974   3.876  17.544  1.3474 -0.0420 -2.0792
 5121SOL    HW226997   4.096   3.842  17.636 -1.6772  2.6430 -0.2934
 5122SOL     OW26998   1.558   1.399   7.523 -0.0529  0.0022 -0.0893
 5122SOL    HW126999   1.619   1.470   7.546 -0.1207 -1.0152  3.2329
 5122SOL    HW227000   1.614   1.323   7.535  1.5143  1.3067  0.9338
 5123SOL     OW27001   0.664   3.504   4.154 -0.4813  0.1223 -0.3565
 5123SOL    HW127002   0.749   3.509   4.197  0.0745 -1.0548 -1.2836
 5123SOL    HW227003   0.620   3.575   4.200  0.6752 -0.5726  1.8224
 5124SOL     OW27004   0.472   1.283   9.144  0.5864 -0.0563  0.2176
 5124SOL    HW127005   0.507   1.240   9.221 -1.4433 -1.9761  0.0601
 5124SOL    HW227006   0.426   1.361   9.178 -2.7256 -2.0208  0.2837
 5125SOL     OW27007   2.643   3.507   4.560  0.1257  0.1015 -0.2162
 5125SOL    HW127008   2.646   3.435   4.497  0.2684  1.9778 -2.3268
 5125SOL    HW227009   2.624   3.470   4.647  2.2852  0.2395  0.3067
 5126SOL     OW27010   4.023   1.180   2.659 -0.5312  0.5947  0.2743
 5126SOL    HW127011   3.944   1.174   2.712 -1.6540 -2.1024 -1.7357
 5126SOL    HW227012   4.003   1.159   2.568  2.7022 -0.1700 -0.2656
 5127SOL     OW27013   0.318   0.630   4.919  0.2225  0.5281  0.2168
 5127SOL    HW127014   0.264   0.668   4.850  3.4188  1.6167 -1.7153
 5127SOL    HW227015   0.383   0.699   4.937 -0.3410  1.2141 -0.4064
 5128SOL     OW27016   1.969   0.890   7.486 -0.1234 -0.0382  0.3528
 5128SOL    HW127017   2.046   0.851   7.526 -0.4389 -1.1745 -0.1194
 5128SOL    HW227018   1.964   0.822   7.418  1.7803 -0.0546  0.2245
 5129SOL     OW27019   2.956   3.807   9.779  0.3974  0.2293  0.0597
 5129SOL    HW127020   2.870   3.829   9.743 -0.0461 -0.2701  0.7899
 5129SOL    HW227021   2.971   3.885   9.832 -0.9285  0.0400  0.7260
 5130SOL     OW27022   4.572   1.104   4.742 -0.3852  0.1409  0.4093
 5130SOL    HW127023   4.651   1.107   4.688 -0.0925 -1.0555  0.7636
 5130SOL    HW227024   4.498   1.067   4.694  1.1047 -0.7925 -1.1611
 5131SOL     OW27025   4.288   3.837   7.838  0.4894 -0.3077  0.5616
 5131SOL    HW127026   4.302   3.744   7.818 -1.5458 -0.4761 -0.0676
 5131SOL    HW227027   4.372   3.883   7.838  0.8291 -0.9233 -0.5578
 5132SOL     OW27028   4.309   4.139   4.807 -0.2706 -0.2417 -0.1395
 5132SOL    HW127029   4.276   4.205   4.745 -1.7998  0.4548  1.4268
 5132SOL    HW227030   4.232   4.081   4.807  0.3372 -1.0672 -2.2797
 5133SOL     OW27031   2.057   3.412   9.862 -0.4193  0.1601  0.6358
 5133SOL    HW127032   2.104   3.432   9.781  0.4255  1.2598  1.4031
 5133SOL    HW227033   1.980   3.381   9.814 -0.5779 -0.6645  1.4159
 5134SOL     OW27034   1.570   4.418   7.485  0.2781  0.5611  0.1701
 5134SOL    HW127035   1.575   4.473   7.563 -0.7979  3.1570 -1.5737
 5134SOL    HW227036   1.659   4.430   7.451 -0.4676  0.3995 -1.8613
 5135SOL     OW27037   2.538   3.928   1.168 -0.0898  0.3382  0.1079
 5135SOL    HW127038   2.528   4.021   1.190 -1.1309  0.5307 -1.1657
 5135SOL    HW227039   2.509   3.890   1.250  0.9775  0.0313  0.3467
 5136SOL     OW27040   3.446   2.980   8.079  0.7127 -0.7518 -0.3278
 5136SOL    HW127041   3.486   3.019   8.157 -1.0004 -1.2407  0.7979
 5136SOL    HW227042   3.525   2.960   8.029  2.1277  1.2977  1.0784
 5137SOL     OW27043   3.473   1.061   1.810 -0.6878  0.3501  0.3342
 5137SOL    HW127044   3.489   0.985   1.866  1.6743 -0.7089 -1.7966
 5137SOL    HW227045   3.411   1.111   1.863 -0.8852  0.9913 -0.5037
 5138SOL     OW27046   0.688   1.717   2.495  0.2658 -0.5138  0.6092
 5138SOL    HW127047   0.761   1.668   2.457 -2.5013 -2.5732 -1.9422
 5138SOL    HW227048   0.619   1.706   2.430  0.9328 -1.1374  0.0180
 5139SOL     OW27049   1.815   2.878   0.894  0.0810  0.0766 -0.3728
 5139SOL    HW127050   1.781   2.789   0.896  0.3603 -0.0302 -0.3669
 5139SOL    HW227051   1.740   2.931   0.868 -0.4616 -0.0941  0.8418
 5140SOL     OW27052   4.392   3.785   0.941  0.1334  0.5375  0.2252
 5140SOL    HW127053   4.416   3.705   0.990 -3.9984 -0.9081 -0.1471
 5140SOL    HW227054   4.459   3.797   0.874  0.4738 -0.4201  0.3935
 5141SOL     OW27055   4.694   1.086   5.691  0.1666 -0.0241  0.7328
 5141SOL    HW127056   4.638   1.144   5.639 -0.4455 -2.3141 -1.1678
 5141SOL    HW227057   0.005   1.148   5.745 -0.3904  0.7391  0.3717
 5142SOL     OW27058   4.173   1.732   5.265 -0.2274  0.4556 -0.2621
 5142SOL    HW127059   4.147   1.665   5.201 -0.6570  1.5315 -1.2038
 5142SOL    HW227060   4.101   1.724   5.326  1.5684 -1.5826  1.6203
 5143SOL     OW27061   2.298   2.242   0.125  0.2432 -0.0954 -0.2391
 5143SOL    HW127062   2.253   2.320   0.158 -5.1417 -2.4547 -2.0496
 5143SOL    HW227063   2.259   2.179   0.186 -0.4095 -0.3097 -0.8809
 5144SOL     OW27064   3.825   2.048   3.742  0.1208 -0.4028 -0.5392
 5144SOL    HW127065   3.733   2.039   3.716 -0.1427 -0.0158  0.2594
 5144SOL    HW227066   3.828   2.006   3.828 -0.4897 -0.5002 -0.5664
 5145SOL     OW27067   2.578   2.092   3.867  0.1159  0.3435 -0.3146
 5145SOL    HW127068   2.572   2.123   3.957 -1.3286 -1.0045  0.0572
 5145SOL    HW227069   2.576   1.997   3.883  1.2381  0.4078  0.2196
 5146SOL     OW27070   3.805   2.981   4.158  0.0993  0.1156  0.2349
 5146SOL    HW127071   3.800   3.057   4.216 -2.6642 -0.1507  0.3482
 5146SOL    HW227072   3.781   3.022   4.075  2.7426  1.1157 -0.0552
 5147SOL     OW27073   0.890   1.779  10.533  0.5445  0.7103 -0.4732
 5147SOL    HW127074   0.811   1.798  10.583 -0.0034  0.2708 -1.1746
 5147SOL    HW227075   0.908   1.697  10.579  0.7688  0.5884 -0.7779
 5148SOL     OW27076   3.757   3.189   7.627  0.4307  0.2318 -0.2818
 5148SOL    HW127077   3.680   3.225   7.672  1.1447  2.4098 -0.7826
 5148SOL    HW227078   3.730   3.097   7.629 -2.0845  0.9306 -2.5423
 5149SOL     OW27079   2.806   1.016   9.665 -0.9743  0.0913  0.2626
 5149SOL    HW127080   2.867   1.061   9.724 -1.4793 -2.4574  2.7151
 5149SOL    HW227081   2.752   1.086   9.630  0.9524  1.1632 -0.6074
 5150SOL     OW27082   1.821   4.130   5.822  0.3105  0.0018  0.1280
 5150SOL    HW127083   1.871   4.180   5.887 -1.0653  0.0585  1.1576
 5150SOL    HW227084   1.886   4.135   5.752 -0.3780 -1.2512 -0.5982
 5151SOL     OW27085   3.214   2.183   6.025 -0.1730  0.5208 -0.7257
 5151SOL    HW127086   3.129   2.215   5.995  0.2681  0.6837 -1.7820
 5151SOL    HW227087   3.189   2.101   6.068  3.9417 -0.3832 -0.0420
 5152SOL     OW27088   0.715   2.446   7.657  0.8145  0.1070 -0.3502
 5152SOL    HW127089   0.810   2.435   7.663  0.8298  0.0732 -0.6712
 5152SOL    HW227090   0.719   2.539   7.636 -0.1521 -0.3605 -2.6162
 5153SOL     OW27091   0.686   3.156   8.836  0.1355  0.1118 -0.6405
 5153SOL    HW127092   0.711   3.090   8.901 -1.1992  1.7900  1.5653
 5153SOL    HW227093   0.592   3.142   8.838  0.0040  0.7865 -1.8823
 5154SOL     OW27094   3.068   1.520   6.653  0.0246  0.2503  0.2099
 5154SOL    HW127095   3.069   1.458   6.580  1.6922 -0.0402  0.4735
 5154SOL    HW227096   3.108   1.467   6.722 -0.6279  1.2057  1.3291
 5155SOL     OW27097   2.588   2.024   5.897 -0.1976 -0.1450 -0.1981
 5155SOL    HW127098   2.675   2.030   5.936 -0.2324 -1.7140  0.1419
 5155SOL    HW227099   2.616   2.023   5.806 -2.4167  4.4436 -0.8855
 5156SOL     OW27100   3.713   1.891  11.906  0.3641  0.0737 -0.3166
 5156SOL    HW127101   3.669   1.827  11.961 -0.0372  0.2705 -0.4091
 5156SOL    HW227102   3.743   1.843  11.828 -1.9324  1.0078 -1.7709
 5157SOL     OW27103   4.618   1.184   7.457 -0.1678  0.7955 -0.1891
 5157SOL    HW127104   4.531   1.170   7.420 -0.4485 -0.9827  1.1595
 5157SOL    HW227105   4.649   1.254   7.400  2.5062  0.5258  0.9120
 5158SOL     OW27106   4.104   1.630   8.171 -0.6895  0.1489 -0.7060
 5158SOL    HW127107   4.098   1.535   8.168 -1.0438  0.1907 -1.2216
 5158SOL    HW227108   4.099   1.660   8.080  0.8467  1.0910 -0.4887
 5159SOL     OW27109   1.325   3.253   8.313 -0.4601  0.0369  0.5727
 5159SOL    HW127110   1.273   3.180   8.348 -1.4107 -0.4330 -1.7789
 5159SOL    HW227111   1.267   3.329   8.316  0.5557  0.8042  0.6987
 5160SOL     OW27112   0.247   2.034   4.549  0.7518  0.3648 -0.0746
 5160SOL    HW127113   0.255   2.009   4.641  0.2142 -0.6409 -0.3047
 5160SOL    HW227114   0.160   2.074   4.552  0.4385 -0.2107 -1.4341
 5161SOL     OW27115   3.794   2.966   8.273 -0.2786 -0.5190 -0.3915
 5161SOL    HW127116   3.883   2.962   8.239 -0.4681  1.1445 -1.0696
 5161SOL    HW227117   3.790   2.876   8.306 -0.3492 -0.1324  0.6457
 5162SOL     OW27118   1.976   3.098  17.743  0.2344  0.6208 -0.3471
 5162SOL    HW127119   1.948   3.188   0.003 -1.6094  0.0570 -0.3461
 5162SOL    HW227120   1.963   3.098  17.648  1.1282  0.1093 -0.4756
 5163SOL     OW27121   1.296   4.353   8.543  0.2482 -0.0650 -0.0570
 5163SOL    HW127122   1.222   4.330   8.599 -0.3310  0.2239 -0.6879
 5163SOL    HW227123   1.359   4.384   8.608 -0.5417  0.6742  0.3537
 5164SOL     OW27124   0.791   0.940   8.718  0.0131 -0.2370  0.3359
 5164SOL    HW127125   0.793   1.007   8.650 -0.4918  0.3965  0.9389
 5164SOL    HW227126   0.880   0.912   8.737  0.7552  2.0794  0.2335
 5165SOL     OW27127   0.020   2.734  15.932 -0.3517  0.2687 -0.6307
 5165SOL    HW127128   4.707   2.706  16.007  0.8172  2.7840  1.1286
 5165SOL    HW227129   4.689   2.745  15.867 -1.6406  2.6804  1.1643
 5166SOL     OW27130   3.910   2.761   2.636 -0.3304  0.2755 -0.5037
 5166SOL    HW127131   3.910   2.665   2.644  2.3442  0.0928 -2.9712
 5166SOL    HW227132   3.849   2.786   2.566 -0.3110  1.3474 -0.1249
 5167SOL     OW27133   3.185   3.329   8.216 -0.2614  0.4060  0.2749
 5167SOL    HW127134   3.235   3.411   8.216  0.1665  0.1343 -1.1572
 5167SOL    HW227135   3.208   3.290   8.300  2.8813  0.3436 -0.6111
 5168SOL     OW27136   4.303   3.707   4.178  0.6233  0.0184 -0.0243
 5168SOL    HW127137   4.361   3.631   4.174 -0.5750 -0.8021 -1.7468
 5168SOL    HW227138   4.327   3.741   4.092  1.5835 -1.5162 -0.3616
 5169SOL     OW27139   4.337   0.380  10.201  0.4397  0.3667 -0.7268
 5169SOL    HW127140   4.269   0.383  10.268  2.0440  1.1143  0.8568
 5169SOL    HW227141   4.287   0.399  10.121  2.0360  2.6203 -1.1677
 5170SOL     OW27142   2.101   1.458   2.269  0.4199  0.4988 -0.5051
 5170SOL    HW127143   2.101   1.551   2.247  0.4497  0.8017  0.7397
 5170SOL    HW227144   2.171   1.430   2.211 -0.0745  0.1740 -0.9331
 5171SOL     OW27145   3.718   0.487   6.254 -0.1396 -0.2555 -0.2171
 5171SOL    HW127146   3.720   0.439   6.337 -0.7851 -1.3554 -0.8398
 5171SOL    HW227147   3.655   0.440   6.199 -1.3638  0.2365  0.7611
 5172SOL     OW27148   3.773   0.689   9.549 -0.3144 -0.6161 -0.2289
 5172SOL    HW127149   3.868   0.690   9.540 -0.5555  0.8801 -2.5253
 5172SOL    HW227150   3.758   0.606   9.596  0.1681 -1.5214 -1.6733
 5173SOL     OW27151   0.990   2.629   5.682 -0.0591  0.0151  0.0570
 5173SOL    HW127152   1.032   2.613   5.766 -2.4151 -0.0108  1.2356
 5173SOL    HW227153   0.914   2.570   5.687 -0.0743  0.2286  2.3654
 5174SOL     OW27154   2.546   0.255  11.450  0.5662  0.0786 -0.3986
 5174SOL    HW127155   2.547   0.187  11.383  1.2071 -1.6687  1.3876
 5174SOL    HW227156   2.558   0.339  11.406 -1.7426  0.2174 -0.8014
 5175SOL     OW27157   2.599   0.902   1.643  0.0398  0.0912 -0.0137
 5175SOL    HW127158   2.578   0.899   1.737  0.6384  1.0255  0.1412
 5175SOL    HW227159   2.549   0.980   1.620 -2.2661 -1.0689  0.9951
 5176SOL     OW27160   4.385   1.890   7.746  0.5596  0.1589  1.0020
 5176SOL    HW127161   4.301   1.899   7.791 -0.1111  0.4641 -0.3352
 5176SOL    HW227162   4.439   1.941   7.806  3.0812 -1.6787  0.2871
 5177SOL     OW27163   2.772   1.479   6.367  0.1199  0.2562 -0.6463
 5177SOL    HW127164   2.776   1.451   6.458  0.9202 -1.7116 -1.2908
 5177SOL    HW227165   2.739   1.569   6.372  0.2389  0.2611  0.0276
 5178SOL     OW27166   3.965   2.395   3.191 -0.1362  0.1648  0.4700
 5178SOL    HW127167   3.908   2.462   3.154 -0.7948 -1.4151 -1.3653
 5178SOL    HW227168   3.908   2.339   3.244  3.9729 -2.8732  1.6998
 5179SOL     OW27169   2.586   3.033   7.185  0.1104 -0.0656  0.7223
 5179SOL    HW127170   2.634   3.038   7.102  0.0749 -2.1925  0.5733
 5179SOL    HW227171   2.525   2.961   7.171  1.4647 -0.9807 -0.4950
 5180SOL     OW27172   4.269   0.723   7.324 -0.4150  0.3388  0.0203
 5180SOL    HW127173   4.191   0.709   7.271  0.3304 -0.5244 -0.8638
 5180SOL    HW227174   4.235   0.735   7.413  1.8357  0.0723  0.9177
 5181SOL     OW27175   4.304   4.361   9.899  0.2593  0.3062  0.4029
 5181SOL    HW127176   4.289   4.268   9.918  2.2382  0.3689  2.3038
 5181SOL    HW227177   4.257   4.401   9.972 -0.0109  0.2736  0.2476
 5182SOL     OW27178   1.998   2.937   5.365 -0.1200 -0.1020 -0.0443
 5182SOL    HW127179   2.091   2.958   5.361 -0.1941  0.0300 -1.0613
 5182SOL    HW227180   1.952   2.995   5.426 -0.0082  1.1450 -1.1540
 5183SOL     OW27181   1.414   4.230   4.945 -0.4525  0.0436  0.4198
 5183SOL    HW127182   1.427   4.289   5.019  0.5407  1.2045 -0.6722
 5183SOL    HW227183   1.338   4.181   4.976 -0.3324 -1.2076 -1.2430
 5184SOL     OW27184   2.368   0.107   4.700 -0.0128  0.0132  0.5984
 5184SOL    HW127185   2.450   0.123   4.747 -0.2394 -3.9218  2.2798
 5184SOL    HW227186   2.323   0.191   4.709 -0.0067  0.3795 -2.5897
 5185SOL     OW27187   3.971   1.155  13.089 -0.1057 -0.5925  0.4221
 5185SOL    HW127188   3.982   1.068  13.051 -0.8896 -0.3761 -0.2841
 5185SOL    HW227189   4.058   1.185  13.062  0.1502 -1.2291  0.5340
 5186SOL     OW27190   3.945   1.276  13.918 -0.0405  0.1017 -0.3649
 5186SOL    HW127191   4.006   1.300  13.987 -1.1157 -0.0883  0.6457
 5186SOL    HW227192   3.944   1.365  13.885 -1.4942 -0.5933 -2.1912
 5187SOL     OW27193   0.101   1.133   2.285 -0.1933 -0.0087 -0.3276
 5187SOL    HW127194   0.189   1.144   2.323 -0.6566 -1.1559  1.0652
 5187SOL    HW227195   0.105   1.216   2.236 -1.3916  0.7100  0.7831
 5188SOL     OW27196   0.631   2.856  14.901  0.5575  0.2016  0.0465
 5188SOL    HW127197   0.615   2.832  14.810 -1.7911  2.0431 -0.0459
 5188SOL    HW227198   0.724   2.835  14.914  0.6310  0.2313 -0.4524
 5189SOL     OW27199   0.037   4.317   0.418 -0.0437 -0.2849  0.0946
 5189SOL    HW127200   0.128   4.292   0.434  0.1531 -0.7103 -1.7880
 5189SOL    HW227201   0.028   4.391   0.478  2.6146 -0.4039  0.6413
 5190SOL     OW27202   1.946   4.565  13.959  0.2329 -0.0745 -0.1699
 5190SOL    HW127203   1.856   4.569  13.989 -0.2783  0.7892 -1.8240
 5190SOL    HW227204   1.933   4.532  13.870  0.7500  0.5655 -0.4865
 5191SOL     OW27205   2.690   0.512  14.234 -0.1837  0.1118 -0.4029
 5191SOL    HW127206   2.779   0.504  14.199  1.0142 -1.1814  2.9251
 5191SOL    HW227207   2.687   0.435  14.290  2.4771 -0.6510 -1.2894
 5192SOL     OW27208   1.666   3.418  13.326  0.5946 -0.0097 -0.2679
 5192SOL    HW127209   1.611   3.407  13.404 -3.1407 -3.6425 -3.3764
 5192SOL    HW227210   1.622   3.366  13.258  3.2134 -0.1094 -1.8619
 5193SOL     OW27211   1.133   0.911  13.572  0.1201 -0.1116  0.3162
 5193SOL    HW127212   1.165   0.847  13.636 -0.5006 -1.4725 -0.7631
 5193SOL    HW227213   1.193   0.896  13.499 -0.6864 -1.1554 -0.1195
 5194SOL     OW27214   3.510   4.224   2.154 -0.4289 -0.8409 -0.2359
 5194SOL    HW127215   3.561   4.177   2.088  1.2195  0.5406  0.0459
 5194SOL    HW227216   3.551   4.203   2.238  0.3406 -2.5766 -1.0472
 5195SOL     OW27217   0.430   3.796   6.643  0.8554 -0.5603  0.1625
 5195SOL    HW127218   0.377   3.863   6.685 -0.4196 -0.3780 -1.7137
 5195SOL    HW227219   0.478   3.786   6.725  0.8791 -1.8593 -0.0159
 5196SOL     OW27220   4.580   2.476  15.974 -0.7868  0.2200  0.3195
 5196SOL    HW127221   4.619   2.478  16.062  1.8932  2.6846 -0.9100
 5196SOL    HW227222   4.597   2.384  15.955 -0.9597 -0.1677  1.9885
 5197SOL     OW27223   1.806   2.889   6.411  0.1247 -0.6265  0.0241
 5197SOL    HW127224   1.724   2.936   6.401 -0.2639 -1.3576 -0.2344
 5197SOL    HW227225   1.805   2.839   6.329  0.4695 -1.0818  0.2912
 5198SOL     OW27226   2.787   3.128   4.681 -0.2148 -0.3076  0.2815
 5198SOL    HW127227   2.857   3.193   4.670  0.1710 -0.9951 -1.1862
 5198SOL    HW227228   2.742   3.180   4.748 -0.7317 -1.3410  0.7313
 5199SOL     OW27229   3.039   3.336  12.371  0.5531 -0.0875 -0.3663
 5199SOL    HW127230   2.983   3.270  12.413  2.0009 -2.1910 -1.7432
 5199SOL    HW227231   3.070   3.292  12.293  1.1236  0.9006 -0.6905
 5200SOL     OW27232   1.075   1.995   4.751  0.0666 -0.7538 -0.5860
 5200SOL    HW127233   0.998   2.043   4.720 -1.6277 -1.0151  3.2841
 5200SOL    HW227234   1.031   1.917   4.783  0.1840  0.4849  2.5881
 5201SOL     OW27235   3.063   1.919   9.807  0.0196  0.0187  0.3058
 5201SOL    HW127236   3.024   1.863   9.874  0.2849 -0.0993  0.3650
 5201SOL    HW227237   2.989   1.930   9.748 -0.3400 -2.9558  0.2029
 5202SOL     OW27238   0.284   1.400   5.118  0.2543 -0.3292  0.1469
 5202SOL    HW127239   0.199   1.437   5.093 -0.2257 -2.0481 -0.7916
 5202SOL    HW227240   0.267   1.306   5.128  0.7343 -0.1550  2.7042
 5203SOL     OW27241   4.117   1.566   6.727  0.6934 -0.0943 -0.3182
 5203SOL    HW127242   4.114   1.519   6.644 -2.1280 -0.0720 -0.2062
 5203SOL    HW227243   4.026   1.573   6.756  0.8134 -0.3362  0.1202
 5204SOL     OW27244   1.845   2.875   3.530  0.5859  0.4381 -0.5832
 5204SOL    HW127245   1.864   2.967   3.545  2.2802  0.1032 -0.6556
 5204SOL    HW227246   1.775   2.874   3.465  0.2794 -0.0537 -0.2465
 5205SOL     OW27247   3.885   0.869   5.083 -0.1271 -0.2320 -0.1945
 5205SOL    HW127248   3.874   0.841   5.174 -0.1558  1.8832  0.4558
 5205SOL    HW227249   3.967   0.826   5.062 -0.0595 -0.2539  0.1197
 5206SOL     OW27250   3.031   1.280  14.536 -0.3806  0.2723  0.3999
 5206SOL    HW127251   3.073   1.256  14.619 -0.5102  0.2566  0.4611
 5206SOL    HW227252   3.047   1.201  14.484 -1.0335  0.8318 -0.6385
 5207SOL     OW27253   4.413   1.430   4.512  0.5960  0.4428 -0.2131
 5207SOL    HW127254   4.359   1.470   4.443  0.2968  0.3880 -0.0123
 5207SOL    HW227255   4.371   1.467   4.589  1.5452 -0.1328  0.5817
 5208SOL     OW27256   2.014   2.023   5.838 -0.2816  0.9987  0.2528
 5208SOL    HW127257   1.946   2.072   5.790 -1.7147 -3.0879 -1.8797
 5208SOL    HW227258   2.082   2.018   5.771 -0.0907 -1.8171  0.6673
 5209SOL     OW27259   1.985   2.586   5.007  0.2498  0.2257 -0.4189
 5209SOL    HW127260   1.959   2.671   5.043  1.4630 -0.0351  1.1153
 5209SOL    HW227261   2.033   2.548   5.082 -0.4969  4.3087  2.1202
 5210SOL     OW27262   3.876   3.706  14.103  0.0637  0.2238  0.7501
 5210SOL    HW127263   3.908   3.774  14.043 -0.4628 -0.2029 -0.0182
 5210SOL    HW227264   3.931   3.632  14.077 -0.7444  0.4176 -1.5521
 5211SOL     OW27265   1.866   2.698   4.032 -0.2145  0.5585  0.1144
 5211SOL    HW127266   1.883   2.604   4.039  1.7813  0.9319  0.1648
 5211SOL    HW227267   1.927   2.727   3.965  1.4728  2.5822  2.4980
 5212SOL     OW27268   0.153   2.682   7.598  0.3845  0.4752 -0.0584
 5212SOL    HW127269   0.151   2.589   7.622 -0.6484 -0.2228 -2.9104
 5212SOL    HW227270   0.220   2.717   7.657 -0.1178 -0.4234  1.0474
 5213SOL     OW27271   0.833   0.418   4.265 -0.1835 -0.9338  0.4240
 5213SOL    HW127272   0.759   0.478   4.277  1.3837  1.0111  0.4228
 5213SOL    HW227273   0.856   0.439   4.174 -2.9879  0.8547  0.1358
 5214SOL     OW27274   2.810   4.612   7.927 -0.2626  0.1715 -0.3965
 5214SOL    HW127275   2.821   4.560   8.006 -0.7079  2.0670  0.8982
 5214SOL    HW227276   2.720   4.603   7.895 -0.0199  2.0243 -1.5983
 5215SOL     OW27277   0.667   2.146   4.956  0.1416 -0.1373  0.6427
 5215SOL    HW127278   0.759   2.127   4.976  0.2454  1.5468  1.7725
 5215SOL    HW227279   0.677   2.236   4.924 -2.3249  0.0161  0.2515
 5216SOL     OW27280   2.257   4.182   5.711  0.0248 -0.0417  0.4808
 5216SOL    HW127281   2.254   4.107   5.770 -1.6618  0.2348  0.7649
 5216SOL    HW227282   2.296   4.245   5.772 -0.3257 -1.8272  2.5433
 5217SOL     OW27283   1.568   4.100   9.167  0.1952  0.5432  0.1138
 5217SOL    HW127284   1.663   4.091   9.161 -0.0530 -1.6697 -0.5372
 5217SOL    HW227285   1.559   4.195   9.166  0.6610  0.6039  1.0376
 5218SOL     OW27286   1.077   4.017   7.582 -0.4209  0.0956 -0.4677
 5218SOL    HW127287   1.130   4.070   7.642 -0.9446  1.7963 -1.5193
 5218SOL    HW227288   1.036   3.959   7.647  0.5425 -0.2116 -0.1423
 5219SOL     OW27289   2.166   2.973   6.018 -0.0458 -0.6213 -0.5602
 5219SOL    HW127290   2.200   3.062   6.013  0.6603 -0.8447  0.3647
 5219SOL    HW227291   2.246   2.921   6.011 -0.4207 -1.2271 -0.3544
 5220SOL     OW27292   2.978   1.442   9.752  0.2733 -0.3649 -0.6139
 5220SOL    HW127293   2.959   1.524   9.707 -1.0338  0.2232  1.0027
 5220SOL    HW227294   3.060   1.420   9.708 -0.4947 -1.5150 -1.4840
 5221SOL     OW27295   1.986   3.849   3.454  0.3298  0.4951  0.0722
 5221SOL    HW127296   1.997   3.874   3.546  3.0334 -1.4567  0.2826
 5221SOL    HW227297   1.961   3.935   3.420 -0.1850  1.6838  3.4394
 5222SOL     OW27298   4.334   3.457   8.385  0.0779  0.0281 -0.5839
 5222SOL    HW127299   4.345   3.454   8.290 -1.1231 -1.5717 -0.6802
 5222SOL    HW227300   4.263   3.519   8.398  1.3092  1.1200  1.0030
 5223SOL     OW27301   0.785   3.759   4.392 -0.3735 -0.5646  0.3011
 5223SOL    HW127302   0.693   3.734   4.386 -0.6821  0.1577  2.0573
 5223SOL    HW227303   0.831   3.707   4.458 -1.1465 -1.7319 -0.0827
 5224SOL     OW27304   0.432   4.518   3.947 -0.3338  0.0365  0.1620
 5224SOL    HW127305   0.503   4.489   4.004 -0.5887 -1.3519 -0.2115
 5224SOL    HW227306   0.426   4.443   3.887 -0.0410  1.3154 -1.4680
 5225SOL     OW27307   3.759   3.194  16.723  0.5799 -0.3854  0.1291
 5225SOL    HW127308   3.680   3.245  16.741  0.2218 -1.2821  1.1096
 5225SOL    HW227309   3.724   3.106  16.710  0.5303 -0.2634 -0.5548
 5226SOL     OW27310   1.752   0.559  17.434 -0.3861 -0.0044  0.5203
 5226SOL    HW127311   1.821   0.533  17.373 -0.2094  1.6402  0.0054
 5226SOL    HW227312   1.726   0.647  17.406 -0.6852  0.1933  1.4160
 5227SOL     OW27313   0.981   1.392   0.194 -0.3388  0.1423 -0.6027
 5227SOL    HW127314   1.052   1.336   0.162  0.7104  0.7762  0.6048
 5227SOL    HW227315   0.918   1.373   0.124 -0.8680 -1.7682  0.3916
 5228SOL     OW27316   4.401   3.400   4.577 -0.4345  0.1537  0.4936
 5228SOL    HW127317   4.493   3.376   4.563 -0.6653 -0.1912 -0.4551
 5228SOL    HW227318   4.415   3.490   4.608 -0.5699  0.2433  0.2885
 5229SOL     OW27319   0.700   0.195   5.985 -0.2547  0.5081 -0.3704
 5229SOL    HW127320   0.740   0.222   6.068 -0.2262  3.0953 -1.2113
 5229SOL    HW227321   0.728   0.265   5.925  0.8872  0.4436  0.0783
 5230SOL     OW27322   2.516   2.365  11.010  0.6185 -0.3247 -0.2074
 5230SOL    HW127323   2.520   2.277  10.974  0.3419 -0.9569  1.2917
 5230SOL    HW227324   2.438   2.403  10.969 -0.1320 -3.5246 -1.7255
 5231SOL     OW27325   0.514   2.088   0.945  0.9279 -0.3124 -0.9389
 5231SOL    HW127326   0.555   2.006   0.973 -0.0865  0.2108  2.1534
 5231SOL    HW227327   0.536   2.138   1.024  2.9084 -1.8333 -0.5131
 5232SOL     OW27328   3.719   0.643  13.122 -0.5098 -0.1016  0.0552
 5232SOL    HW127329   3.694   0.558  13.088  0.9651 -1.9029  3.4131
 5232SOL    HW227330   3.812   0.623  13.129 -0.3735 -0.3512 -2.6617
 5233SOL     OW27331   2.266   4.268   2.690 -0.0029 -0.2254  0.0838
 5233SOL    HW127332   2.271   4.353   2.648 -1.9343 -0.9795 -1.6611
 5233SOL    HW227333   2.355   4.234   2.676 -0.1803 -0.6028 -0.1300
 5234SOL     OW27334   3.152   3.223   5.955 -0.1249  0.0852 -0.0292
 5234SOL    HW127335   3.146   3.223   5.860 -0.3179 -0.2508 -0.0160
 5234SOL    HW227336   3.084   3.156   5.967  0.8186 -1.3024 -2.6103
 5235SOL     OW27337   2.118   0.943  16.064 -0.1875  0.0058  0.4883
 5235SOL    HW127338   2.120   0.977  15.975  1.2782  0.1813  0.5873
 5235SOL    HW227339   2.163   1.014  16.110  2.4259 -0.1456 -1.8240
 5236SOL     OW27340   4.313   2.607   3.135 -0.1748  0.5739 -0.2458
 5236SOL    HW127341   4.398   2.634   3.171 -0.7425  3.1955 -0.9054
 5236SOL    HW227342   4.270   2.692   3.130  1.0690  1.4787  3.9380
 5237SOL     OW27343   2.620   0.055   6.979  0.4580  0.2712 -0.2714
 5237SOL    HW127344   2.576   0.130   7.020 -1.8778 -1.0795 -0.2775
 5237SOL    HW227345   2.620   4.726   7.047 -1.7086 -0.5948 -1.1279
 5238SOL     OW27346   0.562   3.730   3.897 -0.4038 -0.1758  0.3403
 5238SOL    HW127347   0.477   3.733   3.852  1.4768 -0.8744 -3.1821
 5238SOL    HW227348   0.528   3.776   3.974 -0.6896 -1.7712  1.1832
 5239SOL     OW27349   4.135   2.238   2.826  0.2145  0.0290 -0.2233
 5239SOL    HW127350   4.048   2.203   2.845  0.4295 -0.8100 -0.7733
 5239SOL    HW227351   4.159   2.257   2.917 -1.0850  0.6950 -0.0161
 5240SOL     OW27352   3.973   2.864   4.742  0.2100  0.3522  0.5078
 5240SOL    HW127353   3.891   2.893   4.702  1.7571  1.4695 -1.7569
 5240SOL    HW227354   4.012   2.948   4.763 -2.4908  1.8331 -0.4055
 5241SOL     OW27355   4.086   1.483   9.838 -0.1868  0.3395 -0.0444
 5241SOL    HW127356   4.021   1.490   9.908  1.2445  0.7867  1.2303
 5241SOL    HW227357   4.037   1.432   9.774 -1.6069  0.9332  0.5599
 5242SOL     OW27358   3.861   4.734   1.250 -0.4768 -0.3374  0.3782
 5242SOL    HW127359   3.895   0.084   1.236  0.2655 -0.5837  0.6615
 5242SOL    HW227360   3.810   4.716   1.171  0.2890 -1.6229  0.1964
 5243SOL     OW27361   0.653   2.294  12.242 -0.1395 -0.4577 -0.1228
 5243SOL    HW127362   0.709   2.238  12.296 -1.3227 -2.5283 -1.0142
 5243SOL    HW227363   0.660   2.374  12.293 -2.6738 -0.1152 -0.3032
 5244SOL     OW27364   4.368   1.450   4.080  0.1566 -0.1309 -0.1479
 5244SOL    HW127365   4.384   1.457   3.986  1.3789  0.9408  0.1450
 5244SOL    HW227366   4.330   1.363   4.089 -0.7615  0.2784 -0.1127
 5245SOL     OW27367   0.285   4.145  11.357 -0.4567 -0.8174 -0.2829
 5245SOL    HW127368   0.281   4.054  11.325 -1.5761 -0.2249 -1.8292
 5245SOL    HW227369   0.362   4.182  11.315 -0.3249 -0.6356  0.1226
 5246SOL     OW27370   1.539   0.585   5.463  0.2385 -0.0493  0.4566
 5246SOL    HW127371   1.550   0.504   5.513 -0.7943  0.3297  1.2886
 5246SOL    HW227372   1.521   0.563   5.371 -2.3846 -2.0754  1.4528
 5247SOL     OW27373   4.686   4.495   8.770 -0.1675  0.1893 -0.2138
 5247SOL    HW127374   0.026   4.447   8.745 -0.2570 -0.9548  1.7178
 5247SOL    HW227375   4.673   4.543   8.688  2.0778 -0.1528 -0.7569
 5248SOL     OW27376   2.115   4.196   4.254 -0.2108  0.5816 -0.3038
 5248SOL    HW127377   2.102   4.206   4.160 -0.5447  0.5435 -0.2608
 5248SOL    HW227378   2.069   4.275   4.281  1.6253  1.5471  0.0128
 5249SOL     OW27379   1.995   3.600  16.637 -0.0156  0.0634 -0.3577
 5249SOL    HW127380   1.969   3.687  16.667  0.0773 -0.3962  1.0835
 5249SOL    HW227381   1.921   3.548  16.668 -0.9607  1.3193 -0.5254
 5250SOL     OW27382   3.561   3.193   8.550  0.4816 -0.2341  0.6798
 5250SOL    HW127383   3.651   3.203   8.579  0.6919 -3.6363  1.1528
 5250SOL    HW227384   3.515   3.219   8.630 -1.4496  1.2623 -0.8989
 5251SOL     OW27385   2.946   2.192   8.808  0.1097  0.4512 -0.2010
 5251SOL    HW127386   2.972   2.102   8.824 -1.9209 -0.0950  0.0425
 5251SOL    HW227387   2.858   2.185   8.771  0.1992 -0.0740 -0.3164
 5252SOL     OW27388   1.690   3.353   5.602  0.4057 -0.5774  0.3211
 5252SOL    HW127389   1.717   3.423   5.542 -0.8655  1.8634  2.5810
 5252SOL    HW227390   1.595   3.369   5.600  0.6919  1.2239  1.0596
 5253SOL     OW27391   3.358   2.225  17.390 -0.5241  0.0753 -1.0133
 5253SOL    HW127392   3.302   2.302  17.381 -1.1858 -0.3314 -0.4447
 5253SOL    HW227393   3.440   2.254  17.431 -0.7312 -0.7732  0.0130
 5254SOL     OW27394   1.441   1.609   6.032  0.1080  0.1291 -0.1930
 5254SOL    HW127395   1.370   1.660   5.994  2.2653  2.4495 -1.1042
 5254SOL    HW227396   1.424   1.529   5.982  0.4891  0.5061 -0.9251
 5255SOL     OW27397   3.251   2.951   0.582  0.0473  0.2032 -0.1446
 5255SOL    HW127398   3.297   2.937   0.499 -0.5510 -0.5303 -0.3517
 5255SOL    HW227399   3.312   2.911   0.644  3.4163  1.1340 -2.8725
 5256SOL     OW27400   4.055   1.219   8.215 -0.1139  0.5156  0.4450
 5256SOL    HW127401   4.130   1.213   8.275  0.1840 -2.1831 -0.1823
 5256SOL    HW227402   4.020   1.130   8.215  1.5286 -0.1386 -2.3857
 5257SOL     OW27403   4.268   0.886   4.476  0.5244 -0.0173 -0.6639
 5257SOL    HW127404   4.320   0.966   4.474 -0.3975  0.5958  0.2767
 5257SOL    HW227405   4.183   0.918   4.505  1.6014 -1.0442  3.6449
 5258SOL     OW27406   4.230   2.410   8.036  0.1906 -0.5233 -0.3093
 5258SOL    HW127407   4.276   2.466   8.098 -1.1374  0.9408 -0.6488
 5258SOL    HW227408   4.222   2.323   8.075  1.5974  0.5912  2.4583
 5259SOL     OW27409   0.845   1.760  16.931  0.5778 -0.1795 -0.0037
 5259SOL    HW127410   0.891   1.721  17.005 -0.6454 -0.4192  0.6125
 5259SOL    HW227411   0.846   1.696  16.860 -2.9305 -1.4342  1.0982
 5260SOL     OW27412   2.399   0.765  17.472 -0.2635 -0.2469 -0.3358
 5260SOL    HW127413   2.381   0.679  17.433  1.5723 -0.6538 -0.2744
 5260SOL    HW227414   2.367   0.756  17.561 -0.5037  0.8480 -0.3209
 5261SOL     OW27415   4.163   3.645   5.557  0.1610 -0.1465 -0.0153
 5261SOL    HW127416   4.120   3.707   5.498  0.4921 -0.2091 -0.3228
 5261SOL    HW227417   4.238   3.695   5.590  1.0590 -0.7554 -1.1465
 5262SOL     OW27418   4.370   3.952   4.559 -0.6892  0.0998 -0.2729
 5262SOL    HW127419   4.310   4.019   4.528 -1.2620  1.2377  3.3326
 5262SOL    HW227420   4.452   4.000   4.554 -0.6177 -0.0125 -0.2015
 5263SOL     OW27421   4.269   0.801   6.408 -0.3679 -0.4152 -0.0240
 5263SOL    HW127422   4.263   0.881   6.356 -0.0425  0.6374  1.5755
 5263SOL    HW227423   4.357   0.767   6.388 -0.7249 -1.9452  1.0048
 5264SOL     OW27424   3.175   1.772   3.872 -0.0141 -0.7221 -0.5662
 5264SOL    HW127425   3.160   1.717   3.948 -0.2371  0.2747  0.1039
 5264SOL    HW227426   3.101   1.738   3.822 -1.6151  0.0966  1.2780
 5265SOL     OW27427   1.653   4.435   2.893  0.1358  0.0731  0.2223
 5265SOL    HW127428   1.606   4.371   2.841 -0.8948 -0.8443  2.2706
 5265SOL    HW227429   1.741   4.399   2.888 -0.1457 -0.8013  1.4249
 5266SOL     OW27430   2.692   4.540   7.379 -0.3948  0.1761 -0.7231
 5266SOL    HW127431   2.751   4.613   7.358 -0.6129  0.5395 -0.0722
 5266SOL    HW227432   2.750   4.466   7.362 -0.9923 -0.1092 -1.5234
 5267SOL     OW27433   4.295   1.972   8.587  0.1426  0.1588 -0.1725
 5267SOL    HW127434   4.318   2.042   8.648  1.6367 -0.5510  0.0715
 5267SOL    HW227435   4.384   1.962   8.554  0.0479 -1.4703  0.0642
 5268SOL     OW27436   1.413   4.233   3.012 -0.2137  0.1331 -0.1146
 5268SOL    HW127437   1.448   4.151   3.045  0.3573 -0.6651 -2.7055
 5268SOL    HW227438   1.460   4.238   2.929 -2.1589  0.3614 -1.2052
 5269SOL     OW27439   0.073   2.936   6.049  0.1900  0.2840  0.1657
 5269SOL    HW127440   0.162   2.961   6.074 -0.4742  1.1047  1.7115
 5269SOL    HW227441   0.027   2.947   6.133 -0.6439 -1.4891 -0.0596
 5270SOL     OW27442   3.185   0.274   1.825 -0.1565  0.0504 -0.4590
 5270SOL    HW127443   3.160   0.308   1.740  1.5556  2.6583  0.0966
 5270SOL    HW227444   3.275   0.305   1.838 -0.1309  0.5667 -1.9106
 5271SOL     OW27445   4.240   3.889  11.795  0.0371 -0.0064  0.1333
 5271SOL    HW127446   4.179   3.946  11.748 -1.5308 -1.5292  0.3099
 5271SOL    HW227447   4.311   3.951  11.816 -0.7095 -0.0130  2.6969
 5272SOL     OW27448   0.892   1.986   1.151  0.2589 -0.4549 -0.0229
 5272SOL    HW127449   0.847   1.999   1.068 -1.6956 -3.4234  0.5873
 5272SOL    HW227450   0.893   1.893   1.175  0.4244 -0.2545  0.7440
 5273SOL     OW27451   0.624   1.915   6.266 -0.4652  0.4001  0.3838
 5273SOL    HW127452   0.563   1.935   6.337 -2.2736  0.8557 -1.3090
 5273SOL    HW227453   0.580   1.871   6.193 -0.9666  0.6306  0.5485
 5274SOL     OW27454   1.344   2.878  16.603 -0.3933  0.4006  0.4987
 5274SOL    HW127455   1.410   2.914  16.544 -0.5698 -2.0385 -1.1690
 5274SOL    HW227456   1.266   2.865  16.549  0.6840 -0.3158 -0.8708
 5275SOL     OW27457   2.907   3.762  12.383  0.3520 -0.7576  0.4332
 5275SOL    HW127458   2.937   3.748  12.472  2.2384  3.5074  0.4572
 5275SOL    HW227459   2.906   3.856  12.364 -0.0922 -0.5589  1.4874
 5276SOL     OW27460   2.660   2.585  12.069 -0.2106 -0.6890 -0.5075
 5276SOL    HW127461   2.651   2.596  11.974 -1.1696 -2.4334 -0.6274
 5276SOL    HW227462   2.581   2.630  12.101  0.6352  1.5259 -1.5244
 5277SOL     OW27463   4.716   0.363  12.199 -0.4714  0.2441  0.1697
 5277SOL    HW127464   4.657   0.424  12.155  1.7111  0.8567 -1.8922
 5277SOL    HW227465   0.033   0.421  12.252  1.1683 -0.7980 -0.4124
 5278SOL     OW27466   0.197   0.238   7.943 -0.3084 -0.4153 -0.0740
 5278SOL    HW127467   0.171   0.297   8.014 -1.5445 -0.9256 -0.0996
 5278SOL    HW227468   0.123   0.244   7.882 -1.6220 -0.2203  1.5168
 5279SOL     OW27469   0.009   1.645   9.225  0.2094 -0.6825 -0.0157
 5279SOL    HW127470   0.013   1.738   9.248  0.2676 -0.7707  0.3237
 5279SOL    HW227471   0.017   1.638   9.130  1.8569 -2.4987  0.2628
 5280SOL     OW27472   0.915   2.466   4.203 -0.3065  1.1079 -0.4490
 5280SOL    HW127473   0.879   2.436   4.119  1.4217  0.9350 -1.1374
 5280SOL    HW227474   1.009   2.451   4.197 -0.4140  0.8041 -1.3712
 5281SOL     OW27475   1.467   2.537   7.403  0.1787 -0.0462  0.2612
 5281SOL    HW127476   1.468   2.477   7.477  0.4523  1.8309  1.7895
 5281SOL    HW227477   1.411   2.494   7.338 -0.0060 -0.4989  0.7141
 5282SOL     OW27478   1.965   0.908   3.349  0.0119  0.2319 -0.0004
 5282SOL    HW127479   1.875   0.902   3.318  0.3264  2.0872 -1.2638
 5282SOL    HW227480   2.005   0.947   3.271 -1.5019  2.4781  0.3400
 5283SOL     OW27481   2.083   4.068  15.176  0.0973 -0.0923 -0.4316
 5283SOL    HW127482   2.125   4.126  15.113  0.2528  0.0155 -0.2317
 5283SOL    HW227483   2.141   3.993  15.164  0.4012  0.4541 -2.2595
 5284SOL     OW27484   2.198   2.434  13.134  0.2558  0.2364 -0.5014
 5284SOL    HW127485   2.139   2.408  13.205 -0.7667  1.6311 -0.8409
 5284SOL    HW227486   2.195   2.529  13.146 -2.0190 -0.0592  1.2661
 5285SOL     OW27487   2.857   0.802   9.508  0.2592 -0.0731  0.3315
 5285SOL    HW127488   2.813   0.854   9.576  0.7252  0.2826  0.3599
 5285SOL    HW227489   2.896   0.874   9.459  1.5406  0.1843  1.7222
 5286SOL     OW27490   1.213   3.347   5.125  0.3588 -0.0183  0.2219
 5286SOL    HW127491   1.253   3.284   5.186 -0.5658  1.5390  2.4412
 5286SOL    HW227492   1.204   3.300   5.043  1.2894  0.1011  0.0473
 5287SOL     OW27493   2.380   1.123   6.615  0.2444 -0.1488  0.1782
 5287SOL    HW127494   2.389   1.040   6.567 -0.4604  0.8307 -1.6456
 5287SOL    HW227495   2.293   1.120   6.654 -1.5096  0.6584 -3.6199
 5288SOL     OW27496   1.359   4.591   2.537 -0.3130  0.2330 -0.5817
 5288SOL    HW127497   1.328   4.652   2.470  1.3038 -0.1529 -1.6903
 5288SOL    HW227498   1.353   4.513   2.482  1.8635  0.9237 -1.8159
 5289SOL     OW27499   1.228   4.619   6.876  0.0962  0.0164 -0.3526
 5289SOL    HW127500   1.135   4.630   6.897  0.0795  2.6770 -1.9185
 5289SOL    HW227501   1.244   4.693   6.818  0.3808  0.0772 -0.2000
 5290SOL     OW27502   2.534   0.918   4.252 -0.4115  0.2477  0.3237
 5290SOL    HW127503   2.545   0.841   4.309 -3.4015 -0.4721 -0.0664
 5290SOL    HW227504   2.475   0.880   4.187 -1.5738  1.8025  0.4922
 5291SOL     OW27505   1.829   2.167   3.120  0.0338  0.1022  0.5143
 5291SOL    HW127506   1.850   2.114   3.197  0.0608 -0.0020  0.4355
 5291SOL    HW227507   1.798   2.099   3.060 -1.1475  0.7063  0.4222
 5292SOL     OW27508   0.297   2.856   3.897 -0.1245  0.0568  0.2146
 5292SOL    HW127509   0.343   2.881   3.978  0.9775  1.3091 -0.8001
 5292SOL    HW227510   0.237   2.787   3.924  0.0564 -0.3003 -0.3132
 5293SOL     OW27511   2.369   4.099   8.886 -0.4028 -0.1329  0.1595
 5293SOL    HW127512   2.354   4.060   8.800  2.5558  0.1721 -0.5044
 5293SOL    HW227513   2.439   4.161   8.864  0.8880 -2.1310 -1.3786
 5294SOL     OW27514   2.506   0.152   3.123  0.0654  0.3420  0.1259
 5294SOL    HW127515   2.511   0.241   3.088 -2.1926  0.5892  0.4086
 5294SOL    HW227516   2.477   0.172   3.212 -0.0030 -0.1931  0.2253
 5295SOL     OW27517   2.693   0.279   1.972  0.5088  0.1746  0.4890
 5295SOL    HW127518   2.752   0.250   1.903 -1.8917 -1.2445 -0.9575
 5295SOL    HW227519   2.737   0.349   2.020 -0.3309  0.3807  0.9659
 5296SOL     OW27520   0.310   3.936  13.401 -0.0812 -0.1526  0.0688
 5296SOL    HW127521   0.296   3.860  13.457  1.7648  0.9470  2.0589
 5296SOL    HW227522   0.285   4.004  13.464  0.0031 -1.3848  1.4212
 5297SOL     OW27523   1.080   2.707  14.631  0.6583  0.1980 -0.6453
 5297SOL    HW127524   1.057   2.764  14.704  0.3049 -2.2182  1.1091
 5297SOL    HW227525   1.011   2.641  14.628 -0.3403  1.2793 -1.7860
 5298SOL     OW27526   2.118   0.702   5.482 -0.2717 -0.3920  0.0872
 5298SOL    HW127527   2.107   0.705   5.387  0.9293  0.7880 -0.0148
 5298SOL    HW227528   2.167   0.620   5.478 -0.5078 -0.5371  0.1627
 5299SOL     OW27529   2.498   1.948   9.470 -0.3963  0.0722  0.1592
 5299SOL    HW127530   2.527   1.948   9.562  2.4742 -1.6980 -0.7533
 5299SOL    HW227531   2.408   1.919   9.484  0.1023 -0.8941  1.3492
 5300SOL     OW27532   2.297   3.039   6.515 -0.1983 -0.3249  0.4852
 5300SOL    HW127533   2.228   2.987   6.474  0.0995  1.3887 -2.1676
 5300SOL    HW227534   2.243   3.113   6.543  0.0161 -0.7658  2.0861
 5301SOL     OW27535   1.573   4.281   4.309 -0.5514 -0.7422  0.5536
 5301SOL    HW127536   1.492   4.243   4.343 -1.2826 -0.5340 -0.9262
 5301SOL    HW227537   1.552   4.371   4.331 -1.8083 -0.3657 -2.1441
 5302SOL     OW27538   2.649   0.011   8.994  0.4223  0.2178  0.2156
 5302SOL    HW127539   2.610   0.071   8.931 -0.8032 -0.6695  0.1507
 5302SOL    HW227540   2.740   0.035   8.977 -0.4285  1.1286 -2.9105
 5303SOL     OW27541   3.176   0.544   6.750  0.3228 -0.5171 -0.4133
 5303SOL    HW127542   3.141   0.476   6.692 -0.0543 -0.1349 -0.6343
 5303SOL    HW227543   3.188   0.623   6.698  0.4860  0.2387  0.7829
 5304SOL     OW27544   0.771   3.374   4.648  0.2335 -0.7929 -0.0703
 5304SOL    HW127545   0.701   3.439   4.652  0.1973 -0.9091  1.3317
 5304SOL    HW227546   0.758   3.329   4.732  0.7780  1.2465  1.0998
 5305SOL     OW27547   3.734   3.739   3.412 -0.4345 -0.2794  0.1781
 5305SOL    HW127548   3.669   3.810   3.412 -0.0028  0.1114 -1.8290
 5305SOL    HW227549   3.805   3.771   3.356 -1.4608  0.2957 -0.7900
 5306SOL     OW27550   4.316   4.283  12.763 -0.3196 -0.2388 -0.3241
 5306SOL    HW127551   4.265   4.355  12.801 -1.5484 -0.1430 -2.1550
 5306SOL    HW227552   4.392   4.287  12.821 -0.0869 -0.0473 -0.6441
 5307SOL     OW27553   0.003   1.325   6.764 -0.3439  0.2759  0.3346
 5307SOL    HW127554   4.711   1.312   6.674  1.7847  1.9445 -0.6292
 5307SOL    HW227555   0.020   1.418   6.754 -0.6305 -0.0270 -2.9558
 5308SOL     OW27556   4.037   2.858   8.474 -0.9450 -0.2976 -0.6755
 5308SOL    HW127557   3.962   2.803   8.499 -0.9338  0.9373  2.0276
 5308SOL    HW227558   4.064   2.904   8.553  1.1271 -1.2065 -0.8436
 5309SOL     OW27559   2.859   2.270  11.550  0.3672  0.3264 -0.5815
 5309SOL    HW127560   2.840   2.360  11.576 -0.5513  0.1368 -0.6285
 5309SOL    HW227561   2.768   2.244  11.539  0.5527 -0.2171 -0.8065
 5310SOL     OW27562   4.101   3.120  17.123 -0.2872  0.3236  0.3728
 5310SOL    HW127563   4.032   3.122  17.057 -1.2221 -1.6338  1.2635
 5310SOL    HW227564   4.102   3.028  17.151  0.7636  0.2560  0.0912
 5311SOL     OW27565   4.385   2.219   4.714  0.2701 -0.3027  0.7919
 5311SOL    HW127566   4.306   2.270   4.729  0.0222 -0.1683 -0.9442
 5311SOL    HW227567   4.359   2.188   4.627  0.9694 -0.2962  0.5854
 5312SOL     OW27568   3.623   1.790  13.974 -0.0201 -0.1483 -0.6179
 5312SOL    HW127569   3.675   1.814  13.897  0.2907  3.8175  0.8121
 5312SOL    HW227570   3.605   1.699  13.951 -0.5256 -0.3396  0.5252
 5313SOL     OW27571   3.659   3.596   6.366 -0.3137  0.4837 -0.7001
 5313SOL    HW127572   3.665   3.521   6.306  2.3452  3.0063 -3.6217
 5313SOL    HW227573   3.748   3.630   6.376  0.0616 -1.0451  1.1071
 5314SOL     OW27574   2.999   1.938   4.507 -1.0305  0.5654  0.3859
 5314SOL    HW127575   3.019   1.988   4.586  0.4913  0.1997  0.2419
 5314SOL    HW227576   3.044   1.855   4.523 -0.1329  0.8752 -0.5740
 5315SOL     OW27577   1.465   2.165   3.810 -0.2744 -0.0255 -1.0650
 5315SOL    HW127578   1.489   2.212   3.730  1.1688  1.1626  0.0643
 5315SOL    HW227579   1.447   2.239   3.868 -0.0141 -0.4208 -0.4794
 5316SOL     OW27580   4.719   0.169   9.012 -0.8177 -0.8239 -0.1633
 5316SOL    HW127581   4.734   0.115   9.090 -1.1017 -0.1389  0.3709
 5316SOL    HW227582   4.667   0.241   9.050 -0.7663 -1.2143  0.6403
 5317SOL     OW27583   2.051   0.465   4.168 -0.0708  0.5957 -0.1544
 5317SOL    HW127584   1.968   0.505   4.145  0.6750  1.2411 -1.7143
 5317SOL    HW227585   2.061   0.399   4.100  0.0490  1.3325 -0.8481
 5318SOL     OW27586   0.384   0.505   6.819 -0.4822  0.2298 -0.3854
 5318SOL    HW127587   0.349   0.527   6.905 -0.0985  0.8085 -0.3793
 5318SOL    HW227588   0.433   0.428   6.848 -1.4696  0.4155  1.7945
 5319SOL     OW27589   1.243   2.948   3.877  0.1537 -0.6758  0.6636
 5319SOL    HW127590   1.226   3.030   3.924  1.4672  0.4420 -0.8250
 5319SOL    HW227591   1.217   2.892   3.950 -2.2720 -1.6927 -0.9763
 5320SOL     OW27592   3.932   3.825   1.620 -0.2730  0.2365 -0.0012
 5320SOL    HW127593   4.000   3.864   1.674  0.7089  0.4996 -1.4065
 5320SOL    HW227594   3.949   3.732   1.635  0.4961  0.2597 -0.6828
 5321SOL     OW27595   3.281   4.361   4.490  0.5103 -0.2115 -0.2058
 5321SOL    HW127596   3.323   4.288   4.536 -0.0506 -1.5381 -1.8280
 5321SOL    HW227597   3.190   4.333   4.489 -0.0106  1.4497  0.2211
 5322SOL     OW27598   4.371   3.737   5.938 -0.3217  0.0757 -0.1916
 5322SOL    HW127599   4.380   3.751   5.844 -2.2610  0.7109 -0.2900
 5322SOL    HW227600   4.396   3.645   5.941  0.5376  0.2375 -2.0670
 5323SOL     OW27601   0.281   3.756   2.079 -0.6293  0.5547  0.4102
 5323SOL    HW127602   0.348   3.700   2.041  0.3957  1.8323  0.3475
 5323SOL    HW227603   0.258   3.708   2.159 -0.5044  0.1613  0.2117
 5324SOL     OW27604   0.308   0.486  15.694  0.0888  0.1180  0.1600
 5324SOL    HW127605   0.235   0.516  15.748 -0.8500 -0.7243 -0.6402
 5324SOL    HW227606   0.323   0.563  15.639  1.4154 -0.5689 -0.4567
 5325SOL     OW27607   1.743   1.302   9.541  0.0687  0.1471  0.1166
 5325SOL    HW127608   1.804   1.238   9.577  3.2105  4.7163  3.0012
 5325SOL    HW227609   1.703   1.252   9.470 -2.0912  0.0586  1.3933
 5326SOL     OW27610   4.353   4.498   0.725  0.0287  0.7109 -0.0307
 5326SOL    HW127611   4.369   4.581   0.679  0.9100 -0.4388 -1.7785
 5326SOL    HW227612   4.332   4.438   0.654  0.1102  1.9579 -1.1130
 5327SOL     OW27613   3.957   1.223   8.764  0.3084  0.6020  0.0048
 5327SOL    HW127614   4.017   1.287   8.802 -0.1206  0.4107  1.0141
 5327SOL    HW227615   3.890   1.209   8.832  1.4226 -1.4870  0.6886
 5328SOL     OW27616   2.512   1.706  16.573 -0.3176  0.3205  0.3658
 5328SOL    HW127617   2.606   1.689  16.571 -0.2787  0.7081 -1.6904
 5328SOL    HW227618   2.495   1.703  16.479 -0.6426  0.8847  0.4044
 5329SOL     OW27619   1.555   1.033   3.457 -0.2990 -0.0101  0.0953
 5329SOL    HW127620   1.509   0.978   3.521 -0.4187  0.8590  0.7540
 5329SOL    HW227621   1.643   0.995   3.454 -0.9825 -1.7699  2.8608
 5330SOL     OW27622   2.282   2.523   4.337 -1.2641  0.5546  0.1678
 5330SOL    HW127623   2.193   2.492   4.323 -0.3943 -1.6791 -0.5421
 5330SOL    HW227624   2.273   2.575   4.416  0.5378  3.5489 -1.5812
 5331SOL     OW27625   0.439   2.137  10.629 -0.0960 -0.4049  0.5430
 5331SOL    HW127626   0.482   2.100  10.706 -0.1397 -0.8708  0.3450
 5331SOL    HW227627   0.508   2.119  10.565  0.3995  3.9213 -0.1274
 5332SOL     OW27628   0.955   2.695   2.602  0.2754 -0.3070 -0.1747
 5332SOL    HW127629   0.921   2.626   2.659 -2.1274  3.7098  3.2356
 5332SOL    HW227630   1.047   2.668   2.590  0.0029 -0.9259 -0.8441
 5333SOL     OW27631   3.524   0.822   2.260  0.4022 -0.1589  0.0602
 5333SOL    HW127632   3.615   0.843   2.282  0.7892 -2.0146  0.2073
 5333SOL    HW227633   3.485   0.837   2.346  0.3016  0.3864 -0.0800
 5334SOL     OW27634   4.209   1.577   4.237  0.0720 -0.3188 -0.0355
 5334SOL    HW127635   4.135   1.569   4.177 -1.2083  2.6045  1.1596
 5334SOL    HW227636   4.273   1.518   4.196 -0.8185 -0.1132 -1.7311
 5335SOL     OW27637   2.858   0.638   9.276  0.0076 -0.0485  0.1109
 5335SOL    HW127638   2.825   0.676   9.357 -1.4525 -0.9840 -0.0357
 5335SOL    HW227639   2.773   0.620   9.235  1.5441 -1.9203 -2.2616
 5336SOL     OW27640   4.004   2.668   8.105 -0.3361  0.0344  0.4312
 5336SOL    HW127641   3.912   2.641   8.108 -0.4450  0.3832  0.1634
 5336SOL    HW227642   4.023   2.648   8.014  0.4790  0.6386  0.4707
 5337SOL     OW27643   4.436   2.809  13.394  0.4860  0.3548  0.5439
 5337SOL    HW127644   4.405   2.855  13.315  0.0513  1.4793  1.3654
 5337SOL    HW227645   4.523   2.792  13.360  1.3289  1.4438  2.1753
 5338SOL     OW27646   3.207   2.300   2.051 -0.0372 -0.3535  0.3420
 5338SOL    HW127647   3.181   2.318   1.961  3.8918  1.0909 -0.4858
 5338SOL    HW227648   3.152   2.224   2.071 -0.3913 -1.1918 -3.7587
 5339SOL     OW27649   3.771   0.450   0.805 -0.0241  0.0945 -0.6649
 5339SOL    HW127650   3.836   0.397   0.759 -1.9772 -1.0210 -2.1356
 5339SOL    HW227651   3.728   0.493   0.731 -0.8044 -1.3655 -1.0526
 5340SOL     OW27652   0.046   4.128   6.718 -0.2864 -0.1536 -0.3068
 5340SOL    HW127653   4.700   4.110   6.758 -1.1097  1.2133 -1.4455
 5340SOL    HW227654   0.017   4.199   6.662  1.6706  1.7326  1.0812
 5341SOL     OW27655   2.579   4.527   7.108  0.7524 -0.0095  0.2623
 5341SOL    HW127656   2.517   4.456   7.125  1.8482 -1.6795 -2.6601
 5341SOL    HW227657   2.597   4.547   7.200 -0.7888  0.4003  0.4681
 5342SOL     OW27658   4.015   0.976  12.442  0.5702  0.8574 -0.3116
 5342SOL    HW127659   3.926   0.993  12.410  0.4530  1.1409  0.1639
 5342SOL    HW227660   4.037   0.908  12.378  0.9465 -0.0869  0.8212
 5343SOL     OW27661   0.181   2.164   9.128 -0.1837 -0.3878  0.0635
 5343SOL    HW127662   0.182   2.247   9.177 -0.0324  0.3102 -1.1400
 5343SOL    HW227663   0.251   2.181   9.064 -0.9532 -1.5628 -1.0741
 5344SOL     OW27664   3.414   0.203   3.962  0.7420 -0.6989  0.7202
 5344SOL    HW127665   3.460   0.124   3.993  0.0392 -2.0702 -1.7900
 5344SOL    HW227666   3.490   0.238   3.915  1.0309  0.4239  2.0148
 5345SOL     OW27667   3.339   2.177   8.436 -0.6029  0.1694 -0.0525
 5345SOL    HW127668   3.323   2.096   8.388 -3.0187 -0.3811  1.6642
 5345SOL    HW227669   3.264   2.188   8.495 -1.1103 -0.2426 -0.6243
 5346SOL     OW27670   4.556   3.540   6.230 -0.5486 -0.2569  0.2317
 5346SOL    HW127671   4.478   3.489   6.209  0.1868 -1.1186 -0.3571
 5346SOL    HW227672   4.583   3.527   6.321  1.5992 -2.0407 -0.6586
 5347SOL     OW27673   3.154   1.424   5.847  0.5162  0.1673  0.0080
 5347SOL    HW127674   3.111   1.402   5.764  0.4390 -0.6713  0.2756
 5347SOL    HW227675   3.157   1.342   5.896 -1.6378 -0.5312 -1.0258
 5348SOL     OW27676   1.214   1.383   2.693  0.0824  0.8772 -0.3794
 5348SOL    HW127677   1.229   1.338   2.777 -1.9668 -0.3318 -0.6632
 5348SOL    HW227678   1.174   1.463   2.725  0.5069  1.3243 -0.9713
 5349SOL     OW27679   3.996   3.655   3.617  0.2736  0.1955  0.5059
 5349SOL    HW127680   3.977   3.666   3.524  1.9408  0.4305  0.1919
 5349SOL    HW227681   4.081   3.699   3.619 -0.6308  1.9868 -1.3701
 5350SOL     OW27682   1.666   4.091   4.997 -0.2319 -0.4157  0.0935
 5350SOL    HW127683   1.724   4.167   5.006 -0.5045 -0.1302 -0.6117
 5350SOL    HW227684   1.595   4.133   4.948  1.0804 -1.1266 -2.3700
 5351SOL     OW27685   0.103   0.683   1.752 -0.0608  0.0386 -0.0706
 5351SOL    HW127686   0.165   0.756   1.759 -0.1856  0.0041  1.4280
 5351SOL    HW227687   0.137   0.623   1.686 -1.3438 -2.0517  1.1733
 5352SOL     OW27688   3.143   3.868   6.092 -0.1261 -0.1751  0.3947
 5352SOL    HW127689   3.148   3.908   6.179 -0.0049 -0.7426  0.6461
 5352SOL    HW227690   3.216   3.807   6.102 -0.4036 -0.8828 -1.9515
 5353SOL     OW27691   0.354   0.605   2.620  0.1818 -0.0660  0.4399
 5353SOL    HW127692   0.340   0.695   2.646  1.5572 -0.1308  1.4010
 5353SOL    HW227693   0.317   0.566   2.699 -1.9009  1.2954  0.1201
 5354SOL     OW27694   2.197   1.369   4.365 -0.1321  0.1558  0.1683
 5354SOL    HW127695   2.283   1.405   4.343 -1.1914  3.0058  0.7377
 5354SOL    HW227696   2.211   1.358   4.459  1.0245 -0.4517 -0.0668
 5355SOL     OW27697   0.599   4.056   5.073  0.5666 -0.5815 -0.7181
 5355SOL    HW127698   0.541   3.981   5.087 -1.3962  0.7281 -1.9690
 5355SOL    HW227699   0.614   4.057   4.979 -0.1356 -0.0178 -0.8145
 5356SOL     OW27700   0.942   1.187  13.146  0.7681 -0.1962  0.1047
 5356SOL    HW127701   0.998   1.204  13.071  1.1028 -2.3172 -0.1394
 5356SOL    HW227702   0.962   1.099  13.178  0.6391  0.1579  1.1778
 5357SOL     OW27703   4.014   1.514   4.023  0.0929  0.5652 -0.5531
 5357SOL    HW127704   4.034   1.512   3.929  1.1313  0.2409 -0.3167
 5357SOL    HW227705   3.971   1.429   4.035  0.1837  0.6325  0.2330
 5358SOL     OW27706   1.827   1.665  15.756  0.0139  0.0494 -0.0029
 5358SOL    HW127707   1.772   1.602  15.709  1.0557 -0.4720 -0.5361
 5358SOL    HW227708   1.777   1.746  15.751 -1.1266 -0.6882 -0.7736
 5359SOL     OW27709   2.017   3.154   3.479  0.1608  0.7211 -0.7221
 5359SOL    HW127710   1.967   3.155   3.398 -1.6259  2.2198  0.3885
 5359SOL    HW227711   2.104   3.127   3.449  0.0775 -1.3539  0.9535
 5360SOL     OW27712   2.219   3.012  17.703  0.2908 -0.4282 -0.8191
 5360SOL    HW127713   2.276   3.056   0.012 -0.6816 -1.3520  0.7594
 5360SOL    HW227714   2.133   3.049  17.725  0.8185 -0.9433  2.1500
 5361SOL     OW27715   1.710   2.093   0.950 -0.6295  0.3870  0.0073
 5361SOL    HW127716   1.627   2.050   0.932 -0.7410  0.5190  0.2122
 5361SOL    HW227717   1.752   2.031   1.010  1.6120  0.6578 -1.2825
 5362SOL     OW27718   3.259   2.776   7.960 -0.3928 -0.7518 -0.5096
 5362SOL    HW127719   3.340   2.824   7.976 -2.2423  2.1632 -0.0518
 5362SOL    HW227720   3.230   2.806   7.874  0.6812  1.9239  0.0634
 5363SOL     OW27721   2.232   0.976  10.504 -0.5050 -0.3713  0.6487
 5363SOL    HW127722   2.173   1.051  10.511 -0.4866 -0.3081  0.1549
 5363SOL    HW227723   2.168   0.905  10.502 -0.7564 -0.1540  1.1108
 5364SOL     OW27724   0.783   3.732   6.268  0.7378 -0.8027  0.1831
 5364SOL    HW127725   0.754   3.742   6.359  0.8352  0.5564  0.0734
 5364SOL    HW227726   0.777   3.637   6.256 -0.7069 -0.3948 -2.3894
 5365SOL     OW27727   2.427   2.565   3.244 -0.5025 -0.8918  0.2054
 5365SOL    HW127728   2.388   2.484   3.276  0.0583 -1.8817 -1.6491
 5365SOL    HW227729   2.499   2.543   3.185 -0.8907 -1.2072 -0.1444
 5366SOL     OW27730   1.155   4.615   7.594 -0.0555  0.0743  0.0738
 5366SOL    HW127731   1.093   4.546   7.619  1.4627 -2.9330 -4.5362
 5366SOL    HW227732   1.224   4.558   7.562  0.9186 -0.1226  2.4840
 5367SOL     OW27733   0.768   2.686   6.600 -0.3586 -0.0796  0.1462
 5367SOL    HW127734   0.860   2.664   6.615 -0.2692  0.0934 -0.1367
 5367SOL    HW227735   0.737   2.598   6.579  0.0292 -0.0137 -0.7086
 5368SOL     OW27736   4.269   3.955  14.275 -0.1370 -0.4369 -0.3576
 5368SOL    HW127737   4.317   3.970  14.357 -0.9303  0.4819 -0.0661
 5368SOL    HW227738   4.278   4.040  14.234  1.0322 -0.0907  0.5915
 5369SOL     OW27739   1.002   4.433   0.151 -0.5277  0.3455 -0.3673
 5369SOL    HW127740   1.015   4.434   0.057  0.5760 -1.1288 -0.2324
 5369SOL    HW227741   0.985   4.525   0.172 -1.7716 -0.0168  0.1941
 5370SOL     OW27742   3.727   2.074   2.439 -0.7495 -0.2682 -0.0123
 5370SOL    HW127743   3.762   2.009   2.378  0.5079  0.0611  0.3494
 5370SOL    HW227744   3.636   2.082   2.411 -0.6432  0.4018 -0.1651
 5371SOL     OW27745   3.539   4.376  10.339  0.4465  0.6747  0.7658
 5371SOL    HW127746   3.600   4.362  10.267 -0.7614  1.5786 -0.4355
 5371SOL    HW227747   3.455   4.376  10.293  1.6097 -2.0906 -1.3613
 5372SOL     OW27748   1.667   1.967  12.499  0.4008 -0.4333 -0.0128
 5372SOL    HW127749   1.728   1.894  12.503  1.8028  0.6129 -2.9308
 5372SOL    HW227750   1.728   2.040  12.510  1.4328 -1.1711 -0.8397
 5373SOL     OW27751   2.120   0.253   4.791  0.1594  0.2531  0.1979
 5373SOL    HW127752   2.103   0.347   4.795  0.2401  0.2896 -0.2951
 5373SOL    HW227753   2.093   0.224   4.878  1.8178  0.1878  0.6902
 5374SOL     OW27754   1.918   2.113   4.624  0.1086 -0.4841 -0.0946
 5374SOL    HW127755   1.892   2.176   4.557  1.8762  0.4942  0.1113
 5374SOL    HW227756   1.980   2.050   4.587  1.0506 -0.3395  1.2343
 5375SOL     OW27757   4.325   2.676   2.309 -0.1749  0.1311 -0.0337
 5375SOL    HW127758   4.393   2.637   2.364  0.3599 -1.1264 -1.5962
 5375SOL    HW227759   4.352   2.660   2.219 -2.2936  0.6633 -0.7632
 5376SOL     OW27760   0.598   4.392   7.737 -0.0933 -0.0147  0.6703
 5376SOL    HW127761   0.635   4.449   7.670  0.4791 -1.9898 -0.6958
 5376SOL    HW227762   0.545   4.456   7.786  1.3045  2.0912 -0.5544
 5377SOL     OW27763   2.336   3.451   9.121 -0.3250 -0.0939 -0.3192
 5377SOL    HW127764   2.286   3.448   9.203 -2.6530  0.9567 -1.6913
 5377SOL    HW227765   2.267   3.423   9.062  0.3073  1.3834 -1.7704
 5378SOL     OW27766   2.202   4.539   2.632  0.2602 -0.3088 -0.1575
 5378SOL    HW127767   2.229   4.631   2.625 -1.5574  0.1818 -0.6358
 5378SOL    HW227768   2.156   4.543   2.715  4.2869 -0.4022  2.0747
 5379SOL     OW27769   3.202   0.436  11.746  0.0433 -0.1737  0.4851
 5379SOL    HW127770   3.186   0.450  11.840 -0.7269 -1.7509  0.5829
 5379SOL    HW227771   3.173   0.523  11.720  3.0821  0.2538 -1.4223
 5380SOL     OW27772   3.180   0.074   2.661  0.3343  0.4722 -0.1634
 5380SOL    HW127773   3.203   0.142   2.724  0.6439  0.9840 -0.8312
 5380SOL    HW227774   3.265   0.029   2.663 -1.3343 -2.7135 -0.7887
 5381SOL     OW27775   0.905   4.118   8.532  1.0194  0.1804 -0.1619
 5381SOL    HW127776   0.921   4.151   8.444  0.1140 -1.7566 -1.0655
 5381SOL    HW227777   0.997   4.099   8.551  1.1993  1.5040  0.2725
 5382SOL     OW27778   4.560   2.011   1.925 -0.4434 -0.4207 -0.1110
 5382SOL    HW127779   4.616   2.087   1.911  0.2372 -0.3580  2.9605
 5382SOL    HW227780   4.494   2.047   1.985 -1.5299 -0.4507 -1.2795
 5383SOL     OW27781   4.099   2.064   7.754  0.1024 -0.6729 -0.3003
 5383SOL    HW127782   4.103   2.042   7.661 -1.8785 -2.9890  0.1562
 5383SOL    HW227783   4.010   2.098   7.748  0.6453  0.7199 -0.3925
 5384SOL     OW27784   3.723   3.170  16.027  0.5226  0.0323  0.7127
 5384SOL    HW127785   3.786   3.235  15.993  1.2672  0.3897  2.8002
 5384SOL    HW227786   3.660   3.231  16.066  0.1376 -0.9670  1.6419
 5385SOL     OW27787   2.488   2.714  16.139 -0.0827 -0.0258 -0.2217
 5385SOL    HW127788   2.509   2.639  16.196 -0.7602 -1.0064 -1.2655
 5385SOL    HW227789   2.570   2.718  16.090 -0.5527  0.8691 -0.9326
 5386SOL     OW27790   2.836   2.812  17.451  0.1812 -0.0945  0.3836
 5386SOL    HW127791   2.786   2.830  17.531  1.8086 -0.9429  1.5765
 5386SOL    HW227792   2.866   2.902  17.439 -0.1712 -0.0254  0.0058
 5387SOL     OW27793   3.753   2.721   8.386  0.3477 -0.2765 -0.0196
 5387SOL    HW127794   3.663   2.734   8.417 -0.2968  2.8606 -3.3713
 5387SOL    HW227795   3.758   2.626   8.399 -0.4952 -0.1306  1.4413
 5388SOL     OW27796   0.355   2.336   4.156 -0.0457 -0.1206 -0.5097
 5388SOL    HW127797   0.351   2.258   4.211 -0.7931  0.0260 -0.3486
 5388SOL    HW227798   0.315   2.399   4.217 -0.2147  0.9236 -1.6987
 5389SOL     OW27799   3.515   2.172   3.467  0.1259  0.2537  0.3122
 5389SOL    HW127800   3.470   2.220   3.537  0.4660  0.8090  0.1428
 5389SOL    HW227801   3.527   2.240   3.401  0.8960  0.4423  0.6502
 5390SOL     OW27802   1.008   4.460  11.621  0.4985 -0.5478 -0.2001
 5390SOL    HW127803   0.941   4.420  11.675 -0.3974 -0.4527 -1.2305
 5390SOL    HW227804   1.050   4.394  11.565 -0.1597  0.3908 -1.8096
 5391SOL     OW27805   1.293   1.834   7.403  0.1825 -0.0948  0.0941
 5391SOL    HW127806   1.254   1.761   7.354  0.9619 -0.2391 -0.3076
 5391SOL    HW227807   1.274   1.803   7.492  2.4627 -0.5508  0.4304
 5392SOL     OW27808   4.713   3.275   3.195 -0.5193  0.2509 -0.1387
 5392SOL    HW127809   4.732   3.360   3.157  0.2788 -0.4598 -1.2928
 5392SOL    HW227810   4.675   3.305   3.278  0.3273 -0.3476  0.4650
 5393SOL     OW27811   3.008   0.427   8.444 -0.7373  0.2956  0.2019
 5393SOL    HW127812   3.082   0.444   8.503 -1.6990 -1.7757  1.9606
 5393SOL    HW227813   3.014   0.503   8.386  1.4380  0.1631  0.2236
 5394SOL     OW27814   2.936   0.040   2.521  0.1385  0.1030  0.1491
 5394SOL    HW127815   3.018   0.049   2.569  1.8429 -1.0848 -2.5145
 5394SOL    HW227816   2.879   0.090   2.579 -3.8011 -1.6293 -2.2116
 5395SOL     OW27817   0.285   2.723  15.679  0.3436  0.3126 -0.2418
 5395SOL    HW127818   0.212   2.756  15.627 -0.4477  0.0055  0.6715
 5395SOL    HW227819   0.360   2.756  15.629  2.1248 -2.0865  0.8508
 5396SOL     OW27820   0.615   1.848   1.050  0.5635 -0.1153  0.0375
 5396SOL    HW127821   0.586   1.765   1.013  1.4081  0.8026 -2.6739
 5396SOL    HW227822   0.578   1.820   1.134  0.2122 -1.6449 -0.6303
 5397SOL     OW27823   0.605   0.525   2.516 -0.1475 -0.0890 -0.5196
 5397SOL    HW127824   0.516   0.549   2.542  0.7185  0.4089  1.9731
 5397SOL    HW227825   0.631   0.456   2.577 -1.8907 -1.4527 -1.3097
 5398SOL     OW27826   1.894   2.348   1.310 -0.7247 -0.2245  0.0932
 5398SOL    HW127827   1.836   2.382   1.241  1.3141 -0.1194 -1.5902
 5398SOL    HW227828   1.929   2.263   1.281 -1.8979 -0.2583 -1.2275
 5399SOL     OW27829   2.237   2.280  16.796 -0.1509 -1.2072 -0.2014
 5399SOL    HW127830   2.261   2.219  16.866 -1.6366  0.8128  2.1008
 5399SOL    HW227831   2.147   2.252  16.776 -0.8689  2.1268 -1.6642
 5400SOL     OW27832   2.287   1.862   8.006 -0.0327 -0.3504  0.0911
 5400SOL    HW127833   2.359   1.806   7.976 -2.6906 -3.7165  0.0714
 5400SOL    HW227834   2.214   1.800   8.007 -0.4656  0.1944  1.4015
 5401SOL     OW27835   3.578   0.078  17.598  0.1422 -0.1955 -0.9767
 5401SOL    HW127836   3.663   0.119  17.581 -0.0610  0.9205  0.7542
 5401SOL    HW227837   3.540   0.158  17.632 -0.3069 -1.9021  2.5990
 5402SOL     OW27838   4.018   0.850   3.031 -0.2950  0.4519 -0.4051
 5402SOL    HW127839   3.926   0.876   3.031 -1.2681 -3.0252 -0.9816
 5402SOL    HW227840   4.049   0.887   2.949 -0.8641 -0.5352 -1.0709
 5403SOL     OW27841   3.087   4.615  17.616 -0.3114 -0.5778 -0.1809
 5403SOL    HW127842   2.992   4.619  17.631 -0.3370 -2.2965  0.0152
 5403SOL    HW227843   3.082   4.603  17.521 -1.8105 -0.6269 -0.0974
 5404SOL     OW27844   3.016   0.077   4.218  0.0268  0.1195  0.4404
 5404SOL    HW127845   3.037   0.113   4.132  1.2570 -2.1700 -0.2219
 5404SOL    HW227846   3.006   4.721   4.209 -0.5973  0.0740  1.5442
 5405SOL     OW27847   0.873   1.567   1.505 -0.6343 -0.0869 -0.5293
 5405SOL    HW127848   0.789   1.601   1.535  0.3560  2.9540 -1.1994
 5405SOL    HW227849   0.918   1.557   1.590 -1.3574 -0.2156 -0.1650
 5406SOL     OW27850   0.240   4.516   4.148  0.0878 -0.2298 -0.0375
 5406SOL    HW127851   0.286   4.519   4.063  0.3104  1.1163  0.1259
 5406SOL    HW227852   0.264   4.606   4.170  0.0679 -0.4369  0.7966
 5407SOL     OW27853   3.052   3.534   5.695 -0.5483 -0.2150 -0.0178
 5407SOL    HW127854   3.144   3.545   5.718 -0.5340  0.2951 -0.3223
 5407SOL    HW227855   3.048   3.439   5.706 -1.7610 -0.2279 -0.5615
 5408SOL     OW27856   3.854   2.696   5.484  0.3663 -0.1479  0.2663
 5408SOL    HW127857   3.889   2.633   5.547  0.6404 -0.1093  0.1539
 5408SOL    HW227858   3.937   2.742   5.477  1.0984 -1.7209 -1.4394
 5409SOL     OW27859   4.072   4.621   3.665  0.0181  0.0876  0.0452
 5409SOL    HW127860   4.063   4.677   3.742  1.2914 -2.0915  1.7949
 5409SOL    HW227861   4.138   4.677   3.624 -1.4534  0.1685 -2.2202
 5410SOL     OW27862   0.478   0.974   4.319  0.3652  0.2154  0.6118
 5410SOL    HW127863   0.495   0.931   4.235 -0.5717 -0.8841  0.9873
 5410SOL    HW227864   0.498   0.903   4.380  0.9122 -1.6680 -1.7620
 5411SOL     OW27865   4.493   3.456   7.647  0.3722  0.4422  0.1388
 5411SOL    HW127866   4.526   3.518   7.582  1.6257  1.0826  1.3687
 5411SOL    HW227867   4.564   3.450   7.712 -1.5425  1.3337  2.3122
 5412SOL     OW27868   4.225   3.062   3.199 -0.5101 -0.0528 -0.5389
 5412SOL    HW127869   4.202   3.139   3.147  0.1219  0.8578  0.5259
 5412SOL    HW227870   4.147   3.007   3.200  0.4606 -1.4347 -0.9515
 5413SOL     OW27871   3.758   4.732   1.497  0.5710 -0.0455 -0.3834
 5413SOL    HW127872   3.810   4.733   1.417 -0.8023  0.5456 -1.2810
 5413SOL    HW227873   3.793   0.071   1.541 -0.3579  0.2132 -0.0903
 5414SOL     OW27874   0.491   1.349   6.561  0.0656 -0.3726  0.5505
 5414SOL    HW127875   0.555   1.382   6.625 -0.0701 -0.2695  0.6320
 5414SOL    HW227876   0.423   1.331   6.626  0.3671  2.1352  1.5600
 5415SOL     OW27877   4.568   0.723   4.519 -0.3004 -0.2355  0.2399
 5415SOL    HW127878   4.566   0.805   4.469  0.8246 -1.2000 -1.3754
 5415SOL    HW227879   4.520   0.747   4.598 -0.3117 -0.8052  0.4054
 5416SOL     OW27880   3.101   0.615   8.933  0.1529  0.1763  0.9900
 5416SOL    HW127881   3.087   0.674   9.006 -1.8779 -0.4674  1.1365
 5416SOL    HW227882   3.084   0.676   8.861  1.7909  1.0735  1.3695
 5417SOL     OW27883   2.769   4.391   4.965  0.2506  0.1596  0.7221
 5417SOL    HW127884   2.744   4.299   4.968  1.8134 -0.3539 -2.8848
 5417SOL    HW227885   2.694   4.414   4.909 -1.3596 -0.0134  2.8067
 5418SOL     OW27886   3.064   3.622   7.880  0.1908  0.2369  0.3630
 5418SOL    HW127887   3.105   3.570   7.810  3.7797  0.9179  1.9556
 5418SOL    HW227888   2.971   3.601   7.880  0.2928 -0.2519  4.7042
 5419SOL     OW27889   1.125   3.719   6.279  0.5682  0.4645  0.8112
 5419SOL    HW127890   1.093   3.669   6.353 -1.6807 -2.8468 -2.3852
 5419SOL    HW227891   1.155   3.651   6.218 -0.7759  0.6901 -0.0990
 5420SOL     OW27892   3.942   4.534   7.510  0.1105  0.0621 -0.4027
 5420SOL    HW127893   3.967   4.623   7.484  2.2080 -0.6063 -0.6357
 5420SOL    HW227894   3.884   4.559   7.583  1.6845 -0.1211  0.9122
 5421SOL     OW27895   0.577   3.077   0.847 -0.3265 -0.0762 -0.4587
 5421SOL    HW127896   0.553   2.985   0.856 -1.8704  0.3290 -0.4108
 5421SOL    HW227897   0.617   3.094   0.933  1.1474 -0.3626 -1.0854
 5422SOL     OW27898   1.263   3.403   1.977 -0.3629 -0.0438  0.3282
 5422SOL    HW127899   1.266   3.391   1.882  1.3445 -1.2243  0.5345
 5422SOL    HW227900   1.350   3.428   2.005  0.1094 -2.0727  0.6490
 5423SOL     OW27901   4.190   1.663  16.595 -0.0470  0.2557  0.8511
 5423SOL    HW127902   4.112   1.652  16.649  0.0265  0.0171  0.9087
 5423SOL    HW227903   4.267   1.651  16.651  2.1426  0.0487 -2.2117
 5424SOL     OW27904   3.403   1.478   6.784 -0.3397  0.2457  0.1190
 5424SOL    HW127905   3.328   1.421   6.800 -2.3567  2.7532 -0.4909
 5424SOL    HW227906   3.368   1.565   6.800  0.6434  0.4478  1.2087
 5425SOL     OW27907   3.470   1.231   2.156 -0.2571 -0.8297 -0.2190
 5425SOL    HW127908   3.396   1.205   2.102  1.1022 -2.5041 -1.2754
 5425SOL    HW227909   3.515   1.147   2.162  2.5967  0.7838  0.9782
 5426SOL     OW27910   1.109   3.191   6.657 -0.5308  0.1384  0.4632
 5426SOL    HW127911   1.169   3.265   6.646  0.2606 -0.5065  0.4478
 5426SOL    HW227912   1.049   3.208   6.585 -0.1447 -1.0710 -0.1489
 5427SOL     OW27913   2.134   3.387   7.624  0.2263  0.4544  0.7566
 5427SOL    HW127914   2.204   3.407   7.562  0.2495 -0.0536  0.6182
 5427SOL    HW227915   2.140   3.291   7.628  2.8045  0.5647 -0.4964
 5428SOL     OW27916   1.498   1.644   5.550 -0.0042  0.1316 -0.1377
 5428SOL    HW127917   1.559   1.707   5.510 -0.7210 -0.2014 -1.7790
 5428SOL    HW227918   1.559   1.598   5.607 -0.3631 -1.1423 -0.7768
 5429SOL     OW27919   1.431   4.636  14.547 -0.1956  0.2509  0.2068
 5429SOL    HW127920   1.486   4.712  14.566  0.8748  0.0134 -1.9111
 5429SOL    HW227921   1.344   4.678  14.549 -1.2392 -1.8805 -1.2190
 5430SOL     OW27922   0.686   0.645   8.468  0.0942  0.0337  0.1374
 5430SOL    HW127923   0.691   0.636   8.563 -1.5292  2.2832  0.4551
 5430SOL    HW227924   0.772   0.614   8.443  0.1427 -0.4799  0.9449
 5431SOL     OW27925   0.111   4.326  16.665 -0.2274 -0.0709  0.0405
 5431SOL    HW127926   0.185   4.374  16.627  0.3405 -0.6762  0.3802
 5431SOL    HW227927   0.059   4.400  16.697  0.7322  0.8634 -0.5708
 5432SOL     OW27928   0.174   3.803   8.921 -0.0533 -0.0762 -0.2024
 5432SOL    HW127929   0.163   3.845   9.006 -1.2249 -0.5689 -0.1205
 5432SOL    HW227930   0.124   3.721   8.919  1.3650 -0.9611  0.3520
 5433SOL     OW27931   4.604   1.162   9.376  0.1991 -0.1332 -0.2204
 5433SOL    HW127932   4.532   1.121   9.329 -0.1663 -0.0039  0.2313
 5433SOL    HW227933   4.578   1.252   9.396 -1.7004 -0.0250 -3.1751
 5434SOL     OW27934   1.020   0.381   4.863 -0.3901  0.0346 -0.0759
 5434SOL    HW127935   1.057   0.323   4.796 -0.1984  1.4568 -1.2189
 5434SOL    HW227936   0.926   0.367   4.854 -0.1909 -0.7612 -0.9148
 5435SOL     OW27937   1.622   4.583   1.145  0.9211 -0.4256  0.3893
 5435SOL    HW127938   1.687   4.585   1.215  2.6212  2.3596 -1.2946
 5435SOL    HW227939   1.626   4.676   1.124 -1.1365 -0.2590  0.7069
 5436SOL     OW27940   3.681   3.560   1.623 -0.2527  0.3448 -0.3954
 5436SOL    HW127941   3.698   3.493   1.689  0.9660  0.3102 -0.7456
 5436SOL    HW227942   3.767   3.557   1.582 -2.0603 -2.7039 -3.9608
 5437SOL     OW27943   0.737   3.938   1.849  0.0448  0.2027  0.1751
 5437SOL    HW127944   0.664   3.877   1.859 -1.2422  1.5489 -1.1711
 5437SOL    HW227945   0.698   4.016   1.889  1.4901  1.0797 -0.1020
 5438SOL     OW27946   4.244   1.399   8.605 -0.5296  0.3829  0.4515
 5438SOL    HW127947   4.228   1.399   8.699  0.2394 -1.0656  0.5870
 5438SOL    HW227948   4.222   1.306   8.597 -0.5941  0.4902 -0.6778
 5439SOL     OW27949   3.147   2.990   4.546 -0.5891  0.2486 -0.2948
 5439SOL    HW127950   3.227   2.940   4.567 -0.0444  1.7753  1.2416
 5439SOL    HW227951   3.192   3.072   4.530  0.8878 -0.6248 -0.6460
 5440SOL     OW27952   0.145   3.105  12.289 -0.2007 -0.0869 -0.0031
 5440SOL    HW127953   0.151   3.143  12.376 -0.3507  1.2741 -0.5901
 5440SOL    HW227954   0.221   3.046  12.288  0.3739  0.6980 -2.3051
 5441SOL     OW27955   1.709   1.585   3.983  0.4840 -0.3579 -0.1176
 5441SOL    HW127956   1.685   1.594   4.075  2.5748 -2.6694  0.6571
 5441SOL    HW227957   1.647   1.640   3.936 -0.3850 -1.9199 -0.8180
 5442SOL     OW27958   4.333   2.151   9.115  0.8206 -0.3454 -0.3028
 5442SOL    HW127959   4.277   2.220   9.152 -1.0087 -1.4056 -1.1149
 5442SOL    HW227960   4.285   2.072   9.140  2.7620 -1.2096  0.6396
 5443SOL     OW27961   1.359   3.074   3.463 -0.7348 -0.2774  0.3997
 5443SOL    HW127962   1.269   3.095   3.439 -0.4909 -0.5654 -0.7694
 5443SOL    HW227963   1.355   3.128   3.542 -2.5433  0.7981 -0.4440
 5444SOL     OW27964   4.362   4.390  14.947 -0.0790  0.2411  0.0252
 5444SOL    HW127965   4.267   4.405  14.948 -0.0064  0.7196 -0.6592
 5444SOL    HW227966   4.383   4.460  14.885 -0.0448 -0.4080 -0.6835
 5445SOL     OW27967   3.346   0.764   8.083 -0.3614 -0.0381 -0.2443
 5445SOL    HW127968   3.336   0.735   7.992  0.9882  0.6575 -0.6201
 5445SOL    HW227969   3.276   0.829   8.083 -0.3756 -0.0773  2.9991
 5446SOL     OW27970   3.578   1.964  16.054  0.3694 -0.1395  0.3367
 5446SOL    HW127971   3.488   1.949  16.025  0.1543 -0.1181  1.0041
 5446SOL    HW227972   3.611   2.046  16.017  2.9992 -1.9113 -1.3105
 5447SOL     OW27973   2.107   1.798  17.347  0.5661 -0.2742 -0.1078
 5447SOL    HW127974   2.085   1.868  17.408  3.0470 -0.7235  1.3051
 5447SOL    HW227975   2.181   1.767  17.399  2.7949  2.9232 -1.4197
 5448SOL     OW27976   3.703   0.495   4.342  0.0966 -0.2971 -0.4980
 5448SOL    HW127977   3.742   0.555   4.278 -0.3366  1.1369  0.5823
 5448SOL    HW227978   3.617   0.535   4.354 -0.0778 -1.3141  1.5202
 5449SOL     OW27979   3.679   1.792   4.630  0.8614 -0.0193  0.0412
 5449SOL    HW127980   3.700   1.858   4.564 -0.6912  0.7966  0.3634
 5449SOL    HW227981   3.746   1.727   4.607  0.9480  0.0215  0.1782
 5450SOL     OW27982   0.760   0.941  14.168  0.4836 -0.2878  0.1525
 5450SOL    HW127983   0.849   0.907  14.158  0.2999  0.1147 -2.8538
 5450SOL    HW227984   0.702   0.877  14.128 -0.5243  0.2793  0.7236
 5451SOL     OW27985   3.107   3.761   8.151  0.1954  0.0360 -0.1807
 5451SOL    HW127986   3.026   3.811   8.160  0.3936  0.9811 -3.7399
 5451SOL    HW227987   3.091   3.677   8.194  2.7232 -0.1496  0.4111
 5452SOL     OW27988   4.151   3.497   6.631 -0.4821  0.6886  0.5610
 5452SOL    HW127989   4.214   3.429   6.608  0.9536  2.2730 -0.2239
 5452SOL    HW227990   4.171   3.559   6.561  0.1290  0.6978  0.7406
 5453SOL     OW27991   2.821   1.703   4.019 -0.2913 -0.2842 -0.2388
 5453SOL    HW127992   2.758   1.732   4.085 -1.5164 -0.8711 -1.1515
 5453SOL    HW227993   2.902   1.737   4.055 -1.7344  1.5385  1.2704
 5454SOL     OW27994   0.019   4.651  16.709 -0.3963  0.0497  0.4487
 5454SOL    HW127995   0.057   4.731  16.672  2.1983 -1.0771  0.7051
 5454SOL    HW227996   0.025   4.675  16.801 -2.5035  0.5282  0.4662
 5455SOL     OW27997   1.798   1.339  11.417 -0.1077 -0.1313  0.1619
 5455SOL    HW127998   1.775   1.423  11.378  0.3367 -1.1014 -2.1684
 5455SOL    HW227999   1.889   1.354  11.442  0.2433  1.0454 -1.8761
 5456SOL     OW28000   2.931   3.665   8.724 -0.1016 -0.2832 -0.0547
 5456SOL    HW128001   2.967   3.594   8.672  0.5429 -0.2724  0.3684
 5456SOL    HW228002   2.892   3.621   8.800 -0.0819 -0.1900  0.0103
 5457SOL     OW28003   2.196   3.407   2.025  0.5469 -0.5087 -0.4164
 5457SOL    HW128004   2.188   3.328   1.971  1.1695 -0.3603 -0.7202
 5457SOL    HW228005   2.291   3.410   2.036  0.3040 -0.6466  1.7628
 5458SOL     OW28006   1.686   4.112   3.564 -0.0366 -0.0405  0.1273
 5458SOL    HW128007   1.706   4.038   3.507  0.2046 -0.0348  0.2060
 5458SOL    HW228008   1.700   4.074   3.651 -1.5299  0.7414  0.7158
 5459SOL     OW28009   0.446   4.659   0.498  0.5814 -0.3352  0.4668
 5459SOL    HW128010   0.397   4.643   0.418  0.4383 -1.5998  0.8165
 5459SOL    HW228011   0.530   4.690   0.463  1.1804 -3.9688 -1.2597
 5460SOL     OW28012   1.385   3.175   2.436 -0.3384  0.1482  0.0405
 5460SOL    HW128013   1.476   3.184   2.406 -1.4865  1.5343 -3.0180
 5460SOL    HW228014   1.399   3.141   2.525  0.2216  0.4144  0.0576
 5461SOL     OW28015   4.298   3.105   8.087  0.2394  0.3927 -0.1770
 5461SOL    HW128016   4.237   3.041   8.123 -1.8618  2.2097 -0.4758
 5461SOL    HW228017   4.362   3.099   8.157 -1.1842 -3.1407  0.8122
 5462SOL     OW28018   0.785   1.428   4.553  0.0185 -0.3156  0.2808
 5462SOL    HW128019   0.767   1.448   4.645 -3.9466 -0.5523 -0.4273
 5462SOL    HW228020   0.734   1.347   4.559  1.9727 -1.6101 -0.7984
 5463SOL     OW28021   3.559   3.125  12.204  0.0009 -0.8467  0.3879
 5463SOL    HW128022   3.572   3.159  12.116  1.5107  0.7777  1.2344
 5463SOL    HW228023   3.485   3.183  12.222  0.5320 -0.6219  1.9065
 5464SOL     OW28024   0.871   3.846   0.528  0.0847 -0.1863 -0.1183
 5464SOL    HW128025   0.810   3.905   0.571 -2.2002 -2.3336 -0.4175
 5464SOL    HW228026   0.959   3.863   0.560  0.6408 -0.6326 -1.3983
 5465SOL     OW28027   0.527   3.041   7.778 -0.0402  1.0669  0.3095
 5465SOL    HW128028   0.569   3.126   7.788 -0.4122  1.0692  1.8578
 5465SOL    HW228029   0.565   3.003   7.699  0.5200  1.1500  0.5411
 5466SOL     OW28030   0.783   1.412  13.195  0.1693  0.4028 -0.1894
 5466SOL    HW128031   0.850   1.343  13.193 -0.4804 -0.2461  0.1992
 5466SOL    HW228032   0.701   1.362  13.198  0.8043 -0.6014  0.4572
 5467SOL     OW28033   3.461   0.497  11.360  0.3976  0.2783 -0.6014
 5467SOL    HW128034   3.456   0.482  11.455 -2.2647  2.0328 -0.4553
 5467SOL    HW228035   3.546   0.534  11.335  1.7632 -1.8561  0.8761
 5468SOL     OW28036   3.819   2.737  16.869  0.6261  0.0910 -0.1365
 5468SOL    HW128037   3.769   2.768  16.793 -1.4775 -0.9548  0.8182
 5468SOL    HW228038   3.897   2.792  16.864  0.9888 -0.0926  3.3176
 5469SOL     OW28039   2.555   2.766   0.217 -0.2415  0.1121 -0.1805
 5469SOL    HW128040   2.483   2.773   0.281  1.4187 -1.5347  1.8468
 5469SOL    HW228041   2.551   2.856   0.183  1.2184  1.0978  2.2586
 5470SOL     OW28042   0.775   2.590   8.903  0.1075 -0.0444 -0.2995
 5470SOL    HW128043   0.850   2.618   8.956 -1.1306  0.8108  1.0247
 5470SOL    HW228044   0.811   2.514   8.858 -1.8376 -1.0139 -0.2433
 5471SOL     OW28045   0.552   0.054   3.765 -0.1002  0.1624 -0.3634
 5471SOL    HW128046   0.621   0.031   3.827  0.3175  2.4232 -0.0031
 5471SOL    HW228047   0.546   4.719   3.704  1.5869 -1.1616  1.0772
 5472SOL     OW28048   1.508   3.133   3.170  0.2569 -0.4283 -0.3032
 5472SOL    HW128049   1.436   3.158   3.111  0.7794  1.7121 -0.0274
 5472SOL    HW228050   1.576   3.186   3.128  0.7140 -0.6855  0.1275
 5473SOL     OW28051   2.773   2.251  16.939 -0.8896  0.4219 -0.1448
 5473SOL    HW128052   2.700   2.287  16.991 -1.8432  1.2320 -2.0572
 5473SOL    HW228053   2.727   2.201  16.872 -1.1454 -0.6265  0.7996
 5474SOL     OW28054   0.085   3.908   6.475  0.0279  0.2947 -0.1937
 5474SOL    HW128055   4.735   3.920   6.511  0.8252  1.6057  1.3454
 5474SOL    HW228056   0.141   3.921   6.551  1.3216  0.1356 -1.1206
 5475SOL     OW28057   2.942   4.281   9.457 -0.2810 -0.1689 -0.1401
 5475SOL    HW128058   2.894   4.243   9.530  4.3285 -3.5576  1.0898
 5475SOL    HW228059   2.947   4.209   9.394 -1.4351 -0.1769 -0.2249
 5476SOL     OW28060   3.006   2.967   4.916 -0.4594 -0.5470  0.3716
 5476SOL    HW128061   2.969   3.008   4.838 -1.6857  1.9130  2.2503
 5476SOL    HW228062   2.970   3.020   4.987 -0.1655  3.2319 -2.3043
 5477SOL     OW28063   2.316   3.114   2.428 -0.1492  0.0126 -0.1637
 5477SOL    HW128064   2.274   3.033   2.401  0.6183 -0.4191 -0.0534
 5477SOL    HW228065   2.346   3.089   2.515  0.2598  0.1573 -0.2650
 5478SOL     OW28066   3.429   3.872   2.597 -0.2450 -0.8507  0.1361
 5478SOL    HW128067   3.374   3.897   2.523 -0.5763 -1.0935  0.3002
 5478SOL    HW228068   3.396   3.921   2.672  1.8051 -0.8761  1.0586
 5479SOL     OW28069   1.338   2.629  16.727 -0.8090  0.4641  0.0152
 5479SOL    HW128070   1.384   2.681  16.794 -0.3374 -1.4611  1.1958
 5479SOL    HW228071   1.341   2.684  16.649 -0.8618  3.3292  2.0338
 5480SOL     OW28072   1.253   3.754   3.170 -0.2315 -0.0317 -0.4477
 5480SOL    HW128073   1.186   3.774   3.104 -1.6713 -0.7258  0.8143
 5480SOL    HW228074   1.221   3.802   3.246 -1.2551 -0.2915 -0.7209
 5481SOL     OW28075   4.682   4.290   1.602 -0.8028 -0.1806  0.3311
 5481SOL    HW128076   4.652   4.210   1.647  0.1535 -1.7008 -1.7354
 5481SOL    HW228077   4.603   4.342   1.590  0.4995  1.6112 -0.4092
 5482SOL     OW28078   0.488   4.224   2.322 -0.2852  0.0148 -0.3541
 5482SOL    HW128079   0.479   4.156   2.256  2.5174 -0.9687  0.2646
 5482SOL    HW228080   0.504   4.300   2.265 -0.7709 -1.1728 -2.0555
 5483SOL     OW28081   2.940   2.410   8.977  0.7624 -0.1480  0.1293
 5483SOL    HW128082   2.944   2.350   8.903 -2.5359 -2.0019  1.4551
 5483SOL    HW228083   2.866   2.463   8.949 -0.0133 -0.3031  1.8737
 5484SOL     OW28084   2.293   0.346   2.603 -0.2255 -0.0985  0.4815
 5484SOL    HW128085   2.315   0.410   2.535  0.6593 -2.1637 -1.2085
 5484SOL    HW228086   2.226   0.398   2.648 -1.0827  0.6150 -1.6069
 5485SOL     OW28087   2.829   0.581   7.992  0.7122 -0.3021 -0.1118
 5485SOL    HW128088   2.787   0.569   8.078 -0.3712  0.6656 -0.5036
 5485SOL    HW228089   2.920   0.603   8.011 -0.2390  2.2718  1.5683
 5486SOL     OW28090   2.692   2.706   7.306  0.4408 -0.3736 -0.6805
 5486SOL    HW128091   2.715   2.634   7.247  0.9886  0.6819 -1.7620
 5486SOL    HW228092   2.615   2.736   7.258 -1.2498  0.9991  2.8596
 5487SOL     OW28093   2.902   4.060   9.309 -0.0421  0.1899 -0.5903
 5487SOL    HW128094   2.899   4.054   9.213  0.8661 -0.2189 -0.5914
 5487SOL    HW228095   2.913   3.966   9.320  0.9752  0.5486  1.3777
 5488SOL     OW28096   3.947   1.647   7.775  0.9504 -0.3480 -0.1504
 5488SOL    HW128097   3.875   1.709   7.763  1.8026  0.6112 -0.2113
 5488SOL    HW228098   4.021   1.678   7.723  0.3150 -2.3518 -2.2584
 5489SOL     OW28099   2.444   2.102   8.030  0.1459 -0.1063 -0.2891
 5489SOL    HW128100   2.380   2.151   7.978 -0.9455  1.0719  2.1683
 5489SOL    HW228101   2.385   2.030   8.048  0.9639 -1.0394 -1.3308
 5490SOL     OW28102   3.492   3.633   3.792 -0.1978 -0.0779  0.4996
 5490SOL    HW128103   3.491   3.627   3.888 -0.8153  0.1216  0.5045
 5490SOL    HW228104   3.585   3.638   3.769 -0.4120  1.3281 -0.0711
 5491SOL     OW28105   2.341   3.706   8.902 -0.1647  0.1508  0.5545
 5491SOL    HW128106   2.424   3.732   8.942 -0.1274  0.0632  0.5335
 5491SOL    HW228107   2.332   3.621   8.943  1.4259 -0.1218  0.3319
 5492SOL     OW28108   0.396   1.497   5.727  0.4879 -0.0333  0.1144
 5492SOL    HW128109   0.379   1.435   5.656 -0.2018  0.1135  0.1570
 5492SOL    HW228110   0.426   1.568   5.671  0.5089 -0.8779 -0.9497
 5493SOL     OW28111   1.385   2.394  16.598  1.1555 -0.1061  0.0100
 5493SOL    HW128112   1.347   2.456  16.660  0.7687  0.1886 -0.5241
 5493SOL    HW228113   1.329   2.409  16.521 -2.1089 -0.0947  2.3821
 5494SOL     OW28114   4.439   4.342  12.001 -0.6040 -0.2883  0.0011
 5494SOL    HW128115   4.483   4.270  12.045 -0.2928  0.2488  0.5669
 5494SOL    HW228116   4.465   4.326  11.910 -0.9760  1.5192 -0.4167
 5495SOL     OW28117   3.734   3.848   9.224  0.1691 -0.1060  0.0711
 5495SOL    HW128118   3.808   3.806   9.267  0.0962 -0.0580  0.2458
 5495SOL    HW228119   3.661   3.787   9.237  0.4413 -0.5958 -0.7061
 5496SOL     OW28120   0.723   3.176   4.249 -0.2671  0.0399 -0.4082
 5496SOL    HW128121   0.666   3.115   4.296 -1.8484  1.3758 -0.5841
 5496SOL    HW228122   0.687   3.194   4.162 -0.0688 -0.5193 -0.6036
 5497SOL     OW28123   1.574   0.645   4.017  0.8421  0.1251 -0.3441
 5497SOL    HW128124   1.633   0.630   4.091 -2.4487 -1.0716  2.0928
 5497SOL    HW228125   1.517   0.569   4.030  1.1470 -0.4357 -2.3513
 5498SOL     OW28126   2.922   2.645   0.558  0.3453  0.0575 -0.0569
 5498SOL    HW128127   2.912   2.659   0.464 -2.5906 -0.3592  0.2056
 5498SOL    HW228128   3.018   2.642   0.563  0.3263  0.1877  0.3459
 5499SOL     OW28129   2.388   4.212   4.275 -0.1473  0.2336 -0.0098
 5499SOL    HW128130   2.292   4.216   4.267 -0.1072  0.6620 -0.2626
 5499SOL    HW228131   2.393   4.271   4.350  1.4030 -1.1005  0.9390
 5500SOL     OW28132   1.998   3.046   4.760  0.7973 -0.6437  0.0328
 5500SOL    HW128133   2.042   3.074   4.840  0.4181 -2.0063  0.7215
 5500SOL    HW228134   2.073   3.023   4.705  0.3058 -1.4863 -0.2807
 5501SOL     OW28135   4.103   0.492   6.383  0.0794 -0.3039 -0.2105
 5501SOL    HW128136   4.055   0.548   6.322  0.7867  0.1798 -0.3196
 5501SOL    HW228137   4.158   0.548   6.437 -0.2869 -1.7739  1.6735
 5502SOL     OW28138   2.328   0.204   3.378  0.3659  0.2321  0.0547
 5502SOL    HW128139   2.402   0.205   3.439 -1.0129  0.4541  1.7166
 5502SOL    HW228140   2.271   0.272   3.414  1.9166  1.8568 -0.5183
 5503SOL     OW28141   1.101   3.096   4.683  0.6655  0.6295 -0.2628
 5503SOL    HW128142   1.144   3.134   4.759 -0.2213 -0.4545  0.7821
 5503SOL    HW228143   1.072   3.012   4.718  1.6025  0.0545 -0.8732
 5504SOL     OW28144   0.876   1.125   2.796  0.1428  0.8320 -0.0936
 5504SOL    HW128145   0.950   1.115   2.856 -0.8173 -1.0726  0.7665
 5504SOL    HW228146   0.821   1.047   2.800  0.4551  0.5899 -0.5582
 5505SOL     OW28147   0.003   3.337   3.969  0.4722 -0.0423 -0.1416
 5505SOL    HW128148   4.697   3.254   3.956  1.5053 -0.6481  0.2173
 5505SOL    HW228149   4.734   3.386   3.886 -2.0392 -0.7272 -0.3056
 5506SOL     OW28150   0.300   2.663   3.287  0.2771 -0.1958 -0.1449
 5506SOL    HW128151   0.332   2.711   3.364 -0.3818 -0.1533  0.1045
 5506SOL    HW228152   0.230   2.616   3.333  1.4555 -0.9063  0.9354
 5507SOL     OW28153   1.128   0.270   1.084  0.0415 -0.1582  1.0454
 5507SOL    HW128154   1.157   0.189   1.044 -1.1644 -0.7816  1.4198
 5507SOL    HW228155   1.085   0.319   1.014 -0.3193  0.0241  1.3954
 5508SOL     OW28156   2.588   2.242   1.398  0.0751 -0.2824  0.1941
 5508SOL    HW128157   2.606   2.317   1.342 -1.5846  0.1773  0.2818
 5508SOL    HW228158   2.500   2.216   1.371  0.7200 -2.0321 -0.2126
 5509SOL     OW28159   2.372   1.754  16.925  0.2524  0.4036 -0.0595
 5509SOL    HW128160   2.333   1.674  16.959 -0.2163  0.0794 -1.3555
 5509SOL    HW228161   2.358   1.808  17.003  1.1880 -1.3044  1.2754
 5510SOL     OW28162   4.121   3.627   8.788  0.0708  0.0606 -0.1870
 5510SOL    HW128163   4.217   3.628   8.791  0.1168  0.5241 -1.8453
 5510SOL    HW228164   4.102   3.716   8.760 -2.8905 -0.9658 -1.5163
 5511SOL     OW28165   2.786   2.769  17.117 -0.0948  0.5063 -0.3457
 5511SOL    HW128166   2.722   2.757  17.047  1.3718  0.1348 -1.6213
 5511SOL    HW228167   2.728   2.817  17.177  1.5039  0.4740  1.2121
 5512SOL     OW28168   2.213   0.969   2.578  0.1207  0.1088 -0.2076
 5512SOL    HW128169   2.200   1.010   2.492 -0.2760 -0.7233 -0.5475
 5512SOL    HW228170   2.196   0.875   2.569  0.3128  0.0490  0.0615
 5513SOL     OW28171   0.331   1.648   6.715 -0.3484  0.2530  0.0224
 5513SOL    HW128172   0.322   1.561   6.753 -1.8527  0.9204  1.2022
 5513SOL    HW228173   0.333   1.635   6.620 -1.1755  0.9327 -0.0931
 5514SOL     OW28174   4.357   0.300   7.082 -0.0740 -0.8008  0.2577
 5514SOL    HW128175   4.364   0.294   6.986 -0.8929 -1.3883  0.2356
 5514SOL    HW228176   4.310   0.384   7.082  0.8242 -0.2960 -1.0803
 5515SOL     OW28177   3.968   1.327  16.995  0.0373 -0.1472  0.5406
 5515SOL    HW128178   3.935   1.355  16.909  2.8121 -0.4514 -0.6176
 5515SOL    HW228179   4.009   1.407  17.027 -2.7533  2.0300 -1.3552
 5516SOL     OW28180   3.884   3.058  16.952 -0.4419 -0.4272 -0.1714
 5516SOL    HW128181   3.817   3.021  17.009 -1.8983  2.2206 -0.1978
 5516SOL    HW228182   3.831   3.108  16.890 -1.6582 -1.7401 -0.2029
 5517SOL     OW28183   1.750   0.652   3.380  0.4217 -0.4435 -0.3757
 5517SOL    HW128184   1.714   0.707   3.310  1.0781  0.9161  0.3550
 5517SOL    HW228185   1.687   0.580   3.390  0.8534 -1.0610 -2.2107
 5518SOL     OW28186   1.590   3.012   0.791 -0.1620 -0.2144  0.0543
 5518SOL    HW128187   1.561   3.077   0.728  3.3281  0.1926 -1.1307
 5518SOL    HW228188   1.595   2.940   0.728 -0.2239  0.5614 -0.8183
 5519SOL     OW28189   0.582   0.896   6.993 -0.4863 -0.0229 -0.1807
 5519SOL    HW128190   0.572   0.974   7.047 -0.9006 -0.6284  0.5984
 5519SOL    HW228191   0.498   0.878   6.952  0.1218  1.5905 -2.1557
 5520SOL     OW28192   1.867   0.757   8.818  0.4582 -0.2149  0.8582
 5520SOL    HW128193   1.797   0.711   8.772  1.1389 -0.8407  0.4649
 5520SOL    HW228194   1.810   0.806   8.877 -0.2822  1.4173 -1.2323
 5521SOL     OW28195   0.816   2.592   3.030  0.2345 -0.6050 -0.2742
 5521SOL    HW128196   0.738   2.637   2.998  1.2496  1.8155  0.6466
 5521SOL    HW228197   0.856   2.573   2.945 -0.9131 -3.4064 -0.1865
 5522SOL     OW28198   0.697   4.162   2.781  0.7244  0.1301  0.5745
 5522SOL    HW128199   0.637   4.198   2.847 -0.6686  0.9577 -1.1485
 5522SOL    HW228200   0.658   4.190   2.698  0.4134 -0.1439  0.6259
 5523SOL     OW28201   0.848   1.186   3.109 -0.2106  1.0928 -0.4127
 5523SOL    HW128202   0.758   1.201   3.081 -0.0436  0.5431 -1.2522
 5523SOL    HW228203   0.877   1.277   3.106 -0.2697  1.0844 -1.1854
 5524SOL     OW28204   3.631   3.044   2.593 -0.3022 -0.3681 -0.3572
 5524SOL    HW128205   3.579   2.964   2.602 -2.4194  1.1335  0.6811
 5524SOL    HW228206   3.585   3.078   2.517 -3.2911  1.3519  2.2423
 5525SOL     OW28207   3.642   0.117   7.798  0.8499 -0.7884  0.0387
 5525SOL    HW128208   3.671   0.186   7.857 -1.8868 -0.4608  0.9735
 5525SOL    HW228209   3.701   0.134   7.724 -1.3446  2.1108 -1.0072
 5526SOL     OW28210   2.781   0.234   5.405  0.1003 -0.8676  0.0430
 5526SOL    HW128211   2.830   0.314   5.387  0.7863 -1.4894 -0.8769
 5526SOL    HW228212   2.830   0.180   5.342 -1.0716  0.2729 -1.8323
 5527SOL     OW28213   2.424   4.595   4.624 -0.3173  0.1761  0.2939
 5527SOL    HW128214   2.506   4.641   4.608 -0.1736 -0.1329  0.1373
 5527SOL    HW228215   2.377   4.672   4.656 -1.0073 -1.3121  2.8180
 5528SOL     OW28216   1.801   2.160   5.791 -0.0896 -0.7195 -0.6018
 5528SOL    HW128217   1.830   2.251   5.791 -2.1892 -0.0561  1.5599
 5528SOL    HW228218   1.713   2.174   5.755  0.2095  1.1674 -0.5975
 5529SOL     OW28219   3.966   0.503   9.455 -0.1696 -0.1118  0.4259
 5529SOL    HW128220   4.020   0.435   9.415 -1.1359 -0.4115 -0.3555
 5529SOL    HW228221   3.975   0.575   9.393  0.3816 -0.8074 -0.3084
 5530SOL     OW28222   0.175   2.716   1.585 -0.0939  0.1253  0.3475
 5530SOL    HW128223   0.146   2.627   1.603  0.7410  0.0469  1.2654
 5530SOL    HW228224   0.261   2.707   1.626 -0.4435  1.0161  1.2703
 5531SOL     OW28225   1.994   2.502  14.734 -0.0283 -0.1232 -0.3184
 5531SOL    HW128226   1.929   2.504  14.664 -1.8507 -1.7806  1.3211
 5531SOL    HW228227   2.068   2.537  14.684  0.2799  1.1386  1.0321
 5532SOL     OW28228   2.324   4.669   7.136  0.3452 -0.8327 -0.0006
 5532SOL    HW128229   2.398   4.633   7.086 -0.7228 -1.2041 -1.3321
 5532SOL    HW228230   2.304   4.600   7.199  0.2897 -2.4039 -1.7459
 5533SOL     OW28231   4.396   0.018   9.008 -0.4766 -1.0470  0.4774
 5533SOL    HW128232   4.479   0.001   9.052 -0.6749 -3.0761  0.0499
 5533SOL    HW228233   4.330   4.731   9.071 -0.9443 -2.1367 -0.4597
 5534SOL     OW28234   3.161   1.492  12.225  0.2146 -0.3651  0.5190
 5534SOL    HW128235   3.196   1.410  12.190  3.0854  0.1942  2.0624
 5534SOL    HW228236   3.079   1.454  12.256  0.8506 -0.6077  1.8962
 5535SOL     OW28237   1.897   1.555   2.071  0.6740 -0.3063 -0.0658
 5535SOL    HW128238   1.965   1.495   2.099 -0.6722 -0.3095  3.1474
 5535SOL    HW228239   1.948   1.613   2.015 -0.8055  1.1111  0.0688
 5536SOL     OW28240   3.354   1.910   8.286  0.3770  0.3306 -0.1462
 5536SOL    HW128241   3.346   1.822   8.250  1.0295  0.5549 -0.8524
 5536SOL    HW228242   3.260   1.923   8.299  0.0470  0.6420 -2.7777
 5537SOL     OW28243   0.117   1.598   7.041 -0.6197  0.0732  0.3601
 5537SOL    HW128244   0.071   1.671   7.082  1.9000  0.8671  1.8026
 5537SOL    HW228245   0.204   1.639   7.043  0.2310 -1.7254  0.0389
 5538SOL     OW28246   0.118   1.697   4.640 -0.1887 -0.1064 -0.1504
 5538SOL    HW128247   0.166   1.699   4.723  1.2434 -0.1866 -0.9673
 5538SOL    HW228248   0.104   1.603   4.635  0.2731 -0.1650 -0.3127
 5539SOL     OW28249   2.601   2.430   1.924  0.2745 -0.3323  0.4249
 5539SOL    HW128250   2.683   2.383   1.910  1.9114  2.7565 -0.2436
 5539SOL    HW228251   2.561   2.396   2.004  0.6805 -1.2478  0.2404
 5540SOL     OW28252   2.503   1.157   1.678  0.0886 -0.1618  0.0910
 5540SOL    HW128253   2.479   1.195   1.762  0.1997  1.0375 -0.4212
 5540SOL    HW228254   2.419   1.140   1.635  0.0672 -0.9427  0.4358
 5541SOL     OW28255   3.559   4.736  16.067 -0.5150 -0.0726  0.3463
 5541SOL    HW128256   3.544   4.643  16.088 -1.2532  0.2352  1.1636
 5541SOL    HW228257   3.485   0.016  16.009 -0.3693  0.8160  0.4471
 5542SOL     OW28258   0.927   1.772  14.277  0.2912 -0.8444 -0.0085
 5542SOL    HW128259   0.977   1.836  14.328 -0.7498 -0.5973  0.6974
 5542SOL    HW228260   0.844   1.816  14.263 -0.9728 -3.4767 -0.6913
 5543SOL     OW28261   1.021   3.873   0.173  0.6317  0.0788  0.0218
 5543SOL    HW128262   1.042   3.827   0.254 -0.4716 -0.4198  0.0174
 5543SOL    HW228263   1.088   3.839   0.113  1.1896  0.6295  0.3378
 5544SOL     OW28264   3.750   2.712   7.893 -0.6415 -0.1722 -0.3563
 5544SOL    HW128265   3.742   2.794   7.942 -1.0257  0.6577 -1.8050
 5544SOL    HW228266   3.748   2.649   7.965  0.4490 -0.5699 -0.6719
 5545SOL     OW28267   4.282   3.922   5.318 -0.0883 -0.0838 -0.4515
 5545SOL    HW128268   4.372   3.946   5.295 -0.4946  0.9987 -0.9130
 5545SOL    HW228269   4.262   3.855   5.252  0.3837 -0.7606  0.1050
 5546SOL     OW28270   0.480   1.459  10.835 -0.5945  0.4112  0.1737
 5546SOL    HW128271   0.432   1.493  10.911 -0.8880 -1.9972  1.0638
 5546SOL    HW228272   0.521   1.540  10.806  3.9695 -1.2522  1.8638
 5547SOL     OW28273   4.167   0.400   4.712  0.1662  0.0405 -0.3435
 5547SOL    HW128274   4.214   0.317   4.710  1.5786  0.7828  1.1647
 5547SOL    HW228275   4.231   0.455   4.664 -0.5808  0.4100 -0.9149
 5548SOL     OW28276   1.585   1.022  16.959  0.0500  0.1062  0.1428
 5548SOL    HW128277   1.651   1.090  16.971  1.9411 -2.0323  1.8153
 5548SOL    HW228278   1.643   0.946  16.950  1.2622  1.3053 -2.1092
 5549SOL     OW28279   2.159   1.739  16.658  0.1058 -0.0677 -0.4142
 5549SOL    HW128280   2.249   1.734  16.690  0.2963  2.4989 -0.4943
 5549SOL    HW228281   2.132   1.647  16.659 -0.8996  0.2547  1.5444
 5550SOL     OW28282   3.741   1.060   4.418 -0.8947 -0.4307  0.2906
 5550SOL    HW128283   3.692   0.983   4.447 -0.1976 -1.7175 -1.9699
 5550SOL    HW228284   3.677   1.123   4.452 -2.0347 -2.5325  2.0761
 5551SOL     OW28285   2.640   3.177   6.961  0.5547  0.2310 -0.5032
 5551SOL    HW128286   2.655   3.162   6.867  2.4857  1.3487 -0.3726
 5551SOL    HW228287   2.562   3.232   6.965  0.1900 -0.4565  1.5430
 5552SOL     OW28288   1.401   2.430   6.719  0.2376  0.2254 -0.0252
 5552SOL    HW128289   1.480   2.388   6.754  0.3341  0.9913  0.6726
 5552SOL    HW228290   1.426   2.447   6.628 -2.6964  0.3222 -0.8159
 5553SOL     OW28291   1.943   1.574   3.821 -0.3831  0.1050  0.0258
 5553SOL    HW128292   2.006   1.606   3.884 -0.8239  0.5357  0.2447
 5553SOL    HW228293   1.870   1.565   3.882 -1.0467  0.2505 -0.7376
 5554SOL     OW28294   0.522   3.041  10.844 -0.1812 -0.3811  0.3809
 5554SOL    HW128295   0.490   2.996  10.922 -1.1663 -1.5992 -0.7018
 5554SOL    HW228296   0.576   3.111  10.880  1.3341 -0.4002 -1.8438
 5555SOL     OW28297   2.379   4.327  15.241 -0.1099  0.4543  0.4571
 5555SOL    HW128298   2.366   4.379  15.162 -0.6913 -1.3613 -0.6397
 5555SOL    HW228299   2.288   4.322  15.273  0.1776  3.9859  1.8230
 5556SOL     OW28300   1.932   3.584   3.435  0.1329 -0.3346  0.0150
 5556SOL    HW128301   1.909   3.674   3.410  2.7135  0.4924  0.6024
 5556SOL    HW228302   1.876   3.573   3.511 -0.9987  1.2318 -0.5869
 5557SOL     OW28303   1.621   3.829   0.437  0.6786 -0.3160  0.9462
 5557SOL    HW128304   1.716   3.841   0.426  0.3952 -0.0543 -1.1825
 5557SOL    HW228305   1.589   3.912   0.472  0.4620  0.3008 -0.7204
 5558SOL     OW28306   0.614   2.036   1.353 -0.7064 -0.4261 -0.5365
 5558SOL    HW128307   0.581   2.020   1.441  0.0293  2.3094  0.2181
 5558SOL    HW228308   0.565   1.971   1.302  0.6098 -0.7999 -1.3362
 5559SOL     OW28309   2.674   0.584  15.262  0.3943  0.3035 -0.2342
 5559SOL    HW128310   2.705   0.670  15.290 -0.4165  0.7703 -0.7657
 5559SOL    HW228311   2.613   0.564  15.334  0.8701 -2.3645 -0.5925
 5560SOL     OW28312   2.544   0.575   4.139  0.2909  0.2153  0.0459
 5560SOL    HW128313   2.450   0.583   4.122 -0.1624  0.6002  2.6301
 5560SOL    HW228314   2.554   0.606   4.229  0.8547  0.4968 -0.1142
 5561SOL     OW28315   0.086   0.542   9.216 -0.4133  0.1510  0.0207
 5561SOL    HW128316   0.084   0.638   9.218  2.9533  0.2440 -0.5648
 5561SOL    HW228317   0.068   0.519   9.307  0.3609  1.5914  0.5462
 5562SOL     OW28318   1.169   1.110   4.381 -0.0137 -0.5666  0.3803
 5562SOL    HW128319   1.098   1.174   4.375  0.0813 -0.5036 -0.1325
 5562SOL    HW228320   1.249   1.150   4.415 -0.4536  0.7447 -0.0991
 5563SOL     OW28321   2.972   3.884   3.027  0.8753  0.1124  0.1471
 5563SOL    HW128322   3.028   3.883   3.105  0.2847  0.8194  0.5868
 5563SOL    HW228323   3.044   3.884   2.964 -0.9269  1.2167 -1.9361
 5564SOL     OW28324   3.810   2.325   3.842 -0.0221  0.2857  0.9362
 5564SOL    HW128325   3.810   2.306   3.936  0.1499  2.2860  1.3380
 5564SOL    HW228326   3.794   2.245   3.793  0.7394  0.0391  1.0862
 5565SOL     OW28327   1.802   0.676   4.173  0.2845  0.0725  0.0360
 5565SOL    HW128328   1.800   0.772   4.178 -2.1790 -0.0155  0.6089
 5565SOL    HW228329   1.869   0.660   4.107 -0.8484 -0.6433 -0.9348
 5566SOL     OW28330   4.027   2.735   6.452 -0.1982 -0.3095  0.0569
 5566SOL    HW128331   4.039   2.696   6.539 -0.1574 -0.9193 -0.2208
 5566SOL    HW228332   3.935   2.758   6.461  0.3190  1.1732  1.4109
 5567SOL     OW28333   0.264   2.908   4.815 -0.2429 -0.6737  0.4206
 5567SOL    HW128334   0.219   2.864   4.743  0.3410 -0.8929  0.1865
 5567SOL    HW228335   0.267   2.839   4.881  0.8043  0.5027  1.6282
 5568SOL     OW28336   4.660   1.009   3.295 -0.5860 -0.6200  0.4765
 5568SOL    HW128337   4.729   1.073   3.312 -1.0866  0.0343  0.0378
 5568SOL    HW228338   4.627   1.023   3.206 -1.0426 -1.0037  0.5855
 5569SOL     OW28339   3.737   4.222   6.718 -0.4961  0.8817  0.4054
 5569SOL    HW128340   3.734   4.241   6.812  1.8490 -1.6590  1.0096
 5569SOL    HW228341   3.718   4.310   6.685 -0.2366  0.6155 -0.4430
 5570SOL     OW28342   2.362   3.695   4.137  0.2101 -0.4200  0.4659
 5570SOL    HW128343   2.361   3.790   4.147  1.4793 -0.0767 -2.8584
 5570SOL    HW228344   2.271   3.677   4.116  0.5048 -0.2043 -0.9975
 5571SOL     OW28345   2.796   3.751   2.450  0.5656  0.3566 -0.1914
 5571SOL    HW128346   2.756   3.695   2.384  2.1271  0.5980 -1.3307
 5571SOL    HW228347   2.741   3.827   2.430  3.1326  2.1239 -0.5114
 5572SOL     OW28348   3.765   1.005   2.488  0.0095 -0.4969 -0.6613
 5572SOL    HW128349   3.791   0.929   2.541  0.8328  1.1224  1.2286
 5572SOL    HW228350   3.673   0.979   2.486  0.3294 -1.8661  2.4651
 5573SOL     OW28351   3.532   2.574  16.803  0.4472 -0.5065  0.4186
 5573SOL    HW128352   3.437   2.573  16.806  0.4850 -1.6347  1.5253
 5573SOL    HW228353   3.561   2.482  16.805 -0.5768 -0.7619  3.1189
 5574SOL     OW28354   3.449   1.618   7.128  0.4926 -0.2575 -0.5257
 5574SOL    HW128355   3.398   1.583   7.056  0.5570 -0.9095 -0.2553
 5574SOL    HW228356   3.491   1.542   7.168  2.1314 -0.0238 -1.8407
 5575SOL     OW28357   3.504   0.425   6.645  0.6236  0.3619 -0.0858
 5575SOL    HW128358   3.435   0.360   6.659  1.4913 -0.5718 -0.0707
 5575SOL    HW228359   3.521   0.447   6.737  1.8794  0.0362 -0.2364
 5576SOL     OW28360   2.278   4.034  12.505  0.1869 -0.7462  1.0041
 5576SOL    HW128361   2.317   4.038  12.592  1.7874 -0.2221  0.2498
 5576SOL    HW228362   2.301   4.116  12.462 -0.9325  0.4192  2.6023
 5577SOL     OW28363   2.850   3.388   6.792  0.7866 -0.0428 -0.2538
 5577SOL    HW128364   2.943   3.412   6.796  0.3293  1.6158  0.3852
 5577SOL    HW228365   2.833   3.353   6.879  1.1904 -0.5424 -0.3782
 5578SOL     OW28366   0.076   2.994   7.784 -0.4604 -0.1565  0.2205
 5578SOL    HW128367   0.047   2.922   7.728 -0.0213 -0.2075  0.0533
 5578SOL    HW228368   0.118   3.043   7.713  1.3195 -0.6733  0.9054
 5579SOL     OW28369   1.937   0.615   3.187 -0.2105  0.0497 -0.1237
 5579SOL    HW128370   1.894   0.659   3.114  4.0172  0.6645 -2.2483
 5579SOL    HW228371   1.882   0.624   3.265  1.1816  0.8240  0.7687
 5580SOL     OW28372   3.806   2.761  14.693  0.1861  0.1276  0.1681
 5580SOL    HW128373   3.855   2.781  14.773  0.4518 -0.5106  0.1688
 5580SOL    HW228374   3.793   2.669  14.716  0.2077 -0.0406 -0.4983
 5581SOL     OW28375   0.286   2.250  15.896 -0.0365  0.1328  0.1857
 5581SOL    HW128376   0.223   2.191  15.937 -2.0919  1.3569 -1.2099
 5581SOL    HW228377   0.230   2.325  15.877 -0.8770 -0.4739  0.2739
 5582SOL     OW28378   1.616   4.304   6.261 -0.3818 -0.7332 -0.7487
 5582SOL    HW128379   1.576   4.389   6.278 -1.1590 -1.8750  3.1427
 5582SOL    HW228380   1.539   4.247   6.269 -1.8530  1.3492 -0.1098
 5583SOL     OW28381   1.327   1.500   3.277 -0.5148 -0.8248 -0.3685
 5583SOL    HW128382   1.330   1.577   3.333 -1.0016 -1.2288  0.2183
 5583SOL    HW228383   1.252   1.457   3.317 -0.7873  0.4290  0.4466
 5584SOL     OW28384   2.634   1.587   5.160 -0.4426  0.7303  0.3096
 5584SOL    HW128385   2.704   1.634   5.115  0.8388  1.4294  3.0378
 5584SOL    HW228386   2.679   1.502   5.166 -2.4203 -0.1918  2.2721
 5585SOL     OW28387   4.686   0.129   0.772 -0.5077 -0.0765 -0.3608
 5585SOL    HW128388   4.722   0.127   0.683  1.0310 -1.0438  0.2914
 5585SOL    HW228389   0.002   0.061   0.809  0.3309  0.3061 -0.8951
 5586SOL     OW28390   3.169   1.191   2.804  0.2576  0.8057 -0.1865
 5586SOL    HW128391   3.091   1.233   2.769  0.6053 -0.2428 -2.2558
 5586SOL    HW228392   3.168   1.107   2.758 -1.1161 -0.2821  1.8551
 5587SOL     OW28393   0.870   2.237   0.425  0.2357  0.0411 -0.0731
 5587SOL    HW128394   0.921   2.282   0.356 -0.4697 -0.4789 -0.9330
 5587SOL    HW228395   0.932   2.193   0.482  0.2142 -0.1250 -0.1780
 5588SOL     OW28396   0.094   3.851   5.344  0.6759  0.1833  0.4620
 5588SOL    HW128397   0.095   3.822   5.253 -0.3598  1.8614 -0.0875
 5588SOL    HW228398   0.127   3.940   5.327  1.5907 -0.2582 -0.0739
 5589SOL     OW28399   1.201   4.627   9.587 -0.4037 -0.3718  0.4289
 5589SOL    HW128400   1.208   4.605   9.680 -1.6643  0.8385  0.8091
 5589SOL    HW228401   1.243   4.713   9.577 -2.4192  0.5169 -0.3764
 5590SOL     OW28402   3.414   0.510   4.687  0.0271 -0.4325 -0.0856
 5590SOL    HW128403   3.371   0.589   4.655  0.4778  0.0183  0.4275
 5590SOL    HW228404   3.367   0.438   4.645  0.7391 -1.9188  1.6126
 5591SOL     OW28405   0.298   1.453  13.387  0.2657  0.4808  0.1190
 5591SOL    HW128406   0.282   1.369  13.344  0.0701  0.7094 -0.2533
 5591SOL    HW228407   0.249   1.435  13.467  0.1514 -0.0955 -0.0854
 5592SOL     OW28408   3.488   4.293  11.882  0.6473  0.2133 -0.0005
 5592SOL    HW128409   3.495   4.222  11.945  0.9716  0.6216  0.4178
 5592SOL    HW228410   3.498   4.245  11.800 -1.8880 -0.3131 -0.0080
 5593SOL     OW28411   3.463   3.984  14.188  0.4060  0.2061  0.5268
 5593SOL    HW128412   3.547   3.947  14.158  0.5155  2.0069 -1.3916
 5593SOL    HW228413   3.420   4.013  14.108 -0.3804  2.3817  1.7401
 5594SOL     OW28414   2.535   3.377   7.638  0.1699  0.0629  0.6745
 5594SOL    HW128415   2.588   3.298   7.644 -0.9682 -0.6748  1.0383
 5594SOL    HW228416   2.542   3.392   7.544  0.4296  1.1582  0.8678
 5595SOL     OW28417   2.433   1.794   5.103 -0.1248  0.1033 -0.0664
 5595SOL    HW128418   2.481   1.713   5.117 -0.1405 -0.3881 -2.9364
 5595SOL    HW228419   2.401   1.790   5.013 -1.5794 -2.3213  0.5731
 5596SOL     OW28420   0.996   3.424   2.001  0.6197  0.6452  0.3393
 5596SOL    HW128421   1.054   3.432   2.077 -2.2586  2.0189  2.3727
 5596SOL    HW228422   1.027   3.499   1.950 -1.4318 -0.7798 -2.9691
 5597SOL     OW28423   0.821   0.886   8.354  0.2109  0.1779 -0.6068
 5597SOL    HW128424   0.781   0.824   8.416 -1.0555  1.2605 -0.3385
 5597SOL    HW228425   0.769   0.874   8.275  2.0926  2.8077 -2.2322
 5598SOL     OW28426   1.075   2.287  12.732 -0.4603  0.1391  0.0881
 5598SOL    HW128427   1.154   2.331  12.700 -1.1125 -0.0240 -1.7341
 5598SOL    HW228428   1.105   2.257  12.818  0.9202  2.4319  0.4064
 5599SOL     OW28429   2.201   2.910  15.403  0.0031  0.1259 -0.0471
 5599SOL    HW128430   2.139   2.937  15.470 -1.2595  1.2178 -1.6294
 5599SOL    HW228431   2.144   2.909  15.326 -1.5402  0.9035  1.0728
 5600SOL     OW28432   0.590   0.857   7.615 -0.3416 -0.0327  0.6696
 5600SOL    HW128433   0.499   0.832   7.629 -1.1933  0.8584 -3.2648
 5600SOL    HW228434   0.641   0.795   7.668 -0.1749 -1.5682 -1.3055
 5601SOL     OW28435   2.496   2.094   4.436  0.2352  0.2192  0.0151
 5601SOL    HW128436   2.587   2.067   4.422  0.7890  0.6343  2.7100
 5601SOL    HW228437   2.464   2.027   4.497  1.4700 -0.1615  0.2679
 5602SOL     OW28438   3.684   1.541   3.760 -0.9951  0.1127  0.1762
 5602SOL    HW128439   3.649   1.579   3.841  0.1640 -0.4177  0.9234
 5602SOL    HW228440   3.747   1.611   3.743  0.6576 -1.3173  0.4326
 5603SOL     OW28441   0.357   2.170  13.671  0.3318 -0.2398  0.2294
 5603SOL    HW128442   0.372   2.225  13.593  0.2287  1.3970  1.3618
 5603SOL    HW228443   0.276   2.127  13.644 -0.6059  1.1047  0.8979
 5604SOL     OW28444   1.229   0.135  17.696  0.0609 -0.0828  0.1053
 5604SOL    HW128445   1.136   0.153  17.688 -0.2808 -0.7504  2.5570
 5604SOL    HW228446   1.272   0.206  17.649 -1.1709 -0.6702 -1.9237
 5605SOL     OW28447   1.812   4.125   8.121  0.0683  0.3369 -0.5660
 5605SOL    HW128448   1.770   4.108   8.038 -0.2755  3.1022 -0.9743
 5605SOL    HW228449   1.793   4.042   8.165  0.6203  0.0112 -0.9483
 5606SOL     OW28450   1.602   2.294   3.589 -0.1155  0.5696 -0.6099
 5606SOL    HW128451   1.587   2.386   3.610 -1.4545  0.3517 -0.5853
 5606SOL    HW228452   1.673   2.273   3.650 -1.7322 -1.2417  0.6414
 5607SOL     OW28453   0.377   4.166   8.426  0.2696  0.3745 -0.2736
 5607SOL    HW128454   0.419   4.095   8.474 -0.2127 -0.8365 -1.6345
 5607SOL    HW228455   0.292   4.123   8.414  0.4623  0.1316 -0.7818
 5608SOL     OW28456   3.579   0.868   8.012  0.9096 -0.0581  0.0721
 5608SOL    HW128457   3.495   0.835   8.044  1.0120  2.6434  3.2031
 5608SOL    HW228458   3.580   0.957   8.047 -1.7153  0.6984 -1.8046
 5609SOL     OW28459   4.523   1.715   9.526 -0.4118  0.1909 -0.8029
 5609SOL    HW128460   4.451   1.777   9.530 -0.8254  0.0426 -6.4246
 5609SOL    HW228461   4.521   1.696   9.432  0.1877  0.2622 -0.8345
 5610SOL     OW28462   3.632   3.682   4.272 -0.3980 -0.0837  0.1858
 5610SOL    HW128463   3.725   3.660   4.276 -0.2302  0.8732  1.8233
 5610SOL    HW228464   3.607   3.631   4.350 -1.3718 -0.4984 -0.4002
 5611SOL     OW28465   1.378   2.783   3.534 -0.2303 -0.2388 -0.3533
 5611SOL    HW128466   1.381   2.869   3.492 -1.0992  0.0382  0.1591
 5611SOL    HW228467   1.287   2.762   3.554  0.4942 -4.1282 -1.0363
 5612SOL     OW28468   2.861   3.972   9.061 -0.1361  0.2112 -0.4344
 5612SOL    HW128469   2.892   3.959   8.972 -0.0742 -1.6406 -0.1335
 5612SOL    HW228470   2.777   3.928   9.055 -0.2734  0.6000 -1.2996
 5613SOL     OW28471   4.329   4.194   1.231  0.2837 -0.2452  0.4850
 5613SOL    HW128472   4.324   4.148   1.315  0.5690 -0.3200  0.4612
 5613SOL    HW228473   4.287   4.279   1.244  0.5234 -0.3296  1.8404
 5614SOL     OW28474   0.047   1.673  10.132  0.0253 -0.4006  0.7124
 5614SOL    HW128475   4.718   1.726  10.172  0.5400  0.3329  0.6138
 5614SOL    HW228476   0.067   1.730  10.057  1.7813  1.3847  2.5547
 5615SOL     OW28477   0.279   4.445  12.879 -0.3824 -0.0676 -0.1761
 5615SOL    HW128478   0.232   4.471  12.800  0.0882 -0.7643 -0.6919
 5615SOL    HW228479   0.209   4.458  12.942 -0.0037 -1.0096  0.4537
 5616SOL     OW28480   4.339   1.822  17.472  0.6825  0.2497 -0.2544
 5616SOL    HW128481   4.316   1.901  17.521  0.7330 -0.7885  1.4317
 5616SOL    HW228482   4.255   1.776  17.478  1.4305 -0.9627  0.7658
 5617SOL     OW28483   2.290   2.763   3.543 -0.2282  0.5062 -0.1890
 5617SOL    HW128484   2.260   2.724   3.461 -0.7680 -1.5490  0.9828
 5617SOL    HW228485   2.212   2.796   3.589 -0.8035 -0.4267 -0.4957
 5618SOL     OW28486   3.461   4.234  17.588  0.6910  0.3999  0.4201
 5618SOL    HW128487   3.544   4.277  17.568  1.3835 -0.3890  1.5805
 5618SOL    HW228488   3.399   4.306  17.596  2.0813  1.2951  3.1533
 5619SOL     OW28489   2.910   0.086   3.153 -0.1842 -0.5696  0.1298
 5619SOL    HW128490   2.917   0.126   3.239  0.4004 -0.3689 -0.0098
 5619SOL    HW228491   2.953   0.146   3.092 -0.7327  0.3855  0.6947
 5620SOL     OW28492   3.673   2.198  13.790 -0.3240 -0.2235 -0.4784
 5620SOL    HW128493   3.679   2.139  13.866  1.4045  1.6658  0.8293
 5620SOL    HW228494   3.663   2.281  13.836 -1.4570 -0.9634  0.6314
 5621SOL     OW28495   0.056   4.258   8.994  0.1855  0.7950 -0.1080
 5621SOL    HW128496   0.081   4.300   9.076  3.6869  2.2368 -1.9132
 5621SOL    HW228497   0.139   4.244   8.948  0.6618  0.3848  0.8540
 5622SOL     OW28498   4.701   2.143   8.923 -0.3632  0.1805  0.1008
 5622SOL    HW128499   0.035   2.132   8.984  0.3023  1.3404 -0.4848
 5622SOL    HW228500   4.660   2.223   8.955  0.4529 -0.2486  2.2109
 5623SOL     OW28501   3.655   2.753   5.003 -0.4343 -0.0636  0.2255
 5623SOL    HW128502   3.610   2.697   5.067  0.3959 -2.0012 -0.8840
 5623SOL    HW228503   3.611   2.731   4.921 -2.2349 -0.8367  1.3775
 5624SOL     OW28504   0.309   0.139   8.499  0.4437 -0.2230  0.4908
 5624SOL    HW128505   0.373   0.068   8.508 -2.0060 -2.7089 -1.6854
 5624SOL    HW228506   0.368   0.214   8.507  0.0962  0.1008  0.0599
 5625SOL     OW28507   4.134   2.757   5.493 -0.3100  0.2789  0.2005
 5625SOL    HW128508   4.210   2.706   5.521  0.1433  0.5497 -0.5446
 5625SOL    HW228509   4.151   2.843   5.532  1.1970 -0.2419  0.6835
 5626SOL     OW28510   2.491   3.646   6.526  0.8226  0.0765 -0.2031
 5626SOL    HW128511   2.401   3.660   6.497  1.1573 -0.6130 -1.5570
 5626SOL    HW228512   2.493   3.573   6.588 -3.2957 -2.0457 -2.5524
 5627SOL     OW28513   0.369   0.333   5.461  0.2803 -0.4181 -0.1636
 5627SOL    HW128514   0.334   0.422   5.458  0.7787 -0.3040 -2.2534
 5627SOL    HW228515   0.451   0.340   5.411 -0.4350 -0.6076 -1.3374
 5628SOL     OW28516   0.839   3.235   7.597 -0.5675 -0.4616  0.3770
 5628SOL    HW128517   0.837   3.163   7.660 -3.2552 -0.5357  0.2493
 5628SOL    HW228518   0.811   3.302   7.659 -0.3112 -1.3216  1.4231
 5629SOL     OW28519   2.198   2.100   9.088 -0.3987 -0.0145 -0.3362
 5629SOL    HW128520   2.162   2.141   9.166 -1.9667  0.6225 -1.3884
 5629SOL    HW228521   2.207   2.182   9.040 -1.2810  0.1121 -0.2959
 5630SOL     OW28522   1.058   2.293   3.913 -0.1768  0.3508 -0.3935
 5630SOL    HW128523   0.984   2.346   3.941 -0.2256  0.0818 -0.0017
 5630SOL    HW228524   1.116   2.362   3.880 -0.6618  1.1588  0.4470
 5631SOL     OW28525   2.318   0.760   2.142 -0.7183 -0.0032 -0.0861
 5631SOL    HW128526   2.360   0.728   2.222 -0.1230 -0.3586 -0.5393
 5631SOL    HW228527   2.297   0.678   2.096  0.9818  0.5921 -1.9106
 5632SOL     OW28528   1.650   2.791   0.313 -0.0246 -0.1793 -0.0380
 5632SOL    HW128529   1.731   2.839   0.328  0.2910 -1.6357  2.9004
 5632SOL    HW228530   1.605   2.840   0.245  0.1373 -1.3674 -1.0035
 5633SOL     OW28531   2.129   2.010  11.929  0.0749 -0.4284  0.4204
 5633SOL    HW128532   2.189   1.966  11.990  0.2714  0.8905  1.1789
 5633SOL    HW228533   2.200   2.060  11.891  1.2359 -1.6230  1.0252
 5634SOL     OW28534   1.881   0.712   7.833 -0.4772 -0.0571 -0.5403
 5634SOL    HW128535   1.974   0.690   7.830 -0.1064  1.5023 -0.5961
 5634SOL    HW228536   1.838   0.651   7.773 -0.6013  0.9479 -1.4955
 5635SOL     OW28537   4.244   1.056   6.264  0.1298 -0.0702 -0.2888
 5635SOL    HW128538   4.243   1.139   6.217  1.3975  0.4892  0.6663
 5635SOL    HW228539   4.179   1.074   6.332 -0.8956  2.6271 -1.9741
 5636SOL     OW28540   1.601   2.178  17.370  0.0951 -0.2835 -0.2720
 5636SOL    HW128541   1.637   2.224  17.445 -2.2016  1.7303 -0.4196
 5636SOL    HW228542   1.683   2.147  17.332 -0.4001 -1.4426 -0.4057
 5637SOL     OW28543   3.665   1.894   9.527 -0.6174  0.0699  0.2961
 5637SOL    HW128544   3.629   1.910   9.440 -0.4078 -0.8612  0.0359
 5637SOL    HW228545   3.600   1.948   9.572 -0.4256  0.5907 -0.0525
 5638SOL     OW28546   3.284   2.995   8.381  0.0561  0.0071  0.4077
 5638SOL    HW128547   3.366   2.955   8.409  1.1391  2.2740  0.5195
 5638SOL    HW228548   3.224   2.924   8.359 -2.8562  2.8742 -0.8338
 5639SOL     OW28549   1.003   2.383   7.666 -0.4244 -0.1869 -0.3178
 5639SOL    HW128550   1.074   2.332   7.706 -0.3300  1.1366  1.2047
 5639SOL    HW228551   1.028   2.471   7.694 -0.8448  0.2352 -1.2744
 5640SOL     OW28552   3.222   2.849  11.098 -0.2857 -0.4344 -0.2080
 5640SOL    HW128553   3.270   2.866  11.016  0.7046 -0.3022  0.3977
 5640SOL    HW228554   3.138   2.885  11.068 -0.5148 -0.3123  0.5815
 5641SOL     OW28555   0.920   4.011  16.838  0.0130  0.3371  0.6500
 5641SOL    HW128556   0.965   4.084  16.796 -0.8885 -0.5959 -1.9746
 5641SOL    HW228557   0.858   3.990  16.768 -0.8730  0.6090  1.3500
 5642SOL     OW28558   1.223   1.435  14.031  0.5821  0.0903  0.9476
 5642SOL    HW128559   1.215   1.477  13.945  1.9310 -2.2604 -0.3272
 5642SOL    HW228560   1.147   1.470  14.078  0.5341 -0.2224  1.1026
 5643SOL     OW28561   2.638   3.640  14.064  0.0998  0.1622 -0.5393
 5643SOL    HW128562   2.646   3.580  13.990 -1.9529 -0.4493 -0.2542
 5643SOL    HW228563   2.633   3.724  14.018  0.8062  0.2902 -0.3854
 5644SOL     OW28564   0.751   4.217   4.518 -0.1924  0.6029 -0.0216
 5644SOL    HW128565   0.795   4.177   4.443 -1.5130  0.6001 -0.7965
 5644SOL    HW228566   0.821   4.200   4.581  1.3916 -0.3465 -2.0349
 5645SOL     OW28567   3.486   2.720   8.433  0.2042 -0.1729  0.0181
 5645SOL    HW128568   3.453   2.736   8.521  1.3998 -0.1861  0.4686
 5645SOL    HW228569   3.451   2.636   8.403 -2.6613  0.2077  2.2481
 5646SOL     OW28570   1.769   4.714   7.769 -0.2909  0.2097 -0.1756
 5646SOL    HW128571   1.823   4.635   7.772 -1.6034 -0.7434 -1.8508
 5646SOL    HW228572   1.730   4.709   7.856  2.6844  0.1106  1.1801
 5647SOL     OW28573   3.890   0.426  16.296  0.3790  0.2694 -0.5012
 5647SOL    HW128574   3.846   0.342  16.280 -0.2088  0.5597 -0.4111
 5647SOL    HW228575   3.840   0.485  16.240 -0.3022  0.9750  0.8690
 5648SOL     OW28576   0.978   2.166   1.788  0.2550 -0.5120  0.1037
 5648SOL    HW128577   1.028   2.125   1.717  1.1814  0.8013  0.0074
 5648SOL    HW228578   0.945   2.245   1.746  2.2624 -0.9747 -2.3708
 5649SOL     OW28579   4.674   2.238   2.322 -0.0535 -1.0810  0.5370
 5649SOL    HW128580   4.670   2.261   2.229  1.8290  0.3639  0.8153
 5649SOL    HW228581   4.703   2.147   2.330  0.3964 -1.0172 -0.3380
 5650SOL     OW28582   1.851   3.150   6.227  0.1602  0.0205 -0.5242
 5650SOL    HW128583   1.902   3.109   6.297  0.8903 -2.6032 -2.6261
 5650SOL    HW228584   1.837   3.074   6.170 -1.1341 -0.7796  0.8653
 5651SOL     OW28585   2.387   4.447   3.456 -0.2039  0.0067  0.1402
 5651SOL    HW128586   2.393   4.391   3.379 -2.9531  0.4827 -0.4057
 5651SOL    HW228587   2.407   4.532   3.418 -0.5112  0.4366  0.9368
 5652SOL     OW28588   2.935   2.191  15.865  0.1311 -0.1021  0.2138
 5652SOL    HW128589   2.899   2.164  15.780 -1.2290  0.5762  0.5698
 5652SOL    HW228590   2.856   2.187  15.919  0.3946  1.7086  0.7419
 5653SOL     OW28591   3.061   4.442   5.780 -0.4303  0.4666 -0.2672
 5653SOL    HW128592   3.148   4.414   5.754 -0.3428  0.3525  0.1529
 5653SOL    HW228593   3.083   4.515   5.838  1.5415  0.7833 -1.4254
 5654SOL     OW28594   4.146   0.655   9.312  0.6381 -0.3989 -0.4438
 5654SOL    HW128595   4.145   0.710   9.391 -0.9903  0.0747 -0.8016
 5654SOL    HW228596   4.138   0.720   9.242 -2.1843 -1.2779 -0.9241
 5655SOL     OW28597   0.976   3.218   8.337  0.1113 -0.5689 -0.4616
 5655SOL    HW128598   0.926   3.178   8.408  0.3859  0.4894  0.3265
 5655SOL    HW228599   1.067   3.190   8.350 -0.0516 -0.3008  1.2186
 5656SOL     OW28600   4.558   4.067   2.706 -0.5601  1.1791  0.2448
 5656SOL    HW128601   4.481   4.039   2.755  1.9849 -1.9451  2.4173
 5656SOL    HW228602   4.616   3.992   2.721 -0.8140  0.5198 -2.0731
 5657SOL     OW28603   4.733   1.006   1.381 -0.0550 -0.1088 -0.5959
 5657SOL    HW128604   0.065   1.050   1.334 -1.0701 -0.0695 -2.1061
 5657SOL    HW228605   4.731   0.924   1.331 -0.3890 -0.1325 -0.5443
 5658SOL     OW28606   4.152   1.041  11.572  0.3341  0.1298 -0.2808
 5658SOL    HW128607   4.226   1.100  11.589  0.5496  0.7993 -3.6451
 5658SOL    HW228608   4.199   0.957  11.571 -1.4797 -0.8724 -0.0756
 5659SOL     OW28609   0.679   0.870   5.160  0.1043 -0.5138  0.1016
 5659SOL    HW128610   0.675   0.796   5.221 -0.3074 -0.9325 -0.4333
 5659SOL    HW228611   0.650   0.937   5.223  2.9124 -0.6792  1.5468
 5660SOL     OW28612   4.341   3.621   1.403  0.0418  0.1431 -0.2374
 5660SOL    HW128613   4.332   3.546   1.344  1.9780 -0.1341 -0.1756
 5660SOL    HW228614   4.436   3.624   1.414  0.0671  0.1183 -0.4464
 5661SOL     OW28615   3.887   1.099   0.005 -0.2041 -0.1850 -0.3708
 5661SOL    HW128616   3.944   1.110  17.681  0.4496  0.4180  0.1964
 5661SOL    HW228617   3.805   1.083  17.712  0.9632 -2.0991 -1.7773
 5662SOL     OW28618   4.724   3.653   4.152 -0.0731  0.0046 -0.1158
 5662SOL    HW128619   0.011   3.676   4.241  0.9180 -3.7755  0.6040
 5662SOL    HW228620   4.629   3.638   4.157  0.0701 -0.9926 -0.3039
 5663SOL     OW28621   1.736   3.953   4.463 -0.0185 -0.1331  0.2340
 5663SOL    HW128622   1.643   3.953   4.442  0.1475 -0.3048 -0.4842
 5663SOL    HW228623   1.740   3.888   4.534  0.3534  0.4813  0.7814
 5664SOL     OW28624   4.199   2.313   3.716 -0.2142 -0.2909  0.1148
 5664SOL    HW128625   4.269   2.361   3.673  0.1464  0.2389  1.3060
 5664SOL    HW228626   4.150   2.388   3.750  0.0963  0.2333 -0.5953
 5665SOL     OW28627   4.127   4.697   6.043 -0.2138 -0.1270  0.1746
 5665SOL    HW128628   4.185   0.028   6.014 -0.9355  0.5003  0.2545
 5665SOL    HW228629   4.186   4.623   6.024 -0.1503  0.1260 -0.6312
 5666SOL     OW28630   1.345   3.110   7.295 -0.0038 -0.2294 -0.0298
 5666SOL    HW128631   1.360   3.204   7.302  0.8197 -0.3843  0.1748
 5666SOL    HW228632   1.259   3.103   7.253 -0.8150  1.6542  1.3389
 5667SOL     OW28633   2.694   0.497   5.152 -0.6510  0.0446  0.3711
 5667SOL    HW128634   2.623   0.557   5.177 -2.7904 -0.8227 -3.7107
 5667SOL    HW228635   2.640   0.444   5.094  0.4333 -0.9057  0.2277
 5668SOL     OW28636   0.167   0.233   9.534  0.5769 -0.6704 -0.0671
 5668SOL    HW128637   0.134   0.168   9.596 -0.4046 -0.1318 -0.0296
 5668SOL    HW228638   0.163   0.310   9.590  1.7494  0.0081 -0.9205
 5669SOL     OW28639   4.315   2.225   5.888  0.4503 -0.0486 -0.4363
 5669SOL    HW128640   4.313   2.221   5.793 -1.2283  1.9466 -0.4666
 5669SOL    HW228641   4.222   2.222   5.909  0.4963 -0.3056 -0.2671
 5670SOL     OW28642   0.607   2.783   1.114  0.2226 -0.4443  0.1294
 5670SOL    HW128643   0.550   2.790   1.191 -0.2005  0.9641 -0.3150
 5670SOL    HW228644   0.555   2.708   1.085 -0.8234  0.5196 -0.4562
 5671SOL     OW28645   1.457   2.277   7.570 -0.6240  0.3876 -0.4526
 5671SOL    HW128646   1.387   2.212   7.562 -0.4320  0.1334 -0.0733
 5671SOL    HW228647   1.440   2.285   7.664  1.2140 -2.2247  0.0956
 5672SOL     OW28648   1.005   1.761   4.484  0.0375 -0.1850 -0.4605
 5672SOL    HW128649   0.975   1.824   4.419  3.4236  1.2757 -0.5960
 5672SOL    HW228650   0.945   1.790   4.552 -0.9233  1.1235 -1.8787
 5673SOL     OW28651   4.501   3.377   7.249 -0.2443  0.1435 -0.3824
 5673SOL    HW128652   4.570   3.403   7.189  4.8831 -2.3449  4.4486
 5673SOL    HW228653   4.491   3.286   7.220 -2.0848  0.0659  0.4354
 5674SOL     OW28654   0.711   1.645   4.375  0.2540 -0.3713  0.0460
 5674SOL    HW128655   0.711   1.552   4.354 -2.4690 -0.1298 -1.0394
 5674SOL    HW228656   0.804   1.663   4.389 -0.1742 -0.1003  2.4728
 5675SOL     OW28657   0.503   3.997   1.139  0.3478 -0.5411 -0.1208
 5675SOL    HW128658   0.507   3.902   1.149 -0.8805 -0.3764  1.9349
 5675SOL    HW228659   0.545   4.026   1.220 -0.0219  2.0930 -0.8869
 5676SOL     OW28660   1.654   1.147   2.962 -0.2288  0.2897 -0.1283
 5676SOL    HW128661   1.615   1.060   2.963  0.6585 -0.1256 -4.3100
 5676SOL    HW228662   1.718   1.136   3.033  1.9396 -0.6720 -2.2365
 5677SOL     OW28663   4.213   1.389   6.948 -0.2917 -0.3789  0.3379
 5677SOL    HW128664   4.165   1.441   6.883  1.2356  1.0599  0.3542
 5677SOL    HW228665   4.282   1.450   6.974  2.2167 -2.3020 -1.7988
 5678SOL     OW28666   0.735   4.183  12.081  0.5957 -0.2224 -0.2729
 5678SOL    HW128667   0.782   4.150  12.005  0.8007  0.3157 -0.3817
 5678SOL    HW228668   0.803   4.227  12.133 -0.6044 -0.5533  1.5839
 5679SOL     OW28669   0.491   1.789   1.328 -0.3036  0.0238  0.4690
 5679SOL    HW128670   0.502   1.793   1.423  1.4622  1.9005  0.1951
 5679SOL    HW228671   0.519   1.699   1.316  1.2245  0.6469 -0.6673
 5680SOL     OW28672   2.899   0.820  14.148  0.1115 -0.3076 -0.1651
 5680SOL    HW128673   2.881   0.889  14.212  0.0773 -0.9823  0.5552
 5680SOL    HW228674   2.901   0.746  14.209  2.5490  0.8805  1.2155
 5681SOL     OW28675   2.565   1.032  15.161 -0.0418  0.3681  0.7693
 5681SOL    HW128676   2.660   1.034  15.164 -0.0333  1.5932 -0.5254
 5681SOL    HW228677   2.534   0.969  15.226 -1.7752  0.2272 -0.1896
 5682SOL     OW28678   1.192   3.890   0.478 -0.1618  0.0607 -0.8843
 5682SOL    HW128679   1.241   3.968   0.454 -1.2264  1.1813  0.6133
 5682SOL    HW228680   1.248   3.825   0.435 -0.3961 -1.8663  1.7020
 5683SOL     OW28681   1.787   2.154   8.934 -0.2093 -0.3348 -0.1840
 5683SOL    HW128682   1.812   2.062   8.943 -1.4289 -0.6930 -0.5529
 5683SOL    HW228683   1.727   2.155   8.860 -1.0674 -1.1787  0.5017
 5684SOL     OW28684   2.067   2.530  16.693  0.1848 -0.2497  0.0116
 5684SOL    HW128685   2.053   2.585  16.616  1.0837  1.2434  0.8996
 5684SOL    HW228686   2.078   2.445  16.652  0.7059 -0.8393  1.3743
 5685SOL     OW28687   0.658   2.373   9.079 -0.2364 -0.2688  0.1691
 5685SOL    HW128688   0.681   2.433   9.008 -0.3348  1.0461  1.2429
 5685SOL    HW228689   0.715   2.299   9.056  3.1842  2.7630 -1.0933
 5686SOL     OW28690   4.001   3.522   5.744 -0.2312  0.7569  0.2484
 5686SOL    HW128691   3.959   3.607   5.749 -1.2301  0.1291  2.5895
 5686SOL    HW228692   4.083   3.545   5.701  0.5338  1.0615  1.8680
 5687SOL     OW28693   1.392   2.010  10.940 -0.2808 -0.2184 -0.2736
 5687SOL    HW128694   1.380   2.044  10.851  1.0755 -0.0686 -0.4100
 5687SOL    HW228695   1.311   1.962  10.950 -0.4318 -0.0828 -0.8190
 5688SOL     OW28696   4.107   0.085   5.619  0.0851 -0.2309 -0.3792
 5688SOL    HW128697   4.028   0.058   5.667 -1.0748  0.2474 -2.0362
 5688SOL    HW228698   4.171   0.017   5.602  1.8470  0.9706  1.3343
 5689SOL     OW28699   2.024   2.991   7.159  0.0299  0.0490 -0.0491
 5689SOL    HW128700   1.949   2.957   7.109  0.9130 -4.1467  1.4488
 5689SOL    HW228701   2.013   3.085   7.142 -0.0527 -0.1775 -1.2931
 5690SOL     OW28702   4.288   1.038   5.254 -0.4253  0.5686 -0.3270
 5690SOL    HW128703   4.269   1.072   5.167 -0.0682  0.9147 -0.2721
 5690SOL    HW228704   4.208   0.986   5.265  1.4869 -2.1518  0.6304
 5691SOL     OW28705   2.248   4.533   4.183  0.3700  0.1901 -0.9560
 5691SOL    HW128706   2.192   4.522   4.260  3.3164  0.6938  1.2322
 5691SOL    HW228707   2.329   4.511   4.230  0.9720 -0.4399 -2.3031
 5692SOL     OW28708   4.712   0.878  11.540 -0.3225  0.5903 -0.3179
 5692SOL    HW128709   4.684   0.876  11.449  0.7798 -0.0126 -0.6461
 5692SOL    HW228710   4.638   0.928  11.574 -0.7491  0.3191 -0.8443
 5693SOL     OW28711   1.609   0.605  14.170 -0.0801 -0.4907  0.2398
 5693SOL    HW128712   1.676   0.544  14.199  0.8251 -0.6121 -2.1081
 5693SOL    HW228713   1.527   0.578  14.212  0.3051  1.1035  2.0054
 5694SOL     OW28714   2.061   1.772   7.296  0.5140  0.1328  0.0857
 5694SOL    HW128715   2.157   1.775   7.303  0.2278  0.6240  3.5365
 5694SOL    HW228716   2.049   1.720   7.216  2.2247  0.3251 -0.3060
 5695SOL     OW28717   0.799   0.470   5.227  0.1438  0.0997 -0.3560
 5695SOL    HW128718   0.844   0.404   5.174 -1.5338 -0.5193 -0.9938
 5695SOL    HW228719   0.856   0.546   5.218  0.6226 -0.4414 -1.9462
 5696SOL     OW28720   1.351   0.295  17.500  0.6197  0.0853  0.1695
 5696SOL    HW128721   1.411   0.352  17.453 -0.3105 -1.4490 -2.8938
 5696SOL    HW228722   1.271   0.317  17.451  1.1956  1.3891 -0.1812
 5697SOL     OW28723   0.720   1.479   5.199  0.1294  0.4615  0.3342
 5697SOL    HW128724   0.626   1.489   5.183  0.2014 -0.6468 -0.7666
 5697SOL    HW228725   0.720   1.387   5.224  2.7285  0.2314 -0.5160
 5698SOL     OW28726   4.369   0.662   4.341  0.4273  0.4488  0.1216
 5698SOL    HW128727   4.360   0.757   4.353 -0.6750  0.4844 -1.0462
 5698SOL    HW228728   4.402   0.628   4.424 -2.0201 -0.0622  0.8798
 5699SOL     OW28729   4.465   3.593   4.830 -0.9257  0.3660 -0.3671
 5699SOL    HW128730   4.495   3.608   4.740  0.3016 -0.2958 -0.0763
 5699SOL    HW228731   4.395   3.657   4.842  0.5526  2.0372 -0.6356
 5700SOL     OW28732   4.292   1.798   2.508 -0.0960 -0.1563 -0.3504
 5700SOL    HW128733   4.217   1.813   2.451 -0.3093 -1.6431 -0.4594
 5700SOL    HW228734   4.290   1.871   2.570 -2.1924 -1.0603  0.6427
 5701SOL     OW28735   4.404   0.293   1.757 -0.3162  0.0304 -0.3787
 5701SOL    HW128736   4.351   0.345   1.818  2.3455  2.8608 -0.4591
 5701SOL    HW228737   4.394   0.342   1.675  0.0142  1.1621  0.2545
 5702SOL     OW28738   4.087   4.355   4.296 -0.5386 -1.0051 -0.1033
 5702SOL    HW128739   4.029   4.294   4.250 -0.1778 -0.4615 -1.3080
 5702SOL    HW228740   4.141   4.395   4.227 -0.1034  0.9603  1.3954
 5703SOL     OW28741   1.379   3.222   6.946  0.3383 -0.4234  0.2428
 5703SOL    HW128742   1.460   3.230   6.895 -0.9495  0.8620 -1.5957
 5703SOL    HW228743   1.367   3.129   6.965  3.4031 -0.8784 -0.0527
 5704SOL     OW28744   0.699   4.134   7.694 -0.0451  0.1431  0.7890
 5704SOL    HW128745   0.673   4.108   7.782 -1.3755  1.9040  0.9333
 5704SOL    HW228746   0.666   4.224   7.696 -0.4844 -0.0322  1.1639
 5705SOL     OW28747   0.065   2.520   9.067 -0.2468  0.3595 -0.5354
 5705SOL    HW128748   0.092   2.603   9.106  0.9811 -0.2758 -0.0481
 5705SOL    HW228749   0.104   2.449   9.118 -0.2700  1.3068  0.7769
 5706SOL     OW28750   3.721   1.897   0.900  0.0053 -0.2778  0.0918
 5706SOL    HW128751   3.784   1.876   0.832 -1.0226 -1.1506 -0.5865
 5706SOL    HW228752   3.689   1.808   0.912  0.3754 -0.1903  1.7820
 5707SOL     OW28753   2.697   2.908   5.107 -0.1700  0.7727 -0.5367
 5707SOL    HW128754   2.779   2.956   5.113  0.0863  0.2048  0.3421
 5707SOL    HW228755   2.642   2.979   5.139  2.1791  1.9878  0.7781
 5708SOL     OW28756   0.727   2.970   9.063 -0.1916  0.0811  0.3606
 5708SOL    HW128757   0.691   2.909   8.999 -0.5088  0.3756  0.2564
 5708SOL    HW228758   0.776   2.909   9.118  0.4173  0.6079  0.3969
 5709SOL     OW28759   1.970   0.926   5.440 -0.5428 -0.0288  0.0946
 5709SOL    HW128760   2.017   0.847   5.469 -0.8787 -0.0204  0.6735
 5709SOL    HW228761   1.880   0.891   5.441 -1.3138  1.9729  0.9787
 5710SOL     OW28762   1.871   3.571   2.389 -0.0473 -0.4051 -0.1053
 5710SOL    HW128763   1.896   3.580   2.481 -2.1352  0.7583  0.3486
 5710SOL    HW228764   1.950   3.522   2.364  0.2533 -0.6078  1.2766
 5711SOL     OW28765   0.713   0.537   1.860 -0.0790  0.1491 -0.3129
 5711SOL    HW128766   0.640   0.561   1.802 -0.1540 -0.7400 -0.5873
 5711SOL    HW228767   0.685   0.573   1.944  0.5843  1.4229 -0.6340
 5712SOL     OW28768   3.757   3.231  13.957 -0.3232 -0.5532  0.3016
 5712SOL    HW128769   3.829   3.271  14.006 -1.6449  0.5249  1.3732
 5712SOL    HW228770   3.737   3.308  13.904  0.1281 -1.6827 -1.4980
 5713SOL     OW28771   1.393   3.046  16.270  0.5053  0.5121  0.0265
 5713SOL    HW128772   1.473   3.098  16.279  1.0942 -0.4026  0.1510
 5713SOL    HW228773   1.426   2.956  16.279  0.5940  0.3968 -1.4019
 5714SOL     OW28774   4.138   1.958   7.506  0.2626 -0.0724  0.0989
 5714SOL    HW128775   4.201   1.908   7.454  1.2589  0.3015  0.9549
 5714SOL    HW228776   4.056   1.926   7.468  1.8159 -2.5670 -1.1345
 5715SOL     OW28777   1.913   0.575  16.669 -0.1679  0.0663 -0.0557
 5715SOL    HW128778   1.994   0.557  16.623  0.8080 -0.7690  1.9864
 5715SOL    HW228779   1.855   0.570  16.593  0.4949 -1.4282 -0.4567
 5716SOL     OW28780   0.671   0.424  13.739 -0.4859 -0.4503 -0.0081
 5716SOL    HW128781   0.579   0.416  13.714 -0.9797  2.0919  0.9647
 5716SOL    HW228782   0.719   0.466  13.667 -0.4008  0.1636  0.4013
 5717SOL     OW28783   4.306   4.207   5.397 -0.4188  0.1284  0.5852
 5717SOL    HW128784   4.306   4.243   5.308 -0.1611 -0.2364  0.4409
 5717SOL    HW228785   4.294   4.113   5.383  1.2853 -0.1295  0.8425
 5718SOL     OW28786   4.401   3.030   8.337  0.4833 -0.7050 -0.3392
 5718SOL    HW128787   4.369   3.096   8.399  0.4532 -1.0289 -0.0065
 5718SOL    HW228788   4.494   3.016   8.355  1.1491  1.7720 -1.9539
 5719SOL     OW28789   3.661   2.733   7.605  1.0412  0.2584  0.0359
 5719SOL    HW128790   3.743   2.701   7.566  1.5961  1.7593 -0.0301
 5719SOL    HW228791   3.693   2.757   7.693 -0.3018  1.3809  0.2077
 5720SOL     OW28792   3.994   0.989   4.517 -0.2923 -0.5286  0.1164
 5720SOL    HW128793   3.904   1.005   4.489 -0.2511 -1.9044 -0.7765
 5720SOL    HW228794   3.981   1.010   4.609 -1.9424  2.6284 -0.8479
 5721SOL     OW28795   1.290   4.187   8.886  0.2249 -0.1765  0.4984
 5721SOL    HW128796   1.312   4.105   8.841 -1.0514 -0.9835  1.3283
 5721SOL    HW228797   1.207   4.214   8.847 -0.7526 -1.7887  1.4484
 5722SOL     OW28798   2.132   2.625   3.298 -0.4369  0.0686 -0.4210
 5722SOL    HW128799   2.112   2.598   3.208 -1.8646 -2.5258  0.6932
 5722SOL    HW228800   2.216   2.580   3.306 -0.4612 -0.1776 -1.5790
 5723SOL     OW28801   0.142   2.409  16.995 -0.8340 -0.1742  0.3921
 5723SOL    HW128802   0.065   2.355  16.974 -0.0049 -1.2472  0.1191
 5723SOL    HW228803   0.138   2.481  16.933  1.5036  1.9367  2.7536
 5724SOL     OW28804   2.995   2.464   8.074 -0.4155  0.1712  0.2910
 5724SOL    HW128805   3.072   2.506   8.113 -0.8407  0.8104  0.4445
 5724SOL    HW228806   3.003   2.501   7.986 -1.5116  0.3704  0.2760
 5725SOL     OW28807   0.680   3.520   1.138  0.1638 -0.2281  0.0285
 5725SOL    HW128808   0.658   3.457   1.069 -0.3509 -2.4440  2.2523
 5725SOL    HW228809   0.763   3.488   1.173  0.0543 -1.3366 -0.7124
 5726SOL     OW28810   0.072   1.911   9.151 -0.3309  0.6034  0.2377
 5726SOL    HW128811   0.106   2.000   9.159  0.6544  0.0514  2.2587
 5726SOL    HW228812   0.079   1.897   9.057  1.4990  1.6103  0.2264
 5727SOL     OW28813   1.569   0.180   2.516  0.6063  0.1836  0.0869
 5727SOL    HW128814   1.607   0.261   2.551  0.3533 -0.6614  2.2885
 5727SOL    HW228815   1.647   0.132   2.491 -0.1718 -0.9384 -0.1677
 5728SOL     OW28816   3.656   1.394   6.607 -0.1069 -0.6790  0.2552
 5728SOL    HW128817   3.583   1.443   6.570 -0.7202 -1.4539  0.4645
 5728SOL    HW228818   3.639   1.411   6.700 -0.9067 -2.9886  0.5160
 5729SOL     OW28819   2.792   1.547  14.055 -0.2744  0.4258 -0.1258
 5729SOL    HW128820   2.798   1.637  14.023 -0.0382 -0.2152 -1.8711
 5729SOL    HW228821   2.697   1.541  14.066 -0.1431 -0.1370  0.7044
 5730SOL     OW28822   1.245   3.601   7.204 -0.0995 -0.4896  0.3241
 5730SOL    HW128823   1.266   3.630   7.115 -1.2779 -0.3077  0.1093
 5730SOL    HW228824   1.236   3.685   7.249 -0.2313 -0.3594  0.0499
 5731SOL     OW28825   2.606   1.806   8.708 -0.2808  0.0583 -0.1045
 5731SOL    HW128826   2.581   1.721   8.673 -0.0369  0.8341 -2.1693
 5731SOL    HW228827   2.593   1.783   8.800 -1.4510 -0.3128 -0.3645
 5732SOL     OW28828   3.074   2.375   2.273  0.0002  0.2720  0.1892
 5732SOL    HW128829   3.127   2.412   2.343  2.0841  0.5819 -1.5569
 5732SOL    HW228830   3.141   2.348   2.209 -0.4318 -2.7795  1.0032
 5733SOL     OW28831   1.882   4.717   5.181 -0.4114  0.2364 -0.1503
 5733SOL    HW128832   1.893   0.064   5.141  1.4379  0.5806  1.1137
 5733SOL    HW228833   1.968   4.678   5.171 -0.5258  0.0722 -0.5026
 5734SOL     OW28834   2.717   3.159   7.632  0.0426 -0.2238 -0.2039
 5734SOL    HW128835   2.645   3.105   7.665 -0.9518  2.5596  2.2681
 5734SOL    HW228836   2.718   3.129   7.542  1.0043  1.6920 -0.8428
 5735SOL     OW28837   2.645   2.725   1.950  0.6026 -0.6082  0.4423
 5735SOL    HW128838   2.630   2.632   1.934  0.5858 -0.6541  0.7277
 5735SOL    HW228839   2.717   2.709   2.011 -1.7026 -3.5897  2.3722
 5736SOL     OW28840   1.659   1.375   9.051  0.3100  0.1775 -0.0022
 5736SOL    HW128841   1.565   1.372   9.037  0.3651  0.5288 -0.4204
 5736SOL    HW228842   1.690   1.379   8.961 -1.4753 -1.3057 -0.6918
 5737SOL     OW28843   3.138   4.407   8.796 -0.0789  0.2652  0.1054
 5737SOL    HW128844   3.157   4.489   8.842 -2.3740  0.8884 -0.0539
 5737SOL    HW228845   3.216   4.358   8.822 -1.6466 -2.5499 -0.5116
 5738SOL     OW28846   4.223   1.713  12.421 -0.5054 -0.4480  0.4358
 5738SOL    HW128847   4.266   1.770  12.357  2.4995 -0.8120  2.1054
 5738SOL    HW228848   4.138   1.757  12.425 -0.1634  0.1894  0.6334
 5739SOL     OW28849   3.849   0.869   6.502  0.0920 -0.4658  0.0862
 5739SOL    HW128850   3.769   0.904   6.465  0.1449 -0.0517  0.3655
 5739SOL    HW228851   3.903   0.948   6.506 -1.1858  0.4431 -0.8333
 5740SOL     OW28852   4.482   3.442   3.841 -0.0482 -0.4233  0.0477
 5740SOL    HW128853   4.419   3.375   3.813  0.9663 -1.2903 -0.1749
 5740SOL    HW228854   4.555   3.419   3.784 -0.7253 -0.9731 -0.6126
 5741SOL     OW28855   4.124   1.212   6.656  0.3859 -0.1957  0.1856
 5741SOL    HW128856   4.100   1.128   6.618  0.7141  0.1500 -0.8016
 5741SOL    HW228857   4.069   1.276   6.609 -1.7086 -4.2045 -2.8165
 5742SOL     OW28858   4.420   2.985   5.198 -0.0071  0.6258 -0.1815
 5742SOL    HW128859   4.490   2.987   5.132  2.5966  2.2808  2.6399
 5742SOL    HW228860   4.373   2.903   5.188  1.2187 -0.0620 -0.2616
 5743SOL     OW28861   0.888   1.316   2.624 -0.4890 -0.2570 -0.0199
 5743SOL    HW128862   0.876   1.255   2.697  0.4020 -0.7481 -0.2844
 5743SOL    HW228863   0.980   1.294   2.607 -0.4849 -1.6035  1.7442
 5744SOL     OW28864   4.216   3.359   7.595  0.0527  0.2976 -0.8626
 5744SOL    HW128865   4.307   3.368   7.623 -0.0723  1.3180 -0.8038
 5744SOL    HW228866   4.201   3.269   7.625 -0.5106  1.2343  1.6185
 5745SOL     OW28867   1.886   0.316   3.248  0.2912  0.1350 -0.6893
 5745SOL    HW128868   1.957   0.379   3.264 -0.9679  1.6697 -1.1731
 5745SOL    HW228869   1.931   0.233   3.235 -0.4744 -0.4465  0.4213
 5746SOL     OW28870   0.899   4.685   8.058 -0.3365 -0.4305 -0.4201
 5746SOL    HW128871   0.915   4.590   8.055  3.4875  0.2654 -1.2947
 5746SOL    HW228872   0.965   4.722   8.116  0.4028 -2.7492  0.2158
 5747SOL     OW28873   4.589   0.554   6.647  0.7190  0.2407  0.4594
 5747SOL    HW128874   4.677   0.591   6.657 -0.3909  2.6248  1.2614
 5747SOL    HW228875   4.543   0.638   6.643  1.4280  0.7370  2.8821
 5748SOL     OW28876   3.904   1.134   6.814 -0.8143  0.2274  0.4935
 5748SOL    HW128877   3.959   1.196   6.765 -1.0445  0.6861  0.8241
 5748SOL    HW228878   3.918   1.171   6.901 -0.0873  1.5168 -0.1782
 5749SOL     OW28879   4.622   3.878   7.371 -0.0385 -0.0272 -0.5484
 5749SOL    HW128880   4.527   3.884   7.378  0.3069  3.2247  1.3906
 5749SOL    HW228881   4.637   3.941   7.300 -0.5784 -0.3036 -0.9040
 5750SOL     OW28882   4.554   3.937  12.719  0.8962 -0.1738 -0.5816
 5750SOL    HW128883   4.563   3.843  12.705 -1.6012 -0.2299 -1.7823
 5750SOL    HW228884   4.459   3.941  12.714  0.8741  1.0013  0.6021
 5751SOL     OW28885   1.983   4.393   8.146 -0.3329 -0.2460  0.2032
 5751SOL    HW128886   1.941   4.307   8.155  0.2242 -0.2616  2.5056
 5751SOL    HW228887   1.981   4.423   8.236 -1.6157  2.1014 -0.6109
 5752SOL     OW28888   4.161   2.759   7.139 -0.2622  0.2287  0.3538
 5752SOL    HW128889   4.149   2.853   7.150 -2.0491  0.0244  0.1071
 5752SOL    HW228890   4.159   2.742   7.233  2.4437 -0.3438  0.3214
 5753SOL     OW28891   1.233   1.685   5.531  0.2189  0.2768  0.3419
 5753SOL    HW128892   1.254   1.748   5.462  0.7737  0.3695  0.5947
 5753SOL    HW228893   1.321   1.667   5.562  0.5465  1.4054  0.0617
 5754SOL     OW28894   3.900   3.742   5.403  0.7293 -0.0892  0.1551
 5754SOL    HW128895   3.891   3.690   5.323 -2.3323 -1.8846  1.6662
 5754SOL    HW228896   3.884   3.672   5.468 -1.1158  2.1294  2.0775
 5755SOL     OW28897   3.179   1.149   8.655 -0.0247  0.2095 -0.2499
 5755SOL    HW128898   3.271   1.127   8.670  0.4273  0.6860 -2.2990
 5755SOL    HW228899   3.149   1.118   8.741  0.2666  0.1537 -0.1701
 5756SOL     OW28900   4.234   1.378   2.829  0.7760  0.8216 -0.0583
 5756SOL    HW128901   4.270   1.435   2.760 -0.2258  1.6980  0.1458
 5756SOL    HW228902   4.183   1.316   2.777 -1.7432  1.1422  2.0388
 5757SOL     OW28903   1.873   0.199   6.649  0.1362 -0.1484  0.3296
 5757SOL    HW128904   1.790   0.153   6.658 -0.0513 -0.3306 -2.3728
 5757SOL    HW228905   1.850   0.286   6.681 -1.1221 -0.6040  0.6733
 5758SOL     OW28906   1.738   1.826   3.822 -0.3401 -0.6389  0.5383
 5758SOL    HW128907   1.790   1.747   3.837  0.7824  0.1481  0.7729
 5758SOL    HW228908   1.800   1.897   3.837  0.8141 -1.7147  0.8573
 5759SOL     OW28909   3.447   0.340  16.406 -0.5797 -0.5158  0.2897
 5759SOL    HW128910   3.503   0.348  16.328 -0.2788  2.2869  0.7844
 5759SOL    HW228911   3.364   0.381  16.381  0.0277 -0.9053 -2.3613
 5760SOL     OW28912   1.740   0.893  13.429 -0.5118  0.3873  0.0543
 5760SOL    HW128913   1.782   0.840  13.497  0.0196  1.9016  0.9085
 5760SOL    HW228914   1.786   0.975  13.411 -0.3511  0.3846  0.4585
 5761SOL     OW28915   0.361   3.927   6.109  0.0951 -0.3858 -0.1891
 5761SOL    HW128916   0.356   3.891   6.197  0.4022  0.1774  0.0628
 5761SOL    HW228917   0.270   3.956   6.111  0.8322  1.8484  1.7266
 5762SOL     OW28918   2.094   3.687   6.777  1.0478 -0.1907  0.7007
 5762SOL    HW128919   2.066   3.608   6.822 -1.0525 -0.4642 -1.0732
 5762SOL    HW228920   2.124   3.743   6.849  1.8991  2.0471 -1.3638
 5763SOL     OW28921   4.238   2.863   2.475  0.4930 -0.2344 -0.0025
 5763SOL    HW128922   4.144   2.868   2.457  0.0045 -4.1649  1.4585
 5763SOL    HW228923   4.263   2.812   2.398 -0.6599 -1.5353  0.4973
 5764SOL     OW28924   0.986   2.121  16.154 -0.0920 -0.0098 -0.0340
 5764SOL    HW128925   0.909   2.065  16.151  0.0770 -0.3078  1.2551
 5764SOL    HW228926   0.951   2.210  16.152 -0.7177 -0.2852 -2.0825
 5765SOL     OW28927   4.217   0.965   8.126 -0.2599  0.4453 -0.9824
 5765SOL    HW128928   4.166   0.963   8.207 -0.9331  0.2155 -1.4119
 5765SOL    HW228929   4.285   1.024   8.159 -0.1051  1.4199 -3.0090
 5766SOL     OW28930   1.664   2.515  13.998  0.5851 -0.4251 -0.3129
 5766SOL    HW128931   1.570   2.511  13.980  0.9303  1.2949 -2.4036
 5766SOL    HW228932   1.669   2.425  14.032 -1.5772 -1.1498 -1.9112
 5767SOL     OW28933   4.422   0.103   5.203  0.3001 -0.0701 -0.3271
 5767SOL    HW128934   4.477   0.112   5.125 -1.0262 -0.1111 -1.2654
 5767SOL    HW228935   4.367   0.180   5.189  0.1114 -0.2149 -0.3844
 5768SOL     OW28936   0.478   1.635   0.745  0.0040 -0.4854  0.4897
 5768SOL    HW128937   0.502   1.727   0.757  0.2533 -0.0730 -3.2474
 5768SOL    HW228938   0.414   1.640   0.675  0.2857 -0.4312  0.2335
 5769SOL     OW28939   2.531   4.298   4.068 -0.4630 -0.1494 -0.1727
 5769SOL    HW128940   2.616   4.256   4.074 -1.3139 -1.8253  0.2065
 5769SOL    HW228941   2.492   4.263   4.149 -1.3824  0.4606 -0.3462
 5770SOL     OW28942   4.365   1.148   2.199 -0.3762  0.3017  0.1955
 5770SOL    HW128943   4.288   1.203   2.187 -0.9990 -0.7989 -0.9197
 5770SOL    HW228944   4.415   1.178   2.123  0.4532  0.0194  0.6257
 5771SOL     OW28945   4.121   0.143   5.067  0.1737  0.8034 -0.0273
 5771SOL    HW128946   4.030   0.122   5.045  1.2975 -1.6188 -2.3206
 5771SOL    HW228947   4.122   0.136   5.163 -0.4304 -1.4834 -0.1797
 5772SOL     OW28948   1.437   0.086  15.335 -0.0510 -0.0250 -0.0718
 5772SOL    HW128949   1.363   0.144  15.314 -0.7242 -0.7531  0.2691
 5772SOL    HW228950   1.512   0.146  15.339 -1.3452  1.5202  1.4014
 5773SOL     OW28951   4.298   1.977   0.865 -0.0424  0.3303 -0.4449
 5773SOL    HW128952   4.241   1.943   0.796 -1.1420 -1.6613  1.4200
 5773SOL    HW228953   4.382   1.961   0.823 -1.0042 -2.2350 -1.4062
 5774SOL     OW28954   4.313   1.006   5.823 -0.3886  0.0313  0.2200
 5774SOL    HW128955   4.318   1.007   5.728  1.5806 -0.0633  0.3150
 5774SOL    HW228956   4.309   1.099   5.843  0.8705 -0.0314  0.7633
 5775SOL     OW28957   2.763   1.076  12.095 -0.1144 -0.2411  0.0052
 5775SOL    HW128958   2.732   0.999  12.143 -2.3776  2.8890  3.5408
 5775SOL    HW228959   2.809   1.124  12.165 -1.0745  0.1807  0.3456
 5776SOL     OW28960   0.526   2.897   2.158 -0.2610 -0.1255  0.2274
 5776SOL    HW128961   0.472   2.847   2.219 -0.9287  1.0498  0.5962
 5776SOL    HW228962   0.476   2.978   2.149  1.1311  0.7454  0.4587
 5777SOL     OW28963   0.246   0.945   0.022 -0.4293  0.7849  0.7408
 5777SOL    HW128964   0.238   0.943   0.117  2.2454 -0.0290  0.9598
 5777SOL    HW228965   0.290   0.862   0.006  0.4104  1.5037 -0.6575
 5778SOL     OW28966   1.219   2.429  16.398  0.2833 -0.3854  0.2355
 5778SOL    HW128967   1.136   2.380  16.394  0.4499 -0.7098  0.6991
 5778SOL    HW228968   1.189   2.513  16.365  1.9540  0.6478  1.3551
 5779SOL     OW28969   4.090   0.211   5.369  0.1509 -0.0688  0.1095
 5779SOL    HW128970   4.158   0.269   5.402 -1.7359  1.2043  1.7073
 5779SOL    HW228971   4.052   0.184   5.452 -0.7091  1.5176  0.2150
 5780SOL     OW28972   4.619   1.676   0.980 -0.5420  0.3885  0.6443
 5780SOL    HW128973   4.582   1.743   1.037  1.3907 -0.4473  2.9061
 5780SOL    HW228974   4.695   1.717   0.938 -0.2363 -0.2737  0.5505
 5781SOL     OW28975   0.830   3.801   8.624 -0.7341 -0.5229  0.2029
 5781SOL    HW128976   0.750   3.778   8.670 -0.0587 -3.7433 -0.2309
 5781SOL    HW228977   0.861   3.882   8.665 -2.7052  0.2177  0.2409
 5782SOL     OW28978   2.822   1.114  13.641 -0.1257  0.2812  0.2274
 5782SOL    HW128979   2.733   1.129  13.674 -0.7794  2.0814 -2.3994
 5782SOL    HW228980   2.796   1.067  13.562 -1.1817  1.8505 -0.3648
 5783SOL     OW28981   1.585   1.431  17.271  0.2309 -0.0627  0.5015
 5783SOL    HW128982   1.656   1.372  17.247  0.6955  0.3403  0.9041
 5783SOL    HW228983   1.596   1.514  17.226 -0.0882 -0.0966  0.3560
 5784SOL     OW28984   2.934   3.097  12.485 -0.1543  0.0599 -0.0763
 5784SOL    HW128985   2.984   3.044  12.548 -1.0527  1.2371  1.6382
 5784SOL    HW228986   2.865   3.031  12.479  1.0898 -1.3726  1.2885
 5785SOL     OW28987   4.557   2.926  12.583  0.2615 -0.2833  0.3542
 5785SOL    HW128988   4.485   2.985  12.561  0.2591  0.0439  1.2435
 5785SOL    HW228989   4.582   2.895  12.496 -1.9139 -1.3707  0.1268
 5786SOL     OW28990   0.395   2.625   1.743 -0.0210  0.1790 -0.6719
 5786SOL    HW128991   0.450   2.692   1.781  1.8596 -1.2416 -0.8926
 5786SOL    HW228992   0.449   2.546   1.733 -2.0615 -1.1576 -1.2742
 5787SOL     OW28993   3.360   1.509   2.761  0.3165 -0.4375  0.2669
 5787SOL    HW128994   3.269   1.506   2.793 -0.3956 -0.4183 -1.7389
 5787SOL    HW228995   3.368   1.418   2.732 -1.1929  0.5958 -3.3495
 5788SOL     OW28996   2.944   4.526   5.150 -0.1986 -0.1360  0.0744
 5788SOL    HW128997   2.870   4.482   5.108  1.4838 -0.4574 -2.5500
 5788SOL    HW228998   2.999   4.537   5.072 -1.4000 -2.0853 -1.0644
 5789SOL     OW28999   1.772   2.996   1.153 -0.4212 -0.5395  0.2395
 5789SOL    HW129000   1.823   2.957   1.082  2.0774  1.1065  1.1265
 5789SOL    HW229001   1.797   3.088   1.147 -1.0997 -0.5019 -1.8558
 5790SOL     OW29002   2.422   3.696   2.041  1.1416  0.1437  0.2805
 5790SOL    HW129003   2.336   3.719   2.077  1.7132  2.6321  0.1080
 5790SOL    HW229004   2.420   3.601   2.031 -1.1456  0.1014  1.1639
 5791SOL     OW29005   1.303   2.520   8.861 -0.0893 -0.0780  0.2244
 5791SOL    HW129006   1.359   2.452   8.897  1.3006  2.0307  1.9999
 5791SOL    HW229007   1.366   2.589   8.881 -0.5905  0.3603  0.3095
 5792SOL     OW29008   2.232   3.177   1.874  0.1933 -0.0808  0.6656
 5792SOL    HW129009   2.324   3.155   1.882 -0.1537 -0.9978  2.2052
 5792SOL    HW229010   2.232   3.232   1.796 -0.4786 -1.5002 -0.3491
 5793SOL     OW29011   1.578   3.535  16.229 -0.1151  0.1866  0.6836
 5793SOL    HW129012   1.563   3.594  16.303 -0.9150  0.8236  0.0198
 5793SOL    HW229013   1.649   3.573  16.177  0.8576 -2.0069  0.4168
 5794SOL     OW29014   1.985   0.400   1.727 -0.0688 -0.5291 -0.0559
 5794SOL    HW129015   2.020   0.473   1.676  1.7425 -1.2111  0.1920
 5794SOL    HW229016   1.997   0.328   1.665 -0.2659 -1.7234  1.2978
 5795SOL     OW29017   0.083   1.827   8.869  0.3158 -0.2847  0.2519
 5795SOL    HW129018   0.025   1.751   8.858 -0.7238  0.9488 -2.7036
 5795SOL    HW229019   0.134   1.814   8.789  0.1169 -1.0016  0.2388
 5796SOL     OW29020   1.782   0.849  16.970  0.0891  0.2677  0.5364
 5796SOL    HW129021   1.840   0.906  16.919  1.5324 -1.1179  0.6208
 5796SOL    HW229022   1.831   0.767  16.966 -2.1296 -1.0405  0.9028
 5797SOL     OW29023   3.079   4.173  11.473 -0.2312 -0.7089  0.2292
 5797SOL    HW129024   3.108   4.127  11.552  1.2239  0.6929  0.5176
 5797SOL    HW229025   3.006   4.118  11.443  2.0084 -4.0875  0.9730
 5798SOL     OW29026   1.346   3.131  12.548 -0.0948 -0.2856 -0.1021
 5798SOL    HW129027   1.408   3.195  12.584 -1.5812 -0.0343  2.0166
 5798SOL    HW229028   1.383   3.043  12.540  2.8084  0.8442  0.8983
 5799SOL     OW29029   0.488   1.449   7.204 -0.1192 -0.5240  0.1871
 5799SOL    HW129030   0.453   1.527   7.248  0.6682  0.8448 -1.6469
 5799SOL    HW229031   0.468   1.380   7.267  1.4339  0.0123  1.2607
 5800SOL     OW29032   4.204   3.836   3.749 -0.5555  0.3323  0.5855
 5800SOL    HW129033   4.258   3.806   3.823 -1.6571 -0.2676  1.1429
 5800SOL    HW229034   4.249   3.918   3.729 -0.2136  0.2277  0.9284
 5801SOL     OW29035   1.807   1.056   8.083 -0.6801 -0.4089  0.1054
 5801SOL    HW129036   1.792   1.065   7.989 -0.8550  0.3311  0.2081
 5801SOL    HW229037   1.789   1.142   8.120  0.1727  0.6673 -1.9686
 5802SOL     OW29038   0.866   2.978   0.736  0.5247  0.3624  0.1267
 5802SOL    HW129039   0.908   3.024   0.664  0.5155 -0.4641 -0.4143
 5802SOL    HW229040   0.804   3.040   0.776 -1.2094 -2.5338  1.9333
 5803SOL     OW29041   0.318   3.537  11.873 -0.0895 -0.2365  0.1299
 5803SOL    HW129042   0.270   3.543  11.790  0.1699 -0.3527 -0.0282
 5803SOL    HW229043   0.384   3.603  11.855  0.0692 -0.4423 -0.0448
 5804SOL     OW29044   4.422   0.961  12.147 -0.3263  0.3929  0.0108
 5804SOL    HW129045   4.345   1.003  12.186 -1.7810 -2.5752  0.3675
 5804SOL    HW229046   4.409   0.868  12.165 -1.3703  0.3216 -1.1443
 5805SOL     OW29047   0.436   3.289   1.295 -0.4013  0.1120 -0.1834
 5805SOL    HW129048   0.398   3.287   1.383  2.1104  2.0106  0.9702
 5805SOL    HW229049   0.514   3.234   1.306  0.1081  0.6839 -0.9490
 5806SOL     OW29050   2.566   2.186   4.945 -0.0550  0.4998  0.1670
 5806SOL    HW129051   2.514   2.131   5.004  0.2341 -1.4617 -1.4272
 5806SOL    HW229052   2.623   2.239   5.001 -1.8598  1.0193  1.5135
 5807SOL     OW29053   3.200   4.396  17.365  0.2154 -0.5200 -0.8328
 5807SOL    HW129054   3.150   4.323  17.400  0.3849  0.9543  2.5211
 5807SOL    HW229055   3.285   4.351  17.361 -1.2054 -3.2455  0.3719
 5808SOL     OW29056   2.841   1.655   5.622 -0.1958 -0.4549 -0.0284
 5808SOL    HW129057   2.883   1.680   5.704  0.9037 -0.6738 -0.5236
 5808SOL    HW229058   2.757   1.700   5.625 -0.8798 -1.6652 -1.1857
 5809SOL     OW29059   2.475   3.710   9.395  0.3208 -0.5643 -1.0327
 5809SOL    HW129060   2.480   3.784   9.456  1.2057  0.7894 -2.7681
 5809SOL    HW229061   2.379   3.703   9.388  0.3848 -0.7464 -1.7237
 5810SOL     OW29062   2.522   2.898   9.358 -0.8429 -0.0801  0.0480
 5810SOL    HW129063   2.575   2.873   9.434 -1.6504 -2.4571 -0.1791
 5810SOL    HW229064   2.571   2.972   9.323  0.0511 -0.5122  0.3842
 5811SOL     OW29065   1.175   4.568  15.894  0.3724 -0.5305 -0.0574
 5811SOL    HW129066   1.139   4.515  15.965 -0.6649  1.1326  0.6655
 5811SOL    HW229067   1.111   4.546  15.826  1.2345 -3.0753 -0.0373
 5812SOL     OW29068   1.290   0.276   8.261  0.2251 -0.4595 -0.3063
 5812SOL    HW129069   1.258   0.365   8.245 -1.3250 -1.1646 -1.1636
 5812SOL    HW229070   1.248   0.241   8.183  3.0392 -2.2057 -1.0284
 5813SOL     OW29071   1.795   1.387   4.352  0.2743  0.0948  0.1232
 5813SOL    HW129072   1.762   1.305   4.389 -0.8480 -0.7217 -2.6987
 5813SOL    HW229073   1.730   1.454   4.371 -1.0089 -0.9177 -0.7343
 5814SOL     OW29074   3.000   2.566   7.838 -0.5321 -0.1845 -0.1230
 5814SOL    HW129075   2.935   2.559   7.768 -0.6104 -0.4791 -0.0200
 5814SOL    HW229076   3.074   2.527   7.791 -1.0179  0.2900 -1.3060
 5815SOL     OW29077   0.270   3.152   7.611  0.2582 -0.3375  0.1585
 5815SOL    HW129078   0.357   3.128   7.643  0.3654  0.6243  0.5959
 5815SOL    HW229079   0.284   3.158   7.516  0.7677  0.2286  0.2628
 5816SOL     OW29080   0.730   0.422  16.320  0.1808  0.0073 -0.3979
 5816SOL    HW129081   0.784   0.484  16.270  0.7093 -0.2411 -0.1388
 5816SOL    HW229082   0.774   0.442  16.402 -0.2232  1.4508 -0.5320
 5817SOL     OW29083   1.958   1.991   3.911 -0.9777 -0.1746 -0.2686
 5817SOL    HW129084   1.919   1.982   3.998 -0.0769 -3.5043 -0.2226
 5817SOL    HW229085   2.043   1.949   3.922 -1.7701 -1.1306  2.2771
 5818SOL     OW29086   4.508   2.086   7.882 -0.0901  0.0998  0.2105
 5818SOL    HW129087   4.542   2.151   7.821 -0.4199  2.3969  2.4976
 5818SOL    HW229088   4.592   2.041   7.890  0.8736  1.9654  0.3337
 5819SOL     OW29089   3.892   3.520   2.433  0.0090 -0.1814 -0.6462
 5819SOL    HW129090   3.862   3.602   2.393  0.2271  0.9476  1.4966
 5819SOL    HW229091   3.806   3.481   2.449  0.6213 -2.0431 -1.9730
 5820SOL     OW29092   3.339   4.028  11.342  0.4637  0.3369 -0.0128
 5820SOL    HW129093   3.331   4.077  11.260 -1.1710 -1.0740 -0.6912
 5820SOL    HW229094   3.326   4.085  11.418  2.2010  1.1855 -0.3482
 5821SOL     OW29095   4.436   2.660   0.658  0.0090 -0.2681  0.0667
 5821SOL    HW129096   4.449   2.609   0.579 -0.9897 -0.3731 -0.0256
 5821SOL    HW229097   4.482   2.610   0.726  0.6597  0.2471  0.0067
 5822SOL     OW29098   1.042   1.963  14.418  0.0929 -0.4834 -0.1592
 5822SOL    HW129099   1.117   1.974  14.360  2.3529 -3.0419  2.3124
 5822SOL    HW229100   1.081   1.987  14.502  0.9782  2.1855 -1.3229
 5823SOL     OW29101   1.800   1.549   9.866 -0.1944 -0.5321  0.3915
 5823SOL    HW129102   1.825   1.599   9.944  2.4481 -0.4514 -0.5355
 5823SOL    HW229103   1.770   1.470   9.911  0.9619 -1.1969 -0.0056
 5824SOL     OW29104   0.008   0.482   8.958  0.1846 -0.7425  0.2131
 5824SOL    HW129105   4.697   0.563   8.945  0.2124 -0.0171  4.6787
 5824SOL    HW229106   0.033   0.490   9.050  1.3547 -0.2265 -0.1477
 5825SOL     OW29107   4.317   0.191  12.527  0.1399  0.6954 -0.3712
 5825SOL    HW129108   4.318   0.166  12.620 -0.2294  0.2771 -0.4822
 5825SOL    HW229109   4.279   0.112  12.488 -0.7252  0.2182  1.4138
 5826SOL     OW29110   0.353   0.297   6.189 -0.3052 -0.1018 -0.6559
 5826SOL    HW129111   0.259   0.298   6.207  0.1085 -0.8979  1.5846
 5826SOL    HW229112   0.368   0.220   6.136 -0.2698  0.4981 -1.5133
 5827SOL     OW29113   2.450   0.151  12.915 -0.2246 -0.5447 -0.1617
 5827SOL    HW129114   2.476   0.195  12.995 -1.0756  0.7638 -0.6176
 5827SOL    HW229115   2.525   0.094  12.896  0.8405  0.3804  1.3638
 5828SOL     OW29116   3.448   3.014   6.014  0.0994 -0.0021  0.2423
 5828SOL    HW129117   3.374   3.025   6.075  1.3106  0.0167  1.7007
 5828SOL    HW229118   3.397   3.013   5.933  0.1099  1.5569  0.2166
 5829SOL     OW29119   1.642   3.257   1.795  0.8381  0.0261  0.2145
 5829SOL    HW129120   1.658   3.242   1.702 -0.2887 -2.6430  0.4422
 5829SOL    HW229121   1.593   3.178   1.821  1.1590 -0.5379 -0.8973
 5830SOL     OW29122   0.546   0.849   8.830  0.4211  0.2099 -0.4536
 5830SOL    HW129123   0.550   0.761   8.869  0.5802 -0.0962 -1.1675
 5830SOL    HW229124   0.635   0.872   8.803  0.8053  1.6366  2.0432
 5831SOL     OW29125   2.911   4.655   8.782  0.0797  0.4798  0.2374
 5831SOL    HW129126   2.853   4.723   8.817 -0.2291  1.4960 -2.2776
 5831SOL    HW229127   2.987   4.656   8.840  0.3256 -0.4220 -0.0694
 5832SOL     OW29128   0.524   4.500  11.715 -0.1893  0.4339  0.4385
 5832SOL    HW129129   0.446   4.505  11.770  0.2736  1.3776  1.0140
 5832SOL    HW229130   0.594   4.493  11.780 -1.0271  1.3741  1.4348
 5833SOL     OW29131   3.845   3.621   4.930 -0.1446 -0.2519  0.4586
 5833SOL    HW129132   3.885   3.537   4.954  0.4173 -0.2554 -0.4864
 5833SOL    HW229133   3.764   3.611   4.980 -0.9605  3.7542 -0.0690
 5834SOL     OW29134   4.209   2.649  17.480 -0.2401  0.4127 -0.1060
 5834SOL    HW129135   4.171   2.737  17.484 -1.1983 -0.1154  2.3276
 5834SOL    HW229136   4.136   2.610  17.432 -1.4097  1.5068  0.8055
 5835SOL     OW29137   3.606   1.809   6.025  0.5591 -0.3135 -0.1351
 5835SOL    HW129138   3.551   1.883   5.999 -1.4364 -1.4421  0.7825
 5835SOL    HW229139   3.591   1.750   5.951 -0.7181 -0.1415 -0.0197
 5836SOL     OW29140   0.845   4.384  16.485 -0.1316  0.3398 -0.0633
 5836SOL    HW129141   0.776   4.439  16.447 -0.8479 -0.0613  0.6750
 5836SOL    HW229142   0.888   4.452  16.538  1.0333 -1.1127  0.8605
 5837SOL     OW29143   0.688   3.456   1.469 -0.0999  0.1614 -0.0247
 5837SOL    HW129144   0.771   3.502   1.454  1.3006 -2.4783 -0.4049
 5837SOL    HW229145   0.718   3.412   1.548 -1.2112  0.6026  0.6370
 5838SOL     OW29146   3.127   2.246   8.001 -0.1603  0.2740 -0.5987
 5838SOL    HW129147   3.073   2.317   8.035 -2.6245 -1.3814 -1.1017
 5838SOL    HW229148   3.124   2.264   7.907 -1.8222 -1.2235 -0.8195
 5839SOL     OW29149   0.008   1.598   6.785 -0.4028 -0.2721 -0.1194
 5839SOL    HW129150   0.056   1.596   6.868 -1.7658  1.9810  0.7316
 5839SOL    HW229151   4.721   1.690   6.790 -0.5523 -0.3787  1.0086
 5840SOL     OW29152   3.266   2.999   0.127 -0.3072  0.1214  0.3348
 5840SOL    HW129153   3.299   3.082   0.093  1.4047 -1.4184 -1.6773
 5840SOL    HW229154   3.335   2.971   0.188  0.5538  2.3439  0.3646
 5841SOL     OW29155   0.271   0.843   1.908 -0.0091 -0.2819  0.1412
 5841SOL    HW129156   0.300   0.932   1.927 -0.6132 -0.3938  1.5447
 5841SOL    HW229157   0.190   0.846   1.959  1.1881 -1.8462  2.1110
 5842SOL     OW29158   2.744   3.311   3.255  0.3461  0.2096  0.8267
 5842SOL    HW129159   2.706   3.225   3.240  0.5407  0.4439 -1.0423
 5842SOL    HW229160   2.785   3.323   3.169 -0.9811  0.3807  0.2226
 5843SOL     OW29161   2.471   0.971   0.086  0.2065  0.9552 -0.6360
 5843SOL    HW129162   2.427   0.888   0.070  0.8184  0.3980  0.5921
 5843SOL    HW229163   2.556   0.944   0.122  0.7914  1.6923 -1.4499
 5844SOL     OW29164   4.244   3.369  15.626  0.6219  0.0523  0.1256
 5844SOL    HW129165   4.194   3.444  15.657  1.1825  0.1753  0.7298
 5844SOL    HW229166   4.334   3.399  15.639 -0.0748  1.7435  1.0553
 5845SOL     OW29167   0.422   3.764   2.359  0.5831 -0.2171 -0.0676
 5845SOL    HW129168   0.510   3.727   2.356 -0.8136 -3.5756  0.1049
 5845SOL    HW229169   0.371   3.683   2.368  0.6324 -0.3759 -1.2450
 5846SOL     OW29170   4.482   3.116  16.877 -0.4427 -0.0319 -0.0111
 5846SOL    HW129171   4.481   3.174  16.953 -0.2241 -1.6570  1.2218
 5846SOL    HW229172   4.412   3.164  16.832  0.9730 -0.0993 -2.2806
 5847SOL     OW29173   1.572   2.239   1.787 -0.5313  0.3720 -0.1788
 5847SOL    HW129174   1.490   2.263   1.744 -1.8026 -3.3181  0.1463
 5847SOL    HW229175   1.608   2.187   1.716  0.3680 -0.7688  1.1118
 5848SOL     OW29176   3.325   4.278   9.316  0.6469 -0.5938 -0.0324
 5848SOL    HW129177   3.348   4.219   9.388  0.1137 -0.1098  0.5260
 5848SOL    HW229178   3.291   4.217   9.250 -0.1871 -0.3864  0.2107
 5849SOL     OW29179   1.971   0.446   7.103  0.5802  0.1709 -0.3383
 5849SOL    HW129180   1.887   0.483   7.128 -0.1100 -0.1742 -2.1708
 5849SOL    HW229181   1.973   0.382   7.174  1.5889 -1.0406 -1.4590
 5850SOL     OW29182   1.338   2.447   1.142  0.0821  0.4376  0.0431
 5850SOL    HW129183   1.267   2.481   1.087 -2.5137  0.1018  3.1819
 5850SOL    HW229184   1.403   2.417   1.079  0.7620  0.1877  0.8688
 5851SOL     OW29185   0.061   1.888   1.246 -0.2316  0.2972  0.2186
 5851SOL    HW129186   0.061   1.796   1.221 -0.9751  0.5726 -0.7929
 5851SOL    HW229187   4.733   1.933   1.194 -1.6793 -0.2046  1.6651
 5852SOL     OW29188   0.923   1.348   9.242 -0.6572 -0.3037  0.2544
 5852SOL    HW129189   0.909   1.253   9.241 -0.9348 -0.2633 -0.0049
 5852SOL    HW229190   0.850   1.381   9.294 -0.3191 -0.8687  1.0929
 5853SOL     OW29191   1.300   1.123   3.178  0.4106  0.2800  0.0304
 5853SOL    HW129192   1.276   1.117   3.270 -1.2612  0.6884 -0.3711
 5853SOL    HW229193   1.311   1.030   3.160 -0.3316  0.1129  0.4718
 5854SOL     OW29194   2.440   1.266  15.195 -0.2910  0.8764 -0.5232
 5854SOL    HW129195   2.499   1.192  15.213  0.2050  1.4523  0.2294
 5854SOL    HW229196   2.461   1.282  15.103 -0.9533  0.9848 -0.6508
 5855SOL     OW29197   1.425   3.378   2.826 -0.5600 -0.0613 -0.4438
 5855SOL    HW129198   1.425   3.460   2.777  0.3064  1.9274  2.9660
 5855SOL    HW229199   1.352   3.399   2.884 -1.2145 -0.2460 -1.1962
 5856SOL     OW29200   4.669   2.004   9.681  0.6938 -0.1841  0.9152
 5856SOL    HW129201   0.017   1.968   9.701  1.4780 -0.0571 -2.2383
 5856SOL    HW229202   4.687   2.041   9.595  1.0268  1.8971  1.8967
 5857SOL     OW29203   2.083   3.485   2.984  0.3003  0.0928  0.2602
 5857SOL    HW129204   2.050   3.518   3.068  2.6768  1.5401  0.6278
 5857SOL    HW229205   2.139   3.557   2.956 -0.1887 -0.4397 -2.1263
 5858SOL     OW29206   2.285   4.699   3.287 -0.3994  0.2421 -0.2620
 5858SOL    HW129207   2.352   4.653   3.236  1.2002 -0.1036  2.1226
 5858SOL    HW229208   2.334   0.041   3.300 -0.3404  0.1109  0.3268
 5859SOL     OW29209   4.076   4.407   1.732 -0.0030 -0.3326 -0.9549
 5859SOL    HW129210   4.103   4.317   1.712  0.3908 -0.4644  0.1830
 5859SOL    HW229211   3.981   4.411   1.731  0.0072 -0.3397 -1.8272
 5860SOL     OW29212   3.692   0.668   6.763 -0.0833 -1.1113  0.5747
 5860SOL    HW129213   3.646   0.691   6.682  1.6497 -0.1068 -0.1340
 5860SOL    HW229214   3.776   0.647   6.722  0.0103  1.5206 -0.6120
 5861SOL     OW29215   1.675   1.888  15.692  0.6126  0.1109  0.1064
 5861SOL    HW129216   1.617   1.905  15.766  0.8992 -0.4004  0.4445
 5861SOL    HW229217   1.716   1.973  15.676  1.1584  0.2360  2.1319
 5862SOL     OW29218   3.875   1.874  12.851 -0.5580 -0.0641 -0.1829
 5862SOL    HW129219   3.881   1.960  12.809  0.4679 -0.6886 -1.3354
 5862SOL    HW229220   3.807   1.838  12.795  1.2164 -1.9374 -1.1273
 5863SOL     OW29221   2.351   4.275   6.326 -0.0368 -0.1853  0.1154
 5863SOL    HW129222   2.258   4.254   6.334 -0.3175  1.0252 -0.0368
 5863SOL    HW229223   2.380   4.184   6.330  1.4748  0.2211 -1.3517
 5864SOL     OW29224   4.617   3.529   5.483 -0.4434 -0.2977  0.6219
 5864SOL    HW129225   4.579   3.444   5.461 -0.2109  0.4456 -2.5876
 5864SOL    HW229226   4.693   3.506   5.537  0.3770  0.5541 -0.1680
 5865SOL     OW29227   1.872   3.711   7.661  0.1071  0.0470 -0.2251
 5865SOL    HW129228   1.808   3.651   7.622  0.4738  0.2372 -1.1212
 5865SOL    HW229229   1.907   3.741   7.577 -2.2711  2.9633 -0.1501
 5866SOL     OW29230   2.181   2.635   2.425 -0.1180 -0.0461 -0.5170
 5866SOL    HW129231   2.201   2.570   2.493  0.1713 -0.1799 -0.7292
 5866SOL    HW229232   2.262   2.620   2.378 -0.0785 -2.2566  0.2103
 5867SOL     OW29233   1.805   3.893   8.911 -0.4807  0.4514 -0.5349
 5867SOL    HW129234   1.787   3.802   8.938 -0.4166 -0.4463 -3.4989
 5867SOL    HW229235   1.900   3.892   8.919 -0.6054  0.7967  0.9175
 5868SOL     OW29236   3.991   3.812   5.063 -0.2678  0.3827 -0.4416
 5868SOL    HW129237   3.922   3.759   5.023  0.0856  0.0731 -0.6324
 5868SOL    HW229238   4.062   3.748   5.061 -1.9420 -1.5014  0.6151
 5869SOL     OW29239   4.699   0.652   6.087 -0.1742  0.5549 -0.0549
 5869SOL    HW129240   4.720   0.731   6.037  0.3014 -0.2867 -1.1777
 5869SOL    HW229241   0.043   0.608   6.108 -0.9308 -0.4565  0.8426
 5870SOL     OW29242   1.237   2.805   5.784 -1.0206  0.7092 -0.0158
 5870SOL    HW129243   1.299   2.859   5.736 -0.6488 -0.6108 -1.0170
 5870SOL    HW229244   1.216   2.742   5.715  1.6960  1.7644 -1.8132
 5871SOL     OW29245   1.117   4.699   1.203  0.0445  0.0194 -0.2552
 5871SOL    HW129246   1.187   4.710   1.267 -1.1241  1.9759  0.6909
 5871SOL    HW229247   1.056   4.658   1.264 -0.4704  0.6710 -0.3333
 5872SOL     OW29248   1.844   0.496  10.867  0.1858 -0.2470 -0.4486
 5872SOL    HW129249   1.927   0.486  10.913 -0.2520 -0.6895  0.2437
 5872SOL    HW229250   1.833   0.591  10.875  0.9673 -0.0915 -1.3099
 5873SOL     OW29251   1.494   0.919  11.370 -0.1265 -0.1822  0.1538
 5873SOL    HW129252   1.588   0.931  11.357 -0.3306  2.0066  0.7478
 5873SOL    HW229253   1.488   0.859  11.445 -1.5061 -1.2476 -0.8222
 5874SOL     OW29254   1.208   3.405   3.949 -0.2855 -0.1059  0.0406
 5874SOL    HW129255   1.175   3.445   4.030 -0.8186 -0.1802 -0.1419
 5874SOL    HW229256   1.194   3.315   3.979 -2.1639 -0.1023 -0.8337
 5875SOL     OW29257   2.774   4.009  16.873 -0.0163 -0.0843  0.2229
 5875SOL    HW129258   2.750   4.083  16.817 -0.2040  0.3702  0.9119
 5875SOL    HW229259   2.711   4.022  16.943 -0.6247  0.4744 -0.4287
 5876SOL     OW29260   3.372   3.723   8.047  0.0070 -0.5641  0.2264
 5876SOL    HW129261   3.373   3.719   7.951  2.5152 -1.4416  0.2950
 5876SOL    HW229262   3.281   3.741   8.069 -0.8587 -1.5469 -2.5390
 5877SOL     OW29263   3.911   2.514   3.657  0.4052  0.2811  0.2915
 5877SOL    HW129264   3.901   2.574   3.731  1.4377  1.3211 -0.4070
 5877SOL    HW229265   3.868   2.434   3.688 -0.6794  0.1708 -1.4686
 5878SOL     OW29266   2.112   3.878   3.711  0.3318 -0.1142  0.1088
 5878SOL    HW129267   2.164   3.798   3.712 -0.3881 -0.6021 -1.1229
 5878SOL    HW229268   2.124   3.912   3.799  0.1756 -0.4390  0.2565
 5879SOL     OW29269   2.308   1.719  10.262  0.0138  0.4855 -0.1092
 5879SOL    HW129270   2.309   1.725  10.357 -1.2963  0.4926 -0.0991
 5879SOL    HW229271   2.224   1.679  10.243  1.3882 -0.9331 -3.2167
 5880SOL     OW29272   0.119   4.699  16.963  0.7184  0.4009 -0.0619
 5880SOL    HW129273   0.147   4.658  17.045 -1.3355  0.5047  0.6999
 5880SOL    HW229274   0.140   0.050  16.987  2.9958  0.0343 -0.6868
 5881SOL     OW29275   3.330   2.767   8.687  0.5966  0.4287 -0.0141
 5881SOL    HW129276   3.279   2.695   8.650 -0.1886  1.7162 -1.4332
 5881SOL    HW229277   3.285   2.800   8.765 -0.8245  0.3009 -0.7889
 5882SOL     OW29278   0.097   1.930   3.190 -0.0406 -0.4887  0.0354
 5882SOL    HW129279   0.033   1.867   3.223 -0.6531 -1.3003 -2.6536
 5882SOL    HW229280   0.053   1.967   3.114  1.1254 -0.6673 -0.7322
 5883SOL     OW29281   4.595   2.833  15.686 -0.5101 -0.2188 -0.0297
 5883SOL    HW129282   4.628   2.889  15.616 -2.1818  1.3222  0.3986
 5883SOL    HW229283   4.526   2.889  15.722 -1.3129 -0.8462 -0.6054
 5884SOL     OW29284   1.183   1.341   6.811 -0.6182 -0.2142  0.0755
 5884SOL    HW129285   1.246   1.322   6.880 -0.6468  1.3276  0.5225
 5884SOL    HW229286   1.098   1.325   6.853 -0.6642  0.4325  0.2258
 5885SOL     OW29287   0.170   2.461   9.345 -0.0299  0.3072 -0.7667
 5885SOL    HW129288   0.209   2.549   9.343 -0.1116  0.4173  2.1208
 5885SOL    HW229289   0.233   2.422   9.405 -0.4829  0.9285  0.1109
 5886SOL     OW29290   0.884   0.529   2.945  0.1927 -0.7714  0.0054
 5886SOL    HW129291   0.976   0.506   2.964  1.1877  1.7637 -1.8568
 5886SOL    HW229292   0.897   0.533   2.850  0.5461 -1.7172  0.0076
 5887SOL     OW29293   0.921   1.918  11.116 -0.1066  0.2956  0.3037
 5887SOL    HW129294   0.872   1.854  11.066  1.2113  0.4462 -1.1859
 5887SOL    HW229295   0.857   1.931  11.186 -0.1063  0.0984  0.3388
 5888SOL     OW29296   2.742   2.652   5.222  0.2919 -0.2348 -0.0920
 5888SOL    HW129297   2.716   2.735   5.182  2.4640  0.7000  0.4129
 5888SOL    HW229298   2.800   2.618   5.154 -0.0857  0.4440 -0.7615
 5889SOL     OW29299   0.388   4.318   0.905 -0.3482 -0.2605 -0.3029
 5889SOL    HW129300   0.397   4.370   0.825  0.0806  0.3879  0.1695
 5889SOL    HW229301   0.320   4.253   0.884  0.1763 -0.1032 -2.5382
 5890SOL     OW29302   4.365   1.885   5.446  0.0808  0.3920 -0.2957
 5890SOL    HW129303   4.343   1.841   5.528 -1.2941  0.3915 -0.6557
 5890SOL    HW229304   4.298   1.866   5.380  0.4452 -2.0298  0.0470
 5891SOL     OW29305   2.790   0.496   1.716  0.6738  0.0017 -0.1543
 5891SOL    HW129306   2.754   0.493   1.628 -2.8837 -3.0483  1.4239
 5891SOL    HW229307   2.732   0.553   1.767 -0.5697 -0.5319 -0.9889
 5892SOL     OW29308   1.508   1.336   6.464  0.2376 -0.0477  0.0350
 5892SOL    HW129309   1.473   1.387   6.537  0.1083 -0.2286  0.0988
 5892SOL    HW229310   1.432   1.319   6.408  0.1454 -0.0827  0.1719
 5893SOL     OW29311   0.540   1.257  13.214  0.2091  0.3377  0.2975
 5893SOL    HW129312   0.564   1.168  13.239  1.9855  0.5320 -0.7592
 5893SOL    HW229313   0.488   1.279  13.291 -1.5633  2.7784 -1.5860
 5894SOL     OW29314   4.296   4.454  11.625  0.3055  0.3196  0.6996
 5894SOL    HW129315   4.200   4.453  11.624  0.2916  1.5848  0.7731
 5894SOL    HW229316   4.314   4.534  11.674  1.5821  1.2227 -1.2566
 5895SOL     OW29317   3.100   2.091  13.794  0.4453 -0.0081  0.1910
 5895SOL    HW129318   3.097   2.118  13.886  1.8152 -0.9381  0.5136
 5895SOL    HW229319   3.120   1.998  13.803  1.9308  0.0442 -2.8450
 5896SOL     OW29320   4.442   1.079   0.552  0.6943  0.5076  0.3931
 5896SOL    HW129321   4.356   1.064   0.590  0.5410 -0.1953 -0.2288
 5896SOL    HW229322   4.433   1.156   0.497 -0.0719  1.9030  2.4608
 5897SOL     OW29323   3.757   4.713  14.245  0.2097 -0.4521 -0.5535
 5897SOL    HW129324   3.833   4.655  14.246 -1.4261 -2.6384  1.6898
 5897SOL    HW229325   3.695   4.641  14.263 -1.4311  0.8886 -0.8355
 5898SOL     OW29326   4.148   0.411   9.999  0.3966  0.8693  0.2460
 5898SOL    HW129327   4.066   0.370  10.026  1.5063 -0.5312  1.4617
 5898SOL    HW229328   4.130   0.432   9.907  0.5065 -0.6342 -0.1278
 5899SOL     OW29329   3.063   1.879  12.296 -0.6875 -0.1189  0.3357
 5899SOL    HW129330   2.975   1.916  12.301  0.0161  0.8841  5.6696
 5899SOL    HW229331   3.093   1.887  12.206 -0.3955 -1.0118  0.3509
 5900SOL     OW29332   2.955   3.684   7.141  0.3975  0.1940  0.7081
 5900SOL    HW129333   2.882   3.689   7.079  1.7515 -0.6407 -0.9398
 5900SOL    HW229334   2.944   3.768   7.186  0.5608  0.2485  0.6443
 5901SOL     OW29335   0.260   4.560   5.299  0.1022 -0.5057  0.2028
 5901SOL    HW129336   0.323   4.527   5.364  1.0238 -1.1527 -1.0137
 5901SOL    HW229337   0.262   4.656   5.301 -3.3787 -0.4641  1.4779
 5902SOL     OW29338   2.169   1.769  15.971  0.0008  0.4166 -0.0748
 5902SOL    HW129339   2.223   1.786  15.893  0.4337  0.0508  0.1491
 5902SOL    HW229340   2.153   1.860  15.996  0.8173  0.4550  0.3106
 5903SOL     OW29341   2.760   3.430  11.441 -0.0984 -0.0966 -0.5673
 5903SOL    HW129342   2.711   3.506  11.473  0.1672  0.4797 -1.5569
 5903SOL    HW229343   2.788   3.396  11.526 -0.5023  1.8563  0.3494
 5904SOL     OW29344   3.668   4.276   6.968 -0.1977 -0.0317  0.0952
 5904SOL    HW129345   3.637   4.360   7.002  0.6393 -0.1036  1.0094
 5904SOL    HW229346   3.694   4.239   7.052 -0.1857  1.4852  0.7490
 5905SOL     OW29347   1.244   3.183   4.894  0.1828 -0.1590  0.3389
 5905SOL    HW129348   1.250   3.090   4.917  3.6359  0.1445  0.5695
 5905SOL    HW229349   1.335   3.183   4.864  0.9657  1.3633  2.7433
 5906SOL     OW29350   4.348   1.809   4.115 -0.2784 -0.0418  0.2544
 5906SOL    HW129351   4.314   1.739   4.171 -0.5398  0.1575  0.3457
 5906SOL    HW229352   4.305   1.885   4.154 -1.6576 -1.4797  1.5833
 5907SOL     OW29353   2.285   1.551   9.616 -0.8781 -0.2122  0.2652
 5907SOL    HW129354   2.279   1.463   9.654  0.6737 -0.0166  0.9671
 5907SOL    HW229355   2.191   1.570   9.612 -0.9112 -0.1805  1.0441
 5908SOL     OW29356   2.984   1.299   5.133  0.6091  0.4582  0.8213
 5908SOL    HW129357   3.015   1.389   5.125 -0.4841  0.8745  1.1825
 5908SOL    HW229358   2.891   1.312   5.112  0.9096  0.8993 -0.2328
 5909SOL     OW29359   1.600   3.535   3.243  0.3354 -0.0690  0.4171
 5909SOL    HW129360   1.583   3.497   3.156 -0.7325  1.0546  0.1301
 5909SOL    HW229361   1.662   3.477   3.286 -0.6140 -0.2004  1.6027
 5910SOL     OW29362   4.599   2.053  14.113 -0.1821 -0.6974 -0.0336
 5910SOL    HW129363   4.585   2.066  14.207  1.2529 -0.4808  0.1442
 5910SOL    HW229364   4.526   2.104  14.077  1.8378  1.9564 -0.3536
 5911SOL     OW29365   3.749   4.726   8.889  0.2881  0.0167 -0.4576
 5911SOL    HW129366   3.835   4.685   8.883 -0.4154 -1.3082 -1.3347
 5911SOL    HW229367   3.755   0.044   8.966  1.2079 -0.6903 -0.0146
 5912SOL     OW29368   0.774   0.940   6.596 -0.0647  0.0141 -0.1820
 5912SOL    HW129369   0.847   0.978   6.646  2.2206 -1.6459 -2.2540
 5912SOL    HW229370   0.753   0.862   6.648 -0.1036 -1.6757 -2.7710
 5913SOL     OW29371   4.290   2.158   5.182 -0.3770 -0.2576  0.1257
 5913SOL    HW129372   4.281   2.164   5.087  1.6405  0.5958 -0.0108
 5913SOL    HW229373   4.230   2.085   5.193 -0.8311 -0.0360 -0.8807
 5914SOL     OW29374   0.179   3.816   1.709 -0.0110  0.1176  0.3953
 5914SOL    HW129375   0.148   3.729   1.732 -0.7870  0.7973  1.8989
 5914SOL    HW229376   0.198   3.811   1.615  0.6238 -1.1437  0.5940
 5915SOL     OW29377   2.608   1.015   2.757 -0.0320 -0.6514  0.3652
 5915SOL    HW129378   2.629   1.062   2.838 -0.7527  0.0128  0.1632
 5915SOL    HW229379   2.627   0.924   2.779 -0.2465 -0.3674  1.7666
 5916SOL     OW29380   4.355   2.503   3.994  0.0529 -0.1840  0.3334
 5916SOL    HW129381   4.294   2.549   4.052 -0.2849  0.3028 -0.4058
 5916SOL    HW229382   4.314   2.516   3.909  0.9541  0.3110 -0.0213
 5917SOL     OW29383   3.208   4.632   2.054 -0.1614 -0.3970  0.0421
 5917SOL    HW129384   3.167   4.579   1.986 -1.4866 -1.8677  1.9996
 5917SOL    HW229385   3.134   4.691   2.067  1.0774  1.1253  0.3088
 5918SOL     OW29386   4.427   4.021   8.154  0.4018  0.5471  0.2615
 5918SOL    HW129387   4.469   3.935   8.147 -1.1658 -0.2875  1.0631
 5918SOL    HW229388   4.338   3.995   8.127  2.1058 -1.2041 -3.7512
 5919SOL     OW29389   1.724   4.101  12.558 -0.3797 -0.2358 -0.3564
 5919SOL    HW129390   1.805   4.054  12.575 -0.0014 -0.2874 -2.3187
 5919SOL    HW229391   1.741   4.145  12.474  0.2221  1.4713  0.6520
 5920SOL     OW29392   0.467   0.654   1.769 -0.2765 -0.0739  0.2361
 5920SOL    HW129393   0.424   0.720   1.824 -2.0978 -1.6196  0.6579
 5920SOL    HW229394   0.406   0.627   1.700  2.4921 -0.8568 -1.9018
 5921SOL     OW29395   2.655   1.689  16.915 -0.4037 -0.3387 -0.0288
 5921SOL    HW129396   2.570   1.684  16.871 -0.0689 -2.6724 -0.4010
 5921SOL    HW229397   2.672   1.783  16.920 -0.4105 -0.4001  1.3458
 5922SOL     OW29398   0.538   4.247  10.601  0.4163 -0.0129  0.5476
 5922SOL    HW129399   0.538   4.256  10.696  2.6363  0.9814  0.4588
 5922SOL    HW229400   0.518   4.154  10.595  0.2212  0.1005 -0.6091
 5923SOL     OW29401   4.088   0.073   1.660 -0.4495 -0.3999  0.3179
 5923SOL    HW129402   4.029   0.101   1.590 -0.2646  2.1894  1.2210
 5923SOL    HW229403   4.168   0.086   1.610 -0.2834 -2.8451 -0.0470
 5924SOL     OW29404   0.479   2.753   2.399 -0.0084  0.0719  0.0796
 5924SOL    HW129405   0.466   2.738   2.492 -0.4001 -4.0290 -0.6103
 5924SOL    HW229406   0.561   2.803   2.397  0.3380 -0.4998 -0.0637
 5925SOL     OW29407   0.497   3.662   7.438 -0.1960 -0.4594  0.0453
 5925SOL    HW129408   0.537   3.733   7.488 -0.8826 -0.4013  0.5111
 5925SOL    HW229409   0.540   3.672   7.354 -0.1266 -0.2369  0.1056
 5926SOL     OW29410   3.623   3.152  10.422  0.0671  0.5607  0.4105
 5926SOL    HW129411   3.541   3.106  10.404 -1.1105  2.1684  1.5825
 5926SOL    HW229412   3.675   3.086  10.466 -1.7110 -0.6331  0.7303
 5927SOL     OW29413   4.357   2.152   2.377  0.6693  0.1709  0.4582
 5927SOL    HW129414   4.422   2.223   2.382  0.1560  0.6751 -0.1009
 5927SOL    HW229415   4.284   2.176   2.434  0.3629  2.4791 -0.8986
 5928SOL     OW29416   2.141   4.609   5.228 -0.3804  0.1677  0.6721
 5928SOL    HW129417   2.235   4.628   5.236 -0.3181  1.0901 -2.4384
 5928SOL    HW229418   2.130   4.528   5.278 -3.1856  0.8331  1.1154
 5929SOL     OW29419   1.810   3.076  17.351  0.3001  0.0456  0.5786
 5929SOL    HW129420   1.821   2.987  17.317 -2.0698 -0.7091  1.7694
 5929SOL    HW229421   1.766   3.110  17.273  0.6292 -0.9853 -0.0616
 5930SOL     OW29422   2.177   4.327   8.849  0.4965 -0.3381 -0.4728
 5930SOL    HW129423   2.232   4.268   8.900  0.9732 -0.4098 -1.0652
 5930SOL    HW229424   2.180   4.266   8.775 -0.9406 -0.0217 -0.8030
 5931SOL     OW29425   1.698   2.023   7.113 -0.0685  0.2782  0.2053
 5931SOL    HW129426   1.625   1.974   7.153 -0.3053  0.1107 -0.4295
 5931SOL    HW229427   1.775   1.984   7.154  1.3924  1.9204 -0.9924
 5932SOL     OW29428   2.146   2.275  16.129 -0.1038 -0.1286  0.0746
 5932SOL    HW129429   2.062   2.229  16.134  0.3267 -0.6570  2.4210
 5932SOL    HW229430   2.185   2.231  16.204 -0.4379  0.4879  0.6148
 5933SOL     OW29431   3.326   0.676  14.629 -0.2151  0.0820 -0.4025
 5933SOL    HW129432   3.290   0.711  14.547  2.8104  0.6503 -1.5181
 5933SOL    HW229433   3.291   0.735  14.696  0.6959  3.3431 -2.7894
 5934SOL     OW29434   4.235   0.382   8.090 -0.6187 -0.4505  0.5318
 5934SOL    HW129435   4.211   0.473   8.070 -1.3986 -1.1463 -1.6686
 5934SOL    HW229436   4.306   0.410   8.148 -0.9191  1.0731  0.1812
 5935SOL     OW29437   0.858   1.269  16.340 -0.3819 -0.3389  0.4602
 5935SOL    HW129438   0.820   1.211  16.406 -2.0544  1.8510  1.4163
 5935SOL    HW229439   0.779   1.309  16.303  1.6170  1.6439 -1.6702
 5936SOL     OW29440   0.655   0.638   6.464  0.4075 -0.2718  0.3888
 5936SOL    HW129441   0.647   0.625   6.558  1.3148  0.4198  0.5614
 5936SOL    HW229442   0.583   0.586   6.428 -1.0021  1.1232  1.2352
 5937SOL     OW29443   0.487   3.304   4.893  0.0128  0.5917 -0.5660
 5937SOL    HW129444   0.531   3.325   4.976  2.1360  0.6880 -1.7222
 5937SOL    HW229445   0.564   3.291   4.837 -0.2795  0.2001 -0.8705
 5938SOL     OW29446   4.575   1.704   7.672  0.9588  0.0487 -0.1225
 5938SOL    HW129447   4.519   1.626   7.677 -1.7297  1.8758 -1.3477
 5938SOL    HW229448   4.512   1.776   7.672 -0.9621 -1.6248 -0.1687
 5939SOL     OW29449   0.521   3.667   5.186  0.2954  0.2421  0.9104
 5939SOL    HW129450   0.601   3.686   5.137 -1.7148 -2.6007 -3.4693
 5939SOL    HW229451   0.548   3.635   5.272  0.5884  0.3354  0.8525
 5940SOL     OW29452   2.485   2.570   9.409 -0.5216  0.0786  0.2072
 5940SOL    HW129453   2.522   2.482   9.420 -0.8928  0.1999  2.6059
 5940SOL    HW229454   2.538   2.619   9.473 -0.7388  0.4801  0.0805
 5941SOL     OW29455   2.821   3.324  17.324 -0.4363 -0.3729  0.2501
 5941SOL    HW129456   2.764   3.395  17.354 -1.5547 -1.4593  0.6608
 5941SOL    HW229457   2.906   3.356  17.355 -1.5583  2.3538  0.5449
 5942SOL     OW29458   2.560   1.112  13.711 -0.0043 -0.3623  0.4486
 5942SOL    HW129459   2.546   1.202  13.679 -0.6309 -0.3359  0.7817
 5942SOL    HW229460   2.472   1.107  13.748 -0.1475  0.0490  0.1764
 5943SOL     OW29461   2.877   2.219   0.549  0.1023  0.1912  0.4153
 5943SOL    HW129462   2.788   2.253   0.540 -0.9379 -2.7142 -0.3209
 5943SOL    HW229463   2.865   2.171   0.632  1.9268 -2.0583 -0.6253
 5944SOL     OW29464   1.783   2.957   5.871 -0.0134  0.5484  0.0871
 5944SOL    HW129465   1.877   2.943   5.858  0.3930  1.7755  1.7982
 5944SOL    HW229466   1.792   3.051   5.862  0.4111  0.5813  0.8673
 5945SOL     OW29467   2.843   3.592   5.223 -0.3309  0.1226  0.6327
 5945SOL    HW129468   2.847   3.672   5.171 -2.1992  0.6577  1.3231
 5945SOL    HW229469   2.937   3.587   5.242  0.3772 -3.1339 -3.5690
 5946SOL     OW29470   2.015   1.826   2.807  0.5740 -0.1165  0.0430
 5946SOL    HW129471   1.986   1.835   2.716 -1.6622  0.5299  0.8227
 5946SOL    HW229472   2.005   1.731   2.813  1.3252 -0.1147  1.2777
 5947SOL     OW29473   2.109   3.336   6.266  0.1689 -0.2019 -0.2024
 5947SOL    HW129474   2.143   3.307   6.181 -0.5393 -0.1910 -0.4899
 5947SOL    HW229475   2.016   3.324   6.246 -0.3134  2.4034  0.4297
 5948SOL     OW29476   1.226   1.796   0.719 -0.8730 -0.2037 -0.2070
 5948SOL    HW129477   1.217   1.867   0.655  2.1859 -0.1503 -0.5637
 5948SOL    HW229478   1.312   1.759   0.701 -1.4656 -1.3700 -0.5922
 5949SOL     OW29479   1.113   0.511  13.518 -0.1259  0.2996 -0.3869
 5949SOL    HW129480   1.174   0.562  13.465  0.0734 -0.9411 -1.3622
 5949SOL    HW229481   1.126   0.420  13.491 -0.7928  0.0874  0.0290
 5950SOL     OW29482   4.460   2.068   9.382  0.0986  0.2151  0.3367
 5950SOL    HW129483   4.436   1.986   9.425 -3.1389  0.9533 -0.0399
 5950SOL    HW229484   4.379   2.118   9.375  0.3151  0.5893  0.5687
 5951SOL     OW29485   3.201   1.934   7.774 -0.4583 -0.0045  0.2641
 5951SOL    HW129486   3.157   2.016   7.748 -1.0715 -0.9962 -1.8119
 5951SOL    HW229487   3.250   1.912   7.695 -0.4733 -1.4600  0.6747
 5952SOL     OW29488   4.530   4.387   8.969  0.3568 -0.1669 -0.6885
 5952SOL    HW129489   4.538   4.444   8.893 -1.0164  0.8351 -0.0812
 5952SOL    HW229490   4.619   4.353   8.981  0.3865 -0.4833 -1.8029
 5953SOL     OW29491   2.572   2.502   3.821 -0.5172 -0.3326  0.0195
 5953SOL    HW129492   2.538   2.464   3.740  1.2786  0.5492 -1.1766
 5953SOL    HW229493   2.496   2.501   3.879  0.6384  1.4819  1.5728
 5954SOL     OW29494   2.532   3.137  17.488  0.3827  0.2055  0.0413
 5954SOL    HW129495   2.464   3.070  17.485 -0.0852  0.7285 -0.8790
 5954SOL    HW229496   2.487   3.221  17.494  0.5582  0.3214 -0.2687
 5955SOL     OW29497   0.228   4.339   2.749 -0.0723 -0.5119 -0.4075
 5955SOL    HW129498   0.137   4.368   2.755  0.3990  0.3306  2.3894
 5955SOL    HW229499   0.253   4.331   2.656  0.8139  0.4859 -0.2600
 5956SOL     OW29500   0.245   3.517   4.565 -0.2536 -0.0764 -0.0624
 5956SOL    HW129501   0.229   3.466   4.645  0.1262  1.8773  1.2455
 5956SOL    HW229502   0.337   3.494   4.550 -0.0832  0.9278 -0.5052
 5957SOL     OW29503   3.101   3.963   6.350  0.4356 -0.3256 -0.1748
 5957SOL    HW129504   3.168   3.977   6.416 -0.4418 -0.6203  0.7824
 5957SOL    HW229505   3.065   4.051   6.343 -0.0086 -0.7015 -2.9947
 5958SOL     OW29506   0.413   2.201   5.369  0.4811  0.0001 -0.9048
 5958SOL    HW129507   0.353   2.179   5.297 -0.9136  2.8553 -0.6303
 5958SOL    HW229508   0.349   2.184   5.438  1.0009  0.8684 -0.2003
 5959SOL     OW29509   0.371   0.915   9.023 -0.2605  0.0762 -0.3024
 5959SOL    HW129510   0.336   0.997   8.988  0.7635 -0.1998 -1.9995
 5959SOL    HW229511   0.445   0.904   8.963  2.4755 -1.8216  3.4189
 5960SOL     OW29512   0.664   2.841   8.801  0.2323 -0.0625  0.2784
 5960SOL    HW129513   0.741   2.842   8.745  0.2904  0.3862  0.3703
 5960SOL    HW229514   0.678   2.758   8.847  0.8629 -0.8378 -1.2748
 5961SOL     OW29515   3.379   4.417   2.428  0.1840  0.5076  0.3132
 5961SOL    HW129516   3.308   4.452   2.373  0.1654 -1.0681 -0.6828
 5961SOL    HW229517   3.451   4.478   2.418  0.0012  0.5012 -1.0183
 5962SOL     OW29518   4.159   2.466  14.387 -0.6134 -0.2402  0.4208
 5962SOL    HW129519   4.233   2.488  14.331 -1.7104 -0.0977 -0.9567
 5962SOL    HW229520   4.124   2.401  14.326  1.5693 -0.9517 -0.0748
 5963SOL     OW29521   2.110   4.487   4.464 -0.4142  0.5362 -0.0200
 5963SOL    HW129522   2.139   4.557   4.521  0.8953  0.7339 -0.9127
 5963SOL    HW229523   2.143   4.419   4.523  0.2289  0.4827 -0.4437
 5964SOL     OW29524   3.800   0.707   2.380 -0.2178 -0.3636 -0.4271
 5964SOL    HW129525   3.865   0.729   2.447  0.7004 -1.3057 -0.9941
 5964SOL    HW229526   3.749   0.646   2.433 -0.8911  0.8259  0.2710
 5965SOL     OW29527   2.547   3.868  13.951  0.1679 -0.6753 -0.1219
 5965SOL    HW129528   2.484   3.898  13.886 -0.7664 -1.2903  0.4913
 5965SOL    HW229529   2.491   3.873  14.029  1.1319  1.0484  0.4577
 5966SOL     OW29530   0.826   0.702   5.860 -0.3871  0.0764  0.0509
 5966SOL    HW129531   0.785   0.765   5.920  2.1173  2.2217 -0.4941
 5966SOL    HW229532   0.901   0.751   5.828 -1.2509  0.7597 -0.9273
 5967SOL     OW29533   0.861   1.890   3.334 -0.1299 -0.2416 -0.2923
 5967SOL    HW129534   0.897   1.975   3.359 -0.0764 -0.5865  0.8067
 5967SOL    HW229535   0.814   1.870   3.415  0.4398  2.0503  0.6067
 5968SOL     OW29536   1.237   4.652  10.956 -0.2276  0.7117  0.1511
 5968SOL    HW129537   1.249   4.627  11.048 -0.6827 -1.0868 -0.2794
 5968SOL    HW229538   1.150   4.689  10.971 -0.2475  0.8393 -0.2870
 5969SOL     OW29539   4.129   0.180   2.194 -0.5475 -0.0191  0.2577
 5969SOL    HW129540   4.055   0.120   2.209  0.3317 -1.0056  0.6235
 5969SOL    HW229541   4.172   0.141   2.119 -0.7551  0.8885 -0.3347
 5970SOL     OW29542   3.762   3.018  13.778 -0.5702  0.0013 -0.1963
 5970SOL    HW129543   3.791   3.071  13.853 -0.8508  1.8548 -1.4088
 5970SOL    HW229544   3.843   2.971  13.756 -0.6409  0.1884 -0.8549
 5971SOL     OW29545   3.007   1.564  15.589  0.1487  0.0058  0.7296
 5971SOL    HW129546   2.933   1.538  15.535 -0.9587  1.3734  1.6198
 5971SOL    HW229547   3.050   1.620  15.525  0.2552 -0.5762  0.2883
 5972SOL     OW29548   3.643   1.723   7.981  0.1833 -0.5912  0.0671
 5972SOL    HW129549   3.732   1.688   7.971  1.0183  1.4730  0.2239
 5972SOL    HW229550   3.649   1.815   7.955  1.9590 -0.7849 -0.2141
 5973SOL     OW29551   2.902   0.186   2.302  0.2927  0.3522 -0.2040
 5973SOL    HW129552   2.902   0.151   2.391  1.2844  1.5513  0.2774
 5973SOL    HW229553   2.819   0.234   2.299 -1.0348 -1.9416  0.2535
 5974SOL     OW29554   0.892   2.447   6.012 -0.0526 -0.6643  0.1405
 5974SOL    HW129555   0.955   2.485   6.074 -0.4641  3.1726 -1.7765
 5974SOL    HW229556   0.952   2.432   5.939 -0.2332 -0.0278 -0.1421
 5975SOL     OW29557   2.091   0.810   2.867 -0.3225 -0.4358  0.3815
 5975SOL    HW129558   2.106   0.800   2.773  2.0964  0.3470  0.6793
 5975SOL    HW229559   1.996   0.801   2.870 -0.4576  0.4098 -1.3175
 5976SOL     OW29560   0.746   4.221   6.034 -0.2486 -0.5591 -0.6267
 5976SOL    HW129561   0.651   4.215   6.048  0.0353  2.1369  2.5605
 5976SOL    HW229562   0.768   4.130   6.054  2.5753  0.2389 -0.1074
 5977SOL     OW29563   2.758   3.044  16.790 -0.2041  0.3445 -0.3777
 5977SOL    HW129564   2.719   3.111  16.733 -3.0713  1.3408  2.7227
 5977SOL    HW229565   2.851   3.065  16.786 -0.4286  1.6453  1.1508
 5978SOL     OW29566   1.805   0.193   4.186  0.4327  0.8667 -0.0325
 5978SOL    HW129567   1.804   0.278   4.230 -1.1951  0.0726  1.4480
 5978SOL    HW229568   1.823   0.214   4.094  1.2823  1.1980  0.2094
 5979SOL     OW29569   2.072   4.209  15.546  0.0594  0.1600  0.4857
 5979SOL    HW129570   2.074   4.137  15.609  0.9758 -1.5753 -1.5413
 5979SOL    HW229571   2.128   4.269  15.595 -0.4792  2.1163 -1.3322
 5980SOL     OW29572   2.606   1.950   9.721 -0.1767 -0.2413  0.4391
 5980SOL    HW129573   2.596   1.856   9.705 -3.3640  0.5278 -1.9772
 5980SOL    HW229574   2.576   1.968   9.810  1.1146  1.1765  0.5846
 5981SOL     OW29575   0.147   3.043   4.135 -0.3151 -0.3581  0.3855
 5981SOL    HW129576   0.066   3.041   4.083 -0.3635 -1.1014  0.4921
 5981SOL    HW229577   0.189   3.126   4.112  0.6418 -0.3598  2.1603
 5982SOL     OW29578   2.876   2.670   2.135 -0.4827 -0.4257  0.1872
 5982SOL    HW129579   2.862   2.681   2.229 -1.3393 -1.2055  0.1542
 5982SOL    HW229580   2.907   2.580   2.130 -1.8240 -0.9336  1.1317
 5983SOL     OW29581   4.171   1.870  10.038 -0.0432 -0.2361  0.3101
 5983SOL    HW129582   4.205   1.780  10.045  1.2895  0.4068  2.0232
 5983SOL    HW229583   4.251   1.918  10.057 -0.9521  0.2423  2.9510
 5984SOL     OW29584   4.025   3.187   4.782 -0.5690  0.3285 -0.1908
 5984SOL    HW129585   4.094   3.255   4.777 -0.6931  0.7613  4.4132
 5984SOL    HW229586   4.013   3.171   4.688  2.8415  0.5290 -0.6760
 5985SOL     OW29587   2.776   0.745   4.714  0.4195 -0.1326  0.6508
 5985SOL    HW129588   2.822   0.779   4.637  1.4794  1.8594  2.1518
 5985SOL    HW229589   2.834   0.675   4.744 -1.7110 -1.8850  0.6602
 5986SOL     OW29590   1.920   2.675  16.883 -0.0900 -0.5210 -0.0715
 5986SOL    HW129591   1.959   2.605  16.831  1.6268 -0.0135  0.5619
 5986SOL    HW229592   1.974   2.747  16.851 -0.3228 -0.3545 -0.0894
 5987SOL     OW29593   0.601   0.930   3.131  0.2303 -0.0612  0.3965
 5987SOL    HW129594   0.565   1.001   3.078 -0.5651 -1.8695 -1.5131
 5987SOL    HW229595   0.587   0.856   3.072 -1.1752  1.9663 -1.8052
 5988SOL     OW29596   3.485   2.828   9.326 -0.2219  0.3096  0.7014
 5988SOL    HW129597   3.491   2.735   9.346 -1.2530 -0.2341 -1.5859
 5988SOL    HW229598   3.537   2.823   9.246  0.1405 -0.3376  0.9787
 5989SOL     OW29599   3.493   3.352   8.111 -0.1378  0.5430 -0.3753
 5989SOL    HW129600   3.587   3.336   8.118  0.0191  1.7139  0.1642
 5989SOL    HW229601   3.456   3.267   8.132  0.4105 -0.4361 -3.3198
 5990SOL     OW29602   1.923   4.268   3.808  0.2413 -0.1502  0.1766
 5990SOL    HW129603   1.863   4.250   3.736 -0.9863  1.6200  0.7629
 5990SOL    HW229604   2.003   4.288   3.760  0.4215  0.0715  0.5703
 5991SOL     OW29605   2.698   1.265  14.707  0.1741  0.0593 -0.2866
 5991SOL    HW129606   2.659   1.223  14.630 -0.5571  0.6826 -0.2512
 5991SOL    HW229607   2.620   1.286  14.758 -0.7115 -1.3050 -1.0624
 5992SOL     OW29608   1.055   2.387   7.386  0.2245  0.0651 -0.5941
 5992SOL    HW129609   1.068   2.405   7.480  0.0070  0.5833 -0.6651
 5992SOL    HW229610   1.032   2.295   7.401  1.1616 -0.0598  0.1179
 5993SOL     OW29611   2.989   4.079   5.194  0.5841  0.2466 -0.0454
 5993SOL    HW129612   2.901   4.109   5.174 -0.3708  0.4036  4.3766
 5993SOL    HW229613   3.041   4.153   5.160 -0.0183  0.4381 -0.5411
 5994SOL     OW29614   3.440   4.290   2.668 -0.6998  0.8290  0.1941
 5994SOL    HW129615   3.535   4.282   2.655 -0.6946  0.5433  0.4146
 5994SOL    HW229616   3.421   4.323   2.580 -1.0342  2.7551  0.9946
 5995SOL     OW29617   1.622   1.500   5.768  0.3904 -0.3662 -0.2054
 5995SOL    HW129618   1.527   1.487   5.778  0.7152 -0.7418  2.3139
 5995SOL    HW229619   1.659   1.448   5.839 -2.8086 -0.2298  1.6016
 5996SOL     OW29620   0.478   4.364   3.243 -0.1024 -0.2401 -0.0646
 5996SOL    HW129621   0.556   4.415   3.223  1.1035 -2.4591 -1.0434
 5996SOL    HW229622   0.497   4.324   3.328 -2.2468 -0.5677  0.2666
 5997SOL     OW29623   1.996   2.082  17.072 -0.2049  0.5950 -0.1487
 5997SOL    HW129624   1.986   2.013  17.006 -1.0976  1.5046 -0.9565
 5997SOL    HW229625   2.091   2.088  17.060 -0.1323 -1.5602 -0.6776
 5998SOL     OW29626   0.597   0.304   5.327 -0.2869 -0.3055 -0.5877
 5998SOL    HW129627   0.658   0.246   5.372  0.0445  1.6746  1.4748
 5998SOL    HW229628   0.654   0.367   5.284 -1.5332  0.1141 -1.6363
 5999SOL     OW29629   0.122   0.887  10.146  0.2633 -0.0418 -0.0413
 5999SOL    HW129630   0.158   0.966  10.106  0.1686 -0.7001 -1.4308
 5999SOL    HW229631   0.056   0.852  10.086 -0.0227  1.0881 -0.3968
 6000SOL     OW29632   2.737   0.701   5.761  0.2762 -0.1414  0.0701
 6000SOL    HW129633   2.707   0.691   5.851 -0.5570 -0.7290 -0.2731
 6000SOL    HW229634   2.828   0.725   5.775  0.2595 -0.2381  0.3396
 6001SOL     OW29635   3.444   2.200   8.176  0.6662 -0.6775 -0.1118
 6001SOL    HW129636   3.421   2.204   8.268  0.0870  0.2539 -0.2933
 6001SOL    HW229637   3.370   2.157   8.134  0.2153  2.3043 -2.4130
 6002SOL     OW29638   0.684   4.290   5.174  0.3586  0.3242  0.4566
 6002SOL    HW129639   0.641   4.359   5.123 -0.5862 -0.9852 -0.5450
 6002SOL    HW229640   0.657   4.213   5.124  0.8610 -1.2858  2.6857
 6003SOL     OW29641   3.002   0.818   6.074 -0.2257 -0.3029  0.0821
 6003SOL    HW129642   3.027   0.806   6.166 -1.5702  0.0160  0.4951
 6003SOL    HW229643   2.963   0.732   6.060 -2.4395  0.9557 -1.3665
 6004SOL     OW29644   2.181   1.432   5.093  0.2901 -0.5398 -0.1425
 6004SOL    HW129645   2.089   1.411   5.103  0.1475 -0.4001 -1.1148
 6004SOL    HW229646   2.164   1.505   5.033  3.8257  0.4519  0.0321
 6005SOL     OW29647   3.413   1.466   6.510 -0.0961  0.5575 -0.0078
 6005SOL    HW129648   3.332   1.454   6.462  1.1426  2.0461 -2.5159
 6005SOL    HW229649   3.386   1.492   6.598 -2.5539 -2.5655  0.1426
 6006SOL     OW29650   1.251   1.496   8.162 -0.1399 -0.0052 -0.6824
 6006SOL    HW129651   1.290   1.445   8.091  0.9112  1.0349 -0.8664
 6006SOL    HW229652   1.206   1.429   8.213 -1.3153  1.5928  0.3627
 6007SOL     OW29653   2.194   1.650   9.918  0.2838 -0.7274 -0.4730
 6007SOL    HW129654   2.266   1.701   9.955 -1.5283  0.9017  0.7413
 6007SOL    HW229655   2.216   1.560   9.946  2.8994 -0.5028 -1.8211
 6008SOL     OW29656   0.293   4.641   6.819  0.0290  0.8918 -0.1698
 6008SOL    HW129657   0.313   4.552   6.790  0.4902  1.3621 -1.3243
 6008SOL    HW229658   0.221   4.649   6.756 -0.9229  1.1258  0.9527
 6009SOL     OW29659   3.171   4.231   8.579 -0.1355 -0.4356  0.0444
 6009SOL    HW129660   3.147   4.270   8.663 -0.6577  0.1132 -0.3542
 6009SOL    HW229661   3.225   4.158   8.609  1.5463 -0.4047 -2.9411
 6010SOL     OW29662   1.140   2.823   9.166  0.4143 -0.4562 -0.2465
 6010SOL    HW129663   1.162   2.857   9.079 -1.4512  1.1220 -0.0846
 6010SOL    HW229664   1.154   2.897   9.225 -1.1658  0.5745 -1.1775
 6011SOL     OW29665   3.091   1.547   2.780 -0.2058  0.4994  0.3057
 6011SOL    HW129666   3.104   1.600   2.859  0.1754 -0.4306  0.8709
 6011SOL    HW229667   2.997   1.566   2.777  0.2828  2.8168 -0.6060
 6012SOL     OW29668   0.347   4.195  13.531 -0.1072 -0.2776  0.4238
 6012SOL    HW129669   0.394   4.244  13.598 -2.5390  0.9739  1.2009
 6012SOL    HW229670   0.381   4.230  13.448 -0.2889 -0.6994  0.1732
 6013SOL     OW29671   2.375   2.551   5.825 -0.4526 -0.2904  0.3322
 6013SOL    HW129672   2.315   2.477   5.832 -1.4722  0.4206 -1.0145
 6013SOL    HW229673   2.408   2.545   5.915  1.1685  1.5614 -0.1326
 6014SOL     OW29674   2.720   3.912   5.874 -0.2668 -0.1454 -0.2769
 6014SOL    HW129675   2.773   3.874   5.943 -1.2874 -0.2692  0.4408
 6014SOL    HW229676   2.660   3.959   5.931  0.2172 -1.7524  1.5275
 6015SOL     OW29677   1.885   1.151   7.405 -0.0681  0.5030 -0.2754
 6015SOL    HW129678   1.933   1.078   7.446  2.4736  0.2536 -3.6949
 6015SOL    HW229679   1.965   1.187   7.367 -0.7352 -0.0803 -2.2334
 6016SOL     OW29680   1.554   2.699  12.013  0.2307 -0.4652 -0.0213
 6016SOL    HW129681   1.507   2.704  11.930 -0.6766  0.2470  0.5265
 6016SOL    HW229682   1.510   2.639  12.073 -1.0355  0.6474  0.1616
 6017SOL     OW29683   0.395   0.282   1.884  0.6096  0.6432  0.0881
 6017SOL    HW129684   0.327   0.350   1.878  0.8871  0.7532 -1.8599
 6017SOL    HW229685   0.379   0.224   1.810  1.8974  1.7217 -1.0328
 6018SOL     OW29686   3.026   2.265   5.479 -0.4166  0.0456  0.5454
 6018SOL    HW129687   3.032   2.183   5.529  0.6014  1.2147  2.3448
 6018SOL    HW229688   2.940   2.248   5.442 -1.3225 -1.7256  3.4270
 6019SOL     OW29689   0.087   0.321   4.298 -0.3147 -0.2059 -0.1604
 6019SOL    HW129690   0.156   0.326   4.365  0.2053 -2.2555 -0.5286
 6019SOL    HW229691   0.128   0.375   4.231 -0.1229  2.2188  1.9043
 6020SOL     OW29692   2.883   2.793   8.908 -0.3588 -0.0612  0.3542
 6020SOL    HW129693   2.958   2.801   8.849 -1.7040  2.6462 -0.9921
 6020SOL    HW229694   2.835   2.876   8.904  0.1233  0.1876 -0.2143
 6021SOL     OW29695   1.718   0.936   7.089  0.0920 -0.1546  0.6604
 6021SOL    HW129696   1.637   0.894   7.118  1.0389 -1.2064  1.7970
 6021SOL    HW229697   1.786   0.869   7.097 -1.4112 -1.6612  0.7097
 6022SOL     OW29698   3.731   1.220   8.420  0.1889 -0.3882  0.0050
 6022SOL    HW129699   3.790   1.156   8.461 -0.0062 -0.2110  0.5638
 6022SOL    HW229700   3.795   1.281   8.384  2.5041 -2.4211  0.6156
 6023SOL     OW29701   2.460   0.870   8.857  0.4085 -0.1293 -0.2459
 6023SOL    HW129702   2.533   0.848   8.798 -0.2533 -0.3022 -0.9952
 6023SOL    HW229703   2.470   0.816   8.936  1.6371 -0.2194 -0.4623
 6024SOL     OW29704   1.837   3.963  16.158 -0.0506  0.6063  0.7630
 6024SOL    HW129705   1.793   4.045  16.136  0.9761  0.6999 -1.0004
 6024SOL    HW229706   1.764   3.904  16.139 -0.5643  0.8014  2.1349
 6025SOL     OW29707   1.706   3.282   0.827  0.5765  0.2088 -0.4254
 6025SOL    HW129708   1.747   3.197   0.842 -3.2099 -1.8417 -2.0210
 6025SOL    HW229709   1.700   3.278   0.732 -0.3934 -0.6858 -0.3131
 6026SOL     OW29710   1.693   1.973   4.676  0.6945  0.3957 -0.0035
 6026SOL    HW129711   1.616   1.996   4.624 -0.6742  0.1310  1.9010
 6026SOL    HW229712   1.765   2.025   4.642  0.8162  0.1441 -0.1318
 6027SOL     OW29713   3.166   1.223  17.748  0.4186  0.7421 -0.1523
 6027SOL    HW129714   3.246   1.197   0.040  0.1236 -0.4303 -0.2932
 6027SOL    HW229715   3.119   1.264   0.068  1.1362  0.1807  0.6282
 6028SOL     OW29716   2.701   1.717   7.278  0.3816  0.5220  0.5195
 6028SOL    HW129717   2.671   1.635   7.316  1.3787 -0.1113 -0.0553
 6028SOL    HW229718   2.792   1.701   7.252 -0.4409 -2.1890 -0.6952
 6029SOL     OW29719   1.067   3.955  10.205 -0.6548 -0.3919 -0.4111
 6029SOL    HW129720   1.100   4.031  10.159 -1.2009 -0.5324 -1.0321
 6029SOL    HW229721   1.151   3.935  10.247 -0.2787 -0.7620 -1.3519
 6030SOL     OW29722   0.202   4.639  17.209  0.0501  0.2221  0.3879
 6030SOL    HW129723   0.182   4.659  17.300  0.2356  1.1010  0.2383
 6030SOL    HW229724   0.292   4.670  17.201  0.4444 -0.6702  1.3518
 6031SOL     OW29725   3.932   3.172   8.010  0.1567 -0.3239  0.1284
 6031SOL    HW129726   3.928   3.243   7.946  0.6219 -0.2390  0.1928
 6031SOL    HW229727   3.947   3.233   8.082  1.2079  2.5146 -2.4781
 6032SOL     OW29728   2.766   3.207  17.008 -0.1382 -0.1114 -0.2555
 6032SOL    HW129729   2.758   3.136  16.944  1.3024 -1.7359  1.3653
 6032SOL    HW229730   2.775   3.153  17.086 -0.3187 -0.0676 -0.2036
 6033SOL     OW29731   2.664   4.168   4.894 -0.2979  0.1274 -0.0675
 6033SOL    HW129732   2.692   4.136   4.808  2.8208 -3.4919  2.2616
 6033SOL    HW229733   2.625   4.088   4.930 -1.0756 -0.1728 -1.5994
 6034SOL     OW29734   0.175   1.311   3.777  0.1700 -0.0857 -0.2755
 6034SOL    HW129735   0.154   1.373   3.847  2.7410  2.0064 -1.3766
 6034SOL    HW229736   0.192   1.373   3.707 -0.1016  1.2049  0.8016
 6035SOL     OW29737   4.018   1.224   5.285 -0.6596 -0.1570 -0.1174
 6035SOL    HW129738   3.967   1.305   5.287 -1.1454 -0.4326 -1.8558
 6035SOL    HW229739   4.098   1.256   5.326 -1.3739  2.1154 -0.4953
 6036SOL     OW29740   0.492   2.006  11.789  0.1277  0.3573 -0.4409
 6036SOL    HW129741   0.526   2.018  11.878 -0.7641  0.7258 -0.1521
 6036SOL    HW229742   0.565   2.013  11.728  1.1951  0.1039  0.8239
 6037SOL     OW29743   3.514   0.499  14.936 -0.2907 -0.2651  0.6340
 6037SOL    HW129744   3.525   0.535  15.024 -0.2421 -0.5852  0.7568
 6037SOL    HW229745   3.421   0.523  14.930  0.0914  0.8581 -0.6140
 6038SOL     OW29746   2.202   1.911   1.808 -0.3644  0.4586  0.1415
 6038SOL    HW129747   2.286   1.917   1.762 -0.1006 -0.1939  0.5497
 6038SOL    HW229748   2.240   1.917   1.895  0.8341  1.5943 -0.4476
 6039SOL     OW29749   2.626   3.517   5.651  0.5343  0.5031 -0.0215
 6039SOL    HW129750   2.712   3.560   5.648 -0.0261  1.6175 -0.0631
 6039SOL    HW229751   2.585   3.546   5.732 -1.7215  2.1011 -1.7623
 6040SOL     OW29752   0.034   3.688   9.739  0.1612 -0.0000  0.1867
 6040SOL    HW129753   4.692   3.670   9.787 -1.0232 -1.5054 -2.3271
 6040SOL    HW229754   0.006   3.739   9.663 -1.8488 -1.8954 -0.3524
 6041SOL     OW29755   1.698   3.747   1.957  0.0813 -0.4215 -0.3719
 6041SOL    HW129756   1.692   3.694   1.877 -1.7523 -0.4206 -0.2511
 6041SOL    HW229757   1.616   3.719   1.998 -2.2639  3.6885 -2.2292
 6042SOL     OW29758   0.444   3.003  14.550 -0.4550  0.2457  0.2287
 6042SOL    HW129759   0.452   2.913  14.580 -0.0514 -0.0681 -0.8189
 6042SOL    HW229760   0.374   3.037  14.605 -0.5084  0.4621  0.0323
 6043SOL     OW29761   4.050   3.213  14.537 -0.0337 -0.2904 -0.6691
 6043SOL    HW129762   4.069   3.177  14.624  1.2079  1.2403 -0.3125
 6043SOL    HW229763   4.108   3.157  14.485  0.9704  1.0704 -0.9985
 6044SOL     OW29764   2.033   3.314   5.396 -0.1919 -0.1253  0.2103
 6044SOL    HW129765   1.981   3.394   5.398 -0.6554 -0.4229  0.1263
 6044SOL    HW229766   2.122   3.344   5.379 -0.2034  0.4296  1.1192
 6045SOL     OW29767   1.012   1.821   0.867  0.1533  0.3329  0.0535
 6045SOL    HW129768   1.072   1.831   0.794 -0.9849  2.2147 -0.6256
 6045SOL    HW229769   0.958   1.899   0.864 -0.4995 -0.0649  1.2472
 6046SOL     OW29770   2.373   4.185   7.848 -0.0094 -0.2281  0.3540
 6046SOL    HW129771   2.466   4.209   7.850  0.1551 -0.8870  0.3884
 6046SOL    HW229772   2.326   4.246   7.905 -0.4182  0.3029 -0.5330
 6047SOL     OW29773   3.443   1.134   8.783  0.3184 -0.4738 -0.1585
 6047SOL    HW129774   3.484   1.212   8.746 -3.8553  0.9555 -1.7584
 6047SOL    HW229775   3.428   1.166   8.872 -0.3528  2.8488 -1.4495
 6048SOL     OW29776   1.401   2.317   4.121 -0.3610 -0.5040  0.0045
 6048SOL    HW129777   1.324   2.365   4.153 -1.6833 -2.0070 -0.9196
 6048SOL    HW229778   1.437   2.390   4.071 -0.6513 -0.2918  0.0997
 6049SOL     OW29779   3.027   4.325  13.234  0.5326  0.4582 -0.1477
 6049SOL    HW129780   3.092   4.329  13.304  0.5636 -1.7440 -0.0409
 6049SOL    HW229781   3.029   4.417  13.208 -0.2229  0.8265  1.0983
 6050SOL     OW29782   3.770   1.162   5.029 -0.2006 -0.4352  0.1729
 6050SOL    HW129783   3.678   1.150   5.052 -0.4077  2.1358  0.5910
 6050SOL    HW229784   3.799   1.071   5.038  1.3195  0.0941  0.7352
 6051SOL     OW29785   2.561   2.445   1.601  0.0216  0.4862 -0.5672
 6051SOL    HW129786   2.562   2.510   1.531 -3.2683  0.7244 -0.3760
 6051SOL    HW229787   2.583   2.366   1.551 -0.6861 -0.0427 -0.0351
 6052SOL     OW29788   0.453   2.754  14.654  0.2463  0.0024  0.1755
 6052SOL    HW129789   0.492   2.666  14.651  1.5681  0.6178 -0.4312
 6052SOL    HW229790   0.365   2.718  14.663  0.1408  0.2030 -0.0508
 6053SOL     OW29791   0.869   4.182  16.033  0.2787 -0.4376 -0.6363
 6053SOL    HW129792   0.960   4.168  16.009  0.8872  1.0559  0.8750
 6053SOL    HW229793   0.874   4.157  16.125  2.1801  0.5227 -0.4974
 6054SOL     OW29794   1.352   1.416   5.799 -0.1774  1.1119 -0.0307
 6054SOL    HW129795   1.372   1.325   5.823  1.6004  1.5528  0.1612
 6054SOL    HW229796   1.296   1.409   5.722 -1.9446  1.1233  1.2558
 6055SOL     OW29797   4.307   1.602   6.212 -0.0839  0.1855 -0.3606
 6055SOL    HW129798   4.250   1.674   6.186  1.1275  1.6113  0.9972
 6055SOL    HW229799   4.379   1.638   6.263 -0.2151 -1.1095  0.7497
 6056SOL     OW29800   4.190   2.382   9.210  0.3752 -0.0590 -0.1302
 6056SOL    HW129801   4.261   2.429   9.254  1.6793 -1.5263 -0.6437
 6056SOL    HW229802   4.130   2.450   9.182  0.1877 -0.5799 -0.9657
 6057SOL     OW29803   1.568   3.187  10.178 -0.2121 -0.3165  1.3541
 6057SOL    HW129804   1.527   3.101  10.184  0.0753 -0.6493 -1.3183
 6057SOL    HW229805   1.659   3.164  10.161 -0.0640  2.3231 -1.6564
 6058SOL     OW29806   3.460   3.392   1.888 -0.1414  1.1742 -0.1311
 6058SOL    HW129807   3.457   3.464   1.826 -1.7798  1.4296  0.2486
 6058SOL    HW229808   3.372   3.356   1.872  1.0737 -1.8361 -0.0972
 6059SOL     OW29809   1.158   1.028   8.851  0.9506 -0.3525  0.0806
 6059SOL    HW129810   1.089   1.003   8.913  0.0165 -0.0472 -0.8195
 6059SOL    HW229811   1.218   1.074   8.910 -0.3932  1.1911  0.2813
 6060SOL     OW29812   4.321   3.037  12.577 -0.0470 -0.7989  0.3179
 6060SOL    HW129813   4.274   2.976  12.521  0.3436 -2.2170  1.5402
 6060SOL    HW229814   4.271   3.119  12.569  0.8157 -0.3522 -0.4340
 6061SOL     OW29815   0.163   3.689   6.869  0.1027  0.3926 -0.3467
 6061SOL    HW129816   0.068   3.695   6.853 -0.0740  0.7362  0.8477
 6061SOL    HW229817   0.182   3.779   6.843  2.1929  0.3160  0.9498
 6062SOL     OW29818   1.521   3.175   4.815 -0.4805  0.1808  0.3887
 6062SOL    HW129819   1.523   3.178   4.719  0.7866 -4.0992  0.2913
 6062SOL    HW229820   1.600   3.129   4.842 -0.3828  0.1790  0.0960
 6063SOL     OW29821   3.160   0.074   8.216 -0.0821 -0.0198 -0.0981
 6063SOL    HW129822   3.238   0.044   8.262 -1.0432 -2.7605 -0.2461
 6063SOL    HW229823   3.090   0.063   8.280  0.6324  0.6067  0.7825
 6064SOL     OW29824   1.896   3.115   1.804  0.2613  0.0800 -1.0873
 6064SOL    HW129825   1.819   3.151   1.848  0.2920  0.2386 -1.1629
 6064SOL    HW229826   1.915   3.033   1.849 -2.4092  0.0339 -0.0551
 6065SOL     OW29827   2.014   3.899   4.279  0.0696 -0.6810  0.0828
 6065SOL    HW129828   1.939   3.925   4.333  1.5366  0.5903  1.5286
 6065SOL    HW229829   2.066   3.849   4.343  1.2393 -0.0641 -0.3782
 6066SOL     OW29830   3.288   2.723   2.789  0.5027  0.1941 -0.0422
 6066SOL    HW129831   3.352   2.668   2.833 -1.2177 -2.9354 -1.4551
 6066SOL    HW229832   3.208   2.675   2.811  1.2487 -1.1024 -0.1241
 6067SOL     OW29833   4.452   0.334  13.097  0.3368  0.2539  0.5521
 6067SOL    HW129834   4.419   0.387  13.025 -0.1130 -0.3435  0.3112
 6067SOL    HW229835   4.483   0.265  13.039 -0.1414  0.9231 -0.4846
 6068SOL     OW29836   3.912   0.026   1.912 -0.0844  0.1202 -1.0357
 6068SOL    HW129837   3.838   4.738   1.858 -1.2816  1.9136 -0.2698
 6068SOL    HW229838   3.972   0.054   1.843 -1.0261  0.8037 -1.5770
 6069SOL     OW29839   1.635   2.647   5.019 -0.6805  0.5535  0.1925
 6069SOL    HW129840   1.679   2.630   5.102  0.3007 -0.0333 -0.4327
 6069SOL    HW229841   1.694   2.716   4.988 -0.5850  0.6631  0.6144
 6070SOL     OW29842   0.590   3.205  13.320  0.0327  0.5503  0.4165
 6070SOL    HW129843   0.579   3.221  13.226  0.4130 -3.1794 -0.2738
 6070SOL    HW229844   0.604   3.296  13.346 -2.1847  0.1207  3.1786
 6071SOL     OW29845   2.964   0.385  14.138 -0.2528 -0.1466  0.1647
 6071SOL    HW129846   3.004   0.440  14.206 -1.7940  0.7626  0.3456
 6071SOL    HW229847   2.978   0.439  14.061  1.5866 -0.3733  0.3397
 6072SOL     OW29848   3.393   3.885   5.791 -0.0884  0.0852 -0.6668
 6072SOL    HW129849   3.405   3.964   5.738 -0.6094 -0.6195 -1.8190
 6072SOL    HW229850   3.319   3.922   5.841  0.1384 -0.4248  0.0480
 6073SOL     OW29851   2.294   0.277   0.966 -0.1527 -0.0759 -0.6524
 6073SOL    HW129852   2.373   0.262   1.017 -0.9798 -0.0771  0.6277
 6073SOL    HW229853   2.309   0.228   0.885 -3.4835  1.4896 -2.2163
 6074SOL     OW29854   4.570   1.296   3.731 -0.5788 -0.3385 -0.5490
 6074SOL    HW129855   4.613   1.381   3.721 -0.3997 -0.4180 -0.4636
 6074SOL    HW229856   4.538   1.280   3.643  0.9370 -1.3789 -0.8999
 6075SOL     OW29857   0.833   3.747   1.996  0.0993  0.8702 -0.1185
 6075SOL    HW129858   0.925   3.734   1.976  0.0633  2.1602 -1.0943
 6075SOL    HW229859   0.817   3.817   1.933 -0.7345  0.9101  0.1312
 6076SOL     OW29860   2.477   2.588   7.789  0.1063 -0.5200 -0.4800
 6076SOL    HW129861   2.502   2.553   7.875 -1.8212 -1.0677 -0.1478
 6076SOL    HW229862   2.542   2.655   7.771 -0.3588 -0.7376 -2.8868
 6077SOL     OW29863   2.217   0.512  15.227  0.0974 -0.5953  0.3887
 6077SOL    HW129864   2.254   0.496  15.313 -0.6131  3.8338  1.5048
 6077SOL    HW229865   2.295   0.495  15.175  0.1791  2.5799 -0.5409
 6078SOL     OW29866   2.101   3.958   7.992 -1.0053 -0.3612 -0.0577
 6078SOL    HW129867   2.061   3.873   7.974 -0.3604 -0.7532  0.3749
 6078SOL    HW229868   2.027   4.000   8.036  0.3738  0.5070  1.4692
 6079SOL     OW29869   2.357   3.432   7.874 -0.2192 -0.0902 -0.6802
 6079SOL    HW129870   2.448   3.459   7.860 -0.1561  0.4992  0.8019
 6079SOL    HW229871   2.345   3.377   7.797  1.5658  0.0493 -1.0655
 6080SOL     OW29872   2.862   3.926   7.189  0.0852 -0.5332  0.1544
 6080SOL    HW129873   2.940   3.977   7.210 -0.0045 -0.6534  0.7612
 6080SOL    HW229874   2.825   3.977   7.116 -0.5121  1.4241  1.8469
 6081SOL     OW29875   4.068   3.084   6.851 -0.2141 -0.4458  0.2213
 6081SOL    HW129876   4.024   3.147   6.794  1.6867 -1.4527 -2.4053
 6081SOL    HW229877   4.057   3.117   6.940 -0.8863  0.4061 -0.1837
 6082SOL     OW29878   3.639   0.405  13.026 -0.1541 -0.4354  0.1202
 6082SOL    HW129879   3.583   0.344  13.074 -2.2460  2.1623  0.9386
 6082SOL    HW229880   3.722   0.356  13.023  0.2168  0.3212 -1.7674
 6083SOL     OW29881   1.760   0.852   6.523 -0.2953  0.1958 -0.1470
 6083SOL    HW129882   1.747   0.905   6.444  0.4929  0.4628 -0.1023
 6083SOL    HW229883   1.820   0.783   6.495 -1.3808 -0.3455 -1.1423
 6084SOL     OW29884   2.394   1.935  12.722 -0.0938 -0.0562 -0.3223
 6084SOL    HW129885   2.427   1.964  12.807 -2.2964  1.4521  0.0283
 6084SOL    HW229886   2.368   1.846  12.744 -0.4719  0.0513 -0.3273
 6085SOL     OW29887   2.843   3.639   5.579  0.5252  0.0501  0.7788
 6085SOL    HW129888   2.914   3.586   5.613  0.2300 -0.3251  0.8060
 6085SOL    HW229889   2.872   3.731   5.577 -5.2634  1.8006 -1.8815
 6086SOL     OW29890   1.974   2.903  10.393 -0.4560  0.1599 -0.6275
 6086SOL    HW129891   1.985   2.868  10.481  1.8881 -0.1792 -1.0625
 6086SOL    HW229892   1.902   2.842  10.378 -0.0715 -1.0664  2.6347
 6087SOL     OW29893   3.172   3.711  13.171 -0.0048  0.7563 -0.7218
 6087SOL    HW129894   3.263   3.699  13.198 -0.3601 -0.9377 -0.2277
 6087SOL    HW229895   3.121   3.736  13.248 -0.9495 -3.0231 -0.1246
 6088SOL     OW29896   0.637   0.559   6.746 -0.0881  0.6338  0.2945
 6088SOL    HW129897   0.559   0.562   6.801 -1.3885  1.6349 -1.6024
 6088SOL    HW229898   0.619   0.481   6.694  1.4961  0.2428  0.3313
 6089SOL     OW29899   3.842   1.682   9.646  0.0199  0.0125  0.5068
 6089SOL    HW129900   3.842   1.720   9.734 -0.7514  0.4453  0.3193
 6089SOL    HW229901   3.763   1.722   9.609 -0.4304 -0.6032  0.8049
 6090SOL     OW29902   0.378   3.510   2.801  0.3054 -0.3366  0.4405
 6090SOL    HW129903   0.307   3.496   2.864 -0.4639  0.2109 -0.3090
 6090SOL    HW229904   0.347   3.452   2.732  0.7700  0.3084 -0.3006
 6091SOL     OW29905   0.157   4.069   4.904  0.0017  0.2239  0.0096
 6091SOL    HW129906   0.092   4.049   4.972 -0.0804  2.8200  0.7372
 6091SOL    HW229907   0.176   4.159   4.932  0.6165 -0.1225  0.7013
 6092SOL     OW29908   4.191   1.938   9.251  0.3723 -0.1494  0.1236
 6092SOL    HW129909   4.150   1.933   9.337  1.5943 -2.1767  0.5814
 6092SOL    HW229910   4.134   1.883   9.198 -0.7296  0.7628  0.3692
 6093SOL     OW29911   2.882   0.455   5.328  0.0399 -0.3697 -0.9592
 6093SOL    HW129912   2.879   0.532   5.385 -0.2016 -0.7694 -0.4241
 6093SOL    HW229913   2.821   0.471   5.256 -2.0688  0.4005  0.9948
 6094SOL     OW29914   2.174   3.539   2.432 -0.3069  0.2541  0.3996
 6094SOL    HW129915   2.264   3.518   2.459  0.4221  2.8025 -0.1271
 6094SOL    HW229916   2.181   3.619   2.380  0.5290 -0.2898 -0.3179
 6095SOL     OW29917   1.811   2.089  15.517 -0.0780 -0.2526 -0.3442
 6095SOL    HW129918   1.862   2.025  15.567  0.4666  1.0943  0.8266
 6095SOL    HW229919   1.802   2.028  15.444  0.3929 -1.4917  0.6304
 6096SOL     OW29920   0.121   3.573   1.777 -0.4623  1.3601 -0.5552
 6096SOL    HW129921   0.079   3.505   1.724  1.2313 -2.3286  2.8566
 6096SOL    HW229922   0.121   3.528   1.861 -0.7850  1.0009 -0.7478
 6097SOL     OW29923   3.640   3.629   5.094 -0.5299 -0.8110  0.3093
 6097SOL    HW129924   3.591   3.686   5.035  1.7787 -1.1266 -1.8723
 6097SOL    HW229925   3.623   3.679   5.173  0.0013  1.0040 -0.7418
 6098SOL     OW29926   1.245   2.110   1.357  0.2285  0.4029 -0.5243
 6098SOL    HW129927   1.337   2.091   1.336  0.5965  2.8054 -0.9798
 6098SOL    HW229928   1.199   2.101   1.274 -2.0673  0.2542  0.7726
 6099SOL     OW29929   0.728   0.512  15.979 -0.0070  0.3558 -0.4350
 6099SOL    HW129930   0.790   0.440  15.969  0.1104  1.0126 -4.1996
 6099SOL    HW229931   0.645   0.476  15.946  0.1085 -0.1753 -0.1587
 6100SOL     OW29932   0.704   1.049  10.069 -0.3103 -0.6606  0.1864
 6100SOL    HW129933   0.643   0.976  10.083  0.4470 -1.5032 -0.9296
 6100SOL    HW229934   0.744   1.035   9.983  0.2717 -0.7195  0.4685
 6101SOL     OW29935   1.374   2.700   8.256 -0.6018  0.2905 -0.1543
 6101SOL    HW129936   1.458   2.732   8.289 -0.5524 -1.4357  1.3986
 6101SOL    HW229937   1.392   2.662   8.170  0.7258 -0.5145  0.4905
 6102SOL     OW29938   0.750   1.049   7.432  0.8268 -0.2081  0.5753
 6102SOL    HW129939   0.811   1.012   7.495  0.2789 -1.6256  0.2790
 6102SOL    HW229940   0.667   1.007   7.454  1.1588 -0.9985  0.3217
 6103SOL     OW29941   0.877   2.377   8.776  0.1186 -0.2504  0.0635
 6103SOL    HW129942   0.889   2.421   8.692 -0.0802  1.2768  0.8331
 6103SOL    HW229943   0.937   2.304   8.764  0.0171 -0.3868  0.3634
 6104SOL     OW29944   1.339   0.924   9.198  0.1272 -0.5181  0.3002
 6104SOL    HW129945   1.385   0.881   9.271 -2.9259 -0.7794  2.0754
 6104SOL    HW229946   1.417   0.945   9.148 -0.7484 -0.1651 -0.9164
 6105SOL     OW29947   2.198   4.087  10.590  0.7226 -0.2777 -0.7247
 6105SOL    HW129948   2.254   4.056  10.661 -0.9194  0.7734  1.0252
 6105SOL    HW229949   2.217   4.021  10.523  2.1182 -0.3961 -0.2103
 6106SOL     OW29950   3.974   0.515  13.121 -1.1379 -0.0555  0.1239
 6106SOL    HW129951   4.051   0.476  13.161 -1.9702 -0.8052  0.9678
 6106SOL    HW229952   4.020   0.594  13.091 -1.5785  0.2792  0.3386
 6107SOL     OW29953   0.668   1.395   4.255 -0.0585  0.1715 -0.5520
 6107SOL    HW129954   0.672   1.332   4.182  2.2392 -3.4640  2.7080
 6107SOL    HW229955   0.648   1.330   4.323  0.1020  0.5828 -0.1161
 6108SOL     OW29956   3.944   4.536   8.610 -0.2660 -0.1800  0.8616
 6108SOL    HW129957   3.987   4.508   8.691  0.6707 -1.6180 -0.1368
 6108SOL    HW229958   3.852   4.519   8.631 -0.7722 -0.5889 -1.6567
 6109SOL     OW29959   4.576   1.373  14.403 -0.0411  0.2027  0.0266
 6109SOL    HW129960   4.503   1.372  14.341 -0.0207 -2.6222  0.0284
 6109SOL    HW229961   4.645   1.425  14.362 -1.1720 -0.4176 -2.6742
 6110SOL     OW29962   0.233   2.704   2.092 -0.3133 -0.7882  0.3935
 6110SOL    HW129963   0.207   2.662   2.174 -1.1616 -1.3311 -0.1658
 6110SOL    HW229964   0.298   2.646   2.052  0.2293  1.0235 -1.3678
 6111SOL     OW29965   3.162   2.404   4.813  0.3465 -0.0336  0.0652
 6111SOL    HW129966   3.160   2.492   4.775 -1.7798  0.2741  0.8698
 6111SOL    HW229967   3.093   2.364   4.759  0.3219 -0.1279  0.1667
 6112SOL     OW29968   1.465   4.226  13.225 -0.1673  0.0462  0.2044
 6112SOL    HW129969   1.422   4.251  13.142  1.4613 -1.2103 -1.0112
 6112SOL    HW229970   1.395   4.251  13.286  0.7631  1.2706  0.7731
 6113SOL     OW29971   3.945   0.203  10.192  0.3582 -0.2502  0.3126
 6113SOL    HW129972   3.872   0.191  10.252 -0.2424  1.5635 -0.0620
 6113SOL    HW229973   4.002   0.254  10.250 -0.4188 -1.7073  2.3201
 6114SOL     OW29974   2.733   2.572   8.848  0.7187 -0.3970 -0.0267
 6114SOL    HW129975   2.654   2.537   8.889  1.6637 -0.8451  1.3934
 6114SOL    HW229976   2.748   2.663   8.871 -3.4514  0.0917  0.7536
 6115SOL     OW29977   4.146   3.985   1.500 -0.3626  0.0774 -0.2635
 6115SOL    HW129978   4.133   3.976   1.594  2.1037  1.2421  0.1897
 6115SOL    HW229979   4.225   4.040   1.496  0.2528 -0.7417  0.6309
 6116SOL     OW29980   2.722   3.938   5.611  0.4690  0.5080 -0.1690
 6116SOL    HW129981   2.717   3.917   5.704  1.3356 -1.8381 -0.6338
 6116SOL    HW229982   2.745   4.031   5.611  1.9914  0.1310  0.5204
 6117SOL     OW29983   2.486   1.291   6.416  0.1074  0.3115  0.2134
 6117SOL    HW129984   2.438   1.353   6.471  0.4099  0.2507  0.5506
 6117SOL    HW229985   2.487   1.219   6.479  0.6441 -1.0325 -1.3560
 6118SOL     OW29986   3.375   0.038   7.758  0.0723 -0.2664 -0.8317
 6118SOL    HW129987   3.456   0.088   7.760  0.6809 -1.3373  1.4914
 6118SOL    HW229988   3.353   0.037   7.851 -1.2219 -0.3500 -1.1381
 6119SOL     OW29989   3.909   2.101  16.507 -0.0273  0.0812 -0.5087
 6119SOL    HW129990   3.963   2.076  16.582 -0.7655 -1.1380 -0.3758
 6119SOL    HW229991   3.834   2.042  16.502 -0.0699  0.0573  0.3194
 6120SOL     OW29992   3.191   3.992   8.235 -0.8754 -0.2523 -0.3190
 6120SOL    HW129993   3.209   3.959   8.323  0.6866  0.8627 -0.2124
 6120SOL    HW229994   3.184   3.914   8.180 -2.6763  0.5574 -1.2561
 6121SOL     OW29995   0.917   0.694  16.360 -0.3101  0.4606  0.4556
 6121SOL    HW129996   0.910   0.788  16.374  1.2009  0.3911  1.7116
 6121SOL    HW229997   0.896   0.678  16.268  1.2912  0.6790  0.0580
 6122SOL     OW29998   3.772   2.334   2.925 -0.8838  0.0443 -0.4515
 6122SOL    HW129999   3.807   2.246   2.909 -0.8816 -0.6037  3.2083
 6122SOL    HW230000   3.681   2.311   2.942 -0.4450 -2.2458 -1.1753
 6123SOL     OW30001   3.722   2.642  16.637  0.7012 -0.3420 -0.0976
 6123SOL    HW130002   3.662   2.613  16.705 -0.2790 -1.3402 -1.3724
 6123SOL    HW230003   3.800   2.588  16.649 -1.0761 -2.7562  0.4359
 6124SOL     OW30004   3.226   2.534   7.701 -0.0385 -0.1676 -0.5279
 6124SOL    HW130005   3.283   2.490   7.764 -0.0559  1.6974  0.7886
 6124SOL    HW230006   3.265   2.505   7.619 -0.7268 -0.7651 -0.6445
 6125SOL     OW30007   4.717   4.286   6.388 -0.4881  0.0150 -0.3902
 6125SOL    HW130008   4.640   4.324   6.429 -0.7975 -1.9041  0.7834
 6125SOL    HW230009   0.048   4.325   6.440  1.0184 -2.1528 -0.7653
 6126SOL     OW30010   3.724   4.721   6.717 -0.0621 -0.0469  0.3068
 6126SOL    HW130011   3.749   0.063   6.762 -0.6382 -0.3654  1.1988
 6126SOL    HW230012   3.690   0.024   6.638 -1.2203 -1.6551 -0.0507
 6127SOL     OW30013   3.710   1.577   9.346  0.2321 -0.0926 -0.1406
 6127SOL    HW130014   3.717   1.631   9.267  1.6035  0.2286  0.2019
 6127SOL    HW230015   3.719   1.649   9.408 -1.6869  0.5288 -0.5822
 6128SOL     OW30016   1.849   0.702  11.082  0.2329 -0.3661 -0.3681
 6128SOL    HW130017   1.851   0.785  11.033 -0.9010 -0.9863 -1.4656
 6128SOL    HW230018   1.925   0.709  11.139 -0.6797 -3.2476  1.1803
 6129SOL     OW30019   3.327   3.053   8.870 -0.3207  0.6456 -0.5445
 6129SOL    HW130020   3.250   3.012   8.832 -1.8256  2.9829 -0.0316
 6129SOL    HW230021   3.335   3.006   8.953  0.5421  3.5116  0.9961
 6130SOL     OW30022   1.284   3.798   6.002 -0.2283  0.1570  0.7963
 6130SOL    HW130023   1.247   3.717   5.967 -0.1892  0.8053 -0.7341
 6130SOL    HW230024   1.230   3.809   6.080 -0.8434 -1.6004  0.6217
 6131SOL     OW30025   1.511   2.855   9.640  0.4104 -0.2906 -0.5614
 6131SOL    HW130026   1.569   2.827   9.569 -0.0807 -1.5778 -0.4563
 6131SOL    HW230027   1.531   2.948   9.631 -0.1873 -0.3249 -2.3704
 6132SOL     OW30028   0.667   4.036   1.329 -0.8056 -0.2135  0.5837
 6132SOL    HW130029   0.622   3.993   1.402 -0.0836 -1.5160  0.2460
 6132SOL    HW230030   0.739   3.974   1.337 -0.7617 -0.1227  0.8868
 6133SOL     OW30031   1.806   3.146   8.463  0.0728  0.4982 -0.0328
 6133SOL    HW130032   1.764   3.184   8.386  2.0993  0.5918 -1.1039
 6133SOL    HW230033   1.734   3.087   8.485  0.6561  0.0704  0.7554
 6134SOL     OW30034   3.473   0.877   7.619 -0.4470  0.0237  0.1808
 6134SOL    HW130035   3.461   0.970   7.600 -3.0106 -0.1359  1.0763
 6134SOL    HW230036   3.411   0.867   7.691 -1.5623 -0.5975 -0.8612
 6135SOL     OW30037   3.204   0.799  10.037  0.0328 -0.2869 -1.4006
 6135SOL    HW130038   3.224   0.718  10.084 -0.0949  0.1563 -0.5748
 6135SOL    HW230039   3.288   0.843  10.025 -0.7928  1.8191  0.4672
 6136SOL     OW30040   2.187   0.040   2.308  0.0363 -0.1871 -0.1126
 6136SOL    HW130041   2.237   4.704   2.275  0.6778  1.0442 -1.9078
 6136SOL    HW230042   2.171   0.087   2.226  0.2209  2.2046  1.2272
 6137SOL     OW30043   1.853   4.522   3.336  0.6012 -0.1753 -0.0094
 6137SOL    HW130044   1.869   4.615   3.317  0.4526 -0.1681 -0.0990
 6137SOL    HW230045   1.938   4.493   3.370  0.6795 -1.1201 -1.0245
 6138SOL     OW30046   0.745   1.155   6.368  0.3966  0.0637  0.6370
 6138SOL    HW130047   0.719   1.116   6.451  0.4547  1.0222  1.1043
 6138SOL    HW230048   0.660   1.152   6.324  0.8037  0.6860 -0.1906
 6139SOL     OW30049   3.331   0.090  16.390 -0.2984  0.6258  0.0017
 6139SOL    HW130050   3.254   0.137  16.421 -0.7032  0.1642 -0.2936
 6139SOL    HW230051   3.394   0.161  16.376 -0.6643  1.2067  1.3022
 6140SOL     OW30052   3.432   3.713  17.385  0.1005  0.0380 -0.3414
 6140SOL    HW130053   3.514   3.689  17.343  1.4870 -0.8004  2.8360
 6140SOL    HW230054   3.382   3.636  17.359 -2.1273  1.0062  1.0066
 6141SOL     OW30055   2.063   3.334   2.263 -0.8019 -0.0261 -0.4581
 6141SOL    HW130056   2.095   3.355   2.175  0.0442  0.7952  0.0442
 6141SOL    HW230057   2.132   3.369   2.319 -0.7044 -2.5543  1.0199
 6142SOL     OW30058   2.043   3.656   9.155 -0.1841  0.2708 -0.3495
 6142SOL    HW130059   2.010   3.726   9.099  0.0297 -1.3650 -2.5639
 6142SOL    HW230060   1.971   3.597   9.133 -0.2093  0.0682  0.2917
 6143SOL     OW30061   1.156   0.854   6.521 -0.2612 -0.5055  0.3601
 6143SOL    HW130062   1.152   0.946   6.494 -0.9526 -0.8839 -0.7826
 6143SOL    HW230063   1.123   0.868   6.610 -1.5152  1.7962 -0.4751
 6144SOL     OW30064   3.260   4.228   6.008 -0.0531 -0.5679 -0.3411
 6144SOL    HW130065   3.191   4.171   6.042 -0.6936  0.6520  0.4161
 6144SOL    HW230066   3.243   4.312   6.052 -1.8048 -0.4801 -1.1892
 6145SOL     OW30067   0.381   1.227   3.291  0.7021  0.2479  0.5455
 6145SOL    HW130068   0.307   1.280   3.321  0.8984  1.0564 -0.3967
 6145SOL    HW230069   0.434   1.212   3.370  1.6996  0.6969 -0.0387
 6146SOL     OW30070   3.042   4.219   5.471 -0.1380 -0.0977  0.0654
 6146SOL    HW130071   3.077   4.302   5.441  0.1308 -0.5461 -0.8544
 6146SOL    HW230072   3.041   4.164   5.393  0.1630  0.0527 -0.0414
 6147SOL     OW30073   4.728   2.692   2.841  0.3686 -0.0893  0.2209
 6147SOL    HW130074   4.708   2.684   2.747  0.5665  0.4977  0.1277
 6147SOL    HW230075   4.644   2.665   2.877  0.5190  0.7281  1.1765
 6148SOL     OW30076   3.716   2.456   8.446  0.3621 -0.4069  1.0753
 6148SOL    HW130077   3.725   2.401   8.368  1.3714 -0.3820  1.1741
 6148SOL    HW230078   3.669   2.397   8.505 -2.6920 -2.1565 -3.0882
 6149SOL     OW30079   3.610   1.597   5.858 -0.1537 -0.0993  0.2461
 6149SOL    HW130080   3.657   1.513   5.866  0.0706 -0.1605 -1.7217
 6149SOL    HW230081   3.523   1.588   5.820 -0.4531 -1.2824  1.1906
 6150SOL     OW30082   1.854   2.920   9.997  0.3006 -0.1152 -0.1835
 6150SOL    HW130083   1.869   2.982   9.926 -3.0777  0.5479 -0.3194
 6150SOL    HW230084   1.784   2.876   9.949  1.1879  2.2646 -3.6502
 6151SOL     OW30085   3.844   2.825  13.149 -0.5813  0.0375 -0.3776
 6151SOL    HW130086   3.817   2.853  13.062 -2.6648 -0.6722  0.0178
 6151SOL    HW230087   3.939   2.829  13.139 -0.7565  1.4187 -1.4127
 6152SOL     OW30088   4.333   3.013   6.816  0.5813 -0.6592  0.1390
 6152SOL    HW130089   4.341   2.924   6.781  1.0195 -1.2986  1.8676
 6152SOL    HW230090   4.239   3.025   6.807  0.7751  0.1565 -0.8956
 6153SOL     OW30091   4.687   2.681   5.063  0.0291  0.0581  0.3843
 6153SOL    HW130092   4.665   2.648   4.976 -1.2240  0.3487  0.6002
 6153SOL    HW230093   0.020   2.619   5.075  1.4865  1.5791 -0.4325
 6154SOL     OW30094   4.409   3.741   5.667  0.3958  0.0945  0.1227
 6154SOL    HW130095   4.422   3.830   5.637 -2.8738  0.9172  1.1832
 6154SOL    HW230096   4.497   3.721   5.701  1.8114  1.3529 -2.7782
 6155SOL     OW30097   2.835   3.321   3.710  0.3336 -0.3846 -0.3867
 6155SOL    HW130098   2.906   3.370   3.752  0.0965 -0.9300  0.6622
 6155SOL    HW230099   2.756   3.368   3.738  1.3683  1.3214 -0.3373
 6156SOL     OW30100   3.737   2.895   6.519 -0.3898 -0.7252  0.2732
 6156SOL    HW130101   3.780   2.932   6.441 -1.9967 -0.1584 -0.3524
 6156SOL    HW230102   3.792   2.937   6.585  1.5025 -1.2193 -0.9737
 6157SOL     OW30103   4.476   1.118   1.758  0.0739  0.6409  0.7731
 6157SOL    HW130104   4.516   1.034   1.736 -1.0905  0.1742  0.4225
 6157SOL    HW230105   4.452   1.156   1.674  0.5065  0.7931  0.7164
 6158SOL     OW30106   3.308   1.227   3.038 -0.3649 -0.4240  0.2058
 6158SOL    HW130107   3.240   1.267   3.092 -3.9358 -2.2468 -3.0238
 6158SOL    HW230108   3.279   1.141   3.008 -0.6439 -0.0198 -0.6807
 6159SOL     OW30109   4.737   1.093   3.000 -0.4700  0.6978 -0.0305
 6159SOL    HW130110   0.017   1.179   3.037  0.5813 -0.3527  1.8792
 6159SOL    HW230111   0.083   1.052   3.019 -0.2885  0.0086 -2.3619
 6160SOL     OW30112   1.919   1.867   0.276  0.1248  0.1029  0.6600
 6160SOL    HW130113   1.990   1.804   0.262  1.0239  1.2820 -0.0310
 6160SOL    HW230114   1.846   1.824   0.231  2.5866 -2.5114 -0.8288
 6161SOL     OW30115   2.140   1.830   5.260 -0.6116  0.3159 -0.1728
 6161SOL    HW130116   2.092   1.829   5.177 -0.7118 -1.4818 -0.0867
 6161SOL    HW230117   2.223   1.786   5.242 -1.1672 -0.7707 -0.0868
 6162SOL     OW30118   3.057   0.631   2.407 -0.0102  0.0099  0.2266
 6162SOL    HW130119   3.032   0.573   2.479  0.8905 -0.8315 -0.1393
 6162SOL    HW230120   3.124   0.581   2.361 -1.2395 -1.7665  0.3771
 6163SOL     OW30121   3.196   3.880  17.338  0.3496  0.4522 -0.2342
 6163SOL    HW130122   3.146   3.825  17.277 -0.1674  0.8658 -0.1813
 6163SOL    HW230123   3.259   3.814  17.367  0.6644  0.7988 -0.1391
 6164SOL     OW30124   0.297   4.692   8.205 -0.2664 -0.5202  0.0322
 6164SOL    HW130125   0.332   4.623   8.262 -1.2217  1.3139  2.8403
 6164SOL    HW230126   0.373   0.010   8.192 -0.8174  0.5658  1.5919
 6165SOL     OW30127   4.370   3.743   8.813 -0.3791 -0.2730 -0.0245
 6165SOL    HW130128   4.406   3.741   8.902 -1.1528 -1.5164  0.2580
 6165SOL    HW230129   4.411   3.825   8.786 -1.7375  1.3028  2.6816
 6166SOL     OW30130   2.466   1.846  17.347  0.1011  0.1887  0.2094
 6166SOL    HW130131   2.511   1.769  17.312  1.4806  1.8888 -1.7916
 6166SOL    HW230132   2.495   1.831  17.437  0.3237 -1.3805 -0.1093
 6167SOL     OW30133   2.234   4.721  12.979  0.0700  0.4289 -0.0975
 6167SOL    HW130134   2.310   0.009  12.927  0.1445 -0.2151 -0.3212
 6167SOL    HW230135   2.183   4.681  12.908 -0.4248  2.2840 -0.7827
 6168SOL     OW30136   2.939   1.250  15.633  0.2933  0.5758 -0.3289
 6168SOL    HW130137   3.024   1.220  15.665 -1.1662 -0.0862  2.8742
 6168SOL    HW230138   2.955   1.345  15.628  1.3907  0.4572  0.8250
 6169SOL     OW30139   3.154   0.072   6.768  0.2652  0.4656 -0.6566
 6169SOL    HW130140   3.139   4.723   6.804 -0.0412  0.3696 -1.0172
 6169SOL    HW230141   3.067   0.095   6.736  0.3477  2.4134  0.5103
 6170SOL     OW30142   4.572   0.806   3.859 -0.1526 -0.1869 -0.1747
 6170SOL    HW130143   4.548   0.738   3.922  0.4649  0.7135  1.0224
 6170SOL    HW230144   4.666   0.806   3.842 -0.3579  0.2133 -1.2939
 6171SOL     OW30145   1.943   1.194   2.480  0.1172 -0.0786 -0.3556
 6171SOL    HW130146   1.930   1.108   2.440  1.1658  0.2521 -1.4013
 6171SOL    HW230147   1.852   1.216   2.499  0.6403  1.0362  0.8700
 6172SOL     OW30148   3.438   0.581  12.561 -0.1195 -0.1777  0.1187
 6172SOL    HW130149   3.523   0.619  12.541  0.1358 -0.2089  1.1612
 6172SOL    HW230150   3.463   0.489  12.572  1.0209 -0.0238 -1.2513
 6173SOL     OW30151   0.356   4.488   7.880 -0.2716 -0.4219  0.1001
 6173SOL    HW130152   0.405   4.559   7.922  0.0783  0.5510 -1.9183
 6173SOL    HW230153   0.285   4.530   7.831  0.4553 -0.5910 -1.1104
 6174SOL     OW30154   2.299   4.218   4.726 -0.5997 -0.0469 -0.3286
 6174SOL    HW130155   2.234   4.229   4.796  0.7812  0.2570  0.9248
 6174SOL    HW230156   2.260   4.155   4.666 -0.3567 -2.1269  1.7071
 6175SOL     OW30157   4.501   3.796   9.039  0.0517  0.6868  0.2178
 6175SOL    HW130158   4.516   3.890   9.039  0.7309  0.5774 -0.9099
 6175SOL    HW230159   4.568   3.754   9.093 -1.2816  1.3590  2.3761
 6176SOL     OW30160   0.885   1.063   9.269  0.1832  0.0323  0.3884
 6176SOL    HW130161   0.934   1.034   9.345  0.0498  1.0092  0.8442
 6176SOL    HW230162   0.807   1.094   9.316 -0.2731  0.7554 -0.8339
 6177SOL     OW30163   2.518   2.173  11.219  0.0740 -0.1027  0.0776
 6177SOL    HW130164   2.475   2.258  11.211 -0.5672 -0.2886  1.5441
 6177SOL    HW230165   2.576   2.174  11.142  1.1117  2.3471  0.8722
 6178SOL     OW30166   0.791   2.246   1.998 -0.3570 -0.1088 -0.0073
 6178SOL    HW130167   0.845   2.303   2.052  0.1279 -0.0856 -0.5131
 6178SOL    HW230168   0.850   2.205   1.933  0.6157 -0.2349  0.9604
 6179SOL     OW30169   3.895   1.152   2.887 -0.0993  0.3125  0.2502
 6179SOL    HW130170   3.839   1.131   2.962  2.3634  1.6753  2.4513
 6179SOL    HW230171   3.976   1.189   2.920  1.7420 -3.1217 -0.3674
 6180SOL     OW30172   4.084   0.300   4.445  0.2355 -0.7551  0.5298
 6180SOL    HW130173   4.136   0.348   4.510 -0.8661  0.3760  0.5892
 6180SOL    HW230174   4.121   0.337   4.365 -1.6288  4.0256  1.8580
 6181SOL     OW30175   4.391   4.383   7.417 -0.4963  0.9864 -0.1636
 6181SOL    HW130176   4.464   4.322   7.416  1.4941  3.3782  0.0023
 6181SOL    HW230177   4.433   4.449   7.472  1.7560  0.1711 -0.9324
 6182SOL     OW30178   3.327   2.103   5.537  0.1480  0.1533  0.1059
 6182SOL    HW130179   3.331   2.102   5.632  1.2207 -0.4016  0.0610
 6182SOL    HW230180   3.257   2.038   5.533 -1.0874  1.5749 -1.1692
 6183SOL     OW30181   2.564   3.375   8.345 -0.2742  0.1102  0.1368
 6183SOL    HW130182   2.534   3.445   8.287  4.1879  1.4500 -0.4686
 6183SOL    HW230183   2.655   3.400   8.353 -0.2453  0.2457 -0.5887
 6184SOL     OW30184   0.852   4.659   1.687 -0.2746  0.3295  0.0120
 6184SOL    HW130185   0.942   4.692   1.679 -0.5838  0.9329 -0.9089
 6184SOL    HW230186   0.827   4.714   1.762 -2.6148 -0.1589 -0.4282
 6185SOL     OW30187   1.521   3.359   7.545  0.3087 -0.5264 -0.8296
 6185SOL    HW130188   1.441   3.336   7.594  0.1988 -0.5180 -1.0052
 6185SOL    HW230189   1.484   3.370   7.457  0.7507  1.9340 -0.7214
 6186SOL     OW30190   0.278   4.257   3.919 -0.1415  0.4105 -0.2114
 6186SOL    HW130191   0.337   4.182   3.907 -0.0163  0.2967  1.1236
 6186SOL    HW230192   0.191   4.219   3.909 -0.4183  1.4775 -1.7801
 6187SOL     OW30193   0.489   3.923   8.571  0.0798 -0.0143 -0.3441
 6187SOL    HW130194   0.516   3.881   8.653  0.6963 -0.0576 -0.5762
 6187SOL    HW230195   0.542   3.880   8.505  0.0108 -0.4213 -0.1349
 6188SOL     OW30196   3.065   3.654   2.524  0.3858  0.5762 -0.2034
 6188SOL    HW130197   3.090   3.618   2.439 -1.4177 -1.2202  0.0192
 6188SOL    HW230198   2.977   3.685   2.502  0.0804 -0.8966 -1.0696
 6189SOL     OW30199   1.035   2.262   0.842  0.7880  0.3523  0.1096
 6189SOL    HW130200   1.127   2.244   0.861  0.0063 -4.1024 -0.1940
 6189SOL    HW230201   1.032   2.342   0.790 -3.6656  1.6331  2.2984
 6190SOL     OW30202   0.554   0.134   2.032  0.4809  0.2740 -0.5117
 6190SOL    HW130203   0.478   0.085   2.066  0.6428 -0.2019 -0.8258
 6190SOL    HW230204   0.502   0.193   1.978 -0.1245  0.1134 -0.1119
 6191SOL     OW30205   4.259   4.644   3.442 -0.0843  0.7873 -0.3204
 6191SOL    HW130206   4.241   4.671   3.351 -0.0294  0.4390 -0.4336
 6191SOL    HW230207   4.351   4.617   3.444 -0.1114  0.6832 -0.4718
 6192SOL     OW30208   0.747   2.741   2.080 -0.4990  0.4840  0.4823
 6192SOL    HW130209   0.782   2.689   2.152 -0.9323  1.2479  1.2301
 6192SOL    HW230210   0.684   2.797   2.126  0.5552  0.0468  2.4536
 6193SOL     OW30211   3.426   0.888  14.270  0.2692  0.4056 -0.2084
 6193SOL    HW130212   3.486   0.852  14.335 -0.6188  1.4213  1.1525
 6193SOL    HW230213   3.491   0.907  14.203 -0.7224  0.6625 -1.1053
 6194SOL     OW30214   1.330   2.306   2.537 -0.2328 -0.6058  0.2086
 6194SOL    HW130215   1.368   2.280   2.621 -1.3327 -3.0383 -0.0192
 6194SOL    HW230216   1.293   2.221   2.511 -0.4858  0.0908 -1.6908
 6195SOL     OW30217   3.336   1.610   7.505  0.2784  0.0690 -0.1058
 6195SOL    HW130218   3.377   1.586   7.588  0.5685  1.4698  0.1511
 6195SOL    HW230219   3.325   1.519   7.477  0.0527  0.7530 -2.1856
 6196SOL     OW30220   0.802   2.968  10.786 -0.2765 -0.3013  0.1944
 6196SOL    HW130221   0.710   2.991  10.791 -0.6345 -0.8561 -3.5827
 6196SOL    HW230222   0.836   3.020  10.859 -0.4143 -0.0513  0.0800
 6197SOL     OW30223   4.264   2.718   0.835  0.1643  0.7074  0.2297
 6197SOL    HW130224   4.270   2.623   0.828 -1.5314  0.4492  2.0258
 6197SOL    HW230225   4.316   2.733   0.757 -1.1565  0.5926 -0.6744
 6198SOL     OW30226   3.380   2.036  11.207 -0.3054 -0.1051  0.0189
 6198SOL    HW130227   3.383   1.978  11.283 -1.0377  0.5505  0.5443
 6198SOL    HW230228   3.317   1.992  11.149 -1.4817  1.6617 -0.0366
 6199SOL     OW30229   1.787   2.509  14.546 -0.2400  0.7331  0.7066
 6199SOL    HW130230   1.786   2.498  14.451 -1.5760  0.9688  0.6937
 6199SOL    HW230231   1.700   2.547  14.550  0.1142  2.0838 -4.1113
 6200SOL     OW30232   0.591   4.512   6.917 -0.4623 -0.6323  0.3694
 6200SOL    HW130233   0.606   4.605   6.933 -1.1453 -0.4356 -0.1490
 6200SOL    HW230234   0.679   4.480   6.898 -0.4130  0.3017 -1.0184
 6201SOL     OW30235   0.994   1.233   5.827  0.1845 -0.1222  0.3192
 6201SOL    HW130236   0.901   1.232   5.850 -0.2263  1.4615 -1.2030
 6201SOL    HW230237   0.999   1.315   5.777  2.6666  0.2622  1.2105
 6202SOL     OW30238   0.496   1.766   5.673  0.2975 -0.2147 -0.6810
 6202SOL    HW130239   0.453   1.850   5.658 -0.5516 -0.4771  0.2442
 6202SOL    HW230240   0.549   1.786   5.751  0.1431 -1.1482 -0.3384
 6203SOL     OW30241   3.836   1.821   8.879  0.5321  0.2998 -0.8414
 6203SOL    HW130242   3.894   1.897   8.882  2.8970 -1.5348 -1.0110
 6203SOL    HW230243   3.824   1.805   8.786  1.7247  1.4302 -1.1919
 6204SOL     OW30244   4.617   2.399   6.756 -0.0656  0.7800  0.2363
 6204SOL    HW130245   4.695   2.344   6.761 -0.4600  0.0758 -1.4020
 6204SOL    HW230246   4.577   2.365   6.676 -0.1661  0.1215  0.5686
 6205SOL     OW30247   4.487   0.603   2.509 -0.4221  0.2578 -0.2702
 6205SOL    HW130248   4.435   0.592   2.588 -0.5275  0.5394 -0.2995
 6205SOL    HW230249   4.527   0.686   2.534 -0.5656  0.3079 -0.2082
 6206SOL     OW30250   1.766   3.451   1.940 -0.1709  0.3298 -0.1819
 6206SOL    HW130251   1.688   3.402   1.915 -0.6727  0.7951  0.4574
 6206SOL    HW230252   1.738   3.457   2.032  2.1346 -0.3051  0.5616
 6207SOL     OW30253   1.400   3.178   6.383  0.3259  0.3988 -0.3674
 6207SOL    HW130254   1.321   3.231   6.371  0.0522  0.2595  0.7414
 6207SOL    HW230255   1.456   3.217   6.316 -1.9327 -0.2108 -2.6122
 6208SOL     OW30256   4.474   1.390   9.414 -0.1103  0.2343  0.0482
 6208SOL    HW130257   4.433   1.435   9.488 -0.7169  1.1750 -0.8586
 6208SOL    HW230258   4.392   1.385   9.365 -0.0633  0.1356 -0.0208
 6209SOL     OW30259   0.135   1.566   2.059  0.1283 -0.0437 -0.5005
 6209SOL    HW130260   0.120   1.475   2.033  0.5676 -0.1824 -0.2627
 6209SOL    HW230261   0.082   1.617   1.998  0.3548  1.0422  0.2182
 6210SOL     OW30262   4.639   3.649   5.802  0.7239 -0.0084 -0.2474
 6210SOL    HW130263   4.734   3.656   5.811  0.6770 -2.0021  1.8298
 6210SOL    HW230264   4.621   3.741   5.818  2.0613  0.1351  0.4061
 6211SOL     OW30265   1.227   3.816   1.422  0.1077  0.1693 -0.3258
 6211SOL    HW130266   1.233   3.760   1.344  1.2333  1.1238 -0.9231
 6211SOL    HW230267   1.245   3.755   1.494  1.9550  1.8061  0.5929
 6212SOL     OW30268   2.945   1.922  11.296 -0.0363  0.9091  0.1020
 6212SOL    HW130269   3.010   1.890  11.233  0.2604  2.3414 -0.3098
 6212SOL    HW230270   2.986   1.882  11.373 -0.3524  0.9751  0.3027
 6213SOL     OW30271   3.270   2.619   5.448 -0.1785 -0.0576 -0.0018
 6213SOL    HW130272   3.328   2.543   5.452  0.9925  0.9733  2.4931
 6213SOL    HW230273   3.198   2.584   5.395  2.6416 -0.9817 -3.1804
 6214SOL     OW30274   2.127   4.646  12.747  0.1039  0.9990 -0.4361
 6214SOL    HW130275   2.117   4.566  12.695  2.3688  2.1532 -2.6533
 6214SOL    HW230276   2.140   4.714  12.681  2.0975  0.2698 -0.7824
 6215SOL     OW30277   2.178   0.452   3.461  0.5111 -0.0474  0.0305
 6215SOL    HW130278   2.133   0.525   3.504  2.1131  0.6322  0.5376
 6215SOL    HW230279   2.203   0.494   3.379 -1.5978  0.2363 -0.4883
 6216SOL     OW30280   3.424   3.827   2.234 -0.0871  0.3932  0.0090
 6216SOL    HW130281   3.376   3.782   2.164 -2.2908  1.7947  0.6195
 6216SOL    HW230282   3.352   3.829   2.298  0.1888  1.4733  0.2806
 6217SOL     OW30283   0.550   4.509   5.424 -0.0743 -0.2640 -0.4664
 6217SOL    HW130284   0.621   4.512   5.488  0.1288 -0.4876 -0.6818
 6217SOL    HW230285   0.542   4.419   5.392 -2.5389  0.3475 -1.5657
 6218SOL     OW30286   3.106   4.200   3.215  0.4995  0.4799 -0.2143
 6218SOL    HW130287   3.084   4.210   3.123 -0.9046 -2.5101 -0.2123
 6218SOL    HW230288   3.066   4.114   3.229  2.3573 -0.8004 -2.7665
 6219SOL     OW30289   4.081   0.292   9.122  0.2151 -0.2838 -0.3353
 6219SOL    HW130290   4.166   0.301   9.080 -0.6554  2.1122 -1.5836
 6219SOL    HW230291   4.035   0.357   9.068  0.7024  0.6078  0.3190
 6220SOL     OW30292   0.543   3.255   8.526  0.4854 -0.0984 -0.1805
 6220SOL    HW130293   0.612   3.321   8.527  0.1781  0.1968  1.7812
 6220SOL    HW230294   0.498   3.273   8.609  1.8630 -0.7365  0.7192
 6221SOL     OW30295   1.820   4.219   4.242 -0.4987  0.4841 -0.4496
 6221SOL    HW130296   1.731   4.234   4.273 -0.0495 -0.3753  1.2583
 6221SOL    HW230297   1.847   4.310   4.247  0.4251  0.3056 -2.1014
 6222SOL     OW30298   3.857   3.404   2.787 -0.0161  0.1238  0.5712
 6222SOL    HW130299   3.872   3.310   2.795 -0.5050  0.2265  2.5318
 6222SOL    HW230300   3.917   3.425   2.715  1.8276  0.9454  2.3437
 6223SOL     OW30301   2.669   1.759   8.314  0.4498 -0.1962  0.1501
 6223SOL    HW130302   2.662   1.821   8.386 -1.6293 -0.8219  0.5020
 6223SOL    HW230303   2.678   1.674   8.357 -1.8326 -0.6767 -0.3315
 6224SOL     OW30304   3.524   2.284   3.003 -0.2569 -0.3203 -0.3710
 6224SOL    HW130305   3.444   2.336   3.005 -0.8023 -1.1866  0.3401
 6224SOL    HW230306   3.502   2.216   3.066  2.5900 -0.5009  0.4027
 6225SOL     OW30307   4.048   3.128  17.414  0.8970  0.1584 -0.2736
 6225SOL    HW130308   4.055   3.212  17.369 -2.3046 -0.0054 -1.0817
 6225SOL    HW230309   3.999   3.148  17.493 -0.8113  2.1869 -1.8337
 6226SOL     OW30310   2.137   3.914   2.691  0.0815 -0.4531 -0.6298
 6226SOL    HW130311   2.173   3.951   2.611 -0.2785  0.7812 -0.2131
 6226SOL    HW230312   2.186   3.833   2.705  0.3084  0.0856  1.6912
 6227SOL     OW30313   3.137   0.878   6.841 -0.7627 -0.6917  0.9929
 6227SOL    HW130314   3.163   0.829   6.763 -1.4002 -3.0069  2.2294
 6227SOL    HW230315   3.115   0.957   6.792  0.4931  0.0904  1.7183
 6228SOL     OW30316   2.619   4.710   6.662 -0.0477 -0.3179 -0.0631
 6228SOL    HW130317   2.526   4.716   6.637  0.4339  0.5166 -1.6566
 6228SOL    HW230318   2.662   4.663   6.591 -1.3666 -1.5024 -0.0952
 6229SOL     OW30319   0.707   2.601   8.456 -0.3244  0.2387 -0.6190
 6229SOL    HW130320   0.743   2.686   8.430 -0.6163  0.2814 -0.8799
 6229SOL    HW230321   0.618   2.613   8.424 -0.9909  4.6658  2.8979
 6230SOL     OW30322   2.654   0.909  11.840 -0.2693  0.8543 -0.6916
 6230SOL    HW130323   2.704   0.830  11.862 -0.7937  0.4187 -1.0581
 6230SOL    HW230324   2.665   0.919  11.746  1.9659 -0.9190 -0.6302
 6231SOL     OW30325   1.599   0.101   6.331  0.2835  0.1894  0.2087
 6231SOL    HW130326   1.542   0.119   6.256 -1.3757 -0.2338  1.3683
 6231SOL    HW230327   1.616   0.192   6.357  1.8512  0.7300 -2.6982
 6232SOL     OW30328   1.556   2.317   2.392  0.3998  0.3482  0.2662
 6232SOL    HW130329   1.489   2.323   2.461  0.0773 -0.9888  0.0762
 6232SOL    HW230330   1.523   2.240   2.345 -0.6657 -0.0709  1.6691
 6233SOL     OW30331   3.830   3.121   2.010  0.3153 -0.7984  0.2625
 6233SOL    HW130332   3.909   3.163   2.042 -1.1559  2.1340  0.0356
 6233SOL    HW230333   3.856   3.071   1.932  0.4079  1.3187 -1.0414
 6234SOL     OW30334   0.894   1.701  10.911  0.0087  0.1319 -0.0959
 6234SOL    HW130335   0.835   1.635  10.948 -1.1819  0.7877 -0.8244
 6234SOL    HW230336   0.928   1.652  10.837  1.5718  0.9949  0.0511
 6235SOL     OW30337   1.974   3.075  13.316 -0.2125  0.7736 -0.0565
 6235SOL    HW130338   1.930   3.113  13.392  0.2153  0.5866  0.2842
 6235SOL    HW230339   1.994   2.990  13.354  0.6694  1.0660  0.1438
 6236SOL     OW30340   1.316   3.376   1.157 -0.2727 -0.1919  0.2030
 6236SOL    HW130341   1.399   3.332   1.174  0.6217  0.3479 -2.7455
 6236SOL    HW230342   1.260   3.298   1.156  0.9465 -1.0573 -0.3078
 6237SOL     OW30343   4.653   2.993  11.018 -0.2398 -0.0731  0.8103
 6237SOL    HW130344   4.703   3.074  11.026  2.2554 -1.5209 -0.1806
 6237SOL    HW230345   4.648   2.970  11.111  3.2100  2.0483  1.4945
 6238SOL     OW30346   0.313   4.586  11.281  0.0816 -0.3277 -0.0682
 6238SOL    HW130347   0.358   4.528  11.342  1.5018  0.1643 -0.6441
 6238SOL    HW230348   0.300   4.665  11.333  0.3528  0.2595 -0.8781
 6239SOL     OW30349   3.886   3.200  17.611 -0.1424 -0.0789 -0.8242
 6239SOL    HW130350   3.827   3.177  17.683 -0.6667 -1.6215 -1.7524
 6239SOL    HW230351   3.837   3.276  17.579 -0.1175  1.6336  3.1660
 6240SOL     OW30352   2.119   2.009   4.494  0.2015  0.2908  0.7308
 6240SOL    HW130353   2.191   1.960   4.455 -0.3112 -1.3700  1.8463
 6240SOL    HW230354   2.169   2.080   4.534  1.5362 -1.4065  2.0915
 6241SOL     OW30355   2.881   2.201   4.317 -0.0163 -0.1525  0.0689
 6241SOL    HW130356   2.952   2.207   4.255  0.3578  0.7695  0.5935
 6241SOL    HW230357   2.895   2.283   4.364  0.8112 -1.6833  2.5245
 6242SOL     OW30358   2.295   3.932   4.191  0.9930  0.1012  0.4789
 6242SOL    HW130359   2.202   3.951   4.181  0.7501 -0.8530  0.8953
 6242SOL    HW230360   2.335   4.018   4.180  0.4696  0.0695 -1.7287
 6243SOL     OW30361   3.655   3.267  17.347  0.4222 -0.5889 -0.5854
 6243SOL    HW130362   3.619   3.339  17.399  1.4107 -0.8593  0.4778
 6243SOL    HW230363   3.725   3.308  17.295  0.4007  0.0038 -0.1489
 6244SOL     OW30364   3.924   3.204   3.660  0.5439 -0.0214  0.1784
 6244SOL    HW130365   3.840   3.227   3.622 -2.0812 -0.7452  5.5507
 6244SOL    HW230366   3.915   3.261   3.737 -1.9621  0.3713 -0.4139
 6245SOL     OW30367   4.238   1.136   9.509  0.0829 -0.0266 -0.3250
 6245SOL    HW130368   4.218   1.228   9.526  0.1653 -0.3728  1.6205
 6245SOL    HW230369   4.308   1.123   9.572 -0.1206 -0.4612 -0.1907
 6246SOL     OW30370   4.401   0.727   5.023  0.0588  0.0263  0.0016
 6246SOL    HW130371   4.415   0.746   5.116  1.9542  2.2011 -0.7181
 6246SOL    HW230372   4.427   0.635   5.015 -0.3064 -0.2636  2.1733
 6247SOL     OW30373   3.656   1.403   4.302 -0.3659 -0.3512  0.3086
 6247SOL    HW130374   3.578   1.349   4.290 -1.5468  1.0987  1.4067
 6247SOL    HW230375   3.703   1.357   4.372 -0.4749  0.6903  1.0641
 6248SOL     OW30376   0.781   4.393   3.196 -0.1173 -0.1082  0.2747
 6248SOL    HW130377   0.820   4.336   3.262 -1.3714 -3.2089 -1.6646
 6248SOL    HW230378   0.818   4.358   3.115  0.9602  1.0007  0.2917
 6249SOL     OW30379   3.017   3.452   8.597 -0.3291  0.5194  0.3103
 6249SOL    HW130380   3.108   3.437   8.623  0.2500  0.7047 -1.6165
 6249SOL    HW230381   3.000   3.362   8.567 -0.4623  0.6811 -0.0865
 6250SOL     OW30382   1.888   3.653   8.810  0.1160 -0.3754  0.4363
 6250SOL    HW130383   1.872   3.586   8.876  2.2142 -1.2332  0.0679
 6250SOL    HW230384   1.835   3.625   8.735 -1.1580 -0.7682  1.4911
 6251SOL     OW30385   4.065   3.165  13.693 -0.6825 -0.6858  0.1372
 6251SOL    HW130386   4.019   3.153  13.610 -0.8127 -0.4946  0.1809
 6251SOL    HW230387   4.150   3.136  13.661 -1.6953 -1.3033 -1.9829
 6252SOL     OW30388   0.492   4.706  13.659 -0.1229  0.1231  0.2566
 6252SOL    HW130389   0.563   4.667  13.609 -0.6866  0.0730 -0.5058
 6252SOL    HW230390   0.437   0.006  13.591  0.5635 -0.2229 -0.4901
 6253SOL     OW30391   3.107   4.678   4.652  0.5413  0.9964 -0.6884
 6253SOL    HW130392   3.146   4.643   4.571  3.0495  1.2042  0.4415
 6253SOL    HW230393   3.149   4.616   4.712 -0.7267  0.3227 -0.4972
 6254SOL     OW30394   2.787   2.682   6.875 -0.8910  0.0715  0.2177
 6254SOL    HW130395   2.874   2.684   6.835 -2.4409  0.5502 -3.1193
 6254SOL    HW230396   2.804   2.730   6.956 -1.0357  0.7185 -0.1402
 6255SOL     OW30397   4.527   3.577   8.602 -0.1802 -0.1134 -0.1909
 6255SOL    HW130398   4.511   3.541   8.515  3.2063  0.8956 -1.2218
 6255SOL    HW230399   4.446   3.624   8.623  2.2033  3.3289  1.4176
 6256SOL     OW30400   1.657   4.552   1.625  0.2241  0.4945 -0.0381
 6256SOL    HW130401   1.599   4.623   1.654 -0.9236 -0.0375 -1.0472
 6256SOL    HW230402   1.708   4.529   1.703  1.0892 -0.4299 -0.8788
 6257SOL     OW30403   3.681   1.123   8.145 -0.1318 -0.2056  0.0838
 6257SOL    HW130404   3.654   1.214   8.154  0.1532 -0.0839 -0.3397
 6257SOL    HW230405   3.692   1.095   8.236 -0.6028 -0.6985 -0.0097
 6258SOL     OW30406   2.411   4.015   8.431  0.8843  0.2087 -0.2820
 6258SOL    HW130407   2.341   4.043   8.372  1.4149 -0.8673 -1.4141
 6258SOL    HW230408   2.373   3.934   8.464 -1.4051  1.4752  0.2115
 6259SOL     OW30409   1.537   0.147   2.955  0.0508  0.2179 -0.2238
 6259SOL    HW130410   1.536   0.089   3.031  0.6565 -2.0724 -1.9566
 6259SOL    HW230411   1.468   0.124   2.893 -1.5632 -0.4392  1.8244
 6260SOL     OW30412   3.330   3.687   9.105 -0.0639  0.3203 -0.2052
 6260SOL    HW130413   3.314   3.665   9.013 -1.0872  0.4471 -0.0519
 6260SOL    HW230414   3.260   3.747   9.132 -1.0109 -1.1960  0.6639
 6261SOL     OW30415   1.436   0.427   4.132  0.0441 -0.2413  0.5187
 6261SOL    HW130416   1.457   0.334   4.143  0.5631 -0.0268  1.3987
 6261SOL    HW230417   1.343   0.427   4.108  0.7065  0.9651 -1.9714
 6262SOL     OW30418   2.293   0.678   8.791  0.2670  0.6105 -0.3963
 6262SOL    HW130419   2.232   0.675   8.865 -0.4848  2.3258 -0.9545
 6262SOL    HW230420   2.342   0.760   8.802  2.3213 -0.4888 -1.1892
 6263SOL     OW30421   3.641   1.828  14.748  0.4524 -0.5262 -0.2171
 6263SOL    HW130422   3.559   1.866  14.717  1.5654  1.9269 -0.2038
 6263SOL    HW230423   3.708   1.891  14.719  0.2728 -0.6712 -0.9424
 6264SOL     OW30424   0.848   2.911   4.486  0.3040 -0.2909 -0.2931
 6264SOL    HW130425   0.933   2.954   4.488  0.4485 -0.5135 -1.7927
 6264SOL    HW230426   0.881   2.829   4.450  1.4407  0.2851 -0.5525
 6265SOL     OW30427   2.919   0.782   3.926  0.1277  0.3156  0.3243
 6265SOL    HW130428   3.013   0.795   3.913 -0.1949  1.6287 -0.7083
 6265SOL    HW230429   2.882   0.854   3.875 -0.0962 -0.4326 -0.5579
 6266SOL     OW30430   1.459   3.795  17.175 -0.0400  0.6235  0.4623
 6266SOL    HW130431   1.366   3.778  17.185 -0.3277  0.1593 -2.9303
 6266SOL    HW230432   1.478   3.827  17.263 -0.6977 -1.4567  1.3539
 6267SOL     OW30433   1.171   2.006  11.266  0.0488 -0.2581 -0.1624
 6267SOL    HW130434   1.081   1.994  11.237 -0.4448  0.2287  1.1618
 6267SOL    HW230435   1.219   2.035  11.189  0.1315 -0.0441 -0.0300
 6268SOL     OW30436   3.197   3.915   4.715  0.2346  0.2514  0.2884
 6268SOL    HW130437   3.211   3.887   4.624 -2.1211 -2.7733  0.8694
 6268SOL    HW230438   3.285   3.904   4.751 -0.1503 -0.2971  1.0596
 6269SOL     OW30439   2.684   2.188   1.055  0.3798  0.0653 -0.0362
 6269SOL    HW130440   2.778   2.181   1.071  0.1917 -1.6926  0.3016
 6269SOL    HW230441   2.663   2.261   1.112 -0.4366  0.8360 -1.3299
 6270SOL     OW30442   2.448   2.141   7.539  0.2443  0.3104 -0.5907
 6270SOL    HW130443   2.488   2.082   7.474  0.2394 -0.5178  0.1489
 6270SOL    HW230444   2.412   2.083   7.607 -1.2721  1.7320 -0.1860
 6271SOL     OW30445   0.895   3.399   4.309 -0.0750 -0.4280  0.0683
 6271SOL    HW130446   0.814   3.354   4.288  1.2325 -0.7341 -4.2458
 6271SOL    HW230447   0.933   3.332   4.366  2.0555  1.4128  0.7894
 6272SOL     OW30448   2.217   0.307   8.166 -0.3510 -1.0896  0.1180
 6272SOL    HW130449   2.144   0.255   8.133 -1.9098  0.4347  1.1538
 6272SOL    HW230450   2.255   0.240   8.224 -0.6689 -0.0961  1.4768
 6273SOL     OW30451   4.331   2.408   6.742  0.7905 -0.0205  0.5027
 6273SOL    HW130452   4.410   2.443   6.783 -0.6438  1.6504  1.7970
 6273SOL    HW230453   4.381   2.345   6.690  0.4171 -0.5868  0.8296
 6274SOL     OW30454   0.994   2.925   0.980  0.2109  0.4019  0.0517
 6274SOL    HW130455   1.051   2.871   0.926  0.7559 -0.2180  1.2574
 6274SOL    HW230456   0.943   2.972   0.914 -2.3329 -0.7222  1.2346
 6275SOL     OW30457   1.832   0.282  11.662  0.1309  0.6064 -0.3896
 6275SOL    HW130458   1.903   0.309  11.604 -1.1951 -0.9091 -2.7297
 6275SOL    HW230459   1.795   0.365  11.691 -0.6085  0.1911 -0.1395
 6276SOL     OW30460   0.019   1.582   1.443 -0.9160 -0.1080  0.3772
 6276SOL    HW130461   4.667   1.597   1.416 -1.3165 -2.5857  0.4015
 6276SOL    HW230462   0.076   1.581   1.366 -1.4047  1.7793 -0.0223
 6277SOL     OW30463   0.325   2.721   0.114  0.2843  0.0610  0.2498
 6277SOL    HW130464   0.352   2.763   0.033  0.7131  1.2864  1.0276
 6277SOL    HW230465   0.356   2.778   0.185 -0.8758 -0.6005  1.2975
 6278SOL     OW30466   0.284   2.101   4.288 -0.1487 -0.3668  0.5769
 6278SOL    HW130467   0.285   2.087   4.382 -0.7636 -2.7336  0.2367
 6278SOL    HW230468   0.226   2.032   4.257 -1.1210  0.8437 -0.3047
 6279SOL     OW30469   4.691   0.449   1.528 -0.4141 -0.0475 -0.0306
 6279SOL    HW130470   0.003   0.442   1.447 -0.4821  0.6932 -0.1417
 6279SOL    HW230471   4.726   0.378   1.582 -0.2851  1.2792  1.6590
 6280SOL     OW30472   0.757   1.242   5.585  0.1241  0.1066 -0.4929
 6280SOL    HW130473   0.768   1.333   5.559  2.6457 -0.4733 -1.4353
 6280SOL    HW230474   0.695   1.252   5.658 -0.7067 -1.2645 -1.0147
 6281SOL     OW30475   4.133   1.825   6.082 -0.8713 -0.1462  0.1968
 6281SOL    HW130476   4.081   1.745   6.072 -0.0228 -0.7268  0.4484
 6281SOL    HW230477   4.097   1.873   6.156  1.2955 -2.7956  2.9643
 6282SOL     OW30478   2.257   2.290   2.852 -0.0386 -0.0465 -0.1842
 6282SOL    HW130479   2.204   2.220   2.814 -2.3096  1.3629  0.3589
 6282SOL    HW230480   2.281   2.240   2.930  0.8481  0.9038  0.1491
 6283SOL     OW30481   3.841   3.314   3.238  0.4525 -0.0533  1.1551
 6283SOL    HW130482   3.841   3.365   3.319  1.8412 -2.8470  2.8961
 6283SOL    HW230483   3.798   3.375   3.178 -0.6952 -0.8073  1.1941
 6284SOL     OW30484   2.359   4.069   7.591  0.3365 -0.1429 -0.3542
 6284SOL    HW130485   2.272   4.036   7.569  0.2242  0.0063 -0.1346
 6284SOL    HW230486   2.342   4.117   7.672 -0.4139 -3.1308  1.2797
 6285SOL     OW30487   2.814   0.261   8.308 -0.3169  0.3803 -0.2369
 6285SOL    HW130488   2.883   0.307   8.356 -1.4828 -0.3970  2.1728
 6285SOL    HW230489   2.867   0.227   8.236 -0.6735 -0.2844 -0.1824
 6286SOL     OW30490   3.819   4.293   8.140 -0.3475 -0.1841 -0.6953
 6286SOL    HW130491   3.804   4.298   8.234 -1.4716 -1.3168 -0.8215
 6286SOL    HW230492   3.746   4.234   8.124 -0.0800 -0.1979 -1.8251
 6287SOL     OW30493   2.636   3.065   2.847 -0.0846 -0.1046  0.4677
 6287SOL    HW130494   2.622   3.155   2.876 -0.1759  0.2953 -0.7946
 6287SOL    HW230495   2.729   3.069   2.824 -0.3211 -1.5230 -0.7585
 6288SOL     OW30496   0.194   1.920   5.360  0.3428 -0.0905 -0.3547
 6288SOL    HW130497   0.276   1.872   5.351  1.0477  1.1648 -0.6393
 6288SOL    HW230498   0.137   1.856   5.403 -2.8800  1.9465 -1.5096
 6289SOL     OW30499   1.485   4.410   0.934 -0.2083 -0.5409  0.8731
 6289SOL    HW130500   1.410   4.370   0.978 -0.0771 -0.1039  1.5095
 6289SOL    HW230501   1.521   4.459   1.009  1.9719 -1.7018  0.5655
 6290SOL     OW30502   3.750   4.660  13.696  0.3575  0.0347  0.1519
 6290SOL    HW130503   3.833   4.699  13.666 -0.0648 -0.6872 -1.9704
 6290SOL    HW230504   3.714   4.737  13.739  0.4106  0.3702 -0.3931
 6291SOL     OW30505   1.142   1.109   7.307 -0.0663  0.4289  0.3062
 6291SOL    HW130506   1.235   1.123   7.321 -0.0983  1.3730 -0.4126
 6291SOL    HW230507   1.147   1.040   7.241 -1.3942  1.1690 -0.5701
 6292SOL     OW30508   2.971   4.058   4.696  0.4389 -0.3637  0.3798
 6292SOL    HW130509   2.910   3.995   4.657 -0.2225 -0.6252  1.8588
 6292SOL    HW230510   3.046   3.999   4.702 -1.1987 -2.3981  0.9034
 6293SOL     OW30511   0.418   4.472   2.886 -0.2455 -0.1542  0.0311
 6293SOL    HW130512   0.478   4.502   2.817  1.2259  1.1175  1.8712
 6293SOL    HW230513   0.348   4.443   2.827 -1.3889  1.6270  0.5167
 6294SOL     OW30514   3.314   1.564   9.239  1.0962 -0.1684 -0.3420
 6294SOL    HW130515   3.365   1.488   9.267 -1.9866 -1.6561  1.2019
 6294SOL    HW230516   3.261   1.585   9.316  2.2046  1.2124  0.0383
 6295SOL     OW30517   1.525   3.105   8.398  0.1200  0.1934  0.6169
 6295SOL    HW130518   1.438   3.135   8.372 -0.3968 -1.0424  0.9388
 6295SOL    HW230519   1.522   3.016   8.364 -0.0112  0.2816  0.3959
 6296SOL     OW30520   4.462   1.218   8.079  0.4239  0.3309 -0.2299
 6296SOL    HW130521   4.477   1.142   8.023 -0.9626  0.6196 -0.9904
 6296SOL    HW230522   4.551   1.254   8.087  0.9876 -1.7458  2.8739
 6297SOL     OW30523   1.545   0.884   8.144 -0.2517  0.8607  0.6506
 6297SOL    HW130524   1.482   0.861   8.076 -0.4485 -0.4228  1.2766
 6297SOL    HW230525   1.624   0.837   8.117 -0.0594  1.5377  0.0320
 6298SOL     OW30526   0.691   0.937   2.760 -0.5576 -0.1180  0.3049
 6298SOL    HW130527   0.608   0.983   2.753 -1.9157 -2.5515  0.2797
 6298SOL    HW230528   0.669   0.865   2.819  0.0720 -1.3251 -0.9311
 6299SOL     OW30529   4.333   3.020   4.715 -0.1574 -0.3429 -0.4882
 6299SOL    HW130530   4.279   3.022   4.794 -2.5015 -1.0151 -2.0751
 6299SOL    HW230531   4.280   3.058   4.645  0.2035  2.9513  1.0453
 6300SOL     OW30532   0.565   0.734   5.690 -0.2896 -0.5059  0.6970
 6300SOL    HW130533   0.507   0.738   5.766 -0.4086 -0.0627  0.5830
 6300SOL    HW230534   0.644   0.685   5.715 -0.4444 -1.8290 -1.4792
 6301SOL     OW30535   0.700   4.309   7.159  0.0541 -0.3804 -0.3619
 6301SOL    HW130536   0.741   4.223   7.168  0.3353 -0.3023 -0.8572
 6301SOL    HW230537   0.606   4.291   7.166  0.3728 -1.6250  0.5514
 6302SOL     OW30538   1.254   2.078   7.529 -0.3829  0.7603  0.8163
 6302SOL    HW130539   1.300   2.005   7.489 -2.6183 -1.4981  2.3489
 6302SOL    HW230540   1.163   2.056   7.506 -0.8706  2.1091  1.4571
 6303SOL     OW30541   0.023   1.971   7.867  0.9943 -0.3813 -0.7299
 6303SOL    HW130542   0.087   1.977   7.796  1.7460 -0.4631 -0.0625
 6303SOL    HW230543   0.050   1.888   7.907 -0.8304 -1.6804 -2.2276
 6304SOL     OW30544   2.323   3.999   5.322 -0.4384  0.1272 -0.3986
 6304SOL    HW130545   2.372   4.041   5.252  0.8700 -0.6218  0.0691
 6304SOL    HW230546   2.314   4.070   5.385 -0.1631 -0.7421  0.6341
 6305SOL     OW30547   0.120   4.000   4.446  0.2418  0.0626 -0.3419
 6305SOL    HW130548   0.143   3.919   4.491 -0.5301 -1.4759 -2.7352
 6305SOL    HW230549   0.142   4.067   4.512 -1.0153 -0.6158  0.7655
 6306SOL     OW30550   4.607   0.720   1.878 -0.6096  0.1355  0.2042
 6306SOL    HW130551   4.623   0.668   1.958  0.0371  0.0681  0.0354
 6306SOL    HW230552   4.696   0.728   1.844 -0.6386  0.5311  0.2252
 6307SOL     OW30553   3.328   3.629   2.095 -0.0586 -0.1140 -0.3311
 6307SOL    HW130554   3.352   3.643   2.003  0.5261  1.4746  0.0546
 6307SOL    HW230555   3.417   3.623   2.130 -1.1144  0.1334  2.3412
 6308SOL     OW30556   1.144   2.824   4.150 -0.3771 -0.0289 -0.4019
 6308SOL    HW130557   1.186   2.801   4.233  1.2734  1.4051 -0.8580
 6308SOL    HW230558   1.094   2.901   4.177  1.3644  0.8239  0.3954
 6309SOL     OW30559   3.281   4.364  10.250 -0.1828 -0.7423 -0.1321
 6309SOL    HW130560   3.244   4.449  10.226  1.4349  0.0165  0.0626
 6309SOL    HW230561   3.219   4.333  10.316 -3.0809 -0.6218 -2.7644
 6310SOL     OW30562   2.408   2.778   6.486  0.3540  0.4768 -0.2486
 6310SOL    HW130563   2.403   2.867   6.521  0.3937  0.1266  0.6589
 6310SOL    HW230564   2.440   2.791   6.397 -0.1622  0.1019 -0.4839
 6311SOL     OW30565   0.534   0.427  12.439 -0.0800 -0.7897 -0.5625
 6311SOL    HW130566   0.538   0.350  12.495 -0.9139 -0.3909  0.0527
 6311SOL    HW230567   0.512   0.387  12.354  0.8010 -0.2672 -1.0380
 6312SOL     OW30568   0.934   4.447   7.074  0.5222 -0.1938 -0.7357
 6312SOL    HW130569   1.007   4.395   7.108  0.4325 -0.7797 -1.4469
 6312SOL    HW230570   0.863   4.391   7.104  0.5017  0.9767  1.4468
 6313SOL     OW30571   4.251   1.385   8.119 -0.3455  0.7550 -0.0027
 6313SOL    HW130572   4.318   1.317   8.116 -0.8282  0.2503  0.7434
 6313SOL    HW230573   4.167   1.338   8.120 -0.7113  1.3932 -0.7513
 6314SOL     OW30574   3.684   3.070   8.890  0.1712  0.5073  0.2247
 6314SOL    HW130575   3.728   3.108   8.814  1.1675 -0.9185  0.0898
 6314SOL    HW230576   3.667   2.982   8.857  1.0037 -0.4042  2.2132
 6315SOL     OW30577   1.952   1.645   7.784  0.0576 -0.7851 -0.3029
 6315SOL    HW130578   2.016   1.659   7.854  0.1214  0.5501 -0.6255
 6315SOL    HW230579   1.977   1.565   7.737 -0.0087 -0.8501 -0.2288
 6316SOL     OW30580   0.105   0.560   7.545  0.0361 -0.7311 -0.3906
 6316SOL    HW130581   0.101   0.523   7.457 -1.0405  2.2618 -1.6252
 6316SOL    HW230582   0.119   0.481   7.596  0.6932 -0.4197 -0.0919
 6317SOL     OW30583   2.217   2.931  17.159  0.0077  0.3426 -0.5750
 6317SOL    HW130584   2.180   2.853  17.118 -2.9751 -0.5670  3.8136
 6317SOL    HW230585   2.184   2.925  17.249  1.3366  1.2629 -0.0365
 6318SOL     OW30586   3.592   2.516   6.852 -0.2727  0.1579  0.3330
 6318SOL    HW130587   3.505   2.513   6.811  0.0415 -0.9980 -0.2389
 6318SOL    HW230588   3.648   2.519   6.775 -0.3270  4.3621  0.4316
 6319SOL     OW30589   0.854   4.629   6.251  0.0067 -0.0437 -0.4024
 6319SOL    HW130590   0.794   4.569   6.207 -0.7266 -1.0690  2.0278
 6319SOL    HW230591   0.826   4.616   6.341  0.2186  0.1307 -0.3093
 6320SOL     OW30592   4.451   2.279   2.617 -0.5188 -0.4615 -0.5650
 6320SOL    HW130593   4.544   2.265   2.602 -0.4223  0.0301 -0.3946
 6320SOL    HW230594   4.419   2.189   2.631  0.2467 -0.4850  1.0304
 6321SOL     OW30595   0.245   0.330   0.662  0.2327 -0.3037  0.0646
 6321SOL    HW130596   0.330   0.293   0.685  0.4798  0.5428  0.5023
 6321SOL    HW230597   0.244   0.305   0.569  3.4654 -1.4603  0.3360
 6322SOL     OW30598   0.883   0.726   8.877 -0.5688 -0.5673  0.0929
 6322SOL    HW130599   0.966   0.683   8.899 -0.7549 -1.1665 -0.3976
 6322SOL    HW230600   0.869   0.793   8.944  1.8147  0.3429 -0.3121
 6323SOL     OW30601   1.700   2.242  14.554  0.3938 -0.0945 -0.2946
 6323SOL    HW130602   1.695   2.325  14.602 -1.1908 -1.2232  1.4514
 6323SOL    HW230603   1.762   2.257  14.482  0.8640  0.8046  0.2950
 6324SOL     OW30604   0.471   2.948   8.269  0.4160 -0.1528  0.2367
 6324SOL    HW130605   0.418   2.963   8.191  2.4017 -0.1181 -1.0907
 6324SOL    HW230606   0.429   3.004   8.334  1.6993  0.1378  0.8163
 6325SOL     OW30607   4.641   3.452   9.027 -0.4030  0.4752 -0.6780
 6325SOL    HW130608   4.601   3.372   9.062  2.6978 -0.9467 -0.3836
 6325SOL    HW230609   4.653   3.503   9.106 -0.8210  0.0432 -0.3321
 6326SOL     OW30610   0.003   0.091  14.713  0.5828  0.7079  0.2808
 6326SOL    HW130611   0.020   0.041  14.632  2.8249  0.0293  1.1715
 6326SOL    HW230612   4.707   0.022  14.770 -1.0338 -0.7903 -2.4978
 6327SOL     OW30613   0.143   3.415   2.030  0.1844 -0.5565  0.3117
 6327SOL    HW130614   0.082   3.404   2.103  1.8530  0.3480  1.8332
 6327SOL    HW230615   0.179   3.327   2.018  1.0307 -0.2521  0.6093
 6328SOL     OW30616   1.106   3.779  10.820  0.5860  0.1289 -0.7125
 6328SOL    HW130617   1.059   3.721  10.880 -0.1803  0.0135 -1.4242
 6328SOL    HW230618   1.043   3.778  10.748 -1.6907 -0.4463  1.3114
 6329SOL     OW30619   0.562   2.351   1.873  1.1911  0.6808 -0.4423
 6329SOL    HW130620   0.644   2.303   1.886  0.8941  0.1993 -0.3403
 6329SOL    HW230621   0.551   2.342   1.778 -4.6371 -3.7145  0.7039
 6330SOL     OW30622   2.784   3.002   6.474 -0.1965 -0.3436  0.6825
 6330SOL    HW130623   2.833   3.057   6.535 -2.3067  1.0431  1.1195
 6330SOL    HW230624   2.717   2.966   6.533 -0.7122  0.1510  0.3928
 6331SOL     OW30625   4.315   1.882   9.557  0.0483 -0.8479 -0.3195
 6331SOL    HW130626   4.362   1.915   9.634 -1.6591 -2.0663  1.2642
 6331SOL    HW230627   4.243   1.839   9.604 -2.0470  1.5940 -1.2625
 6332SOL     OW30628   1.971   3.241   7.043 -0.3509  0.4518  0.0386
 6332SOL    HW130629   1.875   3.233   7.041 -0.4397  1.0953  1.6093
 6332SOL    HW230630   1.982   3.321   7.093  3.2030  0.1847 -0.3484
 6333SOL     OW30631   0.900   1.524   9.954  0.2329 -0.1977 -0.2815
 6333SOL    HW130632   0.808   1.497   9.962  0.9281 -2.7343 -0.8550
 6333SOL    HW230633   0.922   1.448   9.902  3.2011  1.7119 -1.7866
 6334SOL     OW30634   0.283   2.550   7.165  0.1388 -0.6108 -0.3344
 6334SOL    HW130635   0.323   2.468   7.135  0.9732 -1.1902  2.3029
 6334SOL    HW230636   0.246   2.587   7.086 -0.3616  1.1956  0.7401
 6335SOL     OW30637   1.161   3.633   5.706  0.0775 -0.0685  0.7169
 6335SOL    HW130638   1.146   3.612   5.614  0.6459  1.3039  0.2995
 6335SOL    HW230639   1.070   3.645   5.733 -0.0471 -0.6228  0.5296
 6336SOL     OW30640   4.106   0.096   3.858  0.1171  0.0166  0.3452
 6336SOL    HW130641   4.106   0.034   3.931  0.7341  0.1512  0.4581
 6336SOL    HW230642   4.018   0.134   3.864  0.3463  0.3215  1.7864
 6337SOL     OW30643   0.798   0.240   4.614  0.2981  0.3580  0.0828
 6337SOL    HW130644   0.740   0.204   4.546 -0.1360 -0.8833  1.1125
 6337SOL    HW230645   0.823   0.160   4.660 -2.1164  0.0489  0.8862
 6338SOL     OW30646   3.832   0.251  13.144 -0.0492  0.1298 -0.2303
 6338SOL    HW130647   3.884   0.328  13.119  0.4822  0.4236  1.7520
 6338SOL    HW230648   3.815   0.266  13.237 -4.0683  1.2375 -1.1511
 6339SOL     OW30649   4.225   3.525  10.514 -0.0888  0.0105  0.3076
 6339SOL    HW130650   4.254   3.543  10.604  1.3888 -0.2537 -0.1190
 6339SOL    HW230651   4.132   3.547  10.513 -0.2509 -0.6663  0.4399
 6340SOL     OW30652   1.817   2.658   3.689  0.1428  0.6579 -0.6761
 6340SOL    HW130653   1.828   2.745   3.650 -0.6187  1.3380  0.6442
 6340SOL    HW230654   1.898   2.659   3.741  0.6981  1.2241 -1.5313
 6341SOL     OW30655   1.073   3.517   4.156  0.1470  0.0806  0.7365
 6341SOL    HW130656   1.003   3.462   4.191 -0.9546  0.3166 -1.0698
 6341SOL    HW230657   1.031   3.603   4.153 -0.9463 -0.4473  0.9964
 6342SOL     OW30658   4.179   4.514   9.667 -0.1068  0.0610 -0.0024
 6342SOL    HW130659   4.247   4.499   9.733 -0.0947  0.2343  0.0247
 6342SOL    HW230660   4.111   4.556   9.720 -1.6767 -1.0299 -1.1497
 6343SOL     OW30661   1.784   0.931   5.167  0.3851  0.1027  0.1014
 6343SOL    HW130662   1.724   0.984   5.219  0.3148  0.3882 -0.2645
 6343SOL    HW230663   1.845   0.902   5.235 -0.4572  1.6246  1.5170
 6344SOL     OW30664   0.998   0.723   8.216  1.0540  0.0439 -0.3285
 6344SOL    HW130665   0.996   0.762   8.129 -2.5569 -1.5667 -0.9941
 6344SOL    HW230666   0.935   0.777   8.264  0.5179 -0.9500  0.0954
 6345SOL     OW30667   2.533   0.154   3.544  0.9682  0.2399  0.3480
 6345SOL    HW130668   2.596   0.182   3.477 -0.7583  1.2485 -0.8575
 6345SOL    HW230669   2.565   0.178   3.632 -1.3410  0.5431  1.1096
 6346SOL     OW30670   3.651   0.979   6.384 -0.3703 -0.2393  0.4825
 6346SOL    HW130671   3.672   1.002   6.294 -2.2751 -2.3680 -0.5006
 6346SOL    HW230672   3.635   1.067   6.419  1.5181  0.8556 -1.4066
 6347SOL     OW30673   0.140   0.640   6.679  0.3599 -0.4268  0.4367
 6347SOL    HW130674   0.135   0.640   6.774  1.3187 -1.8532  0.4885
 6347SOL    HW230675   0.226   0.681   6.663 -0.6840  1.6417  0.1094
 6348SOL     OW30676   1.785   4.698   2.736 -0.1323 -0.1807  0.1316
 6348SOL    HW130677   1.720   4.638   2.774  0.3457 -1.2528 -0.7492
 6348SOL    HW230678   1.804   0.014   2.812 -2.3810  3.6716 -2.0983
 6349SOL     OW30679   2.336   3.821  16.310 -0.2607 -0.8446  0.1585
 6349SOL    HW130680   2.325   3.756  16.380  0.3649 -0.1952  0.8504
 6349SOL    HW230681   2.321   3.896  16.368  0.1000 -0.7141  0.0770
 6350SOL     OW30682   3.397   1.536   3.559 -0.5761  0.2854  0.0819
 6350SOL    HW130683   3.461   1.502   3.622 -0.4125  3.1852  1.4584
 6350SOL    HW230684   3.398   1.630   3.579  1.5893 -0.2692  2.6253
 6351SOL     OW30685   0.214   3.370  12.712  0.0722  0.6874  0.5321
 6351SOL    HW130686   0.257   3.445  12.672 -1.5659  0.4011 -1.7499
 6351SOL    HW230687   0.217   3.397  12.804  1.4112  1.1360  0.3537
 6352SOL     OW30688   2.799   0.455   3.086  0.4023 -0.3306  0.1570
 6352SOL    HW130689   2.885   0.419   3.107  0.1266 -0.7442  0.5743
 6352SOL    HW230690   2.807   0.542   3.125  0.7534  0.1356 -0.9490
 6353SOL     OW30691   3.059   3.766   4.021 -0.1501  0.4710  0.5347
 6353SOL    HW130692   2.985   3.798   3.969 -0.3830 -0.9292  0.0267
 6353SOL    HW230693   3.111   3.726   3.951 -0.0943 -0.7652  1.2879
 6354SOL     OW30694   3.570   2.807   6.830 -0.3230 -0.2935  0.5633
 6354SOL    HW130695   3.647   2.812   6.887 -0.5750  0.7037  0.8235
 6354SOL    HW230696   3.608   2.792   6.744 -1.3841  0.3369 -0.0268
 6355SOL     OW30697   3.564   2.262   5.879  0.0631  0.6437 -0.0866
 6355SOL    HW130698   3.606   2.282   5.795  0.3822 -2.2329 -0.6079
 6355SOL    HW230699   3.482   2.310   5.866 -0.8024 -0.5560  0.9742
 6356SOL     OW30700   0.871   3.871  14.461 -0.4964  0.2560 -0.2501
 6356SOL    HW130701   0.928   3.864  14.537 -1.0403 -0.4053  0.0923
 6356SOL    HW230702   0.788   3.858  14.506 -1.0209  1.2106 -0.9224
 6357SOL     OW30703   2.497   1.285   2.356 -0.2260  0.1897  0.2545
 6357SOL    HW130704   2.473   1.260   2.445 -0.6710  1.0760  0.3826
 6357SOL    HW230705   2.439   1.223   2.310 -1.0129  1.9996 -1.1875
 6358SOL     OW30706   0.884   1.012   0.915 -0.0394  0.6709 -0.4536
 6358SOL    HW130707   0.874   1.022   0.820  1.5371  0.4395 -0.6509
 6358SOL    HW230708   0.805   1.047   0.955 -0.1211  1.7054 -1.5258
 6359SOL     OW30709   0.003   1.404   1.702  0.0782  0.1938 -0.6254
 6359SOL    HW130710   4.658   1.376   1.665  0.6548 -1.0833 -0.9739
 6359SOL    HW230711   0.027   1.475   1.642 -0.1722  0.0984 -0.8363
 6360SOL     OW30712   4.524   1.338   8.578  0.6073  0.1827 -0.0645
 6360SOL    HW130713   4.547   1.260   8.527  2.5844  0.1191  0.9000
 6360SOL    HW230714   4.615   1.354   8.603  1.3753 -0.3441 -2.5137
 6361SOL     OW30715   4.257   3.544   2.203  0.2733  0.2516  0.2155
 6361SOL    HW130716   4.320   3.598   2.251 -0.0871  0.8965 -0.0219
 6361SOL    HW230717   4.264   3.460   2.249  0.1139  1.0291  1.6895
 6362SOL     OW30718   0.883   1.908   9.237  0.4274 -0.2665 -0.2806
 6362SOL    HW130719   0.864   1.952   9.155 -1.1446  1.0534  0.7980
 6362SOL    HW230720   0.877   1.819   9.203 -1.5058 -0.0960 -0.4020
 6363SOL     OW30721   3.199   3.007   0.931 -0.7319 -0.3101  0.4866
 6363SOL    HW130722   3.240   2.946   0.870  0.3737  1.7569 -0.8428
 6363SOL    HW230723   3.123   3.027   0.877 -0.3395 -0.4033 -0.1025
 6364SOL     OW30724   0.913   2.663   6.852  0.2518  0.0329  0.0747
 6364SOL    HW130725   0.891   2.573   6.877 -0.0849 -0.3926 -1.7437
 6364SOL    HW230726   0.959   2.645   6.769 -1.5300  0.2423 -0.9589
 6365SOL     OW30727   1.937   3.723   7.938 -1.2254  0.1279 -0.1148
 6365SOL    HW130728   1.891   3.710   7.854 -0.2746  2.0537 -0.9414
 6365SOL    HW230729   1.965   3.633   7.955 -0.8009  0.3181  0.1793
 6366SOL     OW30730   4.066   0.832   8.369  0.4708  0.6321 -0.3026
 6366SOL    HW130731   3.994   0.882   8.330  0.6233  1.4248  0.4428
 6366SOL    HW230732   4.071   0.861   8.460  0.9010  2.1385 -0.8062
 6367SOL     OW30733   1.797   1.549   5.347 -0.3540  0.1099 -0.4508
 6367SOL    HW130734   1.763   1.636   5.368  0.5600  0.8560 -2.0480
 6367SOL    HW230735   1.861   1.537   5.417 -1.1349  0.5987  0.3453
 6368SOL     OW30736   1.923   1.822   9.314  0.1849 -0.3575 -0.1021
 6368SOL    HW130737   1.990   1.878   9.353  0.8755 -0.9265 -0.4816
 6368SOL    HW230738   1.957   1.789   9.231 -0.0292 -1.7443  0.3640
 6369SOL     OW30739   4.041   0.432   8.372 -0.5113  0.2210  0.1303
 6369SOL    HW130740   4.088   0.490   8.313  1.3015  0.6418  1.9612
 6369SOL    HW230741   4.079   0.442   8.460 -2.2857 -1.6244  1.0994
 6370SOL     OW30742   3.047   0.359   9.348  0.1362  0.0881  0.1329
 6370SOL    HW130743   3.029   0.266   9.336  0.1222 -0.1917  2.2804
 6370SOL    HW230744   3.109   0.373   9.277  0.0997  1.2217  0.3164
 6371SOL     OW30745   3.698   0.936   9.433  0.5192  0.4067  0.5975
 6371SOL    HW130746   3.767   0.907   9.373 -0.8730  1.5069 -1.5257
 6371SOL    HW230747   3.706   0.853   9.480  0.1429 -0.9555 -1.7001
 6372SOL     OW30748   2.256   1.483   3.907  0.6325  0.7592 -0.5854
 6372SOL    HW130749   2.192   1.485   3.836 -2.0729  2.2912  1.9054
 6372SOL    HW230750   2.216   1.537   3.975  1.3722  1.9558 -1.0838
 6373SOL     OW30751   0.222   1.520   3.255  0.2907 -0.0968 -0.4290
 6373SOL    HW130752   0.229   1.595   3.314 -0.4158 -0.8284  0.6062
 6373SOL    HW230753   0.176   1.456   3.310  0.2485  0.3874  0.1066
 6374SOL     OW30754   3.873   4.371   4.057  0.1326  0.3364  0.2534
 6374SOL    HW130755   3.867   4.438   4.125 -2.7885 -1.8469  2.1457
 6374SOL    HW230756   3.880   4.286   4.102 -0.0863 -0.0128 -0.3698
 6375SOL     OW30757   4.427   4.386   2.440  0.2366 -0.1939  0.4313
 6375SOL    HW130758   4.448   4.459   2.498  0.4793 -0.0910  0.2149
 6375SOL    HW230759   4.399   4.427   2.358 -1.2601 -3.5127 -0.7314
 6376SOL     OW30760   3.865   4.694  16.213 -0.4827  0.3696  0.1996
 6376SOL    HW130761   3.811   4.710  16.290 -0.5469  0.4068  0.1460
 6376SOL    HW230762   3.948   0.003  16.224 -0.1894  0.2155 -1.3277
 6377SOL     OW30763   0.919   1.460  14.541 -0.0403  0.2260 -0.5301
 6377SOL    HW130764   0.940   1.385  14.597  0.1956  0.9002  0.2967
 6377SOL    HW230765   0.923   1.535  14.601 -2.2476 -0.1621  0.0955
 6378SOL     OW30766   1.761   2.317   6.265  0.2227 -0.2497  0.2446
 6378SOL    HW130767   1.669   2.316   6.237  0.8708 -1.8442 -1.8445
 6378SOL    HW230768   1.762   2.383   6.334 -0.1280  0.6586 -0.6175
 6379SOL     OW30769   4.368   1.151   3.833  0.3301  0.3276  0.7563
 6379SOL    HW130770   4.297   1.190   3.781  2.2021 -0.2441 -2.2803
 6379SOL    HW230771   4.446   1.197   3.801 -1.0856  1.9979 -0.2986
 6380SOL     OW30772   3.627   2.910   5.835  0.1558  0.3292 -0.5252
 6380SOL    HW130773   3.555   2.920   5.772 -0.2262  2.1829  0.1871
 6380SOL    HW230774   3.590   2.961   5.907  2.2431  1.8288 -0.5167
 6381SOL     OW30775   1.508   1.971   9.586 -0.0965  0.6487 -0.1708
 6381SOL    HW130776   1.521   2.063   9.608  2.3967 -0.2772  2.2233
 6381SOL    HW230777   1.585   1.951   9.533 -0.6750 -1.7989 -0.0943
 6382SOL     OW30778   1.819   1.341   1.676  0.5921  0.1859 -0.2739
 6382SOL    HW130779   1.791   1.430   1.654  0.5870 -0.0941 -1.4118
 6382SOL    HW230780   1.804   1.339   1.770  0.4496 -3.5776 -0.3621
 6383SOL     OW30781   1.919   2.801   8.259 -0.2074 -0.7332 -0.1116
 6383SOL    HW130782   1.967   2.782   8.340 -0.2348 -2.3999 -0.4785
 6383SOL    HW230783   1.948   2.892   8.251 -0.1533 -0.7633 -0.2631
 6384SOL     OW30784   2.756   3.719   6.938  0.3076  0.4676 -0.1493
 6384SOL    HW130785   2.785   3.660   6.869 -2.3014  0.5569 -1.3191
 6384SOL    HW230786   2.804   3.794   6.903  0.5043  1.6300  2.6207
 6385SOL     OW30787   0.230   3.824   4.649  0.2807  0.5238  0.5807
 6385SOL    HW130788   0.209   3.732   4.636 -2.0120  1.1837 -0.4554
 6385SOL    HW230789   0.148   3.850   4.692 -0.4399  0.5336 -0.7870
 6386SOL     OW30790   1.841   1.969  14.837  0.0138  0.1461  0.4945
 6386SOL    HW130791   1.852   2.064  14.831  3.3302 -0.1931  1.3253
 6386SOL    HW230792   1.749   1.963  14.812 -0.3784  1.0749  1.6804
 6387SOL     OW30793   1.138   2.257   8.765 -0.6815  0.2408 -0.3192
 6387SOL    HW130794   1.201   2.185   8.774 -1.1111  0.1628  2.1633
 6387SOL    HW230795   1.093   2.243   8.681  1.5322  1.2158 -1.6523
 6388SOL     OW30796   4.269   3.854   2.419  0.0128  0.4833  0.1432
 6388SOL    HW130797   4.276   3.948   2.439  0.2714  0.4771  0.0860
 6388SOL    HW230798   4.233   3.859   2.330 -2.9740  1.3993  1.3851
 6389SOL     OW30799   0.113   4.368   7.253  0.2112 -0.8041  0.0380
 6389SOL    HW130800   0.035   4.366   7.198 -1.4099  0.5929  2.2886
 6389SOL    HW230801   0.070   4.321   7.324 -0.0502  0.0795  0.4666
 6390SOL     OW30802   2.273   2.344   8.955  0.3237  0.1717 -0.7721
 6390SOL    HW130803   2.312   2.327   8.870  1.6843  1.1785 -0.3430
 6390SOL    HW230804   2.179   2.355   8.936  0.6025  2.5786 -0.8096
 6391SOL     OW30805   1.415   2.171   2.758 -0.8508 -0.1617  0.0655
 6391SOL    HW130806   1.390   2.081   2.737  0.8398 -0.2995 -1.3289
 6391SOL    HW230807   1.511   2.173   2.758 -0.8386 -0.1957  1.4196
 6392SOL     OW30808   0.366   0.542  13.116  0.1045  0.4933  0.1766
 6392SOL    HW130809   0.298   0.571  13.055  0.6853  0.7943 -0.3307
 6392SOL    HW230810   0.422   0.485  13.063 -2.5479  0.6117 -2.7878
 6393SOL     OW30811   4.347   0.489  14.401  0.2535 -0.1419 -0.1372
 6393SOL    HW130812   4.433   0.513  14.434  1.7628 -1.2989 -3.3074
 6393SOL    HW230813   4.344   0.552  14.328  0.3933  2.5283  2.1494
 6394SOL     OW30814   1.304   2.203   0.860  0.1886  0.1224 -0.0715
 6394SOL    HW130815   1.362   2.271   0.895  1.0951 -1.0686  0.7307
 6394SOL    HW230816   1.365   2.131   0.842 -2.5282 -2.9235  2.8426
 6395SOL     OW30817   4.419   2.074  13.524  0.4000 -0.0556  0.2610
 6395SOL    HW130818   4.387   2.154  13.565  3.1640  2.0569 -1.7160
 6395SOL    HW230819   4.348   2.052  13.464 -0.5317 -0.0731  1.3666
 6396SOL     OW30820   2.603   0.961   8.329 -0.2409 -0.8009  0.0725
 6396SOL    HW130821   2.581   0.868   8.324  0.0456 -0.9404  1.3537
 6396SOL    HW230822   2.696   0.964   8.306 -0.2749  0.5431  0.1401
 6397SOL     OW30823   2.536   0.688  12.802 -0.2205 -0.0049  0.7559
 6397SOL    HW130824   2.488   0.768  12.781  0.0786  0.5736  2.2639
 6397SOL    HW230825   2.559   0.708  12.893 -1.9288 -1.1126  1.4341
 6398SOL     OW30826   2.533   0.418  12.737  0.0687  0.0914  0.5861
 6398SOL    HW130827   2.452   0.387  12.777 -0.2191  0.0655 -0.0125
 6398SOL    HW230828   2.543   0.511  12.758 -1.7066  1.0404 -2.7297
 6399SOL     OW30829   4.268   2.271   6.239 -0.0715  0.4794  0.0155
 6399SOL    HW130830   4.305   2.335   6.178 -1.0090 -0.6904 -1.8042
 6399SOL    HW230831   4.176   2.277   6.213 -0.7582  0.0096  2.3742
 6400SOL     OW30832   4.331   0.137   4.151  0.3316 -1.0968 -0.2234
 6400SOL    HW130833   4.239   0.155   4.130  0.3453  1.2693  1.7058
 6400SOL    HW230834   4.376   0.221   4.137  2.3166 -2.0660  0.4081
 6401SOL     OW30835   3.808   2.196   5.121  0.2361 -0.0292  0.8191
 6401SOL    HW130836   3.887   2.250   5.132  0.5419 -0.6073  1.4787
 6401SOL    HW230837   3.785   2.204   5.029  1.6784  1.7384  0.6002
 6402SOL     OW30838   4.046   2.748  15.108  0.1634 -0.0832  0.1374
 6402SOL    HW130839   4.094   2.815  15.157 -2.9025  0.2514  2.6210
 6402SOL    HW230840   4.072   2.780  15.021 -1.1155 -0.1629 -0.2635
 6403SOL     OW30841   2.809   2.197   2.884 -0.2893 -0.0816 -0.1091
 6403SOL    HW130842   2.816   2.104   2.902 -1.1976 -0.4012 -1.4154
 6403SOL    HW230843   2.832   2.206   2.791 -1.0951  0.2615 -0.2798
 6404SOL     OW30844   3.453   2.848   2.609  0.6415 -0.3963 -0.0002
 6404SOL    HW130845   3.504   2.768   2.610  1.7951  0.2862 -3.0922
 6404SOL    HW230846   3.390   2.841   2.681  1.5545 -2.3675  0.5879
 6405SOL     OW30847   1.586   2.797   8.556  0.1932 -0.6835  0.1389
 6405SOL    HW130848   1.500   2.762   8.575 -0.4961  1.1954  0.4910
 6405SOL    HW230849   1.616   2.840   8.637 -0.8299  1.7641 -0.7899
 6406SOL     OW30850   3.560   1.797  13.232 -0.4118 -0.0300 -0.1028
 6406SOL    HW130851   3.546   1.886  13.264  3.0049  1.0785 -1.7442
 6406SOL    HW230852   3.533   1.808  13.141  2.8910  0.2719 -1.0354
 6407SOL     OW30853   2.244   4.343   8.060 -0.1081  0.7142  0.4605
 6407SOL    HW130854   2.149   4.351   8.070  0.1330  4.3302 -0.1535
 6407SOL    HW230855   2.273   4.403   8.128 -0.2415  0.8131  0.4289
 6408SOL     OW30856   4.183   3.338   3.804  0.0401  0.4018 -0.6483
 6408SOL    HW130857   4.182   3.351   3.709  1.1920  0.2936 -0.6753
 6408SOL    HW230858   4.094   3.365   3.825 -0.0147 -1.7760  1.8907
 6409SOL     OW30859   1.840   2.169  12.511  0.0535 -0.2409 -0.0646
 6409SOL    HW130860   1.891   2.220  12.574  2.8904 -2.4653 -0.5471
 6409SOL    HW230861   1.910   2.137  12.454  0.2273 -0.6895  0.4023
 6410SOL     OW30862   3.509   2.086   7.721  0.2485 -0.2927 -0.3684
 6410SOL    HW130863   3.422   2.051   7.705  0.3066 -0.9366  0.7627
 6410SOL    HW230864   3.537   2.038   7.798  0.5746 -1.1284 -1.0146
 6411SOL     OW30865   4.717   0.982   2.473 -0.7436  0.1713 -0.1062
 6411SOL    HW130866   0.016   1.043   2.409 -0.1126 -1.3342 -1.1523
 6411SOL    HW230867   0.004   1.023   2.556  1.1733 -2.4191  0.5802
 6412SOL     OW30868   2.787   2.129   3.686 -0.0392 -0.0049 -0.1087
 6412SOL    HW130869   2.750   2.050   3.646 -1.3717 -0.5548  2.2130
 6412SOL    HW230870   2.732   2.124   3.764  2.1206 -1.6683  1.3086
 6413SOL     OW30871   2.483   3.187   8.615 -0.0073 -0.2133  0.3357
 6413SOL    HW130872   2.431   3.140   8.550 -0.2700 -1.9802  1.8090
 6413SOL    HW230873   2.504   3.262   8.560  0.1718  0.0488  0.7561
 6414SOL     OW30874   3.016   1.634  10.065 -0.2811 -0.3684  0.0463
 6414SOL    HW130875   3.034   1.673  10.151  1.5276 -1.6146  0.2352
 6414SOL    HW230876   3.102   1.613  10.030 -0.6919 -0.1740 -1.0812
 6415SOL     OW30877   2.872   2.222   7.705  0.1076 -0.4508 -0.4783
 6415SOL    HW130878   2.810   2.233   7.778  1.0547  1.3350  0.0415
 6415SOL    HW230879   2.841   2.305   7.667 -0.9038 -0.4842  0.2692
 6416SOL     OW30880   2.076   1.715   5.670  0.2868  0.0121 -0.2149
 6416SOL    HW130881   2.025   1.640   5.642 -0.2966 -0.3787  1.9116
 6416SOL    HW230882   2.015   1.785   5.645 -0.1941 -0.6644 -0.9076
 6417SOL     OW30883   1.987   2.458   6.143  0.1024  0.0246 -0.0863
 6417SOL    HW130884   2.031   2.393   6.088  0.0331  1.3435 -1.7316
 6417SOL    HW230885   1.946   2.400   6.206  1.6119 -0.7047  0.2305
 6418SOL     OW30886   4.143   2.768  14.395 -0.2674 -0.1944  0.0387
 6418SOL    HW130887   4.190   2.729  14.322 -0.0713 -0.7137  0.4458
 6418SOL    HW230888   4.050   2.777  14.372  0.0148  2.1797 -0.1792
 6419SOL     OW30889   3.976   1.642  16.783 -0.1545 -0.4060 -0.4606
 6419SOL    HW130890   3.924   1.567  16.754 -1.1591  0.1610 -0.1446
 6419SOL    HW230891   3.953   1.709  16.719  1.0438 -0.0481 -0.5117
 6420SOL     OW30892   0.520   0.293   6.497 -0.1841 -0.0095 -0.0606
 6420SOL    HW130893   0.535   0.350   6.422 -0.5736  0.2995  0.0963
 6420SOL    HW230894   0.453   0.340   6.546  1.8041  0.4429  2.2793
 6421SOL     OW30895   3.336   3.998   8.697  0.5023 -0.0169 -0.1758
 6421SOL    HW130896   3.408   4.059   8.711  1.8389 -1.3962 -1.0211
 6421SOL    HW230897   3.340   3.954   8.782 -1.8494 -0.4991 -0.2953
 6422SOL     OW30898   2.206   1.050   2.881  0.0702  0.1166 -0.3195
 6422SOL    HW130899   2.196   1.115   2.812 -2.7214 -0.4665 -0.4757
 6422SOL    HW230900   2.161   0.971   2.850  1.9673 -0.7903 -0.7862
 6423SOL     OW30901   2.007   4.324  13.614  0.2551  0.7543 -0.0447
 6423SOL    HW130902   1.914   4.343  13.603 -0.3408 -1.1820  1.6229
 6423SOL    HW230903   2.030   4.366  13.531  0.7966  0.6356  0.0505
 6424SOL     OW30904   3.793   1.979   5.299  0.3866 -0.3593 -0.1046
 6424SOL    HW130905   3.697   1.978   5.296  0.4451  0.1761 -1.7294
 6424SOL    HW230906   3.812   2.049   5.237  2.7670  0.0743  1.1012
 6425SOL     OW30907   1.521   3.807  11.174  0.0099 -0.2836 -0.3425
 6425SOL    HW130908   1.500   3.800  11.080  1.3913  0.3319 -0.6947
 6425SOL    HW230909   1.531   3.713  11.188  1.4942  0.1016  1.0375
 6426SOL     OW30910   3.316   0.584   3.471  0.3031  0.1380  0.2298
 6426SOL    HW130911   3.340   0.669   3.434  0.8094  1.0511  2.6355
 6426SOL    HW230912   3.237   0.613   3.517 -0.1867 -1.3475  0.3289
 6427SOL     OW30913   0.292   3.829   3.033  0.0342  0.5477  0.0105
 6427SOL    HW130914   0.385   3.813   3.050 -0.0441 -2.4983 -2.5011
 6427SOL    HW230915   0.297   3.900   2.970 -1.4919 -0.0943 -0.8112
 6428SOL     OW30916   0.624   4.249   5.613  0.0176  0.6432  0.6637
 6428SOL    HW130917   0.689   4.180   5.623 -1.6958 -1.0878 -0.2246
 6428SOL    HW230918   0.683   4.325   5.609  2.6695 -1.4723 -0.0482
 6429SOL     OW30919   2.126   2.756  17.722 -0.1557  0.9223 -0.0844
 6429SOL    HW130920   2.146   2.849  17.717  1.5560  0.5571  0.0353
 6429SOL    HW230921   2.163   2.727   0.053 -0.2166 -0.6793 -0.6180
 6430SOL     OW30922   0.662   2.658   5.994 -0.2421 -0.0133 -0.1652
 6430SOL    HW130923   0.676   2.750   6.017 -0.0386 -0.4086  1.2854
 6430SOL    HW230924   0.751   2.628   6.012  0.6259  2.4519 -0.2738
 6431SOL     OW30925   3.570   4.717  10.324  0.1286 -0.4068 -0.6968
 6431SOL    HW130926   3.664   4.708  10.343  0.3829  0.9036 -1.3508
 6431SOL    HW230927   3.552   4.626  10.300 -0.5990 -0.3750 -0.2677
 6432SOL     OW30928   3.628   0.835   4.512 -0.5137  0.0540  1.0509
 6432SOL    HW130929   3.677   0.815   4.592 -0.2380  1.0994  1.1534
 6432SOL    HW230930   3.638   0.760   4.453 -1.1908  1.0976 -0.4002
 6433SOL     OW30931   0.820   0.797  10.241 -0.7367  0.4786  0.3923
 6433SOL    HW130932   0.735   0.758  10.265  0.5709 -3.8874 -2.0417
 6433SOL    HW230933   0.850   0.733  10.176 -0.1805  2.2757 -1.1094
 6434SOL     OW30934   4.598   4.613   9.137 -0.1784  0.5704  0.3850
 6434SOL    HW130935   4.561   4.549   9.077  1.2531  1.4338 -1.4122
 6434SOL    HW230936   4.611   4.546   9.205  1.3466 -0.1039 -0.5564
 6435SOL     OW30937   4.125   1.700   4.869 -0.4091 -0.7912 -0.0887
 6435SOL    HW130938   4.122   1.689   4.964 -1.0058  0.8367  0.0955
 6435SOL    HW230939   4.092   1.789   4.857  0.3901  0.0311  3.6844
 6436SOL     OW30940   2.695   0.633   0.768 -0.0645 -0.7328 -0.4814
 6436SOL    HW130941   2.625   0.661   0.826 -0.8277  1.7346 -2.5810
 6436SOL    HW230942   2.721   0.547   0.800 -0.3233 -1.2511 -1.6820
 6437SOL     OW30943   2.825   1.671   4.975  0.0016  0.2051  0.6828
 6437SOL    HW130944   2.833   1.752   4.925 -0.2861  0.0252  0.3422
 6437SOL    HW230945   2.891   1.619   4.929  1.4952  2.3198  0.4506
 6438SOL     OW30946   0.877   2.535   9.379  0.2162  0.3147 -0.4730
 6438SOL    HW130947   0.972   2.537   9.374  0.2543  2.3609  1.2292
 6438SOL    HW230948   0.860   2.529   9.473 -0.7173  0.9433 -0.6004
 6439SOL     OW30949   3.409   2.726  11.809  0.5045 -0.1414  0.2276
 6439SOL    HW130950   3.422   2.805  11.757 -1.4801 -2.2117 -3.3701
 6439SOL    HW230951   3.386   2.772  11.890  0.1432  1.9690 -1.0991
 6440SOL     OW30952   3.821   3.710   9.563 -0.5994 -0.2570  0.0031
 6440SOL    HW130953   3.858   3.721   9.476  1.5289  1.5337  1.1450
 6440SOL    HW230954   3.752   3.777   9.564  0.2905  0.6927 -2.6164
 6441SOL     OW30955   1.850   1.804   2.534  0.0197 -0.3332  0.0065
 6441SOL    HW130956   1.896   1.856   2.468  0.6729  0.0866  0.7986
 6441SOL    HW230957   1.818   1.732   2.479 -1.7576 -0.3307  1.0388
 6442SOL     OW30958   3.191   1.040   5.467  0.2919  0.1469 -0.5786
 6442SOL    HW130959   3.161   1.039   5.558  2.1929 -0.1484  0.0477
 6442SOL    HW230960   3.115   1.079   5.424  0.0394  0.0279 -0.2435
 6443SOL     OW30961   4.646   3.823  13.787 -0.2988  0.2175 -0.2219
 6443SOL    HW130962   4.722   3.795  13.839 -0.3038 -0.3133 -0.4951
 6443SOL    HW230963   4.689   3.844  13.704 -0.8953  1.2328 -0.2597
 6444SOL     OW30964   2.667   2.750   8.442 -0.7266 -0.2129  0.2250
 6444SOL    HW130965   2.638   2.685   8.377 -2.1966  1.4315 -0.7598
 6444SOL    HW230966   2.595   2.813   8.433  0.0120  1.1790  4.1322
 6445SOL     OW30967   1.578   2.792   5.771  1.1549  0.6321 -0.4714
 6445SOL    HW130968   1.657   2.836   5.800  0.5491 -0.8465  3.3804
 6445SOL    HW230969   1.526   2.870   5.753 -0.0595 -0.3246 -1.1509
 6446SOL     OW30970   2.302   3.790  11.542  0.2511  0.3473  0.1312
 6446SOL    HW130971   2.351   3.812  11.621 -0.5760 -0.2483  0.8212
 6446SOL    HW230972   2.263   3.874  11.517 -0.8051 -0.2194 -0.1428
 6447SOL     OW30973   4.319   2.546   3.635 -0.1953 -0.2461 -0.2147
 6447SOL    HW130974   4.342   2.639   3.641 -0.0817 -0.3832  1.7104
 6447SOL    HW230975   4.228   2.567   3.614  0.2167  1.8371  0.0998
 6448SOL     OW30976   3.790   2.584   3.094  0.7983 -0.0242 -0.2895
 6448SOL    HW130977   3.747   2.667   3.073 -0.9279 -0.9488 -0.3486
 6448SOL    HW230978   3.760   2.522   3.028  0.6700 -0.1040 -0.1571
 6449SOL     OW30979   0.964   2.870   0.184 -0.2006  0.7299 -0.1387
 6449SOL    HW130980   0.942   2.821   0.105 -3.1588  0.9830  0.5312
 6449SOL    HW230981   0.909   2.948   0.176  2.0828  2.3776  0.4139
 6450SOL     OW30982   1.040   1.062  16.230 -0.4311  0.0647  0.0283
 6450SOL    HW130983   0.961   1.029  16.188 -0.7193  0.1257  0.5266
 6450SOL    HW230984   1.009   1.146  16.264  2.2151  0.6546  0.9775
 6451SOL     OW30985   0.458   0.572   7.271 -0.1433 -0.2610  0.0493
 6451SOL    HW130986   0.545   0.539   7.292  0.6679  1.1827 -1.0504
 6451SOL    HW230987   0.399   0.509   7.312 -3.5630  2.3714 -0.7779
 6452SOL     OW30988   2.873   2.712  16.805  0.0431  0.0459  0.2364
 6452SOL    HW130989   2.961   2.749  16.800  1.2693 -2.6803  1.5282
 6452SOL    HW230990   2.894   2.627  16.843  2.3185  0.3067 -0.4455
 6453SOL     OW30991   2.658   4.596   6.149 -0.1935  0.1639  0.2692
 6453SOL    HW130992   2.706   4.539   6.089 -0.1762  0.3022  0.1483
 6453SOL    HW230993   2.573   4.553   6.143  0.1559 -0.2511 -1.9126
 6454SOL     OW30994   2.843   1.318   7.207 -0.2480  0.4692 -0.7656
 6454SOL    HW130995   2.795   1.250   7.160 -0.4007 -1.3109  1.9838
 6454SOL    HW230996   2.776   1.360   7.260 -0.0580  0.5181 -0.5640
 6455SOL     OW30997   3.077   0.393   6.547  0.3112 -0.5856 -0.4803
 6455SOL    HW130998   3.013   0.384   6.476  0.5152  0.8786 -0.8494
 6455SOL    HW230999   3.160   0.357   6.516 -0.3387 -2.5122 -0.0063
 6456SOL     OW31000   4.119   0.752   5.021 -0.1812  0.1432  0.5294
 6456SOL    HW131001   4.082   0.689   4.958 -1.1811  0.2320  1.0270
 6456SOL    HW231002   4.212   0.727   5.025  0.0159  0.5571 -1.4258
 6457SOL     OW31003   1.339   0.100   2.375  0.3299  0.0597  0.3153
 6457SOL    HW131004   1.421   0.122   2.418  0.6983 -0.8601  0.0729
 6457SOL    HW231005   1.314   0.187   2.342  0.7627 -0.5554 -1.6162
 6458SOL     OW31006   1.283   2.745   9.557 -0.5461 -0.6673 -0.2807
 6458SOL    HW131007   1.261   2.810   9.490  0.7047  0.4183  0.3544
 6458SOL    HW231008   1.366   2.779   9.591 -0.9381 -0.6856  0.6858
 6459SOL     OW31009   3.204   1.851   2.550 -0.2430 -0.1476  0.2432
 6459SOL    HW131010   3.261   1.911   2.503 -0.3758  0.3281  0.6887
 6459SOL    HW231011   3.273   1.804   2.596 -0.0182  0.7435  0.8112
 6460SOL     OW31012   4.115   4.252   0.076  0.2779 -0.0757 -0.0070
 6460SOL    HW131013   4.054   4.246   0.002  3.2453  0.0858 -2.4581
 6460SOL    HW231014   4.090   4.175   0.126 -0.2674  0.2098  0.1692
 6461SOL     OW31015   0.142   1.710   9.869  0.3609 -0.3706 -0.3992
 6461SOL    HW131016   0.067   1.656   9.842 -0.5747  0.3886  0.7133
 6461SOL    HW231017   0.151   1.790   9.817 -3.2363  0.4805  0.3168
 6462SOL     OW31018   3.895   3.529   0.048 -0.4493  0.5449 -0.4269
 6462SOL    HW131019   3.836   3.598   0.078 -0.5253  0.2173  0.1705
 6462SOL    HW231020   3.935   3.501   0.130 -2.3272  1.9934  0.9986
 6463SOL     OW31021   3.430   4.323   3.250 -0.3331  0.1239  0.0427
 6463SOL    HW131022   3.521   4.353   3.243 -0.5590  0.9616  0.6608
 6463SOL    HW231023   3.375   4.392   3.213 -0.5064  0.3986  0.8271
 6464SOL     OW31024   1.159   2.244   2.843 -0.2287 -0.3170 -0.3790
 6464SOL    HW131025   1.119   2.160   2.819  1.2163 -0.6904 -1.5435
 6464SOL    HW231026   1.251   2.222   2.824 -0.2578  0.9229 -1.8848
 6465SOL     OW31027   4.022   4.630   4.755  0.4210 -0.3127  0.4858
 6465SOL    HW131028   3.931   4.601   4.748  1.3886 -3.4526  0.9689
 6465SOL    HW231029   4.040   4.611   4.663 -0.3295  1.3765 -0.0156
 6466SOL     OW31030   4.305   3.762   1.961  0.1311 -0.2619 -1.0437
 6466SOL    HW131031   4.274   3.787   2.048 -0.0672  1.2718 -1.5642
 6466SOL    HW231032   4.369   3.830   1.942  1.9382 -1.2604  1.5035
 6467SOL     OW31033   3.912   0.440   8.960 -0.2855  0.8113 -0.1281
 6467SOL    HW131034   3.835   0.394   8.928 -0.3699  1.3263 -0.6589
 6467SOL    HW231035   3.873   0.513   9.008  1.8269  0.6856  1.8048
 6468SOL     OW31036   3.467   1.261   9.641 -0.2434 -0.0777 -0.3012
 6468SOL    HW131037   3.484   1.168   9.653  2.1442  0.3766 -0.2092
 6468SOL    HW231038   3.526   1.289   9.571  0.1436  0.9060  0.4035
 6469SOL     OW31039   1.418   1.804  11.229  0.0734  0.5111 -0.5206
 6469SOL    HW131040   1.326   1.796  11.257 -0.8206  1.3999 -3.2525
 6469SOL    HW231041   1.412   1.767  11.141 -4.2152  1.9002 -0.8359
 6470SOL     OW31042   2.894   2.180   2.637  0.4273 -0.1166 -0.7295
 6470SOL    HW131043   2.892   2.207   2.545  0.1181 -0.0762 -0.7101
 6470SOL    HW231044   2.931   2.092   2.636  0.8588  0.0629 -0.6349
 6471SOL     OW31045   4.448   1.969   2.208 -0.0219 -0.2152 -0.7935
 6471SOL    HW131046   4.407   2.017   2.279  0.4134 -0.5927 -0.2910
 6471SOL    HW231047   4.410   1.885   2.233 -1.7883  0.8853  0.1629
 6472SOL     OW31048   4.154   1.297   5.614  0.1450  0.2727  0.0118
 6472SOL    HW131049   4.211   1.224   5.591 -0.7449 -0.1991 -0.7069
 6472SOL    HW231050   4.160   1.340   5.529  1.3079 -0.8226 -0.4542
 6473SOL     OW31051   0.710   0.775   3.583 -0.5946 -0.1859 -0.2110
 6473SOL    HW131052   0.761   0.699   3.555 -1.6239 -1.3513  1.0671
 6473SOL    HW231053   0.636   0.760   3.525 -0.1186  0.0489 -0.8743
 6474SOL     OW31054   4.314   4.634   8.172  0.3295  0.6058  0.3581
 6474SOL    HW131055   4.334   4.724   8.198 -2.4506  1.3978 -0.1839
 6474SOL    HW231056   4.269   4.652   8.089  2.1921 -1.2622 -1.0499
 6475SOL     OW31057   2.524   3.368  10.196  0.3137 -0.0440 -0.1766
 6475SOL    HW131058   2.525   3.329  10.283  1.2472  1.0973  0.3236
 6475SOL    HW231059   2.467   3.306  10.150 -1.3062  2.3463 -1.3728
 6476SOL     OW31060   4.143   3.780   1.297  0.4293  0.0258  0.9504
 6476SOL    HW131061   4.138   3.859   1.351 -1.6496 -1.1352  2.4568
 6476SOL    HW231062   4.221   3.733   1.327 -1.7047 -2.7029  2.2654
 6477SOL     OW31063   4.000   0.362   7.763  0.1277  0.2447  0.0952
 6477SOL    HW131064   3.929   0.422   7.740  0.7275  1.2163  0.7727
 6477SOL    HW231065   3.996   0.362   7.859 -0.1067  0.3279  0.0861
 6478SOL     OW31066   1.432   2.467   7.132 -0.4158 -0.6421 -0.1257
 6478SOL    HW131067   1.518   2.425   7.133 -0.9638 -1.7598 -0.2113
 6478SOL    HW231068   1.368   2.400   7.154 -1.5731  0.5953  0.2694
 6479SOL     OW31069   2.022   1.753   5.028 -0.1621 -0.1713 -0.0590
 6479SOL    HW131070   2.061   1.719   4.947  0.8661 -2.6965  1.4881
 6479SOL    HW231071   1.937   1.709   5.030 -0.7621  1.0118  0.6222
 6480SOL     OW31072   1.234   0.589   3.845 -1.1179 -0.1826 -0.0115
 6480SOL    HW131073   1.199   0.575   3.757  2.2383 -1.3459 -1.1399
 6480SOL    HW231074   1.160   0.561   3.899 -0.4864 -0.8345  0.5031
 6481SOL     OW31075   4.125   0.983   2.315 -0.3156 -0.8610 -0.6550
 6481SOL    HW131076   4.170   1.064   2.340 -2.7783  0.7354 -1.3957
 6481SOL    HW231077   4.186   0.936   2.258  0.4499 -1.8441  0.9798
 6482SOL     OW31078   1.034   2.384   2.449 -0.2243  0.1651 -0.2756
 6482SOL    HW131079   1.105   2.325   2.423 -1.1481 -1.2644  0.4007
 6482SOL    HW231080   1.084   2.457   2.484  1.0468 -0.7125 -0.2390
 6483SOL     OW31081   2.529   1.681   9.665  0.4906  0.1446  0.2017
 6483SOL    HW131082   2.448   1.644   9.631  1.1105 -1.6956  0.7049
 6483SOL    HW231083   2.542   1.617   9.735  0.5227  0.3868  0.4180
 6484SOL     OW31084   1.022   1.534   2.026  0.0667  0.3732  0.0972
 6484SOL    HW131085   1.054   1.612   2.072  1.6066 -0.7173  0.8177
 6484SOL    HW231086   1.106   1.493   2.009 -0.6265  0.3326 -3.2617
 6485SOL     OW31087   0.448   3.254   9.615 -0.2789  0.1145 -0.0909
 6485SOL    HW131088   0.463   3.244   9.709 -0.6110  0.3773 -0.0095
 6485SOL    HW231089   0.389   3.330   9.619  0.8572  0.9687  0.6632
 6486SOL     OW31090   1.821   2.982   0.421  0.4510  0.2399 -0.2528
 6486SOL    HW131091   1.772   3.058   0.388  0.4588  2.0343  3.7539
 6486SOL    HW231092   1.905   2.976   0.376 -0.1880  0.6451 -1.5015
 6487SOL     OW31093   4.274   4.134   4.174  0.0223  0.5355 -0.0801
 6487SOL    HW131094   4.334   4.068   4.207  0.4964  0.6738 -0.6819
 6487SOL    HW231095   4.335   4.204   4.152  0.8208  0.0443  0.5694
 6488SOL     OW31096   0.085   0.716  14.865  0.3605 -0.1165 -0.2079
 6488SOL    HW131097   0.163   0.665  14.844  0.2764 -0.5779  0.5823
 6488SOL    HW231098   0.020   0.645  14.864 -0.3154  0.5441 -2.3553
 6489SOL     OW31099   1.130   3.523   4.826 -0.5368 -0.3036 -0.4017
 6489SOL    HW131100   1.200   3.564   4.775  0.1785 -1.8544 -0.6491
 6489SOL    HW231101   1.135   3.432   4.799 -3.1420 -1.3601  2.7502
 6490SOL     OW31102   2.913   1.411   3.282  0.2040 -0.9006 -0.0277
 6490SOL    HW131103   2.968   1.425   3.205 -1.6066 -0.5160 -1.2561
 6490SOL    HW231104   2.974   1.373   3.345  0.5313  1.5983  1.1635
 6491SOL     OW31105   3.532   0.942  12.229  0.6084 -0.1229 -0.7688
 6491SOL    HW131106   3.485   0.883  12.287 -0.2180  0.0664 -1.2590
 6491SOL    HW231107   3.536   0.887  12.151  0.9437 -1.7020  0.3657
 6492SOL     OW31108   2.174   4.360   9.291 -0.1060 -0.0315 -0.5060
 6492SOL    HW131109   2.097   4.415   9.301  0.1844  0.2518  0.2206
 6492SOL    HW231110   2.236   4.432   9.286  1.3540 -1.2396 -0.0792
 6493SOL     OW31111   0.197   1.472  11.991  0.5728 -0.1635  0.1272
 6493SOL    HW131112   0.214   1.389  12.036 -0.7212 -0.5080 -0.0116
 6493SOL    HW231113   0.284   1.502  11.965  0.0011  0.4840 -1.0318
 6494SOL     OW31114   4.269   0.990  13.808  0.5027 -0.1415 -0.0839
 6494SOL    HW131115   4.319   1.006  13.728  1.6489 -0.5147  0.5586
 6494SOL    HW231116   4.183   1.013  13.772 -0.3532 -0.9606  1.4504
 6495SOL     OW31117   2.451   1.366   4.991 -0.1207  0.6130 -0.3543
 6495SOL    HW131118   2.376   1.393   5.044  1.5875  3.6613  0.5157
 6495SOL    HW231119   2.437   1.272   4.986  1.3698  0.3849 -0.2650
 6496SOL     OW31120   3.100   1.343   1.395 -0.0977 -0.0636  0.3009
 6496SOL    HW131121   3.038   1.400   1.348  1.1604  2.2163  1.4422
 6496SOL    HW231122   3.046   1.273   1.432 -1.6523  0.9744  0.0133
 6497SOL     OW31123   0.448   2.408  11.485 -0.1959  0.1795 -0.2487
 6497SOL    HW131124   0.486   2.377  11.402  0.7534 -3.6718  1.5978
 6497SOL    HW231125   0.474   2.498  11.505  0.9968 -0.0521 -0.7362
 6498SOL     OW31126   0.123   1.016   4.637 -0.3249  0.2146 -0.7077
 6498SOL    HW131127   0.204   1.049   4.676  1.4130 -2.0834 -2.3756
 6498SOL    HW231128   0.154   0.965   4.562  0.3807  0.0805 -0.3311
 6499SOL     OW31129   0.332   1.368   4.448  0.0397  0.1097 -0.2741
 6499SOL    HW131130   0.349   1.445   4.504  1.5034 -1.4588  1.4176
 6499SOL    HW231131   0.266   1.327   4.504  1.5177 -0.2214  1.2138
 6500SOL     OW31132   0.347   0.339   7.378 -0.2020 -0.0315 -0.4395
 6500SOL    HW131133   0.380   0.263   7.330  0.5453  0.1280 -0.1874
 6500SOL    HW231134   0.253   0.324   7.369 -0.3214  0.7794 -0.5476
 6501SOL     OW31135   3.944   3.349   1.210  0.3771  0.0086 -0.3204
 6501SOL    HW131136   3.918   3.433   1.249 -0.3897 -0.1628 -0.4716
 6501SOL    HW231137   4.004   3.313   1.275  0.4242 -0.6912 -0.7503
 6502SOL     OW31138   4.276   4.584  12.050 -0.0606  0.2085 -0.3499
 6502SOL    HW131139   4.342   4.515  12.042 -0.0655  0.0053  1.3093
 6502SOL    HW231140   4.221   4.546  12.118  0.8707 -1.5402 -0.5612
 6503SOL     OW31141   2.472   4.539  12.724 -0.0869  0.5347 -0.1808
 6503SOL    HW131142   2.506   4.475  12.661 -1.1576  1.7648 -2.0136
 6503SOL    HW231143   2.426   4.600  12.667 -1.0143  1.2509  1.3482
 6504SOL     OW31144   3.441   0.813  10.665 -0.0712 -0.1192  0.2131
 6504SOL    HW131145   3.356   0.774  10.644  0.3436 -0.9126  0.0125
 6504SOL    HW231146   3.425   0.904  10.640  0.5445 -0.0001  0.2580
 6505SOL     OW31147   3.986   1.912  13.115  0.4958 -0.2637 -0.4806
 6505SOL    HW131148   3.976   2.006  13.134  2.8772 -0.2405  0.6618
 6505SOL    HW231149   3.938   1.901  13.033 -1.9710 -0.6061  0.9973
 6506SOL     OW31150   0.206   3.091  12.573 -0.3294 -0.1174 -0.3639
 6506SOL    HW131151   0.301   3.085  12.564 -0.0243  1.8694  1.3548
 6506SOL    HW231152   0.200   3.165  12.634 -1.8296  2.8331 -4.0268
 6507SOL     OW31153   2.823   4.066   2.258  0.1020 -0.4126  0.0344
 6507SOL    HW131154   2.898   4.006   2.250  0.6741  0.3364 -0.1874
 6507SOL    HW231155   2.868   4.145   2.287  0.4131 -1.0817  1.4009
 6508SOL     OW31156   0.652   2.334   6.088 -0.1328 -0.5665 -0.7021
 6508SOL    HW131157   0.708   2.261   6.066  1.9573  0.2730  1.8623
 6508SOL    HW231158   0.715   2.406   6.077 -1.5945  1.3068  2.9665
 6509SOL     OW31159   3.829   3.663  17.288  0.0755  0.1930  0.7380
 6509SOL    HW131160   3.924   3.674  17.285 -0.1780  2.4801  1.3201
 6509SOL    HW231161   3.797   3.701  17.369 -1.5419  0.1577  0.1266
 6510SOL     OW31162   3.544   3.091   3.405 -0.8929  0.0181  0.6732
 6510SOL    HW131163   3.493   3.063   3.329 -0.5234  0.5199  0.2418
 6510SOL    HW231164   3.536   3.016   3.464 -0.8176 -1.8802 -1.6960
 6511SOL     OW31165   4.177   0.324   0.502  0.1257 -0.2216  0.9339
 6511SOL    HW131166   4.256   0.290   0.544  1.9384  0.8265 -1.6331
 6511SOL    HW231167   4.196   0.417   0.499  2.0432 -0.6582 -0.1568
 6512SOL     OW31168   3.258   0.884   2.827  0.0534 -0.1048 -1.0796
 6512SOL    HW131169   3.166   0.899   2.807 -0.3402  0.3536  1.0496
 6512SOL    HW231170   3.273   0.800   2.784 -1.1460 -0.1328 -1.4431
 6513SOL     OW31171   3.985   0.814  11.372  0.4510  0.7952  0.4014
 6513SOL    HW131172   4.068   0.783  11.410  0.9577  0.4887 -0.9518
 6513SOL    HW231173   3.929   0.746  11.410  0.1330 -1.0590 -3.4049
 6514SOL     OW31174   0.404   1.431   2.710  0.4353 -0.4223  0.4526
 6514SOL    HW131175   0.495   1.408   2.730  0.5076 -0.1942  0.3779
 6514SOL    HW231176   0.418   1.525   2.705 -1.1023 -0.2526 -0.6471
 6515SOL     OW31177   1.185   3.712   3.567  0.2341 -0.7238 -1.2053
 6515SOL    HW131178   1.145   3.667   3.641  1.6190 -2.0593 -1.2749
 6515SOL    HW231179   1.205   3.641   3.506 -1.8336 -0.1854 -2.4867
 6516SOL     OW31180   2.646   3.308   2.162 -0.1450  0.4773 -0.4942
 6516SOL    HW131181   2.613   3.218   2.162  0.7197  0.1599  0.0979
 6516SOL    HW231182   2.615   3.339   2.247 -1.6347 -1.5195 -0.3030
 6517SOL     OW31183   0.739   2.853   2.464 -0.4604 -0.2670  0.9473
 6517SOL    HW131184   0.771   2.791   2.529 -3.4503 -5.1688 -2.2691
 6517SOL    HW231185   0.753   2.935   2.512  3.1786 -0.9269  1.0428
 6518SOL     OW31186   2.383   0.235   4.162 -0.0161 -0.2617  0.5901
 6518SOL    HW131187   2.345   0.160   4.116 -1.8550  0.3720  1.0949
 6518SOL    HW231188   2.419   0.200   4.244  1.6609 -0.6975 -0.3307
 6519SOL     OW31189   0.152   4.063   5.712 -0.9529  0.6129  0.4762
 6519SOL    HW131190   0.243   4.082   5.734 -0.6997  0.3443 -0.3106
 6519SOL    HW231191   0.146   4.102   5.625  1.1486  3.0919  1.4640
 6520SOL     OW31192   3.941   1.083  17.203  0.1911 -0.2450  0.1073
 6520SOL    HW131193   3.954   1.159  17.146 -0.1467 -0.8325 -0.7540
 6520SOL    HW231194   4.018   1.032  17.180 -1.0589 -1.5991 -1.1031
 6521SOL     OW31195   4.383   1.527   3.819  0.1221 -0.6205 -0.4383
 6521SOL    HW131196   4.401   1.524   3.725  0.2663  0.0437 -0.4374
 6521SOL    HW231197   4.465   1.575   3.837 -0.3280  0.7256 -1.9324
 6522SOL     OW31198   4.135   1.268   2.362 -0.1070  0.3514  0.1703
 6522SOL    HW131199   4.098   1.352   2.390  1.2264  0.4953  1.5379
 6522SOL    HW231200   4.224   1.290   2.389  0.2340  0.3845 -0.9902
 6523SOL     OW31201   0.524   0.439   7.603 -0.1146 -0.3438 -0.1581
 6523SOL    HW131202   0.436   0.448   7.564 -0.6133 -0.8721  0.8603
 6523SOL    HW231203   0.562   0.370   7.549 -2.8789 -2.9167  1.2203
 6524SOL     OW31204   3.331   3.740   7.758 -0.0106  0.3951 -0.7165
 6524SOL    HW131205   3.243   3.767   7.784  0.5844  1.6954 -0.0296
 6524SOL    HW231206   3.369   3.825   7.735 -0.4832  1.0635  0.9767
 6525SOL     OW31207   0.102   2.192   6.890 -0.9069 -0.7418  0.0257
 6525SOL    HW131208   0.146   2.209   6.973  0.9324 -0.4877 -1.0119
 6525SOL    HW231209   0.039   2.125   6.918 -1.1505  0.0951  1.4370
 6526SOL     OW31210   1.238   3.453   3.471 -0.0527 -0.1715  0.7274
 6526SOL    HW131211   1.290   3.474   3.548  0.8634  2.2714 -0.5381
 6526SOL    HW231212   1.194   3.377   3.509 -0.9760  0.6703  1.3558
 6527SOL     OW31213   4.310   1.239   5.966 -0.1504  0.1197  0.2065
 6527SOL    HW131214   4.257   1.231   6.045  0.9467  0.3931  0.9751
 6527SOL    HW231215   4.368   1.311   5.992  0.6187 -0.9002  1.3162
 6528SOL     OW31216   2.401   1.038   2.188 -0.4859  0.1308 -0.6031
 6528SOL    HW131217   2.364   0.953   2.166 -0.1508 -0.7525  2.3568
 6528SOL    HW231218   2.492   1.040   2.158 -0.3450 -2.0362 -0.2897
 6529SOL     OW31219   1.431   1.850  16.135 -0.0374  0.2592  0.0384
 6529SOL    HW131220   1.425   1.897  16.219 -2.6157 -2.0192  1.1122
 6529SOL    HW231221   1.346   1.873  16.098 -0.1956  0.2155  0.3764
 6530SOL     OW31222   1.461   3.077   4.272  0.5704 -0.4707 -0.2360
 6530SOL    HW131223   1.531   3.041   4.326 -0.7869 -0.1314  1.7322
 6530SOL    HW231224   1.380   3.067   4.322  0.1308  2.3585 -0.3660
 6531SOL     OW31225   3.252   1.450  15.503 -0.3673  0.5416 -0.1022
 6531SOL    HW131226   3.200   1.495  15.569  0.5405  2.6220 -0.7869
 6531SOL    HW231227   3.328   1.505  15.483  1.0586 -0.2990  2.9979
 6532SOL     OW31228   4.682   4.628  15.394 -0.2855  0.1117 -0.5950
 6532SOL    HW131229   4.628   4.707  15.395 -1.2215 -0.5359  0.5113
 6532SOL    HW231230   4.719   4.622  15.306  1.0477 -1.2452  0.0612
 6533SOL     OW31231   2.762   0.988   7.659 -0.2817  0.3311 -0.0213
 6533SOL    HW131232   2.836   0.942   7.620 -1.6256 -1.5031 -0.4063
 6533SOL    HW231233   2.731   0.915   7.713 -0.0090  0.7513  0.7026
 6534SOL     OW31234   2.411   3.470   4.273 -0.2132 -0.7789 -0.4394
 6534SOL    HW131235   2.496   3.499   4.306 -0.5692  0.7751 -0.8914
 6534SOL    HW231236   2.370   3.550   4.240  0.2816  0.3181  1.6253
 6535SOL     OW31237   4.086   3.300   1.444 -0.2449  0.5225  0.9747
 6535SOL    HW131238   4.048   3.273   1.528  0.2621  0.8853  1.3179
 6535SOL    HW231239   4.161   3.351   1.475 -0.1209  2.5691 -2.8122
 6536SOL     OW31240   2.302   0.731   7.018 -0.8398  0.0620 -0.4102
 6536SOL    HW131241   2.277   0.812   6.974  1.3733  1.6041  1.1732
 6536SOL    HW231242   2.397   0.740   7.021 -0.5693 -2.5051 -1.6160
 6537SOL     OW31243   0.487   1.989   9.178 -0.0614 -0.2555 -0.3295
 6537SOL    HW131244   0.534   2.029   9.105  0.2468 -1.1151 -0.6033
 6537SOL    HW231245   0.456   2.068   9.224  0.4185 -1.5285  2.2055
 6538SOL     OW31246   3.762   0.599  12.813 -0.6505 -0.4698  0.4080
 6538SOL    HW131247   3.756   0.685  12.854 -1.0601 -0.1577 -0.2967
 6538SOL    HW231248   3.714   0.543  12.873 -3.7413 -0.1296 -1.7266
 6539SOL     OW31249   1.033   3.355   2.991  0.3111 -0.1032 -0.5801
 6539SOL    HW131250   0.960   3.318   2.942  0.9204  0.4813 -1.9142
 6539SOL    HW231251   1.008   3.337   3.082 -1.0719 -1.3483 -1.2140
 6540SOL     OW31252   0.377   1.653  17.231 -0.4652  0.2237 -0.3020
 6540SOL    HW131253   0.385   1.715  17.304 -0.1339 -1.4421  1.0642
 6540SOL    HW231254   0.301   1.685  17.183 -2.3110 -2.9003  0.5248
 6541SOL     OW31255   0.882   2.049   1.411 -0.6052  0.1064 -0.5208
 6541SOL    HW131256   0.794   2.011   1.403 -0.1470 -0.3724 -3.1692
 6541SOL    HW231257   0.908   2.030   1.321 -0.5265  2.9443 -1.1059
 6542SOL     OW31258   3.006   3.702  12.014  0.5252  0.0669 -0.1857
 6542SOL    HW131259   2.919   3.702  12.054  0.8494 -0.6762  0.4921
 6542SOL    HW231260   3.042   3.626  12.060 -1.1387 -1.1381 -0.8857
 6543SOL     OW31261   4.039   0.717   8.784 -1.0076  0.5588  0.1202
 6543SOL    HW131262   4.046   0.629   8.747 -3.0414  0.7016 -0.6077
 6543SOL    HW231263   4.058   0.699   8.876  0.2929  0.9710 -0.0742
 6544SOL     OW31264   1.062   1.439   7.667  0.2214  0.6172 -0.3225
 6544SOL    HW131265   1.039   1.510   7.726 -1.0458 -2.0665  2.4137
 6544SOL    HW231266   1.156   1.432   7.683  0.1008  0.4968  0.3220
 6545SOL     OW31267   1.761   2.903   7.084 -0.1472  0.2146 -0.7236
 6545SOL    HW131268   1.769   2.828   7.143 -0.8153  0.1482 -0.7173
 6545SOL    HW231269   1.684   2.951   7.113  0.4843  0.3027  0.8192
 6546SOL     OW31270   4.304   3.783  14.055 -0.2469  0.2722  0.4382
 6546SOL    HW131271   4.380   3.730  14.080 -0.0845  0.4276  0.2655
 6546SOL    HW231272   4.297   3.847  14.125  1.3860  1.1832 -0.2231
 6547SOL     OW31273   0.576   3.621  17.135 -0.3482  0.3795  0.3895
 6547SOL    HW131274   0.670   3.628  17.151 -0.4248  0.6410  0.7264
 6547SOL    HW231275   0.573   3.592  17.044  2.6914 -0.6574  0.6056
 6548SOL     OW31276   2.597   0.083   0.152  0.0147 -0.2729 -0.2116
 6548SOL    HW131277   2.682   0.047   0.176  0.1951 -0.1277 -0.6317
 6548SOL    HW231278   2.603   0.168   0.195 -1.2331 -0.7650  0.9288
 6549SOL     OW31279   4.371   0.867   1.413  0.2862  0.3250  0.3032
 6549SOL    HW131280   4.466   0.879   1.425  0.1970  0.8982  0.4607
 6549SOL    HW231281   4.377   0.785   1.364  2.8873  0.0407  1.0685
 6550SOL     OW31282   0.239   0.244   8.999  0.4107 -0.1057 -0.1718
 6550SOL    HW131283   0.155   0.197   9.002 -0.2275  1.0054 -0.4060
 6550SOL    HW231284   0.306   0.179   9.019  1.5692  1.6976  1.8253
 6551SOL     OW31285   4.079   0.369   1.747 -0.0225  0.0648 -0.1319
 6551SOL    HW131286   4.105   0.349   1.657 -0.4550 -1.1428  0.0083
 6551SOL    HW231287   4.084   0.282   1.787  0.9202  0.3555  0.3787
 6552SOL     OW31288   2.280   2.251   4.222  0.0698 -0.0004 -0.1315
 6552SOL    HW131289   2.359   2.216   4.263  0.1252 -0.9954 -1.0864
 6552SOL    HW231290   2.315   2.328   4.178 -1.9292  0.2848 -1.2579
 6553SOL     OW31291   4.061   3.231   7.098  0.3310 -0.4866  0.3024
 6553SOL    HW131292   4.102   3.299   7.044 -1.9975 -0.7465 -1.7949
 6553SOL    HW231293   4.079   3.272   7.182 -1.4481 -2.1462  1.4943
 6554SOL     OW31294   0.796   1.942   7.058  0.3868 -0.4022 -0.4237
 6554SOL    HW131295   0.839   1.857   7.056  0.0249 -0.5727 -0.8919
 6554SOL    HW231296   0.793   1.961   6.965  1.3454  2.6109  0.1423
 6555SOL     OW31297   1.180   1.830   6.231 -0.9507  0.5018 -0.1747
 6555SOL    HW131298   1.097   1.843   6.278 -0.0006  0.5805  1.4789
 6555SOL    HW231299   1.155   1.851   6.141  0.7133  1.0840 -0.4993
 6556SOL     OW31300   1.765   3.568   5.929  0.2926 -0.1626 -0.2733
 6556SOL    HW131301   1.852   3.539   5.901  0.8072  0.8667  0.2530
 6556SOL    HW231302   1.751   3.644   5.872  1.8953  1.2019  1.1675
 6557SOL     OW31303   2.510   4.278   0.977 -0.2036  0.4499  0.2715
 6557SOL    HW131304   2.520   4.360   0.928 -0.5178  1.7063  2.3322
 6557SOL    HW231305   2.428   4.239   0.946  0.3091  0.8775 -1.5993
 6558SOL     OW31306   3.744   1.014   7.184 -0.2537 -0.0098  0.1075
 6558SOL    HW131307   3.769   0.922   7.170 -0.6844 -0.2756  1.1044
 6558SOL    HW231308   3.659   0.992   7.221 -0.1236  0.3683  0.6285
 6559SOL     OW31309   2.295   3.829   9.816 -0.0813 -0.3477  0.2839
 6559SOL    HW131310   2.335   3.916   9.811 -2.9344  1.0809  2.4514
 6559SOL    HW231311   2.318   3.804   9.906  1.6791  2.0129  0.5005
 6560SOL     OW31312   4.127   4.596   2.551 -0.1961  0.2535  0.0315
 6560SOL    HW131313   4.138   4.691   2.550 -0.2098  0.2551  0.0306
 6560SOL    HW231314   4.179   4.562   2.624 -1.2026  2.0340  1.5642
 6561SOL     OW31315   2.889   0.613   2.837  0.7832  0.0954 -0.5651
 6561SOL    HW131316   2.834   0.543   2.873 -0.0820  0.9288 -0.2414
 6561SOL    HW231317   2.974   0.593   2.875 -0.5838 -0.1743  2.3787
 6562SOL     OW31318   2.985   3.735   6.781 -0.7708 -0.1020 -0.0924
 6562SOL    HW131319   3.001   3.829   6.773 -0.1792 -0.2322 -0.4604
 6562SOL    HW231320   3.065   3.712   6.829 -1.4072 -3.2976 -0.6271
 6563SOL     OW31321   0.668   0.054   2.722 -0.4236 -0.0897  0.2588
 6563SOL    HW131322   0.643   4.732   2.652  1.3203  0.4522 -0.8444
 6563SOL    HW231323   0.724   4.737   2.776  0.0332  0.7006  0.5905
 6564SOL     OW31324   4.103   0.290   6.218 -0.7679  0.4163 -0.5202
 6564SOL    HW131325   4.046   0.342   6.162  1.1559  2.6331 -0.4239
 6564SOL    HW231326   4.109   0.346   6.296  1.8301 -0.8622  0.2135
 6565SOL     OW31327   3.424   1.650   4.664 -0.3299  0.2305  0.3384
 6565SOL    HW131328   3.412   1.681   4.754 -0.6084 -0.2354  0.4625
 6565SOL    HW231329   3.503   1.691   4.630 -0.0904 -0.3241  0.2192
 6566SOL     OW31330   3.882   3.810   3.193 -0.3108  0.1981 -0.0774
 6566SOL    HW131331   3.966   3.855   3.184  0.5074 -0.8757  2.0815
 6566SOL    HW231332   3.849   3.776   3.110  0.0510 -1.5918  0.4998
 6567SOL     OW31333   3.260   2.024   5.123  1.2180 -0.0583 -0.0226
 6567SOL    HW131334   3.249   2.060   5.036 -2.1485 -0.3791  0.2670
 6567SOL    HW231335   3.188   1.961   5.129  0.4066  0.6520 -2.3544
 6568SOL     OW31336   3.209   2.202  15.031 -0.2259  0.1696  0.3889
 6568SOL    HW131337   3.172   2.192  14.943  0.7327  1.5472 -0.1810
 6568SOL    HW231338   3.174   2.285  15.064  0.5535  0.1053  1.3781
 6569SOL     OW31339   0.458   3.283  17.663 -0.1534 -0.1726  0.1250
 6569SOL    HW131340   0.407   3.245  17.591 -1.3694  0.9497  0.4061
 6569SOL    HW231341   0.415   3.368  17.668 -2.6474 -1.4828  1.1618
 6570SOL     OW31342   0.762   1.003  15.982  0.3279  0.1523 -0.3320
 6570SOL    HW131343   0.744   0.992  16.075 -0.1297  1.2568 -0.2861
 6570SOL    HW231344   0.821   0.931  15.964  1.5045  1.2890 -1.0411
 6571SOL     OW31345   2.086   4.032   8.478 -0.6228  0.2023  0.1422
 6571SOL    HW131346   2.109   4.052   8.387  1.1691 -0.3417  0.4865
 6571SOL    HW231347   2.067   3.938   8.472  1.8194 -0.2626 -0.2955
 6572SOL     OW31348   1.136   4.698   1.728 -0.1248  0.1362 -0.0273
 6572SOL    HW131349   1.206   0.024   1.718  1.3478 -1.5360 -0.6469
 6572SOL    HW231350   1.166   4.623   1.675 -0.9287  0.0547 -0.3662
 6573SOL     OW31351   1.873   0.218   8.312  0.1452  1.0806 -0.2366
 6573SOL    HW131352   1.868   0.253   8.400 -0.5395 -2.9377  1.3230
 6573SOL    HW231353   1.779   0.207   8.301  0.3162  0.1520 -0.7991
 6574SOL     OW31354   2.612   2.191  11.489  0.0608 -0.1137 -0.5202
 6574SOL    HW131355   2.582   2.210  11.400 -1.8857 -0.3678  0.0795
 6574SOL    HW231356   2.621   2.096  11.494  1.3081 -0.0585 -1.8078
 6575SOL     OW31357   4.280   2.204   9.503  0.1786  0.3686 -0.2959
 6575SOL    HW131358   4.189   2.177   9.516  0.8880 -1.7239  0.2552
 6575SOL    HW231359   4.321   2.146   9.567 -0.9526 -1.0774 -0.8997
 6576SOL     OW31360   2.023   1.949  15.665  0.8169 -0.2777 -0.1870
 6576SOL    HW131361   2.040   1.855  15.667 -2.3146 -0.8177 -0.1524
 6576SOL    HW231362   2.091   1.977  15.603 -0.1687  1.8555 -0.2910
 6577SOL     OW31363   0.321   1.741   9.194 -0.2135  0.4250 -0.2511
 6577SOL    HW131364   0.375   1.820   9.186 -1.0627  0.9046 -1.2504
 6577SOL    HW231365   0.237   1.784   9.209 -0.2698  0.4186 -0.5468
 6578SOL     OW31366   1.496   0.571   7.143  0.5266 -0.0474 -0.3961
 6578SOL    HW131367   1.513   0.660   7.173  3.7810 -0.5318 -0.7312
 6578SOL    HW231368   1.475   0.595   7.053 -1.2356 -2.5353 -0.6570
 6579SOL     OW31369   0.809   4.416   8.710  0.0238  0.2408  0.1428
 6579SOL    HW131370   0.758   4.496   8.710  1.0489  0.8745 -2.0592
 6579SOL    HW231371   0.742   4.349   8.697  0.5923 -0.1668 -0.7006
 6580SOL     OW31372   2.290   1.069   4.374 -0.4738  0.6226  0.3710
 6580SOL    HW131373   2.247   1.122   4.307  0.5764  0.1285 -0.6908
 6580SOL    HW231374   2.378   1.059   4.338 -0.6394 -1.6120  0.5661
 6581SOL     OW31375   0.335   2.188   8.531 -0.2573  0.2774 -0.0211
 6581SOL    HW131376   0.269   2.159   8.593  0.1432  0.7557  0.6317
 6581SOL    HW231377   0.345   2.280   8.554  1.0408  0.3359 -0.8177
 6582SOL     OW31378   4.703   2.749   7.420 -0.2962 -0.4852 -0.2498
 6582SOL    HW131379   0.030   2.724   7.484 -1.8778  1.2664  2.0636
 6582SOL    HW231380   4.724   2.689   7.348  0.5354  0.1390 -0.5193
 6583SOL     OW31381   3.528   4.220   5.217 -0.2779  0.2150  0.6750
 6583SOL    HW131382   3.480   4.228   5.300 -0.7681  0.0210  0.4039
 6583SOL    HW231383   3.573   4.305   5.217  0.9893 -0.4540 -0.2722
 6584SOL     OW31384   2.244   1.270   9.675 -0.5062 -0.2132 -0.0431
 6584SOL    HW131385   2.233   1.181   9.711  2.8619 -1.0522 -1.0834
 6584SOL    HW231386   2.221   1.253   9.584 -0.6067  2.0099 -0.4308
 6585SOL     OW31387   0.008   4.547   5.135  0.3156  0.7412  0.8879
 6585SOL    HW131388   4.721   4.620   5.079  0.2791 -1.3584 -1.8263
 6585SOL    HW231389   0.093   4.581   5.161 -0.9339  2.9633  2.0767
 6586SOL     OW31390   3.776   4.394   4.531 -0.2005  0.5006 -0.0391
 6586SOL    HW131391   3.756   4.419   4.622 -0.2322  0.5596 -0.0624
 6586SOL    HW231392   3.757   4.300   4.537 -0.6998  0.7264  1.9906
 6587SOL     OW31393   1.663   4.572   0.761  0.0406 -0.8300  0.0087
 6587SOL    HW131394   1.607   4.626   0.706 -0.4829  0.0896  1.4242
 6587SOL    HW231395   1.592   4.519   0.797  1.5179 -1.0067  2.7163
 6588SOL     OW31396   0.686   1.394   7.461 -0.2889 -0.6089  0.1059
 6588SOL    HW131397   0.740   1.391   7.541 -0.2152 -1.4568  0.0241
 6588SOL    HW231398   0.755   1.373   7.398  0.0746  2.8070 -0.6354
 6589SOL     OW31399   3.658   1.971   3.348 -0.3959  0.6567 -0.3978
 6589SOL    HW131400   3.599   2.029   3.395 -0.2504 -0.4521  1.1282
 6589SOL    HW231401   3.733   2.031   3.340  0.3714 -0.3718 -0.9751
 6590SOL     OW31402   3.247   1.352   9.772  0.3181 -0.8624 -0.1679
 6590SOL    HW131403   3.322   1.345   9.713  0.5717  0.4036 -0.0000
 6590SOL    HW231404   3.281   1.321   9.856  0.4679  1.5770  0.6838
 6591SOL     OW31405   3.417   0.711   2.992  0.3379  1.0422 -0.1967
 6591SOL    HW131406   3.483   0.647   3.019  0.7995  1.1751 -1.0323
 6591SOL    HW231407   3.387   0.684   2.906 -2.0818 -1.2688  1.3571
 6592SOL     OW31408   1.758   4.370   7.169  0.0916  0.3480  0.1280
 6592SOL    HW131409   1.749   4.450   7.117 -0.7400  0.3811  0.3218
 6592SOL    HW231410   1.737   4.410   7.253 -0.2051 -0.7882  0.5960
 6593SOL     OW31411   1.081   0.276   7.657  0.2705  0.2046  0.3486
 6593SOL    HW131412   1.168   0.246   7.632  0.2754  0.0979  0.4980
 6593SOL    HW231413   1.045   0.204   7.709  0.7455 -0.0855  0.2785
 6594SOL     OW31414   2.695   3.035   3.924  0.6819 -0.0870  0.5757
 6594SOL    HW131415   2.640   3.109   3.896  0.6216 -0.6169 -0.7400
 6594SOL    HW231416   2.640   3.011   3.998 -0.4577  0.7985  0.0166
 6595SOL     OW31417   1.298   2.337   9.601  0.3718  0.5595  0.2044
 6595SOL    HW131418   1.236   2.291   9.656  1.3732 -1.1267 -0.0660
 6595SOL    HW231419   1.251   2.323   9.519  0.6860  2.4840 -0.3170
 6596SOL     OW31420   3.446   4.038  14.735 -0.4506 -0.0547 -0.5118
 6596SOL    HW131421   3.489   3.994  14.808  1.0141  3.2323  0.6180
 6596SOL    HW231422   3.361   4.061  14.774 -0.7723  0.8419 -1.7329
 6597SOL     OW31423   3.125   3.769  15.578  0.1276  0.4886  0.2880
 6597SOL    HW131424   3.149   3.862  15.574  2.2196 -0.0632 -0.0190
 6597SOL    HW231425   3.152   3.745  15.666  0.1497  0.2951  0.2283
 6598SOL     OW31426   1.426   3.500  17.502 -0.0576  0.3813 -1.0080
 6598SOL    HW131427   1.423   3.405  17.505  1.3279  0.4382  1.5789
 6598SOL    HW231428   1.390   3.531  17.585  0.3023 -0.0063 -0.7074
 6599SOL     OW31429   1.574   3.928   8.783 -0.2235  0.6520  0.5442
 6599SOL    HW131430   1.566   3.909   8.689  1.6567  0.9172  0.3372
 6599SOL    HW231431   1.663   3.904   8.809 -0.4517  0.2371  0.9316
 6600SOL     OW31432   2.446   1.988   2.818 -0.0529 -0.0270  0.2907
 6600SOL    HW131433   2.439   2.026   2.906 -0.7071  1.3065 -0.3263
 6600SOL    HW231434   2.473   1.900   2.845  1.9996  0.9248  1.3536
 6601SOL     OW31435   3.421   2.982  10.348  0.3668 -0.1503  0.7421
 6601SOL    HW131436   3.401   2.904  10.296 -2.7675  0.6927  0.6854
 6601SOL    HW231437   3.336   3.025  10.350  0.2406 -0.3914  0.5710
 6602SOL     OW31438   0.223   0.652   8.420 -0.5299  0.4232  0.4996
 6602SOL    HW131439   0.201   0.741   8.393  0.5740  0.5717  0.0561
 6602SOL    HW231440   0.210   0.648   8.515 -0.5399 -0.8361  0.4488
 6603SOL     OW31441   0.126   2.609   6.572 -0.2040 -0.1700 -0.3246
 6603SOL    HW131442   0.164   2.525   6.546  1.3250  0.6944 -0.8938
 6603SOL    HW231443   0.129   2.605   6.667 -0.1202  0.1801 -0.3119
 6604SOL     OW31444   4.159   4.207  14.565  0.6132  0.3971 -0.2367
 6604SOL    HW131445   4.121   4.119  14.563 -0.5964  0.9849 -2.3037
 6604SOL    HW231446   4.241   4.185  14.522 -0.5576 -1.7019 -1.4073
 6605SOL     OW31447   0.843   1.321   8.938 -0.7668 -0.7200 -0.4450
 6605SOL    HW131448   0.886   1.290   9.018 -0.2200  0.1394 -0.4123
 6605SOL    HW231449   0.910   1.321   8.870 -1.9509 -2.9099 -1.6521
 6606SOL     OW31450   2.811   4.553  17.656 -0.4076 -0.1565 -0.2970
 6606SOL    HW131451   2.814   4.458  17.652 -1.5205 -0.1881 -0.2079
 6606SOL    HW231452   2.740   4.569  17.594  0.1087 -0.0927 -0.8751
 6607SOL     OW31453   3.864   0.043   4.981  0.2265  0.1401 -0.4164
 6607SOL    HW131454   3.789   0.101   4.972 -0.8793 -1.7187 -3.1889
 6607SOL    HW231455   3.843   4.734   4.901 -0.3854  0.4228 -0.4270
 6608SOL     OW31456   1.920   2.982  15.574  0.3890 -0.3455  0.4376
 6608SOL    HW131457   1.894   3.050  15.512  1.3188 -0.4552 -0.0743
 6608SOL    HW231458   1.854   2.917  15.554  2.1041 -1.8026 -0.5248
 6609SOL     OW31459   4.708   1.682   2.918  0.0078  0.0195 -0.6651
 6609SOL    HW131460   0.005   1.766   2.948 -1.4442  0.4499 -0.1095
 6609SOL    HW231461   0.044   1.638   2.880 -0.1675 -0.1576 -0.8026
 6610SOL     OW31462   3.702   1.727   8.368  0.5492  0.7273  0.2226
 6610SOL    HW131463   3.783   1.680   8.351 -0.4610 -0.6284 -0.7341
 6610SOL    HW231464   3.714   1.806   8.315  2.2119 -0.9585 -1.8889
 6611SOL     OW31465   2.929   2.051  16.758 -0.8859 -0.0564  0.7367
 6611SOL    HW131466   2.962   2.138  16.780  1.7893 -1.6040  2.8100
 6611SOL    HW231467   3.003   2.001  16.722  0.1934  1.2891  1.0964
 6612SOL     OW31468   0.236   0.755   3.220 -0.3526  0.2902 -0.0257
 6612SOL    HW131469   0.246   0.668   3.182 -1.8127  0.6050 -1.1679
 6612SOL    HW231470   0.177   0.724   3.289 -0.6006 -0.9489 -0.7857
 6613SOL     OW31471   0.763   1.211   5.289  0.1276 -0.4788 -0.0717
 6613SOL    HW131472   0.854   1.186   5.273 -0.0893 -0.1834 -1.7653
 6613SOL    HW231473   0.760   1.204   5.384 -0.9092 -1.0375 -0.1521
 6614SOL     OW31474   0.543   2.785   5.320 -0.4027 -0.7087  0.6131
 6614SOL    HW131475   0.493   2.740   5.389 -0.2982 -1.0509  0.4602
 6614SOL    HW231476   0.631   2.793   5.357  0.4365 -1.0248 -1.3719
 6615SOL     OW31477   0.959   0.183  17.679  0.2766  0.5495  0.0503
 6615SOL    HW131478   0.952   0.116  17.611  1.5756  0.6735 -0.1922
 6615SOL    HW231479   0.870   0.173  17.713  0.2923 -1.4462 -0.4662
 6616SOL     OW31480   0.816   3.556   6.822 -0.3493 -0.5022  0.0467
 6616SOL    HW131481   0.888   3.590   6.875  0.9387 -1.1208 -1.2941
 6616SOL    HW231482   0.791   3.482   6.878  0.5245 -0.0143  1.0889
 6617SOL     OW31483   3.199   4.647   0.853  0.8992  0.0222 -0.3048
 6617SOL    HW131484   3.281   4.600   0.837  0.4422 -1.0132  0.4267
 6617SOL    HW231485   3.229   4.739   0.855 -2.6300  1.1732 -1.5353
 6618SOL     OW31486   1.903   2.145  15.992  0.1228  0.0525  0.2613
 6618SOL    HW131487   1.850   2.179  15.920 -1.2514  0.2112  1.3523
 6618SOL    HW231488   1.853   2.072  16.028 -0.8669  0.7296  0.2816
 6619SOL     OW31489   0.763   3.418   8.501 -0.2509  0.3927 -0.0562
 6619SOL    HW131490   0.731   3.485   8.441  0.3052 -0.2756 -1.1110
 6619SOL    HW231491   0.816   3.369   8.437 -0.3032  1.2652 -0.7638
 6620SOL     OW31492   1.977   0.760  17.355  0.3161 -0.1369  0.3029
 6620SOL    HW131493   1.896   0.793  17.316  0.2854 -0.8271 -0.2110
 6620SOL    HW231494   2.013   0.716  17.278 -1.3691 -1.6668  0.3839
 6621SOL     OW31495   1.784   1.877  15.351 -0.0455 -0.0006  0.4365
 6621SOL    HW131496   1.734   1.799  15.375  0.8152 -1.2547 -1.8142
 6621SOL    HW231497   1.807   1.852  15.261  1.6218  1.4154  0.4926
 6622SOL     OW31498   1.557   1.043   9.078  0.2726  0.4540 -0.2258
 6622SOL    HW131499   1.645   1.009   9.058  1.2601  2.9116 -0.0161
 6622SOL    HW231500   1.521   1.051   8.989 -0.1086 -4.6091 -0.5314
 6623SOL     OW31501   2.147   0.974   6.949  0.1881  0.0112  0.0612
 6623SOL    HW131502   2.172   0.974   6.857 -2.2596  3.1853 -0.6137
 6623SOL    HW231503   2.106   1.061   6.947  2.1186  0.9631  1.3012
 6624SOL     OW31504   3.115   2.520   6.159  0.0424  0.0213 -0.0838
 6624SOL    HW131505   3.173   2.444   6.165 -0.0941 -0.1006 -0.3210
 6624SOL    HW231506   3.156   2.580   6.096  1.5060 -0.8259  0.0461
 6625SOL     OW31507   3.306   3.333   2.594  0.6887  0.4921  0.3480
 6625SOL    HW131508   3.401   3.343   2.602  0.7544  0.7403 -0.8488
 6625SOL    HW231509   3.285   3.427   2.594  0.2781  0.4115  1.7349
 6626SOL     OW31510   0.093   3.422   5.625 -0.2042 -0.0770 -0.0593
 6626SOL    HW131511   0.089   3.346   5.684 -0.4109  0.9111  1.1951
 6626SOL    HW231512   0.111   3.381   5.540  1.3623  1.6300 -0.5445
 6627SOL     OW31513   0.765   2.671   3.929  0.0876  0.4201  0.8398
 6627SOL    HW131514   0.757   2.576   3.936 -1.0292  0.5556  1.4750
 6627SOL    HW231515   0.852   2.677   3.969  1.9524 -0.6979 -3.0863
 6628SOL     OW31516   3.382   2.863   7.032  0.5407 -0.5729 -0.3485
 6628SOL    HW131517   3.455   2.869   6.970  2.8345  2.3794  2.6291
 6628SOL    HW231518   3.356   2.955   7.034  0.1425 -0.7159  1.6168
 6629SOL     OW31519   0.518   0.236   3.563 -0.1195 -0.2280  0.5765
 6629SOL    HW131520   0.489   0.309   3.618  0.0631 -1.3479  2.1618
 6629SOL    HW231521   0.547   0.176   3.631  0.5809 -0.2341  0.2799
 6630SOL     OW31522   1.184   3.500   0.753 -0.0254  0.6511 -0.1085
 6630SOL    HW131523   1.252   3.564   0.769 -1.3804  2.3440 -1.1645
 6630SOL    HW231524   1.130   3.538   0.684 -2.6683 -0.8882  1.0560
 6631SOL     OW31525   4.372   2.797  10.412  0.0297 -0.4934 -0.0717
 6631SOL    HW131526   4.319   2.869  10.378  0.6224 -0.4905 -0.9734
 6631SOL    HW231527   4.390   2.749  10.331  0.3828  1.0784 -0.9143
 6632SOL     OW31528   1.744   4.171  16.048  0.2016  0.5619  0.5107
 6632SOL    HW131529   1.701   4.140  15.968 -0.3091 -1.5521  1.6341
 6632SOL    HW231530   1.718   4.263  16.052 -0.4935  0.5165 -2.7442
 6633SOL     OW31531   1.156   0.684   4.515  0.0611 -0.4946  0.0105
 6633SOL    HW131532   1.184   0.596   4.540  0.7675 -0.0957  0.5908
 6633SOL    HW231533   1.232   0.712   4.465 -0.0880  1.8972  1.1308
 6634SOL     OW31534   3.674   0.994  10.012 -0.3034 -0.0146  0.0385
 6634SOL    HW131535   3.705   1.056   9.946  2.0938 -0.1340  1.0375
 6634SOL    HW231536   3.710   0.910   9.981  0.0038 -0.5826  1.9503
 6635SOL     OW31537   2.008   2.728  17.148 -0.2651 -0.2406 -0.0106
 6635SOL    HW131538   1.976   2.728  17.058  1.6677 -0.0563 -0.6931
 6635SOL    HW231539   2.001   2.635  17.169 -0.3746 -0.0580  0.7606
 6636SOL     OW31540   2.204   3.342   0.180  0.0537 -0.5030  0.0416
 6636SOL    HW131541   2.173   3.374   0.096  0.4011  1.9905  0.8783
 6636SOL    HW231542   2.296   3.328   0.156 -0.7479 -0.8693 -2.8022
 6637SOL     OW31543   2.912   4.457   3.727  0.4115 -0.3012 -0.1560
 6637SOL    HW131544   2.871   4.373   3.746  0.1017 -0.2430 -0.5720
 6637SOL    HW231545   2.979   4.433   3.663  0.6620  0.9368 -0.3690
 6638SOL     OW31546   3.942   3.660  15.093  0.2220  0.1673  0.0663
 6638SOL    HW131547   4.030   3.661  15.129  0.7595  1.2524 -1.2529
 6638SOL    HW231548   3.959   3.685  15.002  1.6750  2.6203  1.0013
 6639SOL     OW31549   1.335   2.052   8.839 -0.3407 -0.1998 -0.2458
 6639SOL    HW131550   1.284   2.000   8.777 -0.8953 -1.3202  1.1492
 6639SOL    HW231551   1.424   2.047   8.804 -0.0027  0.0149  0.5814
 6640SOL     OW31552   3.885   0.600   6.607  0.1563  0.2641  0.3262
 6640SOL    HW131553   3.978   0.616   6.626  0.5631 -1.8161  0.0901
 6640SOL    HW231554   3.873   0.665   6.538  2.6230 -0.5174 -0.8369
 6641SOL     OW31555   0.128   1.809   8.250 -0.1963  0.3522  0.0038
 6641SOL    HW131556   0.068   1.772   8.185 -2.0071  0.7031  1.4807
 6641SOL    HW231557   0.185   1.735   8.271 -1.6808 -0.8519 -0.1953
 6642SOL     OW31558   3.947   4.412   1.387 -0.2313  0.1987  0.3230
 6642SOL    HW131559   3.857   4.441   1.404  0.3870  1.9162  0.6925
 6642SOL    HW231560   3.926   4.321   1.370 -0.7049  0.1264  1.3185
 6643SOL     OW31561   0.585   4.011   1.612 -0.4031  0.3859  0.2839
 6643SOL    HW131562   0.560   3.937   1.667  1.7539  0.1817  0.9874
 6643SOL    HW231563   0.612   4.076   1.677  1.3761 -0.1079  0.0367
 6644SOL     OW31564   2.055   1.015  11.252 -0.4048 -0.3720  0.3255
 6644SOL    HW131565   2.061   1.035  11.346 -1.2522 -0.6180  0.4329
 6644SOL    HW231566   2.105   0.934  11.243  1.0339  0.4982  0.5319
 6645SOL     OW31567   3.753   0.779   3.052 -0.9872 -0.2407  0.1042
 6645SOL    HW131568   3.686   0.781   2.984 -0.0331  0.0119 -0.8345
 6645SOL    HW231569   3.704   0.783   3.134  0.4445 -1.2653  1.0076
 6646SOL     OW31570   4.671   1.836  12.322  0.0098  0.4757  0.4027
 6646SOL    HW131571   4.691   1.924  12.354  2.6815 -0.0575  0.1731
 6646SOL    HW231572   0.013   1.811  12.277 -1.1212 -1.3476 -0.6081
 6647SOL     OW31573   1.568   1.791   3.620  0.2809 -0.0367 -0.0538
 6647SOL    HW131574   1.615   1.786   3.703  1.5573 -1.4445 -0.8659
 6647SOL    HW231575   1.635   1.817   3.557  0.2201 -0.4173 -0.2781
 6648SOL     OW31576   2.642   3.402   5.197  0.4650 -0.5390 -0.2050
 6648SOL    HW131577   2.706   3.472   5.211  1.0078 -1.0220 -0.2857
 6648SOL    HW231578   2.589   3.439   5.127  0.0890  0.1239  0.4246
 6649SOL     OW31579   3.357   0.629   2.736 -0.2481  0.1921 -0.2358
 6649SOL    HW131580   3.437   0.584   2.762 -0.0038  0.5335 -0.3862
 6649SOL    HW231581   3.370   0.630   2.641  2.0415 -1.8786  0.0583
 6650SOL     OW31582   0.451   4.265   5.397 -0.6559 -0.4023 -0.3343
 6650SOL    HW131583   0.470   4.178   5.363 -0.1282 -1.5906  2.9509
 6650SOL    HW231584   0.502   4.272   5.478  0.1146  0.6725 -0.9119
 6651SOL     OW31585   4.117   4.478  12.809 -0.1676  0.0731 -0.2199
 6651SOL    HW131586   4.027   4.469  12.839 -0.5224 -0.7816 -1.5421
 6651SOL    HW231587   4.129   4.570  12.830 -0.0643 -0.4557  2.0693
 6652SOL     OW31588   1.915   4.658  16.229 -0.4921  0.4710 -0.2133
 6652SOL    HW131589   1.820   4.654  16.222 -0.4359  1.2821 -1.5405
 6652SOL    HW231590   1.930   4.683  16.320 -1.5030  0.1608  0.0410
 6653SOL     OW31591   4.231   2.452  14.770  0.1028  0.1169  0.1425
 6653SOL    HW131592   4.243   2.547  14.759 -1.3558  0.2862 -0.0166
 6653SOL    HW231593   4.140   2.449  14.739 -0.2874 -1.6505  1.4789
 6654SOL     OW31594   4.441   0.872   8.838  0.8263 -0.2469  0.3610
 6654SOL    HW131595   4.507   0.843   8.901  1.6933  0.0435 -0.4171
 6654SOL    HW231596   4.503   0.879   8.766  0.5130 -1.5194 -0.0312
 6655SOL     OW31597   3.178   3.914   3.188 -0.2853  0.0842 -0.4329
 6655SOL    HW131598   3.231   3.890   3.112 -0.2253  0.7290 -0.5939
 6655SOL    HW231599   3.222   3.865   3.258 -0.0819  1.7059  0.5745
 6656SOL     OW31600   1.194   3.457   8.596 -0.5725 -0.5342 -0.1925
 6656SOL    HW131601   1.109   3.491   8.570  0.3136 -0.4081 -2.9965
 6656SOL    HW231602   1.171   3.381   8.649 -0.5154 -2.3776 -2.8081
 6657SOL     OW31603   2.058   0.340   2.888  0.0080 -0.2794  0.2270
 6657SOL    HW131604   2.083   0.249   2.906 -1.3724 -0.9458 -1.2631
 6657SOL    HW231605   2.117   0.390   2.944  0.3193  1.1476 -1.3818
 6658SOL     OW31606   1.919   0.974   6.708  0.2526  0.6241 -0.3386
 6658SOL    HW131607   1.887   0.954   6.620  0.0071 -0.1531 -0.0682
 6658SOL    HW231608   1.834   0.967   6.753  0.6063  1.0774  0.3974
 6659SOL     OW31609   0.477   2.465   6.867  0.4683 -0.5440  0.5456
 6659SOL    HW131610   0.533   2.530   6.909 -1.5888  1.7234 -0.2733
 6659SOL    HW231611   0.501   2.386   6.915 -1.9223 -0.7432  1.3823
 6660SOL     OW31612   0.280   3.555   4.086  0.1336  0.2746  0.4271
 6660SOL    HW131613   0.252   3.486   4.147  2.0427  0.8033  1.9223
 6660SOL    HW231614   0.193   3.582   4.056  0.2606 -1.6343 -1.6182
 6661SOL     OW31615   3.993   4.529  11.276  0.7890 -0.3550 -0.7103
 6661SOL    HW131616   3.936   4.502  11.349 -0.6455 -2.1777 -2.4895
 6661SOL    HW231617   4.018   4.443  11.242  1.8570  0.1763 -1.2650
 6662SOL     OW31618   2.518   0.923   8.027 -0.6102 -0.0599 -0.1769
 6662SOL    HW131619   2.471   1.006   8.016  0.1752  0.4268  0.1612
 6662SOL    HW231620   2.600   0.964   8.054  0.7373 -2.0595 -1.2087
 6663SOL     OW31621   1.884   2.681   5.461  0.1944 -0.5142  0.1993
 6663SOL    HW131622   1.796   2.689   5.424 -0.1554 -0.4920  1.0330
 6663SOL    HW231623   1.926   2.758   5.423  0.2666 -1.2892 -1.2946
 6664SOL     OW31624   1.581   2.432  10.516 -0.2157 -0.0187  0.1839
 6664SOL    HW131625   1.605   2.341  10.499  0.2057  0.5310 -2.0862
 6664SOL    HW231626   1.487   2.425  10.532  0.1634 -0.7204  2.1736
 6665SOL     OW31627   1.213   0.803   5.998  0.0369 -0.4713  0.4865
 6665SOL    HW131628   1.186   0.894   5.994 -1.0486 -0.7582  1.3680
 6665SOL    HW231629   1.205   0.775   6.090 -1.3569 -0.2491  0.4264
 6666SOL     OW31630   0.689   0.350   3.001 -0.0627  0.4925  0.2444
 6666SOL    HW131631   0.756   0.416   2.984  1.5371 -1.0281  0.6436
 6666SOL    HW231632   0.672   0.375   3.092 -0.1397  1.2420  0.0178
 6667SOL     OW31633   0.299   2.270   7.131  0.2611 -0.1991 -0.3917
 6667SOL    HW131634   0.232   2.223   7.182  1.0985 -0.3617  0.5540
 6667SOL    HW231635   0.336   2.305   7.212  0.8291 -1.4554 -0.1086
 6668SOL     OW31636   2.519   1.066   3.689  0.0599 -0.7574 -0.1230
 6668SOL    HW131637   2.568   1.144   3.715 -3.5257  1.9631 -1.4904
 6668SOL    HW231638   2.434   1.072   3.733  0.5081 -0.4870  0.7140
 6669SOL     OW31639   3.672   0.590   5.271 -0.1073 -0.3378  0.4196
 6669SOL    HW131640   3.650   0.608   5.362 -1.5307 -0.6833  0.1523
 6669SOL    HW231641   3.748   0.532   5.280 -0.2164 -0.9148 -2.2990
 6670SOL     OW31642   0.974   1.106  10.815  0.0766  0.0474 -0.1361
 6670SOL    HW131643   0.941   1.070  10.733 -0.8594  1.0865 -0.2233
 6670SOL    HW231644   0.999   1.027  10.862  0.0958 -0.0284 -0.2720
 6671SOL     OW31645   2.246   1.193  16.100 -0.4944  0.1463 -0.6501
 6671SOL    HW131646   2.246   1.279  16.059  0.4609 -0.2004 -1.3786
 6671SOL    HW231647   2.324   1.200  16.156  0.3248  0.4637 -1.8336
 6672SOL     OW31648   3.876   0.614   2.828  0.1979  0.0395 -0.2231
 6672SOL    HW131649   3.889   0.627   2.922  0.4626  0.7807 -0.3653
 6672SOL    HW231650   3.928   0.535   2.812 -1.0483 -1.0207  0.9920
 6673SOL     OW31651   0.891   2.479   7.994  0.2434  0.1055 -0.4054
 6673SOL    HW131652   0.946   2.478   7.916  1.5269 -1.0908  0.5170
 6673SOL    HW231653   0.948   2.419   8.043 -0.4807 -0.7896 -0.6616
 6674SOL     OW31654   3.739   3.105   7.280 -0.2561  0.4214  0.3858
 6674SOL    HW131655   3.663   3.120   7.336 -1.0239 -2.3600  0.1054
 6674SOL    HW231656   3.804   3.156   7.327  1.3464  0.8737 -2.3006
 6675SOL     OW31657   4.499   2.533   4.896 -0.2309  0.1047 -0.4267
 6675SOL    HW131658   4.460   2.577   4.820  0.0980  1.6020  0.2853
 6675SOL    HW231659   4.435   2.553   4.964 -0.7046 -0.4585 -0.7003
 6676SOL     OW31660   3.341   0.834   3.402  0.3262  0.0800 -0.3563
 6676SOL    HW131661   3.407   0.856   3.468  0.6715 -2.1108  0.0296
 6676SOL    HW231662   3.341   0.914   3.349  0.1081  0.1607 -0.2349
 6677SOL     OW31663   2.524   3.122  12.410 -0.7234  0.2435 -0.5723
 6677SOL    HW131664   2.538   3.028  12.420  0.1135  0.3922 -0.2920
 6677SOL    HW231665   2.527   3.139  12.316  4.0776 -0.7878 -0.6184
 6678SOL     OW31666   2.507   3.099   2.225  0.1139  0.0852 -0.3285
 6678SOL    HW131667   2.441   3.106   2.294  0.8920  0.5540  0.3747
 6678SOL    HW231668   2.549   3.017   2.249  1.8399  1.7965  2.5802
 6679SOL     OW31669   4.274   2.694   2.696 -0.0816 -0.4394 -0.1862
 6679SOL    HW131670   4.273   2.609   2.653  0.6299 -1.4168  1.7344
 6679SOL    HW231671   4.284   2.750   2.619 -3.2756  0.1226 -0.2053
 6680SOL     OW31672   2.357   4.725   1.921 -0.3806 -0.1553 -0.1434
 6680SOL    HW131673   2.316   0.030   1.846  1.2469 -2.7234 -2.5249
 6680SOL    HW231674   2.391   0.064   1.966  0.1227  0.5217 -1.6894
 6681SOL     OW31675   0.029   4.118  12.096  0.5858  0.0838 -0.5595
 6681SOL    HW131676   0.048   4.107  12.003 -1.9034 -0.9906 -0.9350
 6681SOL    HW231677   0.122   4.126  12.116  0.6856 -2.5727  0.0780
 6682SOL     OW31678   1.731   3.583   6.197  0.1689  0.5008 -0.0705
 6682SOL    HW131679   1.820   3.612   6.218  0.5111  0.2980 -1.2699
 6682SOL    HW231680   1.731   3.586   6.101 -1.6813 -0.8868 -0.0992
 6683SOL     OW31681   0.348   3.015   2.476  0.0005  0.2864 -0.3820
 6683SOL    HW131682   0.261   2.979   2.457 -0.2873 -0.5758  2.5061
 6683SOL    HW231683   0.407   2.946   2.445  0.1970 -0.3527  1.4281
 6684SOL     OW31684   4.514   2.374   2.062 -0.5048  0.4527 -0.7550
 6684SOL    HW131685   4.430   2.330   2.050 -1.2503  1.6745  0.1103
 6684SOL    HW231686   4.574   2.317   2.012  0.7494 -0.4756  1.7936
 6685SOL     OW31687   1.659   0.375   2.676  0.2127  0.0319 -0.1694
 6685SOL    HW131688   1.584   0.395   2.732  1.3764  1.8574  0.7076
 6685SOL    HW231689   1.707   0.318   2.736  0.9903 -1.3974 -2.1207
 6686SOL     OW31690   3.689   3.401   3.011  0.4687 -0.0703  0.0393
 6686SOL    HW131691   3.637   3.330   2.973  0.7897 -0.6945  0.7590
 6686SOL    HW231692   3.754   3.419   2.943  1.4225  1.3927  1.3180
 6687SOL     OW31693   2.495   3.920   2.701 -0.0470  0.2715 -0.0275
 6687SOL    HW131694   2.479   3.978   2.775  1.0317 -0.7840  1.0250
 6687SOL    HW231695   2.517   3.984   2.634 -0.3087 -0.4083 -0.7709
 6688SOL     OW31696   4.471   2.273   6.543  0.4890  0.5751  0.1426
 6688SOL    HW131697   4.471   2.333   6.469  6.6691 -0.4245 -0.6157
 6688SOL    HW231698   4.519   2.198   6.508  1.8581  0.6403  1.9268
 6689SOL     OW31699   3.950   2.485  16.627 -0.3788  0.0424  0.4232
 6689SOL    HW131700   4.031   2.516  16.667  2.1966 -1.8191 -3.2561
 6689SOL    HW231701   3.920   2.414  16.684  1.2558  1.6999  3.3510
 6690SOL     OW31702   2.184   1.185   5.599  0.3424 -0.6052 -0.0760
 6690SOL    HW131703   2.233   1.262   5.568  0.4304 -0.0607  1.3736
 6690SOL    HW231704   2.104   1.227   5.629  1.3458  0.5074  1.0768
 6691SOL     OW31705   0.549   2.816   6.718  0.4518  0.0521 -0.1003
 6691SOL    HW131706   0.624   2.775   6.673  1.5138  0.3271  1.4380
 6691SOL    HW231707   0.499   2.850   6.643  0.5851 -1.5736 -0.9267
 6692SOL     OW31708   1.710   1.318   8.133  0.7005  0.0476  0.7767
 6692SOL    HW131709   1.628   1.343   8.090  0.6304  1.3672  1.6663
 6692SOL    HW231710   1.733   1.403   8.171  2.9314  0.0137 -0.4858
 6693SOL     OW31711   0.472   2.437  15.945  0.0660  0.3861 -0.6253
 6693SOL    HW131712   0.404   2.504  15.942 -1.3184 -0.9673  0.9179
 6693SOL    HW231713   0.414   2.365  15.921  0.1179  0.4894 -1.0613
 6694SOL     OW31714   3.175   2.397   7.141  0.2224 -0.2190 -0.6116
 6694SOL    HW131715   3.104   2.400   7.077  0.1734 -0.7694 -0.5877
 6694SOL    HW231716   3.175   2.478   7.192 -0.4742 -1.1667  0.8914
 6695SOL     OW31717   4.196   2.815   5.192  0.4335 -0.3835 -0.1238
 6695SOL    HW131718   4.106   2.827   5.162 -0.0640 -2.3425  0.6205
 6695SOL    HW231719   4.181   2.790   5.283  0.3231  1.1254  0.2862
 6696SOL     OW31720   0.235   1.237  13.235  0.2105 -0.4193 -0.1818
 6696SOL    HW131721   0.277   1.159  13.199  0.5986  0.4440 -1.5709
 6696SOL    HW231722   0.174   1.251  13.163  1.3722  0.8295 -0.9116
 6697SOL     OW31723   3.127   0.615  12.409  0.9157 -0.2199 -0.2545
 6697SOL    HW131724   3.106   0.538  12.357  1.7368  0.2032 -1.2046
 6697SOL    HW231725   3.150   0.570  12.491  2.8820 -3.2830 -2.5303
 6698SOL     OW31726   2.210   0.501   7.374 -0.0625  0.2213 -0.0461
 6698SOL    HW131727   2.170   0.459   7.450 -1.4405 -1.5482 -1.7711
 6698SOL    HW231728   2.220   0.424   7.318 -2.7868 -1.0280  1.1970
 6699SOL     OW31729   2.843   4.265  17.679 -0.0574 -0.0554  0.6350
 6699SOL    HW131730   2.888   4.186  17.709 -0.2686 -0.7928 -0.9615
 6699SOL    HW231731   2.778   4.262  17.749 -0.6137 -3.3751 -0.0180
 6700SOL     OW31732   2.662   2.149   0.790  0.3445  0.2674 -0.3617
 6700SOL    HW131733   2.640   2.144   0.883  3.7749  1.2074  0.5161
 6700SOL    HW231734   2.676   2.243   0.780 -2.8640  0.8793  1.1364
 6701SOL     OW31735   2.592   2.363   7.589 -0.6815  0.3638 -0.2790
 6701SOL    HW131736   2.533   2.288   7.582 -1.2195  0.7065  0.6312
 6701SOL    HW231737   2.530   2.427   7.623  0.6352  1.9319 -0.8278
 6702SOL     OW31738   1.674   2.000   2.949 -0.0761  0.1481 -0.1157
 6702SOL    HW131739   1.686   1.993   2.854 -0.3490  0.0441 -0.1423
 6702SOL    HW231740   1.597   1.946   2.965 -1.2110  1.0365 -2.5488
 6703SOL     OW31741   1.487   0.622  10.873  0.0057  0.2890 -0.2739
 6703SOL    HW131742   1.400   0.592  10.897 -1.7701  2.2973 -4.2014
 6703SOL    HW231743   1.537   0.593  10.949 -0.4587  0.7498  0.2078
 6704SOL     OW31744   4.262   2.431   2.659  0.1019 -0.2502 -0.0998
 6704SOL    HW131745   4.224   2.377   2.727  1.6343 -2.8567 -1.3073
 6704SOL    HW231746   4.330   2.369   2.631  0.6222 -0.2457  1.1796
 6705SOL     OW31747   1.380   1.223   6.996 -0.0681 -0.1255  0.0268
 6705SOL    HW131748   1.372   1.217   7.091 -1.4582  2.0233  0.0512
 6705SOL    HW231749   1.447   1.292   6.991  0.0666 -0.3979 -2.0084
 6706SOL     OW31750   1.548   1.518   1.864 -0.0367  0.0262 -0.3733
 6706SOL    HW131751   1.453   1.529   1.871  0.2641  1.6575  1.1508
 6706SOL    HW231752   1.591   1.602   1.877  2.0192 -0.2646 -5.0600
 6707SOL     OW31753   1.192   1.796   7.665  0.5224 -0.6762  0.1251
 6707SOL    HW131754   1.136   1.864   7.704 -1.2101 -3.0781  1.8128
 6707SOL    HW231755   1.257   1.780   7.734 -0.6559 -0.0567  1.3869
 6708SOL     OW31756   1.902   2.827  17.363 -0.0335  0.1247  0.0272
 6708SOL    HW131757   1.933   2.795  17.278 -1.1207 -1.4823  0.2277
 6708SOL    HW231758   1.986   2.850  17.403  0.8123  1.7439 -2.6988
 6709SOL     OW31759   2.955   1.317   9.341  0.3960  0.1926 -0.2876
 6709SOL    HW131760   2.969   1.324   9.247 -1.1014  3.3788 -0.2726
 6709SOL    HW231761   2.993   1.400   9.371 -1.1594  1.0551 -0.7134
 6710SOL     OW31762   1.669   2.286   8.320  0.2123  0.6040 -0.0755
 6710SOL    HW131763   1.630   2.340   8.390  2.4576 -0.5304  2.0201
 6710SOL    HW231764   1.671   2.351   8.250 -1.8049  0.2019 -0.5198
 6711SOL     OW31765   0.218   1.144   8.704  0.2712  0.0295  0.0557
 6711SOL    HW131766   0.252   1.189   8.782 -0.1502  1.5655 -0.6399
 6711SOL    HW231767   0.300   1.103   8.677  0.2782  1.3974 -2.0311
 6712SOL     OW31768   1.619   2.833   0.589  0.1435  0.3210  0.1075
 6712SOL    HW131769   1.704   2.864   0.559 -0.3571 -0.0229 -1.6590
 6712SOL    HW231770   1.579   2.809   0.506  1.4242 -1.8921  0.1273
 6713SOL     OW31771   0.806   2.535   4.882  0.0791 -0.3795  0.5585
 6713SOL    HW131772   0.733   2.487   4.922 -0.6917  0.0552 -0.3192
 6713SOL    HW231773   0.883   2.498   4.925  1.2266  0.6267 -0.6116
 6714SOL     OW31774   4.032   2.490   5.555  0.4951 -0.3765 -0.5843
 6714SOL    HW131775   4.050   2.522   5.467  3.4070 -0.4377 -0.0128
 6714SOL    HW231776   4.117   2.508   5.596 -0.9260  2.9856  0.9134
 6715SOL     OW31777   1.975   3.643  12.551 -0.2695  0.2170 -0.2415
 6715SOL    HW131778   1.995   3.684  12.467  0.4996 -1.7289 -1.0045
 6715SOL    HW231779   2.052   3.596  12.584 -0.7985 -0.1816  0.4309
 6716SOL     OW31780   1.305   1.587   1.940 -0.5303  0.2135 -0.2270
 6716SOL    HW131781   1.328   1.663   1.994  0.1370  1.0531 -1.6877
 6716SOL    HW231782   1.296   1.528   2.014 -0.4637  1.3038  0.6618
 6717SOL     OW31783   1.238   0.465   2.712  1.1168  0.8157  0.2599
 6717SOL    HW131784   1.153   0.420   2.703  1.0745  1.1088 -0.7394
 6717SOL    HW231785   1.289   0.401   2.762  0.7354  0.5413  0.3013
 6718SOL     OW31786   2.959   2.411   5.086  0.1947  0.0910  0.6673
 6718SOL    HW131787   2.945   2.491   5.036  0.7050  0.5024  1.1794
 6718SOL    HW231788   2.996   2.434   5.171  1.0338  0.1565  0.2786
 6719SOL     OW31789   3.516   3.401   0.225  0.8581 -0.5340  0.1406
 6719SOL    HW131790   3.533   3.459   0.151 -0.5129 -1.7511 -1.1399
 6719SOL    HW231791   3.492   3.460   0.296 -0.3277  0.9649 -1.4992
 6720SOL     OW31792   4.136   0.562   2.462 -0.1102  0.1612  0.3174
 6720SOL    HW131793   4.112   0.566   2.369  1.5841 -2.1825 -0.1930
 6720SOL    HW231794   4.189   0.483   2.468  0.9716  0.7819 -0.8443
 6721SOL     OW31795   4.570   3.947   6.549 -0.3747 -0.4281 -0.2171
 6721SOL    HW131796   4.493   3.891   6.542 -1.4598  0.8697  1.5298
 6721SOL    HW231797   4.534   4.036   6.546 -1.2864 -0.7595  0.9764
 6722SOL     OW31798   4.296   0.840  16.981 -0.6739 -0.6270  0.0422
 6722SOL    HW131799   4.300   0.745  16.984 -0.0189 -0.6316 -0.9019
 6722SOL    HW231800   4.248   0.852  16.899  0.2495 -0.8702 -0.5361
 6723SOL     OW31801   1.204   3.383   9.875  0.8291  0.6504 -0.0282
 6723SOL    HW131802   1.265   3.373   9.948 -2.2021 -1.1898  2.2281
 6723SOL    HW231803   1.121   3.354   9.912  0.0137  1.9514 -0.8059
 6724SOL     OW31804   3.796   4.350   1.710 -0.6287  0.3105  0.1920
 6724SOL    HW131805   3.796   4.260   1.742  0.5420  0.1463 -0.2516
 6724SOL    HW231806   3.736   4.338   1.637 -2.0996  0.1792  1.4306
 6725SOL     OW31807   0.740   1.804  16.436  0.2949  0.3765 -0.0864
 6725SOL    HW131808   0.802   1.784  16.506 -0.0277  2.0747  0.6982
 6725SOL    HW231809   0.703   1.717  16.422  1.3309  0.1011 -1.1557
 6726SOL     OW31810   4.355   0.841   6.025 -0.5620  0.2122 -0.1405
 6726SOL    HW131811   4.367   0.905   6.095  0.7969  0.0571 -0.2287
 6726SOL    HW231812   4.318   0.905   5.964 -0.1884 -1.1044 -1.7680
 6727SOL     OW31813   3.667   2.071  14.048 -0.1684 -0.1611 -0.0938
 6727SOL    HW131814   3.578   2.036  14.060 -0.2597  0.1065  0.0043
 6727SOL    HW231815   3.718   1.991  14.057  0.0618  0.1137  1.0930
 6728SOL     OW31816   3.635   0.105   6.494 -0.6715 -0.2526 -0.8225
 6728SOL    HW131817   3.659   0.063   6.412 -2.6769  2.1700 -2.6786
 6728SOL    HW231818   3.665   0.192   6.468 -0.6494  0.4639  1.6098
 6729SOL     OW31819   0.714   2.143   0.053  0.6828  0.5371 -0.0452
 6729SOL    HW131820   0.684   2.231   0.031 -0.6869  0.1752  0.3563
 6729SOL    HW231821   0.782   2.125  17.741 -1.4647  0.0962 -2.1463
 6730SOL     OW31822   2.096   2.677   3.874 -0.2924  0.4923 -0.6292
 6730SOL    HW131823   2.126   2.601   3.924  1.8459  1.2221 -0.7965
 6730SOL    HW231824   2.171   2.709   3.824  1.4077 -1.4786  0.6923
 6731SOL     OW31825   4.045   3.358  17.256 -0.2117  0.2268  0.5217
 6731SOL    HW131826   4.071   3.287  17.198  1.0709  2.0800 -1.1612
 6731SOL    HW231827   3.957   3.379  17.223  0.9557  0.1710 -2.5990
 6732SOL     OW31828   4.405   1.170   4.532 -0.4899  0.1685  0.1241
 6732SOL    HW131829   4.415   1.265   4.538 -0.3633  0.2276 -1.1251
 6732SOL    HW231830   4.482   1.141   4.483 -1.3956 -1.5250 -0.3020
 6733SOL     OW31831   2.094   2.703   6.212 -0.5063 -0.2100 -0.6193
 6733SOL    HW131832   2.173   2.660   6.245 -0.8777 -1.1365 -0.9410
 6733SOL    HW231833   2.038   2.629   6.189 -0.4966 -0.0200 -1.2418
 6734SOL     OW31834   2.215   0.767   7.617  0.3650 -0.0066 -0.2582
 6734SOL    HW131835   2.282   0.708   7.583  1.3593  2.6868 -2.9662
 6734SOL    HW231836   2.225   0.845   7.562  2.0052 -0.3326 -0.4199
 6735SOL     OW31837   2.496   2.850  17.400  0.3654  0.6547  0.4552
 6735SOL    HW131838   2.535   2.793  17.466 -1.4888  0.4555  1.3719
 6735SOL    HW231839   2.449   2.786  17.346 -3.9400  1.8193  2.8093
 6736SOL     OW31840   0.033   2.571   8.351  0.1331  0.0603 -0.2860
 6736SOL    HW131841   4.730   2.524   8.279  0.3807  0.0737 -0.4387
 6736SOL    HW231842   0.046   2.503   8.417  2.5273  1.4169  0.6433
 6737SOL     OW31843   0.257   4.228   4.222  0.4861  0.6251 -0.6453
 6737SOL    HW131844   0.269   4.313   4.264 -0.6254  0.8303 -0.7397
 6737SOL    HW231845   0.266   4.256   4.131 -1.3410 -2.0959 -1.6671
 6738SOL     OW31846   2.923   0.130   9.862 -0.0524  0.1927  0.0312
 6738SOL    HW131847   2.844   0.150   9.812 -0.0438 -0.0714 -0.0857
 6738SOL    HW231848   2.958   0.060   9.808  1.6425  0.7192  0.4489
 6739SOL     OW31849   0.878   1.678   5.291 -0.5764 -0.0720  0.0867
 6739SOL    HW131850   0.838   1.619   5.227  0.2739  0.8865 -1.3357
 6739SOL    HW231851   0.911   1.619   5.359  1.9325  0.0227 -1.0421
 6740SOL     OW31852   0.344   4.078  14.425 -0.1780 -0.3596 -0.6720
 6740SOL    HW131853   0.330   4.172  14.438  2.8772 -0.1978  1.4822
 6740SOL    HW231854   0.439   4.085  14.424 -0.2610  0.8783 -0.3495
 6741SOL     OW31855   1.696   4.197   5.473 -0.3765  0.1605  0.4437
 6741SOL    HW131856   1.632   4.183   5.403  0.2946 -0.3741 -0.0626
 6741SOL    HW231857   1.652   4.171   5.554 -0.9721  3.7547  1.2698
 6742SOL     OW31858   2.144   3.049   2.786 -0.3753 -0.0093  0.4742
 6742SOL    HW131859   2.158   3.130   2.738 -1.4716  0.3955  0.8363
 6742SOL    HW231860   2.231   3.010   2.786  1.3766  3.8575  0.9489
 6743SOL     OW31861   2.279   1.006  14.524  0.0407  0.2437  0.1008
 6743SOL    HW131862   2.345   0.943  14.553  2.0807  2.5444  0.4653
 6743SOL    HW231863   2.251   0.973  14.438  1.2011  2.1875 -1.0308
 6744SOL     OW31864   2.470   3.428   1.995 -0.4265 -0.1148  0.2614
 6744SOL    HW131865   2.552   3.401   2.035  0.1439  1.4749  0.1935
 6744SOL    HW231866   2.502   3.440   1.905  2.7929  0.9033  1.5343
 6745SOL     OW31867   2.992   1.065   3.192 -0.0619 -0.1094  0.1091
 6745SOL    HW131868   3.058   1.120   3.234 -1.2739  0.3818  1.3382
 6745SOL    HW231869   3.057   1.004   3.156  0.4120  0.7646 -0.5177
 6746SOL     OW31870   3.410   2.557  11.109  0.0883 -0.1919  0.5473
 6746SOL    HW131871   3.395   2.479  11.162  1.7304  0.6845  2.3259
 6746SOL    HW231872   3.373   2.535  11.023  0.3121  0.4639  0.2752
 6747SOL     OW31873   1.945   0.091  16.443  0.2331 -0.0772 -0.8058
 6747SOL    HW131874   2.015   0.144  16.404  2.9797  0.0693  4.2511
 6747SOL    HW231875   1.926   0.147  16.519 -1.6781  0.5185 -1.7351
 6748SOL     OW31876   2.165   4.072   2.456 -0.1662 -0.0528 -0.2360
 6748SOL    HW131877   2.152   4.165   2.474 -0.2142  0.4352 -2.7529
 6748SOL    HW231878   2.217   4.068   2.375  1.2036  2.0150  0.5503
 6749SOL     OW31879   0.959   2.340  16.731 -0.2989 -0.3259  0.4299
 6749SOL    HW131880   0.913   2.331  16.815  0.9558  0.8922  1.2466
 6749SOL    HW231881   1.044   2.368  16.766 -0.2470 -1.6049  1.3618
 6750SOL     OW31882   3.988   0.692  10.897 -0.2174  0.0170 -0.0775
 6750SOL    HW131883   3.955   0.774  10.934  2.0515  0.9323 -0.0432
 6750SOL    HW231884   4.002   0.725  10.808  0.6625 -2.3521 -0.8227
 6751SOL     OW31885   3.813   0.589  15.179  0.1624  0.2990  0.4977
 6751SOL    HW131886   3.886   0.638  15.141 -0.1745 -0.9290 -1.6995
 6751SOL    HW231887   3.843   0.499  15.172 -2.5324 -0.5807  0.1560
 6752SOL     OW31888   1.559   3.392   6.612 -0.0583  0.5718 -0.5689
 6752SOL    HW131889   1.595   3.358   6.530 -2.3816 -2.9228 -0.1610
 6752SOL    HW231890   1.631   3.372   6.671 -0.5723  1.4135  0.3383
 6753SOL     OW31891   3.270   0.352   5.623  0.2189 -0.3352  0.0191
 6753SOL    HW131892   3.318   0.327   5.544 -1.5773 -0.2811 -1.0835
 6753SOL    HW231893   3.284   0.446   5.624  1.3133 -0.4912  0.1340
 6754SOL     OW31894   4.535   2.317   5.109  0.1035  0.1232  0.1809
 6754SOL    HW131895   4.545   2.384   5.041  2.5482 -0.4572 -0.0506
 6754SOL    HW231896   4.495   2.242   5.065 -0.7184 -0.3517  1.7748
 6755SOL     OW31897   1.731   3.824   2.358  0.3798 -0.3038 -0.3990
 6755SOL    HW131898   1.787   3.891   2.397 -0.0530  0.6158 -1.3311
 6755SOL    HW231899   1.770   3.744   2.391  1.0284  0.1273 -0.1111
 6756SOL     OW31900   0.045   2.699  14.029  0.3837  0.2410  0.3280
 6756SOL    HW131901   4.709   2.645  14.052  0.7260 -0.8134 -1.0340
 6756SOL    HW231902   0.090   2.654  13.957  2.2101 -0.5003  1.9129
 6757SOL     OW31903   0.478   2.319  10.964  0.3765  0.0847 -0.0829
 6757SOL    HW131904   0.513   2.241  10.921  1.8924  0.8549 -0.2392
 6757SOL    HW231905   0.454   2.365  10.883  1.2704 -1.2011 -1.0868
 6758SOL     OW31906   4.287   3.720   7.098 -0.1378  0.1006  0.2278
 6758SOL    HW131907   4.241   3.694   7.018 -0.7589  1.3471  0.1633
 6758SOL    HW231908   4.212   3.751   7.149 -0.0288 -1.6069  1.3902
 6759SOL     OW31909   0.703   2.041  16.252  0.5203  0.6670  0.1047
 6759SOL    HW131910   0.700   1.977  16.323  0.7065  0.1645 -0.3486
 6759SOL    HW231911   0.611   2.066  16.255 -0.4696 -2.7205 -3.2535
 6760SOL     OW31912   3.953   0.961   0.416 -0.4098  0.5269  0.9908
 6760SOL    HW131913   3.982   0.888   0.470 -1.2632 -0.8013 -0.3658
 6760SOL    HW231914   3.876   0.985   0.467  0.3117  0.6037  2.0354
 6761SOL     OW31915   1.108   0.976  11.236  0.5029  0.2753 -0.0334
 6761SOL    HW131916   1.032   0.930  11.271  0.4908 -0.3640 -0.8908
 6761SOL    HW231917   1.132   1.044  11.298  0.6401 -0.1143  0.3386
 6762SOL     OW31918   2.297   1.791   2.426  0.3430  0.2203 -0.4341
 6762SOL    HW131919   2.233   1.753   2.366 -0.3762 -1.4187  1.3816
 6762SOL    HW231920   2.322   1.711   2.472 -0.7791 -0.4352 -0.9787
 6763SOL     OW31921   4.182   3.852   9.268 -0.2054 -0.3718 -0.1410
 6763SOL    HW131922   4.188   3.906   9.189  1.1961  0.1908  0.3530
 6763SOL    HW231923   4.180   3.919   9.337  0.1530  0.1926 -0.6852
 6764SOL     OW31924   0.494   1.874   4.817  0.2085 -0.5844  0.9350
 6764SOL    HW131925   0.525   1.891   4.906 -0.2747 -1.1942  1.2185
 6764SOL    HW231926   0.566   1.834   4.770 -0.3027 -2.1129  1.4618
 6765SOL     OW31927   1.735   1.686  16.481 -0.3997 -0.3150 -0.0568
 6765SOL    HW131928   1.760   1.643  16.399  0.3188 -0.2788  0.1430
 6765SOL    HW231929   1.819   1.705  16.524 -1.8549  2.0237  1.7919
 6766SOL     OW31930   3.069   3.388   9.158  0.0230  0.2439  0.3020
 6766SOL    HW131931   3.043   3.479   9.174 -0.1227  0.3856 -0.7629
 6766SOL    HW231932   3.005   3.335   9.207 -1.2207  2.2039  0.8118
 6767SOL     OW31933   4.044   3.245   6.186 -0.4541  0.3981 -0.5003
 6767SOL    HW131934   3.987   3.220   6.259  0.3424 -0.1482 -0.0528
 6767SOL    HW231935   4.044   3.163   6.137  0.3634 -0.1491  0.4085
 6768SOL     OW31936   0.242   3.940  12.406  0.0328 -0.2580  0.6135
 6768SOL    HW131937   0.169   3.952  12.346  1.3579 -0.0577 -0.9652
 6768SOL    HW231938   0.309   3.916  12.341 -0.3815 -1.9362  0.7857
 6769SOL     OW31939   1.869   2.303  16.385 -0.2894 -0.4706 -0.2138
 6769SOL    HW131940   1.918   2.226  16.415  2.2528  1.6317  0.9816
 6769SOL    HW231941   1.789   2.260  16.355  0.1252 -1.7239  0.4663
 6770SOL     OW31942   2.847   1.319   2.873  0.5741 -0.6020 -0.4900
 6770SOL    HW131943   2.781   1.387   2.888  1.6450  0.1111  0.9474
 6770SOL    HW231944   2.808   1.247   2.923  0.8467  1.1063  2.2142
 6771SOL     OW31945   3.171   2.635   9.636 -0.7278  0.5140  0.0277
 6771SOL    HW131946   3.263   2.636   9.662 -0.5449 -1.2382 -0.5764
 6771SOL    HW231947   3.163   2.720   9.592 -1.9351 -0.6410 -1.9854
 6772SOL     OW31948   1.345   2.304   3.518 -0.1516 -0.4285 -0.0276
 6772SOL    HW131949   1.332   2.369   3.448 -1.8029 -0.7561 -0.0183
 6772SOL    HW231950   1.433   2.325   3.550  1.1540 -2.1641 -2.4298
 6773SOL     OW31951   3.182   4.412  11.568  0.2624 -0.2432  0.0144
 6773SOL    HW131952   3.102   4.438  11.613  0.5519  0.6383  0.0276
 6773SOL    HW231953   3.164   4.332  11.519  0.6142  0.3923 -1.1576
 6774SOL     OW31954   1.431   3.978   4.739  0.4917  0.0428 -0.2438
 6774SOL    HW131955   1.480   3.919   4.797  3.5885  2.2013 -0.6434
 6774SOL    HW231956   1.353   3.991   4.793  1.5390  2.0906  0.7847
 6775SOL     OW31957   4.391   1.276   6.542 -0.3231 -0.6487  0.1919
 6775SOL    HW131958   4.319   1.314   6.592 -0.9711 -1.3246 -0.2219
 6775SOL    HW231959   4.456   1.346   6.536 -2.2328  1.3033  2.4556
 6776SOL     OW31960   1.907   3.560   8.210 -0.1656 -0.4861  0.4328
 6776SOL    HW131961   1.813   3.564   8.225 -0.2581 -0.7259 -0.0893
 6776SOL    HW231962   1.938   3.614   8.283  1.2266  0.5104 -0.8886
 6777SOL     OW31963   2.963   2.631   8.410  0.5670 -0.1722 -0.0392
 6777SOL    HW131964   2.998   2.685   8.338 -1.1125 -0.0059 -0.7168
 6777SOL    HW231965   2.888   2.678   8.447  1.6249  0.2578  1.5689
 6778SOL     OW31966   4.249   4.086   9.949 -0.1595  0.0281 -0.1191
 6778SOL    HW131967   4.242   3.998   9.913  0.8518 -0.1131  0.0351
 6778SOL    HW231968   4.235   4.078  10.043 -0.9196 -1.8096 -0.3784
 6779SOL     OW31969   1.731   1.167  11.611  0.0501  0.4053  0.4106
 6779SOL    HW131970   1.758   1.216  11.533  1.5562 -0.4666  0.3917
 6779SOL    HW231971   1.703   1.240  11.667 -0.4996 -0.3942  1.1615
 6780SOL     OW31972   0.979   2.577   3.577  0.4917  0.8548 -0.2321
 6780SOL    HW131973   0.937   2.657   3.609 -0.6440  0.3318 -0.4232
 6780SOL    HW231974   0.942   2.571   3.489  1.1095  2.3296 -0.5904
 6781SOL     OW31975   2.093   0.335  12.978 -0.5406  0.2209  0.8582
 6781SOL    HW131976   2.100   0.274  13.051  1.7549 -0.6608 -0.1022
 6781SOL    HW231977   2.057   0.271  12.916  0.9032 -0.5532  0.8174
 6782SOL     OW31978   3.194   1.190   3.367  0.0107  0.0016  0.8244
 6782SOL    HW131979   3.179   1.284   3.354  0.1266 -0.4742 -2.8325
 6782SOL    HW231980   3.289   1.179   3.372  0.0938 -0.6427 -2.4301
 6783SOL     OW31981   2.025   3.506  14.673 -0.0645 -0.3140  0.0306
 6783SOL    HW131982   1.936   3.471  14.675  0.1524 -0.7743  1.7966
 6783SOL    HW231983   2.078   3.435  14.636  0.7491  1.8191 -2.9180
 6784SOL     OW31984   1.916   0.739   1.720 -0.2233 -0.3011 -0.5069
 6784SOL    HW131985   1.975   0.812   1.741  0.6495 -1.5180  1.2898
 6784SOL    HW231986   1.988   0.693   1.677  1.2202  1.7408 -0.3158
 6785SOL     OW31987   4.064   3.707   7.592 -0.4144  0.0984  0.5654
 6785SOL    HW131988   4.044   3.797   7.616  1.5944  0.7109 -0.0756
 6785SOL    HW231989   4.137   3.686   7.650 -0.6579 -0.5807  0.6291
 6786SOL     OW31990   3.172   1.026   7.933  0.6141 -0.1533  0.4148
 6786SOL    HW131991   3.105   0.962   7.958  0.6040  0.3060  1.5630
 6786SOL    HW231992   3.117   1.094   7.894  0.2023 -0.7002  0.0433
 6787SOL     OW31993   2.837   4.149   9.667 -0.1198 -0.3123  0.0157
 6787SOL    HW131994   2.887   4.131   9.747  1.0567  0.2379 -0.5999
 6787SOL    HW231995   2.798   4.233   9.692  0.6409  0.3234 -0.9171
 6788SOL     OW31996   0.455   0.987  13.255  0.0147  0.5885 -0.1168
 6788SOL    HW131997   0.366   0.955  13.240  0.0769 -0.6508  2.0715
 6788SOL    HW231998   0.480   1.004  13.165  1.4017  0.4003  0.2206
 6789SOL     OW31999   2.479   1.945  16.732  0.0631 -0.0376 -0.0054
 6789SOL    HW132000   2.440   1.900  16.807  0.1332 -0.6597 -0.3419
 6789SOL    HW232001   2.478   1.876  16.666 -0.1123  0.0258 -0.0694
 6790SOL     OW32002   0.937   3.211   6.440  0.1321  0.4014 -0.1398
 6790SOL    HW132003   0.854   3.233   6.484 -0.5084  0.0362 -1.1659
 6790SOL    HW232004   0.933   3.117   6.426 -2.2199  0.3531  0.7558
 6791SOL     OW32005   2.500   4.117   2.920  0.1925  0.3356  0.4871
 6791SOL    HW132006   2.437   4.188   2.928 -0.6451 -0.1492 -1.7239
 6791SOL    HW232007   2.483   4.065   2.998 -0.0764  0.2759  0.3901
 6792SOL     OW32008   2.332   2.251   5.432  0.1165 -0.3500 -0.6112
 6792SOL    HW132009   2.363   2.301   5.356  0.9306  0.5257  0.2958
 6792SOL    HW232010   2.382   2.286   5.506 -1.2159 -0.4997  0.3614
 6793SOL     OW32011   0.939   1.672  15.842 -0.0790  0.6358  0.0280
 6793SOL    HW132012   0.975   1.722  15.769  1.6728 -3.9558 -2.3148
 6793SOL    HW232013   0.866   1.634  15.792  1.9050 -0.1290 -2.3349
 6794SOL     OW32014   0.126   0.542  12.381 -0.3095 -0.1422 -0.3879
 6794SOL    HW132015   0.214   0.578  12.375 -1.0486  1.5190 -1.3735
 6794SOL    HW232016   0.107   0.527  12.473  0.5311  2.0337  0.1469
 6795SOL     OW32017   4.587   4.647   9.573 -0.6709 -0.3874  0.2823
 6795SOL    HW132018   4.567   4.679   9.661  0.7067 -1.0909  0.8525
 6795SOL    HW232019   4.503   4.658   9.528  0.5328  1.0041 -1.6061
 6796SOL     OW32020   2.005   2.758  10.643  0.1623  0.8334  0.1235
 6796SOL    HW132021   1.985   2.722  10.729  1.2528  0.4839  0.2292
 6796SOL    HW232022   2.096   2.778  10.665 -0.0676  0.6003  1.2827
 6797SOL     OW32023   1.529   1.448   7.041  0.1343  0.2557 -0.0717
 6797SOL    HW132024   1.480   1.481   7.116  1.5199  1.7205  0.1890
 6797SOL    HW232025   1.616   1.440   7.081  0.5422 -0.1437 -1.0450
 6798SOL     OW32026   3.953   0.892   6.209 -0.3475  0.1719  0.5821
 6798SOL    HW132027   3.974   0.870   6.300  1.1002  2.5462  0.8321
 6798SOL    HW232028   3.857   0.895   6.203 -0.4723  1.4543  3.1671
 6799SOL     OW32029   3.652   3.955   6.170  0.3881 -0.8108  0.1688
 6799SOL    HW132030   3.596   3.879   6.185 -0.4270 -0.3939 -0.7800
 6799SOL    HW232031   3.640   3.999   6.254  0.2359  0.2824 -0.4265
 6800SOL     OW32032   0.629   3.901  11.501 -0.0789  0.0165 -0.2920
 6800SOL    HW132033   0.613   3.846  11.424 -1.8583  0.5747 -0.3213
 6800SOL    HW232034   0.675   3.977  11.464 -1.6054  1.1937  0.2301
 6801SOL     OW32035   0.452   3.859  16.560  0.4021  0.5972  0.1053
 6801SOL    HW132036   0.423   3.950  16.570 -0.2856  0.3391  0.4435
 6801SOL    HW232037   0.377   3.810  16.527  1.1442 -0.0059 -0.6922
 6802SOL     OW32038   0.877   1.299   8.167  0.3550  0.4461  0.4854
 6802SOL    HW132039   0.783   1.284   8.158  0.8528 -3.4088  1.7211
 6802SOL    HW232040   0.909   1.234   8.229  0.9219 -1.0778 -1.4151
 6803SOL     OW32041   3.668   2.908   2.174  0.6201 -0.7529  0.1615
 6803SOL    HW132042   3.725   2.864   2.111  1.6525  0.4930  0.2304
 6803SOL    HW232043   3.586   2.858   2.176  0.2014 -0.1461 -1.6904
 6804SOL     OW32044   3.382   1.655   7.995 -0.7550  0.0229 -0.7998
 6804SOL    HW132045   3.470   1.690   8.006 -0.4596 -0.9964  0.0184
 6804SOL    HW232046   3.361   1.655   8.089  0.1599  1.8480 -0.5909
 6805SOL     OW32047   3.243   4.480  13.108  0.1429  0.0554  0.8241
 6805SOL    HW132048   3.253   4.404  13.166 -0.1628  0.0565  0.8794
 6805SOL    HW232049   3.194   4.537  13.167 -1.6529  0.3291 -0.9168
 6806SOL     OW32050   2.460   1.141   2.585 -0.0074  0.4108  0.4551
 6806SOL    HW132051   2.514   1.094   2.648  0.7887  0.3559 -0.2598
 6806SOL    HW232052   2.374   1.103   2.601  0.6413 -0.4271  1.8978
 6807SOL     OW32053   1.511   3.386   3.925 -0.6009 -0.0730  0.4887
 6807SOL    HW132054   1.542   3.385   3.834 -2.1567  0.1053 -0.0433
 6807SOL    HW232055   1.416   3.374   3.924 -0.4209 -1.0479 -4.9110
 6808SOL     OW32056   2.288   3.056   4.336  0.2370 -0.2325 -0.0209
 6808SOL    HW132057   2.256   3.146   4.326 -0.6634 -0.7067 -1.4078
 6808SOL    HW232058   2.211   3.004   4.315  0.1483 -0.2716  0.4072
 6809SOL     OW32059   4.343   0.265   3.857  0.6053 -0.7759 -0.4263
 6809SOL    HW132060   4.267   0.207   3.860 -0.0719  0.0535 -1.3693
 6809SOL    HW232061   4.366   0.268   3.764 -1.4311  1.7167 -0.8549
 6810SOL     OW32062   1.037   2.283   4.486 -0.1754 -0.0811 -0.5596
 6810SOL    HW132063   0.959   2.321   4.443 -1.8030 -0.7801  1.7882
 6810SOL    HW232064   0.999   2.266   4.572 -0.0446  0.0205 -0.4816
 6811SOL     OW32065   0.373   3.149   6.482  0.9176  0.0642  0.1058
 6811SOL    HW132066   0.329   3.222   6.439  1.7097  1.9277  2.4741
 6811SOL    HW232067   0.416   3.190   6.557  0.6651 -0.8139  0.7297
 6812SOL     OW32068   0.420   2.852   0.804 -0.0649  0.1957  0.3622
 6812SOL    HW132069   0.453   2.766   0.780 -1.0813 -0.3900  1.0794
 6812SOL    HW232070   0.383   2.824   0.888  0.0262  1.7671  0.9443
 6813SOL     OW32071   3.366   3.376   7.452 -0.0416  0.4003 -0.7625
 6813SOL    HW132072   3.396   3.412   7.535  0.3621  1.7589 -1.4953
 6813SOL    HW232073   3.408   3.291   7.467 -0.3433  0.3574 -0.1917
 6814SOL     OW32074   1.370   4.100   1.993 -0.3889 -0.0444  0.3316
 6814SOL    HW132075   1.349   4.192   1.977  1.1074  0.7043  2.6379
 6814SOL    HW232076   1.446   4.104   1.935 -1.9185 -0.9614 -1.7367
 6815SOL     OW32077   3.530   3.903   8.959  0.7169  0.5688 -0.0959
 6815SOL    HW132078   3.561   3.815   8.979  1.2184  0.2816 -2.0986
 6815SOL    HW232079   3.515   3.940   9.046 -1.3099 -0.8905  0.1844
 6816SOL     OW32080   3.166   4.205   4.831 -0.0936 -0.2471 -0.2950
 6816SOL    HW132081   3.111   4.144   4.781  0.7495 -1.5245  0.3103
 6816SOL    HW232082   3.146   4.199   4.925 -2.7737 -0.0292 -0.8456
 6817SOL     OW32083   0.627   2.099   0.310  0.3184 -0.0723  0.1713
 6817SOL    HW132084   0.644   2.115   0.218 -0.1841 -1.9171 -0.2261
 6817SOL    HW232085   0.708   2.136   0.346  1.2704 -1.0701 -0.9729
 6818SOL     OW32086   3.167   0.114  17.677 -0.4509 -0.0968  0.0071
 6818SOL    HW132087   3.143   0.094   0.015 -1.6111  2.2482  0.1959
 6818SOL    HW232088   3.144   0.031  17.635 -2.4772  0.4010  0.0990
 6819SOL     OW32089   1.660   2.775   9.410 -0.1390  0.0218 -0.5144
 6819SOL    HW132090   1.613   2.736   9.336  1.6981 -0.8146 -1.2353
 6819SOL    HW232091   1.752   2.778   9.383  0.0706 -1.2429  0.0341
 6820SOL     OW32092   4.252   1.324   4.944 -0.4958 -0.2083  0.4055
 6820SOL    HW132093   4.200   1.253   4.983  0.6513 -1.7833 -0.9290
 6820SOL    HW232094   4.344   1.300   4.953  0.0899  1.2095 -1.8801
 6821SOL     OW32095   2.719   3.583   2.252 -0.5348  0.1809 -0.1803
 6821SOL    HW132096   2.741   3.642   2.180  1.4842 -1.1783 -0.6465
 6821SOL    HW232097   2.733   3.498   2.210 -0.2947 -0.2733  0.8201
 6822SOL     OW32098   2.974   3.623   9.254  0.1328  0.3772 -0.1573
 6822SOL    HW132099   2.880   3.618   9.238  0.1031  1.1251 -0.2029
 6822SOL    HW232100   2.974   3.636   9.349 -0.5756 -0.0065 -0.1018
 6823SOL     OW32101   1.525   3.431   9.254 -0.1873 -0.0558  0.1751
 6823SOL    HW132102   1.578   3.363   9.213 -1.7938 -0.2904 -1.5136
 6823SOL    HW232103   1.592   3.459   9.316  0.5573  0.0764 -0.6914
 6824SOL     OW32104   1.885   4.080  15.397 -0.0624 -0.0022 -0.0121
 6824SOL    HW132105   1.938   4.085  15.318 -1.7492 -0.0472 -1.1297
 6824SOL    HW232106   1.931   4.138  15.459 -0.7845 -1.2424  1.6932
 6825SOL     OW32107   0.756   3.485   2.802 -0.3018  0.2710 -0.0422
 6825SOL    HW132108   0.741   3.445   2.716 -2.7520  0.2450  0.4172
 6825SOL    HW232109   0.719   3.573   2.802 -0.3023  0.2600  2.3267
 6826SOL     OW32110   2.098   0.308   9.571 -0.4785 -0.2593  0.3654
 6826SOL    HW132111   2.080   0.214   9.575 -0.5524 -0.3038 -1.1367
 6826SOL    HW232112   2.153   0.312   9.649  1.3181  0.9268 -0.9824
 6827SOL     OW32113   2.936   0.874   2.281  0.3060  0.3208  0.2759
 6827SOL    HW132114   2.947   0.932   2.357 -0.2350 -1.8480  2.0266
 6827SOL    HW232115   2.990   0.802   2.314  0.9954  1.1343  0.9381
 6828SOL     OW32116   4.293   0.498   8.562  0.0279  0.0523 -0.2993
 6828SOL    HW132117   4.236   0.486   8.638  0.1606 -0.4069 -0.2738
 6828SOL    HW232118   4.371   0.480   8.614 -0.6020 -0.2002  0.5658
 6829SOL     OW32119   3.880   1.932   8.374 -0.2811 -0.1506  0.0516
 6829SOL    HW132120   3.799   1.972   8.406 -0.2725  0.2888 -0.4608
 6829SOL    HW232121   3.942   1.983   8.427  0.0887 -0.0544 -0.4705
 6830SOL     OW32122   0.438   3.026  10.589  0.0969 -0.1151  0.4733
 6830SOL    HW132123   0.348   3.003  10.609  0.3485 -0.3203  1.3899
 6830SOL    HW232124   0.479   3.023  10.675  2.7653  1.4884 -0.7154
 6831SOL     OW32125   0.962   0.160   2.308 -0.2824 -0.3316 -0.5032
 6831SOL    HW132126   0.980   0.254   2.300 -1.9484  0.2142  1.9594
 6831SOL    HW232127   1.006   0.148   2.393 -0.0289  0.3198 -0.5459
 6832SOL     OW32128   0.327   2.904  12.207  0.4522  0.3340 -0.2637
 6832SOL    HW132129   0.402   2.872  12.156  0.6603 -2.6742  1.9289
 6832SOL    HW232130   0.263   2.837  12.182  0.1806  0.2277  0.7313
 6833SOL     OW32131   3.292   0.032  11.930  0.3948 -0.3084 -0.0187
 6833SOL    HW132132   3.352   0.063  11.862  0.0891 -0.4032 -0.3328
 6833SOL    HW232133   3.297   4.678  11.907  1.5427  0.1575 -1.5874
 6834SOL     OW32134   0.465   2.678   8.713  0.3694  0.3195 -0.1147
 6834SOL    HW132135   0.407   2.733   8.661 -0.0900 -1.3456 -1.3489
 6834SOL    HW232136   0.516   2.746   8.757 -1.7810 -0.6514  3.9699
 6835SOL     OW32137   3.906   0.631   4.506  0.4737 -0.3006 -0.1062
 6835SOL    HW132138   3.855   0.591   4.435  3.1297 -1.1774 -1.4926
 6835SOL    HW232139   3.993   0.645   4.469 -0.5728  0.2703 -2.3385
 6836SOL     OW32140   4.588   1.036   4.382 -0.4243 -0.0240  0.3039
 6836SOL    HW132141   4.680   1.063   4.391 -0.7100  0.5049  1.5826
 6836SOL    HW232142   4.591   0.986   4.301  1.7901  2.5644 -1.2481
 6837SOL     OW32143   2.457   0.455  14.145 -0.0303  0.4067  0.0844
 6837SOL    HW132144   2.532   0.500  14.184  0.3261 -0.1728  0.0704
 6837SOL    HW232145   2.417   0.535  14.111  0.2796 -0.0871 -1.4633
 6838SOL     OW32146   2.875   0.592   6.052 -0.0954  0.3039  0.4746
 6838SOL    HW132147   2.841   0.503   6.043  0.1069  0.5584 -3.1647
 6838SOL    HW232148   2.807   0.629   6.107 -0.6153  1.6172 -1.0463
 6839SOL     OW32149   2.556   1.656  13.731  0.0050 -0.1246 -0.6442
 6839SOL    HW132150   2.484   1.695  13.781 -1.5146 -1.4485 -1.8150
 6839SOL    HW232151   2.618   1.639  13.803 -1.0570  1.0785  0.5589
 6840SOL     OW32152   1.372   2.623   4.973 -0.0574  0.3121  0.8221
 6840SOL    HW132153   1.464   2.601   4.984  0.0425  1.2971  2.0731
 6840SOL    HW232154   1.341   2.631   5.064  1.6279  0.6192  1.3776
 6841SOL     OW32155   4.345   3.400  10.294 -0.5735 -0.0036 -0.1405
 6841SOL    HW132156   4.301   3.450  10.362 -0.6202 -0.8022  0.4170
 6841SOL    HW232157   4.431   3.386  10.334 -1.3349 -2.0034  0.8277
 6842SOL     OW32158   2.864   1.986   9.632  0.0871 -0.2699 -0.1615
 6842SOL    HW132159   2.796   1.983   9.700 -0.4357  0.0440 -0.6659
 6842SOL    HW232160   2.845   2.075   9.600  0.3312 -0.3868 -0.6374
 6843SOL     OW32161   1.608   1.528   9.650  0.1154 -0.0234 -0.5381
 6843SOL    HW132162   1.655   1.560   9.728  1.7760 -2.2093 -0.6129
 6843SOL    HW232163   1.678   1.478   9.607  0.9719  0.9684 -0.3070
 6844SOL     OW32164   1.706   3.187   0.306  0.1775 -0.1210  0.4009
 6844SOL    HW132165   1.785   3.230   0.273 -0.8840  2.2305  0.9320
 6844SOL    HW232166   1.644   3.193   0.234  1.3260  1.8184 -0.4353
 6845SOL     OW32167   2.530   3.137  14.917 -0.6999 -0.1450  0.2550
 6845SOL    HW132168   2.539   3.195  14.993 -1.0187 -0.2190  0.3504
 6845SOL    HW232169   2.619   3.103  14.908 -1.2667 -0.9520 -2.1137
 6846SOL     OW32170   2.890   0.070   5.219  0.1959 -0.2235 -0.4786
 6846SOL    HW132171   2.941   0.007   5.168 -1.4956 -3.5290  1.9730
 6846SOL    HW232172   2.813   0.074   5.163  0.5139  3.5708 -0.6396
 6847SOL     OW32173   0.275   2.049   6.194 -0.0366 -0.8527 -0.6333
 6847SOL    HW132174   0.322   2.103   6.258 -2.0931  0.6185 -0.3679
 6847SOL    HW232175   0.199   2.037   6.250  0.7019  0.1158  0.5977
 6848SOL     OW32176   1.309   0.110   0.753 -0.1526  0.3083 -0.1118
 6848SOL    HW132177   1.249   0.069   0.816 -0.8507  0.1505 -0.8786
 6848SOL    HW232178   1.302   0.204   0.771 -0.1310  0.3070 -0.0971
 6849SOL     OW32179   1.374   0.833   4.103  0.2906  0.2782  0.2984
 6849SOL    HW132180   1.434   0.762   4.079  0.3093  0.3256  0.2037
 6849SOL    HW232181   1.417   0.915   4.078 -4.3010  3.0179  1.5440
 6850SOL     OW32182   4.541   2.351   3.366  0.4479  0.3511 -0.1871
 6850SOL    HW132183   4.555   2.374   3.458  1.0203  0.4333 -0.2967
 6850SOL    HW232184   4.467   2.292   3.379  1.0448 -0.4179 -0.2977
 6851SOL     OW32185   0.905   0.548   7.150 -0.0951  0.6050  0.2191
 6851SOL    HW132186   0.949   0.543   7.235  1.1011  0.3401 -0.4103
 6851SOL    HW232187   0.872   0.637   7.156  1.9143  1.4991 -1.8466
 6852SOL     OW32188   1.183   3.130   1.798  0.0754  0.2432 -0.6181
 6852SOL    HW132189   1.095   3.114   1.764 -1.2182  3.3409  1.2642
 6852SOL    HW232190   1.168   3.100   1.887  1.2613 -1.4726 -0.9788
 6853SOL     OW32191   1.991   3.121  12.754 -0.4492 -0.0346  0.3680
 6853SOL    HW132192   2.080   3.156  12.746 -1.0437  1.7386  1.5505
 6853SOL    HW232193   1.997   3.074  12.837  1.4265 -0.5459 -0.0469
 6854SOL     OW32194   2.374   1.545  15.762  0.9105  0.2924  0.3529
 6854SOL    HW132195   2.448   1.559  15.702  2.1211 -0.3296  1.7006
 6854SOL    HW232196   2.362   1.638  15.783 -0.6394  0.5492 -1.6383
 6855SOL     OW32197   0.710   3.838  10.455 -0.0497 -0.4054 -0.3478
 6855SOL    HW132198   0.732   3.876  10.370  1.2790  0.2879  0.3101
 6855SOL    HW232199   0.645   3.772  10.430  0.1992 -0.8553  0.1869
 6856SOL     OW32200   2.477   0.647   6.450 -0.1542  0.0198 -0.8118
 6856SOL    HW132201   2.422   0.575   6.481 -0.5811 -0.0588 -1.7403
 6856SOL    HW232202   2.492   0.685   6.536 -1.4615 -0.3613 -0.4294
 6857SOL     OW32203   3.602   0.738  15.111  0.5175  0.1191 -0.0111
 6857SOL    HW132204   3.602   0.797  15.187 -0.7320  0.8559 -0.5964
 6857SOL    HW232205   3.674   0.683  15.142  1.3909 -0.4774 -3.1464
 6858SOL     OW32206   2.360   1.283   5.911 -0.3381 -0.4517 -0.3746
 6858SOL    HW132207   2.411   1.275   5.992  1.6847 -1.7352 -1.7758
 6858SOL    HW232208   2.350   1.377   5.897 -2.3711 -0.8857 -1.9179
 6859SOL     OW32209   1.954   4.128   3.488  0.0936 -0.3622 -0.4037
 6859SOL    HW132210   1.997   4.204   3.450  0.4537 -0.0083  0.6838
 6859SOL    HW232211   1.867   4.162   3.506  0.1220  0.5717 -2.1128
 6860SOL     OW32212   0.253   1.538   3.598 -0.8831 -0.4140 -0.2519
 6860SOL    HW132213   0.341   1.504   3.585 -0.1583  1.7295 -0.7917
 6860SOL    HW232214   0.266   1.625   3.563  1.5569  0.1270  2.0450
 6861SOL     OW32215   4.259   3.691   6.480 -0.3633  0.0147 -0.0885
 6861SOL    HW132216   4.247   3.682   6.385 -1.7289  1.3604 -0.0251
 6861SOL    HW232217   4.253   3.786   6.487 -0.8144  0.0972 -1.5283
 6862SOL     OW32218   2.109   0.084  12.093 -0.1596  0.1827 -0.0835
 6862SOL    HW132219   2.033   0.115  12.142 -0.1178  1.9697 -1.1300
 6862SOL    HW232220   2.145   0.172  12.080 -0.5216  0.3914  0.3483
 6863SOL     OW32221   0.645   2.064   5.417 -0.1879  0.0203 -0.5034
 6863SOL    HW132222   0.657   2.076   5.511 -2.7905  2.9985 -0.5640
 6863SOL    HW232223   0.575   2.125   5.396 -0.1039  0.0226 -0.7822
 6864SOL     OW32224   1.106   1.861   5.948  0.3396  0.3657 -1.0100
 6864SOL    HW132225   1.187   1.886   5.903  0.7265  0.3590 -0.3172
 6864SOL    HW232226   1.075   1.950   5.965  1.4481  0.6197 -0.2926
 6865SOL     OW32227   1.832   2.738   0.004  0.2346 -0.3580  0.0488
 6865SOL    HW132228   1.861   2.647  17.752  0.5327 -0.4158  2.7366
 6865SOL    HW232229   1.907   2.791  17.729 -1.7941  1.4092 -1.9989
 6866SOL     OW32230   2.182   0.993  12.290  0.5524  0.2298  0.1400
 6866SOL    HW132231   2.242   0.928  12.328  1.8385  0.7215 -1.0599
 6866SOL    HW232232   2.168   1.062  12.354 -1.3213 -0.7469  0.7771
 6867SOL     OW32233   4.280   3.957   6.747 -0.0724  0.0898 -0.3889
 6867SOL    HW132234   4.200   3.923   6.788  0.4077  0.2225  0.6840
 6867SOL    HW232235   4.351   3.924   6.803  0.1699  0.8884 -0.2245
 6868SOL     OW32236   1.226   2.292   8.323 -0.0152 -0.1460  0.0628
 6868SOL    HW132237   1.249   2.214   8.372 -0.6049 -0.6339 -0.4391
 6868SOL    HW232238   1.240   2.364   8.385 -1.0597 -0.0781  0.2245
 6869SOL     OW32239   0.664   0.727   2.943 -0.2968 -0.4690  0.2427
 6869SOL    HW132240   0.621   0.672   3.007  0.7041  0.5717  1.8116
 6869SOL    HW232241   0.745   0.677   2.948 -0.9208 -1.6160 -1.0431
 6870SOL     OW32242   3.528   2.439   4.341  0.1065  0.6547  0.4649
 6870SOL    HW132243   3.462   2.370   4.342  0.3780  0.3775 -0.6711
 6870SOL    HW232244   3.609   2.387   4.341  0.1481  0.7203  0.1053
 6871SOL     OW32245   2.074   4.545  10.700 -0.1224  0.0946  0.0385
 6871SOL    HW132246   1.978   4.553  10.699 -0.2935 -1.6263  1.6841
 6871SOL    HW232247   2.088   4.622  10.646 -2.7477  0.6771  0.1602
 6872SOL     OW32248   2.737   1.021   0.799  0.2905  0.2651 -0.6481
 6872SOL    HW132249   2.642   1.036   0.792  0.4180  2.5152  2.3198
 6872SOL    HW232250   2.750   0.985   0.886 -0.6027  1.0741 -0.1766
 6873SOL     OW32251   3.795   2.987  17.335 -0.2420 -0.5776 -0.4866
 6873SOL    HW132252   3.863   3.054  17.323 -1.5289  0.6686 -0.7642
 6873SOL    HW232253   3.760   3.029  17.413 -1.3399 -0.6735 -0.9260
 6874SOL     OW32254   1.550   1.111   2.446 -0.5328 -0.2607 -0.2055
 6874SOL    HW132255   1.475   1.051   2.448 -0.3666 -0.5443 -2.8178
 6874SOL    HW232256   1.621   1.048   2.438 -2.2918 -2.2652 -0.2004
 6875SOL     OW32257   1.828   1.578   5.070 -0.1609 -0.6837 -0.6142
 6875SOL    HW132258   1.738   1.584   5.038  0.6549 -0.7195 -2.9237
 6875SOL    HW232259   1.810   1.561   5.162  1.8525  2.5459  0.3793
 6876SOL     OW32260   4.003   3.219   8.412  0.4525 -0.1361 -0.5643
 6876SOL    HW132261   4.014   3.141   8.357  1.8544 -0.6436  0.4521
 6876SOL    HW232262   3.990   3.289   8.348  1.6720  0.8304  0.2674
 6877SOL     OW32263   4.337   4.485   1.248 -0.0876  0.0240  0.4244
 6877SOL    HW132264   4.404   4.540   1.207 -2.3510  1.4058 -1.4354
 6877SOL    HW232265   4.260   4.540   1.257  0.8623  1.1365  1.7825
 6878SOL     OW32266   0.512   4.276  10.342  0.0241 -0.4299  0.0736
 6878SOL    HW132267   0.517   4.184  10.315  2.4806  0.5910 -3.0379
 6878SOL    HW232268   0.541   4.273  10.433 -0.3948  0.1936  0.2214
 6879SOL     OW32269   3.534   3.217   7.838 -0.2383  0.4857  0.0354
 6879SOL    HW132270   3.529   3.287   7.903 -0.9084 -1.5004  2.0974
 6879SOL    HW232271   3.447   3.225   7.798 -1.5528  0.8605  2.9806
 6880SOL     OW32272   4.480   0.354  13.424  0.6696  0.4666  0.3527
 6880SOL    HW132273   4.533   0.357  13.344 -0.4271  3.5474 -0.2655
 6880SOL    HW232274   4.399   0.405  13.419  0.0787 -0.2344  2.7522
 6881SOL     OW32275   2.116   1.969   3.515 -0.5871  0.1892  0.0231
 6881SOL    HW132276   2.104   1.875   3.533  1.5129  0.2034  1.6029
 6881SOL    HW232277   2.068   2.003   3.590 -0.8394  2.6589 -1.2830
 6882SOL     OW32278   1.909   2.469  10.528  0.3137 -0.0233 -0.1483
 6882SOL    HW132279   1.963   2.523  10.471  0.1701  0.9759  0.6564
 6882SOL    HW232280   1.853   2.435  10.458 -0.2557  1.8730 -0.6159
 6883SOL     OW32281   3.973   2.463   1.352 -0.0275  0.3613 -0.2829
 6883SOL    HW132282   4.036   2.454   1.281 -0.4544  0.4330 -0.6758
 6883SOL    HW232283   3.893   2.490   1.307  0.3315  0.5347 -0.8112
 6884SOL     OW32284   2.004   1.599   9.699 -0.1158  0.2135 -0.7331
 6884SOL    HW132285   2.055   1.613   9.779  0.5837 -0.3820 -1.0788
 6884SOL    HW232286   1.920   1.608   9.744  0.6374  0.0555  0.7105
 6885SOL     OW32287   4.087   1.656   3.762 -0.4497  0.0452  0.2646
 6885SOL    HW132288   4.171   1.701   3.770  0.3098 -1.3157 -0.2002
 6885SOL    HW232289   4.107   1.575   3.716 -0.2566  0.4801 -0.4153
 6886SOL     OW32290   1.447   1.431   2.551 -0.0412 -0.3831  0.1321
 6886SOL    HW132291   1.405   1.441   2.466  0.0718  1.6295  0.2982
 6886SOL    HW232292   1.368   1.420   2.605 -0.9167  0.6032 -0.9435
 6887SOL     OW32293   3.741   3.097   0.353  0.1806 -0.6822 -0.2885
 6887SOL    HW132294   3.744   3.187   0.386  1.6575  0.6156 -3.9849
 6887SOL    HW232295   3.646   3.087   0.350 -0.1082  1.7784  0.6032
 6888SOL     OW32296   0.192   4.508   6.072 -0.4034 -0.0034  0.5558
 6888SOL    HW132297   0.188   4.421   6.032 -3.7880  0.9464 -1.1282
 6888SOL    HW232298   0.108   4.516   6.116  0.0495  1.8120  1.0929
 6889SOL     OW32299   2.128   0.420  16.912 -0.3543 -0.3779 -0.4593
 6889SOL    HW132300   2.082   0.344  16.875  2.2532 -1.5551 -1.2714
 6889SOL    HW232301   2.066   0.459  16.974 -0.2603 -1.5566  0.3700
 6890SOL     OW32302   2.517   2.365   9.723  0.3420  0.1395  0.3508
 6890SOL    HW132303   2.495   2.278   9.690 -1.5358  0.4137  0.8768
 6890SOL    HW232304   2.610   2.379   9.708  0.2692 -0.6260 -0.7537
 6891SOL     OW32305   2.918   2.696   6.023  0.4973  0.1919 -0.1698
 6891SOL    HW132306   2.921   2.744   6.106 -1.2292 -1.4812  0.8626
 6891SOL    HW232307   2.981   2.628   6.049 -0.6573 -0.8262  0.0132
 6892SOL     OW32308   4.679   4.255   7.718 -0.4425  0.5830 -0.2066
 6892SOL    HW132309   0.012   4.199   7.686  0.5365  2.1852 -0.7805
 6892SOL    HW232310   4.710   4.268   7.807 -0.5628 -1.7330  0.1700
 6893SOL     OW32311   1.984   2.671   1.038 -0.2025 -0.4009  0.0054
 6893SOL    HW132312   1.906   2.643   0.990 -0.1489  0.0215 -0.3365
 6893SOL    HW232313   2.008   2.729   0.965  0.0724  3.2533  3.0042
 6894SOL     OW32314   2.215   4.082   8.243 -0.1439  0.5690  0.0909
 6894SOL    HW132315   2.217   4.172   8.213  0.9967  0.4155 -0.2717
 6894SOL    HW232316   2.237   4.038   8.160 -0.5586  0.7998 -0.1408
 6895SOL     OW32317   4.529   3.432   2.992 -0.3030  0.1421  0.8432
 6895SOL    HW132318   4.508   3.426   3.085  0.3567  2.5726  1.1599
 6895SOL    HW232319   4.495   3.356   2.945 -1.8067  1.0850  0.4009
 6896SOL     OW32320   2.240   3.341  10.871  0.6887  0.2139 -0.0681
 6896SOL    HW132321   2.189   3.373  10.946 -1.3875  0.5427 -1.6344
 6896SOL    HW232322   2.200   3.256  10.851 -1.3715  1.2662 -0.4179
 6897SOL     OW32323   4.720   3.994   8.589  0.1530  0.1599 -0.0614
 6897SOL    HW132324   0.014   3.970   8.502  1.4445  1.5548  0.0437
 6897SOL    HW232325   0.051   4.051   8.620 -0.9000  1.8000 -0.6754
 6898SOL     OW32326   2.566   1.733   4.649  0.1975  0.3563  0.1755
 6898SOL    HW132327   2.571   1.674   4.723 -0.6498  1.6559  1.2769
 6898SOL    HW232328   2.580   1.821   4.686  0.4169  0.9383 -1.2807
 6899SOL     OW32329   2.001   3.900   5.875  0.3266 -0.1810 -0.1284
 6899SOL    HW132330   1.959   3.921   5.958 -1.1994 -1.2434 -0.6407
 6899SOL    HW232331   1.966   3.971   5.822  0.2145 -0.2768 -0.1818
 6900SOL     OW32332   2.676   1.123   4.352 -0.7952  0.4466 -0.7589
 6900SOL    HW132333   2.642   1.040   4.319 -1.5442  0.9531 -1.2655
 6900SOL    HW232334   2.629   1.184   4.295 -1.7840  2.7765  2.6039
 6901SOL     OW32335   1.179   2.188   2.183  0.3647  0.0941  0.4862
 6901SOL    HW132336   1.131   2.262   2.147  0.9611 -0.3263 -1.1821
 6901SOL    HW232337   1.125   2.117   2.147  1.0995  0.4008 -1.2117
 6902SOL     OW32338   3.081   2.042  10.268  0.3711  0.2668 -0.2650
 6902SOL    HW132339   3.029   2.100  10.212 -1.2634  1.1976  2.2589
 6902SOL    HW232340   3.094   2.102  10.341 -0.4880  1.6237 -1.2291
 6903SOL     OW32341   0.440   2.101   5.991  0.1842 -0.1984  0.0735
 6903SOL    HW132342   0.531   2.088   6.018  0.0337 -2.9255 -0.6943
 6903SOL    HW232343   0.392   2.102   6.073  0.6117  2.5481  0.2900
 6904SOL     OW32344   2.674   2.404  12.306  0.5516  0.2977  0.0583
 6904SOL    HW132345   2.700   2.472  12.368  1.0742  0.0452  0.1146
 6904SOL    HW232346   2.683   2.448  12.222  2.2351  1.1779  0.7058
 6905SOL     OW32347   3.814   1.156   0.263 -0.2972  0.2214  0.4817
 6905SOL    HW132348   3.870   1.086   0.297  0.3564  0.0490 -0.9580
 6905SOL    HW232349   3.853   1.169   0.177 -3.8331  3.2490 -0.6674
 6906SOL     OW32350   0.744   4.017   4.292 -0.2809  0.6401  1.1507
 6906SOL    HW132351   0.826   4.031   4.244 -2.5595 -1.0725 -3.2326
 6906SOL    HW232352   0.744   3.922   4.305 -0.0268  0.3738 -0.8424
 6907SOL     OW32353   1.586   0.374   7.752  0.1366  0.4901  0.1575
 6907SOL    HW132354   1.632   0.314   7.693  1.0444  0.3095  1.0369
 6907SOL    HW232355   1.596   0.335   7.839 -0.6003 -1.2539 -0.5439
 6908SOL     OW32356   2.005   0.067   5.738  0.1865 -0.3013  0.1512
 6908SOL    HW132357   1.970   0.066   5.649  1.6288 -0.2154 -0.4043
 6908SOL    HW232358   1.976   4.719   5.766 -0.1795 -0.8973 -2.0533
 6909SOL     OW32359   1.109   2.715   2.976 -0.4371 -0.3176  0.1956
 6909SOL    HW132360   1.188   2.692   2.926  0.3633  0.3575  1.1569
 6909SOL    HW232361   1.133   2.683   3.063 -1.6170  1.8658  1.3159
 6910SOL     OW32362   2.189   1.715   8.754 -0.1721 -0.1051 -0.3003
 6910SOL    HW132363   2.169   1.740   8.844  0.5954  0.3112 -0.2437
 6910SOL    HW232364   2.108   1.744   8.711  0.3140 -0.0355 -1.1685
 6911SOL     OW32365   3.816   0.425   0.354 -0.5021  0.4463 -0.2901
 6911SOL    HW132366   3.735   0.389   0.318 -0.1400 -0.9753  0.3439
 6911SOL    HW232367   3.783   0.488   0.418  0.0779  1.4326 -0.9621
 6912SOL     OW32368   1.719   3.015  14.644  0.2941 -0.0743  0.1374
 6912SOL    HW132369   1.635   2.994  14.684  1.3068 -2.2712  1.1274
 6912SOL    HW232370   1.776   3.028  14.719 -0.1741  1.1858  0.2640
 6913SOL     OW32371   0.470   4.069  11.009  0.0895 -0.0795 -0.1382
 6913SOL    HW132372   0.421   4.073  10.927 -0.3592  0.9241  0.1919
 6913SOL    HW232373   0.437   4.146  11.053  0.4744  2.0330 -3.5498
 6914SOL     OW32374   0.528   0.130  11.720 -0.1365  0.3577 -0.0168
 6914SOL    HW132375   0.551   0.053  11.667  2.7887  0.6698  0.7917
 6914SOL    HW232376   0.545   0.098  11.809 -1.0245 -1.0379 -0.3363
 6915SOL     OW32377   3.413   0.133  11.627 -0.4129 -0.2379  0.6058
 6915SOL    HW132378   3.488   0.083  11.596  0.0099  1.1624 -0.6079
 6915SOL    HW232379   3.340   0.074  11.605 -0.5962  2.0955 -5.0963
 6916SOL     OW32380   3.255   2.694   6.778 -0.0647  0.3424  0.6396
 6916SOL    HW132381   3.275   2.784   6.750  4.0586 -1.1663 -1.1657
 6916SOL    HW232382   3.232   2.709   6.870  1.8453  0.8621  1.0534
 6917SOL     OW32383   0.689   3.161   6.573 -0.0590 -0.0708  0.2549
 6917SOL    HW132384   0.697   3.134   6.665  2.3290 -2.5272 -0.6868
 6917SOL    HW232385   0.717   3.079   6.533 -1.1999 -0.8299  1.0074
 6918SOL     OW32386   0.087   3.436   6.672 -0.3104 -0.3212  0.1440
 6918SOL    HW132387   0.048   3.468   6.753 -0.3177  2.0842 -0.7923
 6918SOL    HW232388   0.138   3.365   6.711  0.5067 -0.8196 -1.7880
 6919SOL     OW32389   2.864   3.199   7.094 -0.0994 -0.2035 -0.3891
 6919SOL    HW132390   2.836   3.116   7.133 -0.5227 -1.0939 -2.6016
 6919SOL    HW232391   2.776   3.222   7.064 -0.5170 -0.6679  0.4604
 6920SOL     OW32392   1.597   1.559   4.924 -0.0546  0.2860 -0.2907
 6920SOL    HW132393   1.506   1.549   4.949 -0.3192 -0.5930 -1.6152
 6920SOL    HW232394   1.607   1.475   4.879  0.2786 -0.6771  1.6086
 6921SOL     OW32395   3.711   2.341   8.193  0.6598  0.3782 -1.0086
 6921SOL    HW132396   3.632   2.302   8.155  0.6876 -0.8777  0.1948
 6921SOL    HW232397   3.776   2.271   8.203 -1.2826 -1.1194  1.1421
 6922SOL     OW32398   0.369   0.837   1.516  0.3613 -0.2609 -0.3216
 6922SOL    HW132399   0.416   0.889   1.580 -2.0228 -1.0895  2.0911
 6922SOL    HW232400   0.408   0.863   1.433  1.2371  2.8930  1.1012
 6923SOL     OW32401   1.044   1.366   4.720 -0.1463  0.1548  0.6699
 6923SOL    HW132402   0.963   1.377   4.670  0.6332 -0.3080 -0.7048
 6923SOL    HW232403   1.045   1.276   4.751 -1.8079 -0.2559 -0.4749
 6924SOL     OW32404   2.230   3.384  16.973  0.0665 -0.2655  0.1316
 6924SOL    HW132405   2.281   3.311  16.940 -0.0806  0.8431 -2.5051
 6924SOL    HW232406   2.265   3.443  16.907  0.3661 -0.6603 -0.0589
 6925SOL     OW32407   3.597   1.419  10.033 -0.2308 -0.5096 -1.0862
 6925SOL    HW132408   3.564   1.484   9.970 -0.8161 -0.5629 -0.8332
 6925SOL    HW232409   3.515   1.392  10.073  0.6801 -1.5070  0.0976
 6926SOL     OW32410   0.558   2.677   2.954 -0.8644  0.4174  0.2410
 6926SOL    HW132411   0.522   2.674   2.865 -0.0983 -0.2584 -0.0484
 6926SOL    HW232412   0.505   2.610   2.996 -0.1324  0.2943  0.9711
 6927SOL     OW32413   4.075   2.925   8.208 -0.3445  0.0157  0.3116
 6927SOL    HW132414   4.079   2.911   8.303 -1.8259  0.3645  0.4219
 6927SOL    HW232415   4.061   2.835   8.177 -2.2476  0.3194  0.2537
 6928SOL     OW32416   0.319   3.330  13.683 -0.5258  0.6519  0.0857
 6928SOL    HW132417   0.280   3.276  13.753 -0.1979  1.7814  1.1326
 6928SOL    HW232418   0.289   3.417  13.709 -0.4694  0.5888  0.3584
 6929SOL     OW32419   1.023   4.705   2.167  0.4320  0.0196 -0.0894
 6929SOL    HW132420   1.050   0.031   2.103  0.1559  1.3329  1.1191
 6929SOL    HW232421   0.980   0.023   2.231 -2.7151 -1.6777 -0.6682
 6930SOL     OW32422   1.935   0.165  12.815  0.0579 -0.3000  0.3156
 6930SOL    HW132423   1.951   0.205  12.729  0.6769 -0.7526  0.2232
 6930SOL    HW232424   1.889   0.085  12.788 -0.7707  0.6176 -0.9967
 6931SOL     OW32425   1.480   2.391   0.912 -0.2250 -0.1457  0.1299
 6931SOL    HW132426   1.459   2.483   0.894 -0.2998  0.0695  1.2901
 6931SOL    HW232427   1.556   2.383   0.854  0.0446  0.8679  0.3397
 6932SOL     OW32428   2.907   4.379   6.748 -0.2291  0.0177 -0.3067
 6932SOL    HW132429   2.957   4.370   6.829 -2.5961 -0.3203  1.1178
 6932SOL    HW232430   2.830   4.429   6.774  1.4991  1.8399  1.3590
 6933SOL     OW32431   2.907   3.530  13.235 -0.1471 -0.7140 -0.5486
 6933SOL    HW132432   2.873   3.607  13.190 -0.5207 -0.8669 -0.5306
 6933SOL    HW232433   2.951   3.484  13.163  0.4295  0.3433 -0.8662
 6934SOL     OW32434   4.594   4.118   4.531  0.0703 -0.0512 -0.2622
 6934SOL    HW132435   4.627   4.203   4.502  0.5007  0.8928  3.0660
 6934SOL    HW232436   4.672   4.067   4.512  0.1671 -0.3396  0.9028
 6935SOL     OW32437   0.410   4.408   6.740  0.2209 -1.0176  0.2733
 6935SOL    HW132438   0.496   4.415   6.781 -0.5195  0.0961  1.6273
 6935SOL    HW232439   0.417   4.314   6.720 -0.2849 -0.7273 -1.2335
 6936SOL     OW32440   4.399   3.273   8.806 -0.8018  0.0171  0.5263
 6936SOL    HW132441   4.380   3.353   8.855  0.2981 -0.5334  1.8505
 6936SOL    HW232442   4.355   3.284   8.722 -1.5138 -2.7866  0.5493
 6937SOL     OW32443   4.534   2.666   5.282  0.0660  0.6217 -0.4837
 6937SOL    HW132444   4.548   2.572   5.288 -0.8515  0.6665  2.3723
 6937SOL    HW232445   4.574   2.687   5.198  0.2227  0.8390 -0.3528
 6938SOL     OW32446   4.145   3.045  11.109 -0.0294 -0.1084  0.3318
 6938SOL    HW132447   4.050   3.036  11.120 -0.2817  0.4941 -1.4860
 6938SOL    HW232448   4.145   3.125  11.057 -4.4950  1.1526  2.2204
 6939SOL     OW32449   4.515   1.647  13.224 -0.3221 -0.2650 -0.2521
 6939SOL    HW132450   4.534   1.719  13.284  1.3548 -2.8951  2.3524
 6939SOL    HW232451   4.441   1.687  13.177 -0.4943 -0.0266  0.2276
 6940SOL     OW32452   4.369   4.495   8.545 -0.4129  0.0315 -1.1184
 6940SOL    HW132453   4.315   4.570   8.520 -0.6964 -0.3447 -1.6245
 6940SOL    HW232454   4.455   4.531   8.525 -0.2320  1.1705  1.6419
 6941SOL     OW32455   1.784   2.832  11.944 -0.0258 -0.1195  0.3436
 6941SOL    HW132456   1.767   2.832  11.850 -0.1832  2.7373  0.3816
 6941SOL    HW232457   1.708   2.786  11.980 -1.0894  0.4786 -1.1287
 6942SOL     OW32458   0.601   4.580   9.116 -0.3293  0.6247  0.3928
 6942SOL    HW132459   0.586   4.497   9.071 -1.1287 -0.6595  3.0146
 6942SOL    HW232460   0.693   4.570   9.138 -0.6427  0.3816  1.5908
 6943SOL     OW32461   4.573   2.841   4.484  0.1740 -0.0181 -0.1880
 6943SOL    HW132462   4.513   2.855   4.411 -0.4677  0.0671  0.3593
 6943SOL    HW232463   4.634   2.914   4.468 -0.2486  0.1837 -0.8951
 6944SOL     OW32464   0.192   3.914  11.044  0.2410 -0.3340 -0.1204
 6944SOL    HW132465   0.127   3.984  11.047  0.2677 -0.3618  1.0978
 6944SOL    HW232466   0.214   3.923  10.952  2.1862 -1.0760  0.2755
 6945SOL     OW32467   0.904   3.602   3.436 -0.4714 -0.2184  0.9169
 6945SOL    HW132468   0.895   3.566   3.348  0.5296 -0.0321  0.7422
 6945SOL    HW232469   0.927   3.694   3.424 -1.4240 -0.0046  0.7152
 6946SOL     OW32470   1.066   0.250   6.016  0.7589  0.0613 -0.5220
 6946SOL    HW132471   1.052   0.335   6.057  0.2517 -0.2023 -0.1562
 6946SOL    HW232472   1.006   0.205   6.076  2.2663  0.8223  1.5710
 6947SOL     OW32473   1.582   2.671   8.966 -0.0157  0.0016  0.3422
 6947SOL    HW132474   1.623   2.683   9.052 -0.1963 -0.5114  0.5013
 6947SOL    HW232475   1.595   2.577   8.953  0.9131  0.1854 -0.0486
 6948SOL     OW32476   3.341   3.478  17.236 -0.3494 -0.4130  0.5647
 6948SOL    HW132477   3.253   3.466  17.200 -0.4528 -1.9495  1.3453
 6948SOL    HW232478   3.370   3.387  17.228 -0.3083 -0.4311  0.8925
 6949SOL     OW32479   2.271   2.889  10.726  0.1416  0.2676 -0.2297
 6949SOL    HW132480   2.198   2.944  10.756  0.1230  2.7395 -4.8148
 6949SOL    HW232481   2.308   2.944  10.657  0.7820  0.8292  0.5740
 6950SOL     OW32482   0.704   1.602   2.037 -0.2217 -0.0511  0.6460
 6950SOL    HW132483   0.693   1.695   2.060 -3.0965 -0.0537 -0.7262
 6950SOL    HW232484   0.687   1.556   2.120  2.0907 -1.0895  0.5255
 6951SOL     OW32485   0.361   2.668   7.401  0.1022  0.0040  0.4006
 6951SOL    HW132486   0.274   2.678   7.440  0.4188  0.0843  1.0914
 6951SOL    HW232487   0.352   2.632   7.313 -1.1206 -2.7535  1.6416
 6952SOL     OW32488   3.982   2.110   4.578  0.1694  0.0788  0.2095
 6952SOL    HW132489   3.897   2.069   4.592 -0.4029  1.2100 -0.0184
 6952SOL    HW232490   4.013   2.053   4.507 -0.2034  0.3673 -0.1884
 6953SOL     OW32491   4.611   1.301   2.655 -0.0993  0.2199  0.0266
 6953SOL    HW132492   4.655   1.344   2.581 -0.8635  0.2541 -0.4060
 6953SOL    HW232493   4.675   1.234   2.679  1.9157  1.1686 -2.5756
 6954SOL     OW32494   1.523   4.539   6.984 -0.3977 -0.4111  0.1424
 6954SOL    HW132495   1.470   4.605   6.940  2.1091  2.5238  1.5842
 6954SOL    HW232496   1.549   4.588   7.061  2.3197 -1.1104 -0.3058
 6955SOL     OW32497   2.586   3.199  11.084 -0.2094  0.0080  0.3250
 6955SOL    HW132498   2.541   3.172  11.005 -2.4680 -2.2697  2.4040
 6955SOL    HW232499   2.544   3.285  11.093 -2.4586 -1.1717  0.9849
 6956SOL     OW32500   3.673   1.300   2.829  0.5006  0.7490  0.0663
 6956SOL    HW132501   3.632   1.323   2.913 -1.3382 -1.3996 -0.2305
 6956SOL    HW232502   3.743   1.242   2.858  0.2726 -0.6022 -2.1317
 6957SOL     OW32503   1.343   1.599   2.993  0.4082  0.2855 -0.0779
 6957SOL    HW132504   1.250   1.592   2.972  0.6313  0.1641 -1.0073
 6957SOL    HW232505   1.345   1.576   3.086  0.8336 -0.0669 -0.1769
 6958SOL     OW32506   1.270   1.746   2.531 -0.5158 -0.4072  0.1353
 6958SOL    HW132507   1.361   1.736   2.560  0.3392 -1.4644 -2.9294
 6958SOL    HW232508   1.266   1.685   2.458  0.9883 -1.9698  1.3350
 6959SOL     OW32509   2.629   3.902  11.146  0.1093  0.2190  0.6686
 6959SOL    HW132510   2.643   3.849  11.068  2.6255  1.6046  0.1801
 6959SOL    HW232511   2.573   3.840  11.193 -0.3579 -1.2813 -1.8851
 6960SOL     OW32512   1.694   3.840   5.076 -0.4373 -0.4293  0.3538
 6960SOL    HW132513   1.697   3.817   5.169 -1.4288  0.8610  0.7113
 6960SOL    HW232514   1.691   3.935   5.087 -0.5278  0.0208 -3.7488
 6961SOL     OW32515   0.450   1.101   4.639 -0.2453  0.4169 -0.3208
 6961SOL    HW132516   0.435   1.098   4.733  1.2746 -0.0442 -0.0879
 6961SOL    HW232517   0.412   1.017   4.612  0.8735  0.6132 -2.4871
 6962SOL     OW32518   3.644   1.092   5.840 -0.6111 -0.1676 -0.0914
 6962SOL    HW132519   3.705   1.019   5.831 -1.8547 -0.8968 -2.6354
 6962SOL    HW232520   3.624   1.107   5.932 -2.3334 -3.6195  0.0797
 6963SOL     OW32521   2.779   1.025   2.997 -0.3132 -0.6838 -0.5046
 6963SOL    HW132522   2.696   1.036   3.044 -0.2770  1.9163 -1.0418
 6963SOL    HW232523   2.836   1.034   3.074 -2.9731 -0.0842  1.3940
 6964SOL     OW32524   1.030   4.445   8.143 -0.5678  0.0457  0.3334
 6964SOL    HW132525   1.064   4.435   8.054  2.5593  0.4239  1.4782
 6964SOL    HW232526   1.087   4.515   8.175  0.2361  0.0764 -1.1531
 6965SOL     OW32527   0.537   0.461   6.294 -0.0734 -0.0865  0.7293
 6965SOL    HW132528   0.477   0.405   6.245  0.2213  0.2114  0.0197
 6965SOL    HW232529   0.613   0.461   6.235 -0.5567  0.7514  0.1025
 6966SOL     OW32530   1.319   0.063  12.382  0.0393  0.2967 -0.2973
 6966SOL    HW132531   1.396   0.051  12.325 -0.3562 -0.5717 -0.6542
 6966SOL    HW232532   1.368   0.066  12.464 -0.3678  0.8718 -0.0773
 6967SOL     OW32533   2.588   0.752   5.976  0.4655 -0.1574  0.2552
 6967SOL    HW132534   2.494   0.764   5.988  0.4473  0.7963 -0.8455
 6967SOL    HW232535   2.620   0.835   6.009 -0.3645  1.1281 -2.1545
 6968SOL     OW32536   0.369   3.883   4.862 -0.6057 -0.1728  0.3049
 6968SOL    HW132537   0.316   3.866   4.784  0.6833  0.6924 -0.7654
 6968SOL    HW232538   0.307   3.944   4.904 -0.6389 -1.1167  1.6086
 6969SOL     OW32539   2.947   4.541   4.148  0.3212  0.5418 -0.4111
 6969SOL    HW132540   2.893   4.539   4.228  0.8904  1.1200 -0.0095
 6969SOL    HW232541   2.996   4.460   4.159 -0.9072  0.1681  2.5013
 6970SOL     OW32542   1.308   3.834   4.267  0.4620 -0.0106  0.2203
 6970SOL    HW132543   1.235   3.867   4.320  0.5730  0.9385 -0.2199
 6970SOL    HW232544   1.377   3.866   4.325  0.4383 -1.0757  0.8373
 6971SOL     OW32545   1.059   2.226   9.655  0.6810  0.5095  0.0922
 6971SOL    HW132546   1.048   2.150   9.712 -2.5458  2.4350  2.0085
 6971SOL    HW232547   1.013   2.188   9.580 -0.8333 -1.0921  1.8261
 6972SOL     OW32548   3.540   4.688  14.491 -0.1191 -0.0021 -0.2815
 6972SOL    HW132549   3.534   0.015  14.561  0.0534  0.8779 -1.0846
 6972SOL    HW232550   3.623   4.645  14.509 -1.1497 -1.2061  1.5294
 6973SOL     OW32551   1.063   2.130   5.930  0.5286  0.3330 -0.1489
 6973SOL    HW132552   1.154   2.143   5.903  0.5520 -1.5497 -0.9871
 6973SOL    HW232553   1.062   2.174   6.015  1.7663  0.6671 -0.3151
 6974SOL     OW32554   0.486   3.960   2.808 -0.1882  0.6743 -0.0657
 6974SOL    HW132555   0.477   4.000   2.722  3.3271 -1.0518 -1.2533
 6974SOL    HW232556   0.459   4.033   2.863 -0.9976 -0.8074  1.4872
 6975SOL     OW32557   3.734   0.860   7.768  0.0858  0.2618 -0.3064
 6975SOL    HW132558   3.664   0.882   7.706  0.5155  0.3458 -0.7574
 6975SOL    HW232559   3.692   0.869   7.854 -0.4541 -0.5687 -0.4839
 6976SOL     OW32560   1.287   0.359   8.794  0.8132 -0.0738  0.3744
 6976SOL    HW132561   1.265   0.325   8.881 -1.6476  0.7555  0.0810
 6976SOL    HW232562   1.286   0.285   8.734 -1.9843 -1.6027  2.2900
 6977SOL     OW32563   3.701   0.776   2.673 -0.2353  0.7650 -0.2030
 6977SOL    HW132564   3.769   0.730   2.722 -1.6440  0.0672  1.1176
 6977SOL    HW232565   3.652   0.710   2.624  0.3198 -0.1909  0.5567
 6978SOL     OW32566   0.656   2.924   2.871  0.9366  0.2861 -0.6365
 6978SOL    HW132567   0.733   2.926   2.814 -0.9375  0.5286 -3.1469
 6978SOL    HW232568   0.642   2.833   2.896 -0.9604  0.6407 -0.4164
 6979SOL     OW32569   2.797   1.274   0.352 -0.5004  0.4910  0.0588
 6979SOL    HW132570   2.771   1.325   0.275 -0.2418  1.6837  0.7582
 6979SOL    HW232571   2.715   1.277   0.402  0.7483  0.6704  2.0858
 6980SOL     OW32572   1.161   4.407   3.899 -0.1315 -0.1535 -0.2152
 6980SOL    HW132573   1.178   4.367   3.814  2.3888  1.2044 -0.3376
 6980SOL    HW232574   1.150   4.327   3.951 -0.0691 -1.7450 -2.6538
 6981SOL     OW32575   1.716   2.073   7.805 -0.1596  0.3782 -0.1456
 6981SOL    HW132576   1.628   2.083   7.841 -0.1392 -1.2765  0.3510
 6981SOL    HW232577   1.730   2.163   7.774  2.2178 -0.3463 -1.1759
 6982SOL     OW32578   3.283   2.466   5.057  0.5558  0.2635  0.3367
 6982SOL    HW132579   3.255   2.399   5.120 -0.6381  0.7221  0.2931
 6982SOL    HW232580   3.231   2.437   4.982 -0.9508  0.3466  1.3398
 6983SOL     OW32581   3.998   2.813   3.045 -0.5900  0.6212 -0.2524
 6983SOL    HW132582   3.972   2.721   3.042 -0.9503  0.6454  2.0230
 6983SOL    HW232583   4.010   2.830   2.951  1.4767 -0.5383 -0.1925
 6984SOL     OW32584   2.206   3.954   1.108  0.1402 -0.3870 -0.2265
 6984SOL    HW132585   2.235   4.028   1.055 -3.1792  0.5601 -0.7092
 6984SOL    HW232586   2.112   3.967   1.117  0.0961 -0.2912 -0.8583
 6985SOL     OW32587   3.967   2.939   3.840  0.1013  0.1816 -0.0095
 6985SOL    HW132588   3.957   2.889   3.759  1.9446  0.2052 -0.2556
 6985SOL    HW232589   3.883   2.986   3.843 -0.6527 -1.1803  0.4266
 6986SOL     OW32590   4.245   3.244   5.912 -0.3121  0.0021  0.0457
 6986SOL    HW132591   4.285   3.328   5.890  2.0142 -0.8730  0.9165
 6986SOL    HW232592   4.324   3.190   5.907 -0.7098 -0.6597  0.9761
 6987SOL     OW32593   2.101   1.200   5.954  0.4385  0.5836  0.4350
 6987SOL    HW132594   2.192   1.224   5.936  0.0683  1.7957  0.1922
 6987SOL    HW232595   2.118   1.124   6.009  1.4967  1.4209  1.2711
 6988SOL     OW32596   2.935   1.191   2.659 -0.3253  0.1553 -0.6186
 6988SOL    HW132597   2.907   1.243   2.735 -1.8668  0.3077 -1.2821
 6988SOL    HW232598   2.861   1.132   2.647 -0.4669  0.5955 -1.9920
 6989SOL     OW32599   0.896   3.684  11.703 -0.1377 -0.4019 -0.0695
 6989SOL    HW132600   0.821   3.626  11.693  0.4515 -0.8079 -2.1887
 6989SOL    HW232601   0.858   3.748  11.764  1.3778  0.8988 -0.4641
 6990SOL     OW32602   1.280   3.386   6.590 -0.3154  0.2077 -0.4322
 6990SOL    HW132603   1.374   3.380   6.602 -0.4562 -1.2018 -0.0445
 6990SOL    HW232604   1.274   3.444   6.514  1.8105  0.1877 -0.6003
 6991SOL     OW32605   0.975   2.749  11.000  0.2782 -0.2865  0.1495
 6991SOL    HW132606   1.063   2.725  10.972  0.5714  1.3597 -0.3844
 6991SOL    HW232607   0.926   2.675  10.963  0.3716 -1.3714  2.2100
 6992SOL     OW32608   3.465   4.057   7.311 -0.4727 -0.0014 -0.0834
 6992SOL    HW132609   3.424   3.999   7.247 -0.8293  0.2619 -0.0917
 6992SOL    HW232610   3.428   4.019   7.390  1.6813 -1.4108  0.2505
 6993SOL     OW32611   0.281   2.485  13.940  0.3613 -0.3302  0.2354
 6993SOL    HW132612   0.215   2.437  13.889  1.2147 -1.0794 -0.1703
 6993SOL    HW232613   0.254   2.446  14.023  0.2141 -2.0376 -0.5992
 6994SOL     OW32614   1.201   3.221   3.667 -0.2382 -0.0025  0.2615
 6994SOL    HW132615   1.206   3.275   3.746  1.4880 -0.5105  0.4927
 6994SOL    HW232616   1.106   3.210   3.658 -0.4003  1.7161 -0.1508
 6995SOL     OW32617   3.960   3.800   3.922 -0.2589 -0.4955  0.0710
 6995SOL    HW132618   4.016   3.858   3.973  0.8249 -1.0877 -0.4610
 6995SOL    HW232619   4.002   3.804   3.836 -1.2451  1.7036 -0.3146
 6996SOL     OW32620   1.455   4.405   8.785  0.5321 -0.9118 -0.4074
 6996SOL    HW132621   1.403   4.344   8.838 -0.4203  1.1907  1.0366
 6996SOL    HW232622   1.543   4.376   8.808  0.2886 -2.4101 -1.3171
 6997SOL     OW32623   4.629   0.820   9.974  0.0632 -0.0721 -0.4475
 6997SOL    HW132624   4.578   0.842   9.896  1.1792 -0.0845 -1.1844
 6997SOL    HW232625   4.599   0.735  10.006 -1.5389  0.6770  0.0387
 6998SOL     OW32626   4.392   3.626   2.468 -0.5112 -0.2507 -0.4877
 6998SOL    HW132627   4.411   3.621   2.562 -1.0022 -1.0932 -0.4378
 6998SOL    HW232628   4.345   3.709   2.458  3.5440  2.3413  1.5944
 6999SOL     OW32629   0.667   2.326   7.259 -0.0469 -0.8920  0.8641
 6999SOL    HW132630   0.751   2.282   7.251 -0.8783 -1.8749 -2.3088
 6999SOL    HW232631   0.616   2.289   7.187 -0.0807  0.7552  0.0433
 7000SOL     OW32632   1.851   1.283  12.397  0.3010 -0.4076  0.5228
 7000SOL    HW132633   1.823   1.359  12.448 -1.8641  0.5105 -2.0425
 7000SOL    HW232634   1.945   1.298  12.382 -0.3334  2.8860 -0.1074
 7001SOL     OW32635   4.182   1.747   7.929 -0.1011 -0.2229  0.1290
 7001SOL    HW132636   4.152   1.748   7.838 -0.5381  3.0519  0.3332
 7001SOL    HW232637   4.162   1.831   7.970 -0.8830 -0.3840  0.0796
 7002SOL     OW32638   0.725   3.010   3.655  0.5011 -0.6585 -0.2352
 7002SOL    HW132639   0.662   3.080   3.672  0.6920 -0.5741  0.1244
 7002SOL    HW232640   0.710   3.000   3.561  1.4158  0.7504 -0.5318
 7003SOL     OW32641   3.956   1.647   8.419  0.4673  0.0859  0.0926
 7003SOL    HW132642   3.946   1.715   8.485 -0.5685  0.0292  0.0012
 7003SOL    HW232643   4.008   1.695   8.355  0.6277 -2.3452 -1.6109
 7004SOL     OW32644   2.645   2.369   6.485  0.0927 -0.6429  0.6636
 7004SOL    HW132645   2.619   2.454   6.521  1.4257 -1.2045  2.9358
 7004SOL    HW232646   2.700   2.333   6.554 -0.3627  0.3937  1.5599
 7005SOL     OW32647   1.384   3.030   7.835 -0.6262  0.2670  0.4548
 7005SOL    HW132648   1.361   3.101   7.894 -0.6351  0.4862  0.1846
 7005SOL    HW232649   1.335   3.049   7.756  2.4261 -1.0335 -1.7392
 7006SOL     OW32650   0.712   3.479   6.247  0.5596 -0.2646  0.3867
 7006SOL    HW132651   0.662   3.432   6.314 -1.2782  1.5787  0.3129
 7006SOL    HW232652   0.694   3.425   6.170  1.6592 -0.8475  0.5386
 7007SOL     OW32653   0.101   1.927   8.529 -0.1163 -0.0588  0.5895
 7007SOL    HW132654   0.169   1.869   8.564 -0.3937 -0.8888 -0.2531
 7007SOL    HW232655   0.103   1.896   8.438  0.6479 -2.3953  1.4087
 7008SOL     OW32656   0.962   3.093  10.985 -0.0361  0.3968  0.3420
 7008SOL    HW132657   1.025   3.160  10.960 -0.6664  0.3315 -1.4761
 7008SOL    HW232658   1.008   3.009  10.981  0.0465  0.5372 -2.0868
 7009SOL     OW32659   2.698   1.605   2.562 -0.5782 -0.3685  0.1562
 7009SOL    HW132660   2.727   1.532   2.507 -1.3789 -1.8252  1.6903
 7009SOL    HW232661   2.715   1.681   2.506  1.7114 -0.7373  0.3433
 7010SOL     OW32662   3.332   1.792   3.176  0.1111  0.3364  0.5527
 7010SOL    HW132663   3.258   1.780   3.236  0.7961 -2.7898  0.7744
 7010SOL    HW232664   3.389   1.723   3.212 -0.3670  0.2940  1.2290
 7011SOL     OW32665   0.340   4.314   5.143  0.1520 -0.8009 -0.0838
 7011SOL    HW132666   0.307   4.369   5.214 -0.9518 -0.3109 -0.9806
 7011SOL    HW232667   0.401   4.257   5.190  2.6377  0.2704 -1.9807
 7012SOL     OW32668   3.450   2.811   0.247  0.5270 -0.2899  0.1226
 7012SOL    HW132669   3.529   2.755   0.246  0.2880 -0.6304  0.3304
 7012SOL    HW232670   3.385   2.742   0.234 -1.0361  0.8134  2.1701
 7013SOL     OW32671   3.782   1.223  11.511  0.1265 -0.4245 -0.3248
 7013SOL    HW132672   3.866   1.230  11.465  0.1698  1.2335 -0.0269
 7013SOL    HW232673   3.723   1.281  11.462 -0.1436  0.5938  1.1904
 7014SOL     OW32674   0.359   3.420   5.262  0.9367 -0.3539 -0.0882
 7014SOL    HW132675   0.421   3.400   5.192  1.8380 -2.0139  1.1956
 7014SOL    HW232676   0.396   3.497   5.306  0.4175  1.5740 -2.9644
 7015SOL     OW32677   1.035   2.741   5.009 -0.1233 -0.2480  0.1970
 7015SOL    HW132678   1.041   2.645   5.000  1.5598 -0.3228  2.1780
 7015SOL    HW232679   1.007   2.777   4.925  0.6149 -1.3093 -0.5150
 7016SOL     OW32680   0.614   3.708   2.821  0.1436 -0.2119  0.7274
 7016SOL    HW132681   0.586   3.793   2.788  0.5125  0.1964  1.4671
 7016SOL    HW232682   0.532   3.660   2.831  0.2077 -0.2096  1.2747
 7017SOL     OW32683   3.998   0.640   3.229 -0.4599  0.2382  0.8684
 7017SOL    HW132684   4.005   0.677   3.318  1.8956  2.3715 -0.1975
 7017SOL    HW232685   3.975   0.720   3.181  1.5206  0.0943 -0.3028
 7018SOL     OW32686   1.303   3.271   5.405  0.5468 -0.0653 -0.8137
 7018SOL    HW132687   1.303   3.176   5.416 -2.9394 -0.1624 -1.6653
 7018SOL    HW232688   1.393   3.298   5.383  0.4571 -1.1088 -2.4057
 7019SOL     OW32689   1.355   0.716   7.453 -0.3046 -0.0253  0.0909
 7019SOL    HW132690   1.282   0.676   7.406  1.1367  0.7184 -2.7700
 7019SOL    HW232691   1.378   0.642   7.510 -2.3045 -0.5476  0.1959
 7020SOL     OW32692   1.578   1.140   9.343  0.1158 -0.6561  0.2995
 7020SOL    HW132693   1.546   1.133   9.253 -0.6034  0.2327  0.4842
 7020SOL    HW232694   1.557   1.059   9.389  0.3412 -1.7041 -1.4384
 7021SOL     OW32695   4.653   3.307   1.043 -0.1812  0.3704 -0.4769
 7021SOL    HW132696   4.626   3.286   1.133  1.0913  1.0385  0.0645
 7021SOL    HW232697   0.008   3.291   1.050 -0.1527  0.8905  0.4138
 7022SOL     OW32698   0.101   1.480   5.673 -0.2209  0.5356  0.3791
 7022SOL    HW132699   0.076   1.474   5.581 -1.1299  1.4164  0.5748
 7022SOL    HW232700   0.193   1.507   5.674 -0.3973  1.1407  0.0423
 7023SOL     OW32701   0.394   0.647  12.350  0.2634 -0.6010  1.0382
 7023SOL    HW132702   0.438   0.586  12.409  1.9730  0.1305  0.5032
 7023SOL    HW232703   0.377   0.596  12.271  3.4718 -1.7428  1.0712
 7024SOL     OW32704   3.929   4.690   3.453 -0.1643  0.1551 -0.1012
 7024SOL    HW132705   3.994   4.645   3.506  0.8463  1.9115  0.1713
 7024SOL    HW232706   3.856   4.675   3.512 -0.5504  0.5705 -0.4704
 7025SOL     OW32707   0.501   4.000   5.364  0.2478  0.6494 -0.0365
 7025SOL    HW132708   0.582   3.952   5.346 -0.3946 -0.5698  0.2801
 7025SOL    HW232709   0.435   3.960   5.307  0.5395  0.0164  0.0599
 7026SOL     OW32710   1.588   1.894   7.593  0.2310  0.0081 -0.1018
 7026SOL    HW132711   1.551   1.945   7.520  0.1246  1.3805  0.9061
 7026SOL    HW232712   1.646   1.959   7.635  0.5471  1.5341 -2.8472
 7027SOL     OW32713   1.167   0.006  10.128 -0.1973  0.1851  0.0843
 7027SOL    HW132714   1.197   4.657  10.106  1.1138  0.4446  0.8497
 7027SOL    HW232715   1.228   0.061  10.079  0.0477  0.5919  0.8500
 7028SOL     OW32716   4.167   3.946   6.467  0.5043  0.0865  0.0334
 7028SOL    HW132717   4.101   3.978   6.406 -2.0161 -1.8398  1.7379
 7028SOL    HW232718   4.171   4.007   6.540  0.1295  2.1522 -1.6869
 7029SOL     OW32719   4.678   1.952   2.611 -0.1554 -0.2922 -0.0899
 7029SOL    HW132720   0.020   1.907   2.586 -0.7716 -2.3994  1.7653
 7029SOL    HW232721   4.602   1.904   2.577  2.2811 -2.7334 -2.0734
 7030SOL     OW32722   2.755   0.355   6.035  0.1502  0.0898 -0.0012
 7030SOL    HW132723   2.673   0.367   6.081 -0.6812  0.8339 -1.6733
 7030SOL    HW232724   2.775   0.261   6.044 -1.9740 -0.6733 -3.1274
 7031SOL     OW32725   1.160   2.833   5.217 -0.8774  0.2037 -0.1925
 7031SOL    HW132726   1.142   2.926   5.208  3.0110  0.7887 -1.7339
 7031SOL    HW232727   1.103   2.796   5.149  2.0160 -2.6890 -1.0242
 7032SOL     OW32728   1.451   4.364  12.443  0.5362 -0.3584 -0.1930
 7032SOL    HW132729   1.462   4.276  12.478  2.7516  0.6859  1.7395
 7032SOL    HW232730   1.528   4.378  12.387  0.9388  0.4304  0.5442
 7033SOL     OW32731   2.300   0.102   8.316 -0.5811  0.2263 -1.2725
 7033SOL    HW132732   2.235   0.072   8.378  1.9126 -0.8347  0.8290
 7033SOL    HW232733   2.356   0.025   8.305  0.6116  0.8826  0.2696
 7034SOL     OW32734   2.526   0.451   6.144  0.2031  0.0509  0.0106
 7034SOL    HW132735   2.434   0.476   6.137  0.0424 -0.7244 -0.6042
 7034SOL    HW232736   2.503   0.359   6.132  0.3657 -0.0645  0.5997
 7035SOL     OW32737   4.166   0.385   5.898  0.0017 -0.2165  0.2169
 7035SOL    HW132738   4.202   0.462   5.942  0.5626 -0.8328  0.8263
 7035SOL    HW232739   4.221   0.309   5.918  0.7279 -0.1636 -1.5461
 7036SOL     OW32740   1.270   2.255   7.187 -0.4581 -0.4287  0.0907
 7036SOL    HW132741   1.178   2.257   7.213 -0.2745 -2.6460  0.9211
 7036SOL    HW232742   1.310   2.174   7.220  1.5844  0.7452  0.4820
 7037SOL     OW32743   4.686   1.104   7.015  0.6950  0.6987 -0.2461
 7037SOL    HW132744   4.619   1.050   7.057  1.5717 -0.6712 -0.6082
 7037SOL    HW232745   4.686   1.187   7.062 -0.3772 -0.3256  1.5439
 7038SOL     OW32746   1.077   2.818   5.497  0.3635  0.0985 -0.2168
 7038SOL    HW132747   1.072   2.734   5.543  0.1104  0.4393  0.3802
 7038SOL    HW232748   1.103   2.788   5.410  2.6655  3.7100 -0.7840
 7039SOL     OW32749   2.987   1.628  15.863  0.2635 -0.0606 -0.5268
 7039SOL    HW132750   2.993   1.639  15.768  0.0869 -0.0672 -0.5397
 7039SOL    HW232751   3.003   1.719  15.890 -0.6290  0.6647 -2.4369
 7040SOL     OW32752   2.564   3.668   2.763 -0.2209  0.4773  0.1853
 7040SOL    HW132753   2.648   3.676   2.809 -1.0924  0.3761  1.7887
 7040SOL    HW232754   2.539   3.757   2.739  2.7175  0.9985 -1.0093
 7041SOL     OW32755   1.400   3.011   5.388 -0.3536  0.4052 -0.4875
 7041SOL    HW132756   1.493   3.033   5.374 -0.9058  2.2244 -1.3232
 7041SOL    HW232757   1.389   2.929   5.340  2.3465 -0.7751  0.8859
 7042SOL     OW32758   3.522   1.026   2.794 -0.2981  0.2170  0.1949
 7042SOL    HW132759   3.445   0.970   2.806 -1.0285  1.2008  0.0510
 7042SOL    HW232760   3.585   0.956   2.779  1.3646  2.1372 -1.7187
 7043SOL     OW32761   1.069   4.028   5.838 -0.4549  0.0911  0.0555
 7043SOL    HW132762   1.135   3.987   5.782 -0.1684  0.0615  0.4098
 7043SOL    HW232763   1.064   3.967   5.912  3.9452 -2.9333 -2.1417
 7044SOL     OW32764   0.990   0.712   8.608 -0.4412 -0.3989  0.6187
 7044SOL    HW132765   0.968   0.622   8.584 -0.6847 -0.8629  2.6100
 7044SOL    HW232766   0.970   0.702   8.701  0.9194 -0.8595  0.8618
 7045SOL     OW32767   1.417   2.153   3.241  0.5318 -0.2591 -0.2603
 7045SOL    HW132768   1.473   2.175   3.315 -0.7220  1.4128  0.1860
 7045SOL    HW232769   1.458   2.212   3.177  0.1619  2.3280  1.8955
 7046SOL     OW32770   0.284   3.541   6.043  0.3488  0.2733  0.4524
 7046SOL    HW132771   0.272   3.586   5.960  2.0833  0.3178  0.2192
 7046SOL    HW232772   0.201   3.575   6.075 -0.1125 -1.3762  1.0386
 7047SOL     OW32773   3.354   0.900   5.014 -0.5583  0.3627  0.0674
 7047SOL    HW132774   3.448   0.895   4.992  0.4622  2.3425  4.0520
 7047SOL    HW232775   3.323   0.822   4.968 -2.2268 -0.6759  2.9854
 7048SOL     OW32776   2.438   0.342  11.908 -0.5269 -0.1547  0.0069
 7048SOL    HW132777   2.435   0.249  11.931 -2.7881 -0.0466  0.1506
 7048SOL    HW232778   2.351   0.371  11.934 -0.6848 -0.0545 -0.6356
 7049SOL     OW32779   1.313   0.002   3.769 -0.1217  0.7178 -0.2532
 7049SOL    HW132780   1.294   0.094   3.749 -0.1380  0.6554 -0.5279
 7049SOL    HW232781   1.382   0.007   3.834  0.1521  2.2907 -0.6752
 7050SOL     OW32782   0.026   2.573  16.176  0.4881  0.6585 -0.2516
 7050SOL    HW132783   4.728   2.608  16.257  0.3130 -0.1552  0.0109
 7050SOL    HW232784   0.100   2.524  16.210 -0.1574  0.4471  0.8448
 7051SOL     OW32785   1.527   2.649   6.001  0.3208 -0.0491  0.1651
 7051SOL    HW132786   1.472   2.706   6.054 -0.2778  0.9025 -1.4829
 7051SOL    HW232787   1.527   2.692   5.915 -2.0166 -0.6006 -0.1021
 7052SOL     OW32788   1.483   1.202   5.985  0.0719  0.3730 -0.0147
 7052SOL    HW132789   1.572   1.235   5.984 -0.6768  2.3564 -0.1925
 7052SOL    HW232790   1.508   1.110   5.999 -1.1417  0.0291 -0.0655
 7053SOL     OW32791   2.458   1.722  16.310 -0.1270  0.3784 -0.2173
 7053SOL    HW132792   2.450   1.725  16.215  1.0387 -1.0955 -0.3658
 7053SOL    HW232793   2.441   1.812  16.338  0.4271  0.2816  0.4433
 7054SOL     OW32794   0.943   1.472   5.476 -0.2766 -0.1859  0.2534
 7054SOL    HW132795   1.007   1.467   5.547  1.5915  2.0192 -1.2942
 7054SOL    HW232796   0.984   1.401   5.426 -0.0473  0.6152 -0.6979
 7055SOL     OW32797   3.150   1.456   0.412 -0.0577 -0.2473 -0.5029
 7055SOL    HW132798   3.093   1.415   0.348  0.9740 -1.7656 -0.4459
 7055SOL    HW232799   3.188   1.529   0.362 -0.8441 -0.2855 -1.1501
 7056SOL     OW32800   3.394   2.454   8.345 -0.6944  0.6499  0.0780
 7056SOL    HW132801   3.471   2.398   8.349 -0.4321  0.9974 -0.0481
 7056SOL    HW232802   3.347   2.425   8.267  0.4513 -0.8636 -0.0421
 7057SOL     OW32803   4.156   2.965  10.437 -0.1454 -0.3360  0.1653
 7057SOL    HW132804   4.137   3.009  10.354  1.4946  0.2557  0.1036
 7057SOL    HW232805   4.085   3.012  10.481 -0.2798  1.8617 -2.3864
 7058SOL     OW32806   0.804   1.336   7.697  0.1032  0.2192 -0.2405
 7058SOL    HW132807   0.768   1.366   7.780  1.9394  0.7377  0.3687
 7058SOL    HW232808   0.897   1.355   7.712  0.3013 -1.1720  0.2211
 7059SOL     OW32809   1.015   3.758   0.915 -0.1069  0.3750 -0.3914
 7059SOL    HW132810   0.970   3.791   0.837 -0.7089 -0.2463 -0.3007
 7059SOL    HW232811   1.098   3.727   0.877 -0.9013 -0.1728 -1.6783
 7060SOL     OW32812   2.715   1.363   7.737 -0.4996  0.1249 -0.0315
 7060SOL    HW132813   2.639   1.409   7.775  0.2907 -0.8735  2.6857
 7060SOL    HW232814   2.664   1.296   7.692 -0.0239  0.0521 -0.4560
 7061SOL     OW32815   3.310   3.636   5.724 -0.5703 -0.1584 -1.0623
 7061SOL    HW132816   3.317   3.727   5.752  1.4957 -0.2915 -1.1968
 7061SOL    HW232817   3.348   3.581   5.793 -0.3658  1.9957  0.5202
 7062SOL     OW32818   3.103   1.752  11.464 -0.5055  0.2094 -0.5224
 7062SOL    HW132819   3.150   1.672  11.438  0.4535 -0.1435  2.3069
 7062SOL    HW232820   3.172   1.810  11.495 -0.0503 -1.3854  1.4466
 7063SOL     OW32821   2.632   3.722   4.412 -0.2083 -0.0119  0.0766
 7063SOL    HW132822   2.688   3.690   4.341 -0.9725 -0.1059 -0.4747
 7063SOL    HW232823   2.619   3.644   4.466 -0.7964  1.5137  2.1316
 7064SOL     OW32824   1.542   3.043   7.117  0.0201  0.4657 -0.1367
 7064SOL    HW132825   1.473   3.070   7.178  2.3548  1.8349  1.9153
 7064SOL    HW232826   1.491   3.012   7.042  0.9808 -1.2894 -0.0620
 7065SOL     OW32827   1.769   4.602   1.389  0.5219 -0.0019  0.0298
 7065SOL    HW132828   1.738   4.579   1.476 -0.6378  0.7595 -0.1742
 7065SOL    HW232829   1.805   4.688   1.411 -0.9735  0.5338  0.4359
 7066SOL     OW32830   0.921   1.431   7.946 -0.0296 -0.1321  0.4713
 7066SOL    HW132831   0.995   1.379   7.916 -0.1788  1.5345 -2.7469
 7066SOL    HW232832   0.907   1.392   8.032 -0.7373  1.4900  1.0929
 7067SOL     OW32833   3.425   0.019   1.905 -0.0622 -0.4008 -0.7615
 7067SOL    HW132834   3.367   4.717   1.971  0.6459  0.9680  0.7186
 7067SOL    HW232835   3.419   0.115   1.905  0.7682 -0.3593 -1.7234
 7068SOL     OW32836   1.048   0.103   5.318  0.1336  0.1613  0.5800
 7068SOL    HW132837   1.081   0.183   5.360 -1.4942  2.2597 -2.1388
 7068SOL    HW232838   0.977   0.078   5.377 -0.2006  1.6606  0.8173
 7069SOL     OW32839   1.563   3.494   4.620  0.0353  0.0353 -0.1614
 7069SOL    HW132840   1.635   3.508   4.558 -0.1816  0.1023 -0.4017
 7069SOL    HW232841   1.582   3.405   4.649 -1.9173 -0.7453 -1.2452
 7070SOL     OW32842   4.612   4.628   8.545  0.3533  0.1955  0.1778
 7070SOL    HW132843   4.622   4.721   8.565 -0.8210  0.6243 -1.1960
 7070SOL    HW232844   4.623   4.627   8.450 -3.1353  0.2118 -0.2235
 7071SOL     OW32845   3.559   2.161   1.970  0.2194  0.4541 -0.1895
 7071SOL    HW132846   3.540   2.234   2.029  0.8876  0.7887 -0.3847
 7071SOL    HW232847   3.646   2.128   1.992  0.6067  1.5337 -0.0909
 7072SOL     OW32848   2.234   0.053   6.197 -0.1566 -0.0200 -0.1799
 7072SOL    HW132849   2.205   0.108   6.124  0.0202 -0.3008 -0.4635
 7072SOL    HW232850   2.156   0.017   6.239 -0.0907  0.4356  0.3286
 7073SOL     OW32851   2.926   4.642  11.475 -0.0986 -0.0960  0.2705
 7073SOL    HW132852   2.937   4.681  11.562 -0.5638  1.7678 -0.5072
 7073SOL    HW232853   2.837   4.614  11.497 -0.7043 -0.4189 -2.6605
 7074SOL     OW32854   1.250   4.269   4.656 -0.1384 -0.4097  0.0548
 7074SOL    HW132855   1.227   4.357   4.684 -2.1474 -0.9362  0.0449
 7074SOL    HW232856   1.276   4.224   4.737  1.7800 -2.3530 -1.6297
 7075SOL     OW32857   0.234   1.655   4.400 -0.3649  0.1743  0.5534
 7075SOL    HW132858   0.186   1.701   4.469 -0.0592 -1.5071  1.8697
 7075SOL    HW232859   0.307   1.623   4.451  0.2701  0.1897 -0.3464
 7076SOL     OW32860   1.128   0.856   2.975  0.1582 -0.7204  0.4098
 7076SOL    HW132861   1.084   0.804   2.908  0.4921  1.9114 -1.8555
 7076SOL    HW232862   1.056   0.872   3.035  1.6193 -2.1295  2.5412
 7077SOL     OW32863   1.149   0.495   6.546 -0.0229 -0.7399 -0.2806
 7077SOL    HW132864   1.120   0.563   6.606  3.3797  1.5604 -1.2667
 7077SOL    HW232865   1.068   0.452   6.517  1.7331 -2.7463 -2.1829
 7078SOL     OW32866   1.952   1.565   1.081  0.7646 -0.3990  0.4025
 7078SOL    HW132867   2.022   1.560   1.148 -0.8071  2.3428  2.2421
 7078SOL    HW232868   1.879   1.557   1.142  0.7391  0.3390  0.4667
 7079SOL     OW32869   2.169   3.240   3.945 -0.2039 -0.0189 -0.3658
 7079SOL    HW132870   2.100   3.291   3.987  2.3306  3.3513 -0.2843
 7079SOL    HW232871   2.112   3.169   3.916 -1.4793  0.5635  0.6870
 7080SOL     OW32872   4.276   3.285   2.298  0.1988 -0.0392 -0.6387
 7080SOL    HW132873   4.316   3.232   2.367 -2.0319 -0.9394 -0.0327
 7080SOL    HW232874   4.304   3.248   2.214  1.5988 -0.3880 -0.0091
 7081SOL     OW32875   3.490   3.181   2.396  0.1357  0.4476 -0.1075
 7081SOL    HW132876   3.398   3.203   2.376 -0.1817 -0.8665 -0.0780
 7081SOL    HW232877   3.519   3.182   2.305 -0.1559  0.1606 -0.2039
 7082SOL     OW32878   2.856   3.831  17.226  0.1419 -0.1824 -0.6857
 7082SOL    HW132879   2.786   3.823  17.162 -0.8532 -0.7179  0.4763
 7082SOL    HW232880   2.833   3.768  17.295  3.2563 -0.2292  0.3146
 7083SOL     OW32881   4.274   2.756   6.166 -0.2207  0.2785  0.7155
 7083SOL    HW132882   4.300   2.696   6.235  0.0794 -0.6658 -0.2271
 7083SOL    HW232883   4.185   2.727   6.146 -0.4420  0.9627  0.6998
 7084SOL     OW32884   4.015   4.403   3.218 -0.4337 -0.7296  0.0503
 7084SOL    HW132885   4.041   4.398   3.309  1.8635 -0.9479 -0.6124
 7084SOL    HW232886   4.022   4.309   3.199 -3.3885 -1.4045  2.3168
 7085SOL     OW32887   3.813   0.884  15.000  0.4051 -0.0322 -0.7139
 7085SOL    HW132888   3.849   0.812  14.949  0.3102 -0.7648  0.2665
 7085SOL    HW232889   3.739   0.833  15.033 -1.5861  1.8328 -2.2965
 7086SOL     OW32890   3.738   2.313  14.942 -0.2896 -0.1043 -0.1296
 7086SOL    HW132891   3.657   2.273  14.973 -0.3042 -1.5248 -2.0004
 7086SOL    HW232892   3.719   2.354  14.858  0.9661 -1.1454 -0.9194
 7087SOL     OW32893   3.452   2.359   2.122 -0.4344 -0.0752 -0.0350
 7087SOL    HW132894   3.451   2.429   2.188  0.9597 -1.4242  1.4288
 7087SOL    HW232895   3.358   2.340   2.115 -0.3419 -0.7536  0.5331
 7088SOL     OW32896   1.264   0.245  11.263  0.0387  0.6599  0.0336
 7088SOL    HW132897   1.343   0.193  11.274  0.7645  1.6359 -0.4645
 7088SOL    HW232898   1.273   0.266  11.170  0.8898 -0.8915 -0.2177
 7089SOL     OW32899   2.138   1.205   8.928  0.3997  0.3139  0.6666
 7089SOL    HW132900   2.222   1.170   8.899  0.3847  0.8050  0.0291
 7089SOL    HW232901   2.117   1.160   9.009  0.4700  1.1362  1.1462
 7090SOL     OW32902   1.540   4.490   4.635  0.2285 -0.1850  0.2582
 7090SOL    HW132903   1.616   4.511   4.690  1.1914 -2.6651 -0.1472
 7090SOL    HW232904   1.518   4.401   4.664 -1.2118 -0.1644 -0.8026
 7091SOL     OW32905   0.247   3.974   7.969  0.1461  0.4041 -0.2214
 7091SOL    HW132906   0.255   4.069   7.955  2.1391  0.0009 -1.9184
 7091SOL    HW232907   0.281   3.932   7.890 -1.5798  0.2683 -0.8776
 7092SOL     OW32908   4.080   3.893  13.952  0.0404  0.4771 -0.3417
 7092SOL    HW132909   4.172   3.896  13.979 -0.4042  2.3222  0.9419
 7092SOL    HW232910   4.083   3.847  13.868  1.0348  1.4682 -0.8549
 7093SOL     OW32911   0.384   1.007   7.911  0.0049  0.5376  0.3666
 7093SOL    HW132912   0.356   0.918   7.894  0.3608  0.5752 -0.4230
 7093SOL    HW232913   0.332   1.030   7.988  1.6798 -2.4244  2.3897
 7094SOL     OW32914   2.957   3.330   0.082  0.3242  0.1624 -0.1651
 7094SOL    HW132915   3.026   3.326   0.148 -1.4597 -2.3850  1.5503
 7094SOL    HW232916   2.995   3.303  17.751  0.7888 -0.8581  0.3823
 7095SOL     OW32917   2.272   0.537   4.347 -0.1486 -0.7901 -0.2108
 7095SOL    HW132918   2.211   0.604   4.375  2.0117  0.4563  1.5192
 7095SOL    HW232919   2.217   0.498   4.278  0.3208  0.3615 -1.2409
 7096SOL     OW32920   0.193   2.288   8.052  0.2598  0.2414 -0.3691
 7096SOL    HW132921   0.101   2.310   8.061  0.6834  1.6330  0.6173
 7096SOL    HW232922   0.211   2.247   8.137  0.2863 -0.5114 -0.7321
 7097SOL     OW32923   4.377   3.002   8.690 -0.7130  0.0307  0.4292
 7097SOL    HW132924   4.324   3.082   8.680 -0.4210 -0.1135 -2.4957
 7097SOL    HW232925   4.385   2.994   8.785  2.3094 -2.1659 -0.0319
 7098SOL     OW32926   1.864   3.127   3.221  0.3109  0.4670 -0.3579
 7098SOL    HW132927   1.937   3.120   3.159 -0.1842 -1.5762 -0.7217
 7098SOL    HW232928   1.852   3.034   3.242  3.6628  0.1852  0.2834
 7099SOL     OW32929   0.433   2.052   5.735 -0.1159  0.0923 -0.3283
 7099SOL    HW132930   0.429   2.064   5.830  1.8641  1.6341 -0.4460
 7099SOL    HW232931   0.525   2.075   5.727 -0.0518 -0.6578 -1.5613
 7100SOL     OW32932   2.577   0.120  11.209  0.0267 -0.2107 -0.2535
 7100SOL    HW132933   2.532   0.094  11.128 -2.8121 -1.2751  1.6475
 7100SOL    HW232934   2.586   0.036  11.254 -1.4337 -0.7828 -1.0062
 7101SOL     OW32935   4.578   3.141   8.993 -0.5259  0.3773  0.3051
 7101SOL    HW132936   4.537   3.183   8.917  2.6942 -1.7099 -2.5883
 7101SOL    HW232937   4.557   3.202   9.064 -0.0049  0.3034  0.5209
 7102SOL     OW32938   4.148   0.917  16.756  0.3129  0.5480 -0.4152
 7102SOL    HW132939   4.228   0.929  16.706  1.0272  0.2113  0.6415
 7102SOL    HW232940   4.116   1.007  16.767 -1.9794 -0.2804 -0.3004
 7103SOL     OW32941   2.329   1.329   5.392  0.2577  0.0180 -0.0586
 7103SOL    HW132942   2.281   1.262   5.343 -1.0671  0.5404  0.5282
 7103SOL    HW232943   2.420   1.303   5.377  0.1824 -0.1986 -0.1422
 7104SOL     OW32944   2.844   1.917   8.639  0.3064  0.3247 -0.1185
 7104SOL    HW132945   2.815   1.928   8.549 -1.9712 -1.3362  0.4066
 7104SOL    HW232946   2.764   1.909   8.691  0.8720 -0.1752  0.6844
 7105SOL     OW32947   1.412   4.426  11.859  0.2083  0.3721  0.2463
 7105SOL    HW132948   1.481   4.404  11.796 -1.2195 -0.7853 -0.9255
 7105SOL    HW232949   1.355   4.465  11.793  1.4791 -0.5026 -1.3780
 7106SOL     OW32950   4.310   1.126  14.276  0.0670  0.7252 -0.4986
 7106SOL    HW132951   4.327   1.220  14.279 -1.1062  0.9168  0.3542
 7106SOL    HW232952   4.215   1.127  14.278  0.1134  1.9632  1.4060
 7107SOL     OW32953   4.514   2.446   4.579  0.6646 -0.2004  0.4066
 7107SOL    HW132954   4.427   2.484   4.566  0.4415 -0.3215  1.5686
 7107SOL    HW232955   4.506   2.370   4.636  0.3492  0.8401  1.7567
 7108SOL     OW32956   3.282   0.479  12.975 -0.6872 -0.2555 -0.9930
 7108SOL    HW132957   3.371   0.460  12.946 -0.3824 -2.1087  1.1045
 7108SOL    HW232958   3.260   0.552  12.917 -0.3607  1.0301  0.5054
 7109SOL     OW32959   4.383   1.751   3.440  0.2412  0.4097  0.2020
 7109SOL    HW132960   4.384   1.771   3.346  2.5057  0.2895  0.2216
 7109SOL    HW232961   4.325   1.819   3.475  0.4550  0.6160  0.1482
 7110SOL     OW32962   1.000   2.533   7.166  0.0381  0.3654 -0.1743
 7110SOL    HW132963   1.044   2.498   7.243  0.6773  0.1840 -0.6221
 7110SOL    HW232964   1.052   2.613   7.160 -0.5995  0.5670 -3.0828
 7111SOL     OW32965   2.876   4.540  15.305 -0.1203 -0.2467 -0.1561
 7111SOL    HW132966   2.869   4.448  15.332  0.7955 -0.6068 -1.1356
 7111SOL    HW232967   2.888   4.532  15.210  1.3592  0.6446 -0.0395
 7112SOL     OW32968   3.561   1.403  11.373  0.0097  0.5325 -0.2725
 7112SOL    HW132969   3.500   1.345  11.327 -1.5826  0.3569  2.0554
 7112SOL    HW232970   3.514   1.406  11.457  0.9075  3.1709  0.1238
 7113SOL     OW32971   2.116   3.362   8.317 -0.1101 -0.3494 -0.1425
 7113SOL    HW132972   2.059   3.432   8.286  0.8517 -0.1350 -1.4218
 7113SOL    HW232973   2.157   3.344   8.232  1.1994  0.3377  0.3381
 7114SOL     OW32974   0.195   2.359  14.178  0.8607  0.1421 -0.2613
 7114SOL    HW132975   0.162   2.271  14.196  2.2879 -0.5075 -0.8422
 7114SOL    HW232976   0.254   2.367  14.253  1.0020 -1.5356 -0.1967
 7115SOL     OW32977   4.616   3.210   5.486 -0.5777  0.0482 -0.3064
 7115SOL    HW132978   4.671   3.193   5.563  0.1765 -0.2845 -0.9193
 7115SOL    HW232979   4.691   3.225   5.429  0.2993  0.7134  1.0156
 7116SOL     OW32980   1.247   1.759   9.087 -0.4574 -1.2358  0.4775
 7116SOL    HW132981   1.166   1.717   9.118 -2.3155  3.0732  1.4955
 7116SOL    HW232982   1.241   1.840   9.137  0.4929 -0.1380 -1.1780
 7117SOL     OW32983   4.230   4.158   7.425 -0.3804  0.1855  0.4038
 7117SOL    HW132984   4.140   4.165   7.457 -1.4657  0.6898 -2.7638
 7117SOL    HW232985   4.265   4.239   7.462 -0.1077  0.4936 -0.5254
 7118SOL     OW32986   4.281   0.360   2.752 -1.1233  0.5401 -0.1574
 7118SOL    HW132987   4.375   0.355   2.768 -0.6269  0.7880 -2.8909
 7118SOL    HW232988   4.274   0.455   2.752  1.7934  0.7522  3.4237
 7119SOL     OW32989   2.432   3.112   8.915  0.2254  0.1784  0.1786
 7119SOL    HW132990   2.380   3.188   8.889 -3.3864 -2.3782 -0.0932
 7119SOL    HW232991   2.496   3.103   8.844  0.0792  1.1182 -0.0726
 7120SOL     OW32992   0.062   0.218   1.649 -0.2215  0.2586 -0.0313
 7120SOL    HW132993   0.145   0.176   1.672 -1.4434 -1.0856  1.9564
 7120SOL    HW232994   0.016   0.188   1.728  2.2286 -3.6051 -0.0799
 7121SOL     OW32995   4.092   3.210   1.937  0.2690  0.0114  0.4671
 7121SOL    HW132996   4.073   3.119   1.912 -0.1645 -0.1223  1.2659
 7121SOL    HW232997   4.181   3.228   1.907  0.0152 -0.3316 -0.5113
 7122SOL     OW32998   4.533   2.535  15.700  0.0032  0.2948 -0.6459
 7122SOL    HW132999   4.509   2.628  15.705 -0.4919  0.0139  2.0373
 7122SOL    HW233000   4.559   2.516  15.790 -3.6363  0.4361  0.4379
 7123SOL     OW33001   0.953   3.346  16.812  0.6253 -0.1439  0.6174
 7123SOL    HW133002   0.967   3.349  16.717 -1.1023 -1.8231  0.3231
 7123SOL    HW233003   1.037   3.360  16.855  1.1019  0.4616 -0.4873
 7124SOL     OW33004   2.414   2.013   1.973 -0.1906  0.6284 -0.0816
 7124SOL    HW133005   2.452   2.000   2.060  0.3317 -0.4307 -0.4642
 7124SOL    HW233006   2.493   2.020   1.920  0.8299 -0.6977  1.2725
 7125SOL     OW33007   3.064   1.075   6.684 -0.3161  0.2601  0.1365
 7125SOL    HW133008   2.969   1.063   6.690 -0.3937  0.9282  0.2767
 7125SOL    HW233009   3.079   1.083   6.590 -1.7493 -1.1683 -0.2107
 7126SOL     OW33010   3.263   2.243  14.507 -0.1731  0.4926 -0.1535
 7126SOL    HW133011   3.194   2.306  14.524 -0.7046 -0.8982  2.7607
 7126SOL    HW233012   3.213   2.175  14.461 -0.3789  1.1678 -0.9106
 7127SOL     OW33013   3.934   3.377   5.016  0.1342 -0.6958 -0.2488
 7127SOL    HW133014   3.969   3.311   5.077  1.1995 -1.1135 -1.3231
 7127SOL    HW233015   3.990   3.360   4.941 -0.4386 -0.6053 -0.7015
 7128SOL     OW33016   0.508   4.475   1.169 -0.6077 -0.0204  0.4931
 7128SOL    HW133017   0.529   4.425   1.090  1.5485  1.8128 -0.0809
 7128SOL    HW233018   0.434   4.423   1.202 -0.7034  1.0079  1.8862
 7129SOL     OW33019   1.032   3.891   2.168 -0.5777  0.0007 -0.1998
 7129SOL    HW133020   0.979   3.843   2.233 -0.0543 -0.1748  0.0959
 7129SOL    HW233021   0.996   3.980   2.168 -0.4797  0.0416  0.9318
 7130SOL     OW33022   4.477   2.235   3.838 -0.5335 -0.3419  0.5727
 7130SOL    HW133023   4.474   2.145   3.806  2.9058  0.3392 -1.6862
 7130SOL    HW233024   4.549   2.275   3.789 -0.8571 -0.0449  0.3373
 7131SOL     OW33025   3.572   3.796   6.963  0.1040 -0.3250  0.4286
 7131SOL    HW133026   3.630   3.747   6.904  1.8679 -0.1215  2.0177
 7131SOL    HW233027   3.572   3.879   6.914 -2.7603  2.0922  4.5991
 7132SOL     OW33028   4.401   4.493   5.044 -0.4127  0.2317  0.3037
 7132SOL    HW133029   4.320   4.544   5.033 -0.5816 -0.3148 -0.9411
 7132SOL    HW233030   4.366   4.405   5.027 -1.0858  0.0369  2.5727
 7133SOL     OW33031   2.305   2.987  14.928 -0.0552 -0.8214  0.0796
 7133SOL    HW133032   2.299   2.965  15.021 -0.1936 -1.8791 -0.1815
 7133SOL    HW233033   2.386   3.038  14.925 -1.0507  0.9133  2.5269
 7134SOL     OW33034   3.765   1.545  11.992 -0.1320  0.6126  0.2482
 7134SOL    HW133035   3.723   1.582  11.914 -0.2321 -3.3100 -1.5294
 7134SOL    HW233036   3.857   1.569  11.988 -0.2285  0.8409 -0.6527
 7135SOL     OW33037   4.220   0.461  13.479 -0.0874  0.3476  0.5827
 7135SOL    HW133038   4.195   0.394  13.543 -0.9197 -0.5165 -0.6500
 7135SOL    HW233039   4.164   0.528  13.517 -1.9724 -1.4886  1.0934
 7136SOL     OW33040   3.505   3.538   3.139  0.5255  0.1672 -0.3537
 7136SOL    HW133041   3.578   3.488   3.104 -0.0140 -1.7213  1.2107
 7136SOL    HW233042   3.448   3.518   3.065 -1.7323 -2.4227  2.0650
 7137SOL     OW33043   1.165   2.480   2.004 -0.5920  0.5458  0.2425
 7137SOL    HW133044   1.236   2.474   1.940  0.6937 -1.7077  1.8291
 7137SOL    HW233045   1.203   2.534   2.073  0.8539 -1.1619  0.7955
 7138SOL     OW33046   1.133   3.475   7.888  0.0700 -0.1342  0.4595
 7138SOL    HW133047   1.083   3.442   7.963 -1.7170  3.4989  0.8439
 7138SOL    HW233048   1.181   3.552   7.916  0.3225  0.5326 -1.7909
 7139SOL     OW33049   3.883   1.212   7.071  0.3261 -0.7199  0.1117
 7139SOL    HW133050   3.827   1.142   7.106  0.6034 -0.7478  0.5049
 7139SOL    HW233051   3.858   1.291   7.119  0.5808 -0.2517 -0.5390
 7140SOL     OW33052   2.028   1.864   6.087  0.4343 -0.1502 -0.0849
 7140SOL    HW133053   2.084   1.921   6.140  0.5083 -1.6348  1.4713
 7140SOL    HW233054   2.059   1.889   6.000  0.2540  4.0710  1.0966
 7141SOL     OW33055   3.347   2.673   3.355  0.1533 -0.8301  0.0580
 7141SOL    HW133056   3.264   2.652   3.397 -0.1881 -0.3759 -0.3884
 7141SOL    HW233057   3.408   2.658   3.428  1.3588  1.6804 -0.3997
 7142SOL     OW33058   0.966   3.915  15.840 -0.1704  0.3025  0.4277
 7142SOL    HW133059   0.971   3.820  15.823  1.8069  0.7683 -1.5919
 7142SOL    HW233060   0.902   3.912  15.911 -1.1031  0.2721 -0.4126
 7143SOL     OW33061   4.610   0.643   7.662 -0.0948 -0.3140  0.4811
 7143SOL    HW133062   4.692   0.613   7.623 -0.0916  0.7353 -0.3280
 7143SOL    HW233063   4.606   0.734   7.633  2.9699 -0.3241  0.0619
 7144SOL     OW33064   4.213   4.246   5.654  0.2932 -0.1113  0.3185
 7144SOL    HW133065   4.296   4.271   5.695 -0.5281 -1.3013  2.7151
 7144SOL    HW233066   4.228   4.265   5.562  1.9396 -0.7845  0.4489
 7145SOL     OW33067   2.254   2.612   8.330  0.5421  0.1295  0.0990
 7145SOL    HW133068   2.314   2.553   8.284 -2.6513 -1.0690 -2.5412
 7145SOL    HW233069   2.229   2.558   8.405  0.8470  0.3669  0.3725
 7146SOL     OW33070   0.150   1.989  13.535  0.0247  0.0721  1.0666
 7146SOL    HW133071   0.225   1.965  13.480  0.0855  2.7551  0.0059
 7146SOL    HW233072   0.085   1.919  13.524  0.0460  0.0329  1.1876
 7147SOL     OW33073   4.304   3.116   2.512 -0.1258 -0.4146  0.1343
 7147SOL    HW133074   4.293   3.023   2.492  0.3537 -0.6433  0.9772
 7147SOL    HW233075   4.217   3.138   2.546  0.9711  2.0441  1.3231
 7148SOL     OW33076   1.689   0.424   7.204  0.1924  0.4055 -0.4274
 7148SOL    HW133077   1.730   0.454   7.285  2.3773  0.0590 -1.4196
 7148SOL    HW233078   1.610   0.478   7.195  1.2986  2.2644  1.1581
 7149SOL     OW33079   1.491   1.018  11.664  0.1241 -0.0574  0.2781
 7149SOL    HW133080   1.568   1.063  11.630  0.6638 -1.1235  0.0655
 7149SOL    HW233081   1.509   0.929  11.631 -0.4812 -0.1077  0.0918
 7150SOL     OW33082   1.506   1.425   7.910 -0.1847 -0.2765  0.3619
 7150SOL    HW133083   1.602   1.418   7.910 -0.0921  0.9939  1.3540
 7150SOL    HW233084   1.491   1.508   7.865 -1.5998 -0.5392  0.3519
 7151SOL     OW33085   1.571   4.356  12.080 -0.2990 -0.1104 -0.2865
 7151SOL    HW133086   1.514   4.380  12.006 -0.6618  1.2264  0.4299
 7151SOL    HW233087   1.552   4.263  12.090  0.2544 -0.2221 -0.2650
 7152SOL     OW33088   1.296   3.982   2.530  0.0604  0.5284  0.1763
 7152SOL    HW133089   1.268   3.995   2.439 -1.2661  1.2511  0.6959
 7152SOL    HW233090   1.212   4.002   2.570 -0.7957 -0.9841 -0.8497
 7153SOL     OW33091   0.007   3.411   1.607  0.1455  0.7450 -0.0185
 7153SOL    HW133092   4.701   3.327   1.620  0.2250  0.8460  0.9501
 7153SOL    HW233093   0.062   3.391   1.532  1.4741  0.1186  1.1096
 7154SOL     OW33094   1.543   3.957   1.393  0.1614 -0.0647  0.8405
 7154SOL    HW133095   1.513   4.045   1.413  2.0401  0.9317 -0.7979
 7154SOL    HW233096   1.482   3.898   1.438 -1.5282  0.0994 -1.2071
 7155SOL     OW33097   4.697   4.353   4.411  0.2105  0.5073  0.1107
 7155SOL    HW133098   0.030   4.393   4.460  0.7173  0.5696 -0.7011
 7155SOL    HW233099   4.648   4.426   4.375  1.3144  0.9105 -0.5590
 7156SOL     OW33100   3.248   3.398  13.299 -0.6470 -0.4793  0.5559
 7156SOL    HW133101   3.280   3.488  13.292 -0.5882 -0.4542  1.1712
 7156SOL    HW233102   3.185   3.413  13.369  1.1367  0.4506  1.9706
 7157SOL     OW33103   4.390   3.518   0.114  0.5743 -0.0224  0.4910
 7157SOL    HW133104   4.432   3.432   0.105 -0.1437 -0.2621 -0.6138
 7157SOL    HW233105   4.363   3.518   0.206  0.4860 -0.5984  0.4685
 7158SOL     OW33106   1.566   4.230   4.731  0.3333 -0.1557 -0.9973
 7158SOL    HW133107   1.549   4.143   4.696 -1.1148 -0.1036 -0.4470
 7158SOL    HW233108   1.511   4.228   4.810 -0.6012 -0.2347 -1.6448
 7159SOL     OW33109   2.795   3.645  17.428 -0.6686 -0.1837  0.0452
 7159SOL    HW133110   2.759   3.614  17.510  1.9482 -1.8588  0.5438
 7159SOL    HW233111   2.722   3.612  17.376 -0.7943  0.5002 -0.2156
 7160SOL     OW33112   1.442   0.543  12.913  0.1992  0.0756  0.4283
 7160SOL    HW133113   1.382   0.519  12.843  0.9909 -1.8437  0.3789
 7160SOL    HW233114   1.427   0.473  12.978 -0.0574 -1.1801 -0.9794
 7161SOL     OW33115   3.547   2.667   3.558  0.3994 -0.4090 -0.3655
 7161SOL    HW133116   3.560   2.592   3.616 -1.5320 -0.2867  0.2486
 7161SOL    HW233117   3.629   2.664   3.509 -1.0555 -1.2548 -2.7900
 7162SOL     OW33118   0.043   4.732   4.538  0.3497 -0.1056  0.3868
 7162SOL    HW133119   0.028   0.047   4.616 -1.5069  1.0403 -0.7554
 7162SOL    HW233120   0.081   4.652   4.573  1.5578  0.6013  0.7048
 7163SOL     OW33121   4.666   2.433   5.615  0.1179  0.2387 -0.2208
 7163SOL    HW133122   4.651   2.412   5.523 -2.4287  1.0262  0.0184
 7163SOL    HW233123   4.585   2.404   5.658 -0.7367 -1.8081 -3.2000
 7164SOL     OW33124   4.665   4.227  11.443  0.1112 -0.2507 -0.0620
 7164SOL    HW133125   4.576   4.200  11.464  1.2458 -2.4175  1.9084
 7164SOL    HW233126   4.657   4.288  11.370 -1.0575 -2.0253 -1.4211
 7165SOL     OW33127   1.440   4.481  14.286 -0.4534 -0.1478  0.0633
 7165SOL    HW133128   1.444   4.486  14.381 -0.5710  1.0291  0.0018
 7165SOL    HW233129   1.347   4.501  14.284  0.0048  1.7926 -1.3260
 7166SOL     OW33130   1.838   3.916   0.779 -0.3260 -0.0988 -0.6354
 7166SOL    HW133131   1.783   3.838   0.783 -1.0929  0.4828  0.0735
 7166SOL    HW233132   1.922   3.883   0.812 -0.1195  0.1845 -0.8756
 7167SOL     OW33133   3.790   3.604   3.793  0.8586  0.0945  0.6256
 7167SOL    HW133134   3.844   3.642   3.724 -0.4158 -1.2078 -1.1001
 7167SOL    HW233135   3.829   3.630   3.876  0.6558  1.3837  0.3151
 7168SOL     OW33136   1.211   3.260  13.471 -0.0812  0.3180 -0.6331
 7168SOL    HW133137   1.178   3.348  13.451 -0.1640 -0.0983 -2.3358
 7168SOL    HW233138   1.258   3.277  13.552  0.9445 -0.7565 -1.0107
 7169SOL     OW33139   0.878   2.288   5.362 -0.0046  0.6260 -0.2640
 7169SOL    HW133140   0.811   2.221   5.350  0.5213 -0.0020  0.3321
 7169SOL    HW233141   0.951   2.240   5.400 -0.8299 -1.1834 -0.9506
 7170SOL     OW33142   2.972   1.613   4.736 -0.2665 -0.5490 -0.0455
 7170SOL    HW133143   3.047   1.615   4.676 -1.2915 -1.6462 -1.3616
 7170SOL    HW233144   2.905   1.584   4.674 -1.3509  0.4604  0.6658
 7171SOL     OW33145   2.416   1.603   8.666  0.3184  0.1633 -0.2684
 7171SOL    HW133146   2.330   1.640   8.689  0.3663  1.0043 -1.4694
 7171SOL    HW233147   2.407   1.613   8.571 -3.6238 -1.3276 -0.0713
 7172SOL     OW33148   3.205   4.079   4.363  0.2071 -0.7028 -0.0090
 7172SOL    HW133149   3.263   4.064   4.289  0.5703  1.7866 -0.2500
 7172SOL    HW233150   3.272   4.097   4.429 -1.4645  1.5704  1.0877
 7173SOL     OW33151   2.844   3.500   1.460 -0.0274  0.5710 -0.0316
 7173SOL    HW133152   2.807   3.586   1.479  2.0145  1.2504  0.8354
 7173SOL    HW233153   2.847   3.457   1.546  0.7477  2.6635  0.9802
 7174SOL     OW33154   2.167   2.055   0.301 -0.2411  0.6749  0.2331
 7174SOL    HW133155   2.099   1.999   0.338 -0.0553 -0.1898 -0.7617
 7174SOL    HW233156   2.244   2.023   0.349 -0.2920  0.8694  0.4451
 7175SOL     OW33157   1.970   3.201   8.095  0.3186 -0.3481  0.0095
 7175SOL    HW133158   1.900   3.239   8.148 -0.7727 -2.4968  0.1048
 7175SOL    HW233159   1.974   3.254   8.015  0.4217  0.3596  0.4922
 7176SOL     OW33160   1.813   3.840   8.199  0.1623  0.1719 -0.3102
 7176SOL    HW133161   1.847   3.769   8.145  2.0155 -0.2037  1.3684
 7176SOL    HW233162   1.864   3.829   8.279  2.0337 -0.0713 -1.5486
 7177SOL     OW33163   0.699   3.915  17.551  0.1345  0.7112  0.2756
 7177SOL    HW133164   0.647   3.903  17.472  1.7238 -0.8503 -0.5512
 7177SOL    HW233165   0.666   3.999  17.582  1.0209  1.5484 -1.0895
 7178SOL     OW33166   2.024   4.157   2.716 -0.4053  0.4157 -0.6307
 7178SOL    HW133167   2.111   4.190   2.737  0.1961 -1.9784  0.7124
 7178SOL    HW233168   2.045   4.064   2.721 -2.2381  0.1120  1.5162
 7179SOL     OW33169   2.892   2.426   2.025  0.2934  0.0140  0.0456
 7179SOL    HW133170   2.948   2.352   2.048 -0.1792 -0.3770 -0.0806
 7179SOL    HW233171   2.926   2.437   1.936  0.9053 -1.2626  0.1264
 7180SOL     OW33172   0.213   0.183  17.078 -0.0503 -0.0632  0.7321
 7180SOL    HW133173   0.291   0.148  17.121  0.4472  1.8441  1.3903
 7180SOL    HW233174   0.252   0.252  17.023 -0.1244 -1.7705 -1.4467
 7181SOL     OW33175   3.821   1.835   2.340 -0.3447 -0.0613  0.3353
 7181SOL    HW133176   3.870   1.771   2.393 -0.4457  0.6850  1.3359
 7181SOL    HW233177   3.806   1.779   2.264 -1.2396  2.5082 -1.3674
 7182SOL     OW33178   1.228   0.218   2.866  0.0138  0.0226 -0.2085
 7182SOL    HW133179   1.159   0.160   2.836  0.5202 -0.2414 -0.8761
 7182SOL    HW233180   1.303   0.161   2.849 -0.8198 -0.5330 -2.0882
 7183SOL     OW33181   2.485   3.440  11.047  0.0864  0.3460 -0.1370
 7183SOL    HW133182   2.511   3.528  11.073  1.0046  0.2509 -0.7356
 7183SOL    HW233183   2.391   3.444  11.031  0.5067  1.1352 -2.3379
 7184SOL     OW33184   3.906   0.870   9.247  0.2086  0.1761 -0.0728
 7184SOL    HW133185   3.876   0.915   9.168 -0.6846 -2.7013 -1.3611
 7184SOL    HW233186   3.997   0.899   9.239  1.3359 -3.3273  0.1659
 7185SOL     OW33187   3.699   0.810  10.859  0.1406  0.3228  0.5597
 7185SOL    HW133188   3.766   0.872  10.830  1.3630 -1.3707 -0.2417
 7185SOL    HW233189   3.627   0.825  10.799  0.6175  4.3881  0.9859
 7186SOL     OW33190   0.353   2.338  11.750  0.1439 -0.5662 -0.5197
 7186SOL    HW133191   0.436   2.342  11.798 -1.0570  1.1484  1.4257
 7186SOL    HW233192   0.387   2.329  11.661  0.2739  1.2276 -0.6549
 7187SOL     OW33193   2.176   3.258   4.883 -0.3883 -0.4098 -0.6350
 7187SOL    HW133194   2.087   3.292   4.885 -1.1081 -2.2793 -0.7914
 7187SOL    HW233195   2.191   3.263   4.789 -1.4001  1.9967 -0.6570
 7188SOL     OW33196   1.710   2.334   0.802  0.1381 -0.4839 -0.0395
 7188SOL    HW133197   1.743   2.288   0.724  2.1659 -0.1118  0.5956
 7188SOL    HW233198   1.727   2.264   0.865  2.9336  0.6247  0.4152
 7189SOL     OW33199   0.886   0.068   5.076 -0.3163 -0.1284 -0.2520
 7189SOL    HW133200   0.968   0.065   5.125  0.1467 -0.4702 -1.0582
 7189SOL    HW233201   0.829   0.023   5.138  0.4293 -1.0339 -0.2253
 7190SOL     OW33202   3.759   0.007   9.890 -0.2899  0.2576  0.0572
 7190SOL    HW133203   3.695   4.726   9.822 -0.9540 -0.7068  0.9554
 7190SOL    HW233204   3.778   4.653   9.905 -0.0497  0.6500  2.1016
 7191SOL     OW33205   3.705   1.393   8.097 -0.4878 -0.3301 -0.3382
 7191SOL    HW133206   3.768   1.384   8.168 -1.6444 -2.9899  0.3343
 7191SOL    HW233207   3.767   1.403   8.024  1.4472  1.0732  1.5096
 7192SOL     OW33208   3.551   1.661   4.220  0.8463  0.5865  0.2609
 7192SOL    HW133209   3.580   1.571   4.235  1.8690  1.1400  1.6278
 7192SOL    HW233210   3.640   1.692   4.199  1.5481 -0.6100  1.4827
 7193SOL     OW33211   2.566   2.200   8.483  0.2232  0.8197 -0.2874
 7193SOL    HW133212   2.559   2.222   8.390 -0.7500 -5.4597 -1.7088
 7193SOL    HW233213   2.524   2.114   8.486 -1.1689  1.5097  0.0681
 7194SOL     OW33214   0.905   1.939   8.277  0.4718 -0.1599 -0.1054
 7194SOL    HW133215   0.925   1.913   8.368  2.0787 -1.4199 -0.8142
 7194SOL    HW233216   0.887   2.033   8.272 -0.7594 -0.3327  0.9460
 7195SOL     OW33217   1.003   1.615  13.379  0.0197  0.3362 -0.4038
 7195SOL    HW133218   1.026   1.525  13.354  0.1756  0.0940  0.6222
 7195SOL    HW233219   1.022   1.664  13.299  1.5728 -0.9446 -0.8191
 7196SOL     OW33220   4.706   3.809   2.410 -0.1777 -0.1486 -0.3489
 7196SOL    HW133221   0.040   3.872   2.405 -1.4824  1.3479 -0.5996
 7196SOL    HW233222   4.685   3.811   2.504 -1.5455 -0.5468 -0.6544
 7197SOL     OW33223   2.110   0.734   3.496 -0.2670  0.2363 -0.2789
 7197SOL    HW133224   2.166   0.717   3.421  1.9448 -0.6181  1.5647
 7197SOL    HW233225   2.034   0.784   3.466 -2.4878 -2.7410  0.3674
 7198SOL     OW33226   1.317   2.748   8.604  0.4611  0.4671  0.1615
 7198SOL    HW133227   1.245   2.777   8.549  0.0905 -0.8168 -0.0319
 7198SOL    HW233228   1.302   2.654   8.615 -2.4117  0.8443 -0.7344
 7199SOL     OW33229   0.882   1.051   7.672  0.3435  0.8627  0.1030
 7199SOL    HW133230   0.837   1.135   7.677 -1.4408 -0.0752 -0.2681
 7199SOL    HW233231   0.966   1.091   7.696  0.6403  1.5394 -2.0175
 7200SOL     OW33232   4.717   1.877   4.492  0.5347  0.0556  0.5733
 7200SOL    HW133233   0.035   1.827   4.551  1.2674 -0.5139 -0.6010
 7200SOL    HW233234   4.706   1.962   4.534  0.4725  0.9426 -1.2434
 7201SOL     OW33235   3.326   0.580   7.601  0.2078 -0.1310 -1.0872
 7201SOL    HW133236   3.353   0.633   7.526  0.4505  1.2768 -0.0024
 7201SOL    HW233237   3.309   0.498   7.555 -0.0202  0.3272 -1.8279
 7202SOL     OW33238   2.111   3.596  10.047  0.0178  0.3193 -0.4690
 7202SOL    HW133239   2.201   3.616  10.021  0.8259 -2.9179 -0.1031
 7202SOL    HW233240   2.085   3.537   9.977  0.9461  0.3409 -0.8307
 7203SOL     OW33241   3.631   0.857   4.005  1.0260  0.2329 -0.1993
 7203SOL    HW133242   3.695   0.891   4.068  2.5719 -2.6133 -0.2278
 7203SOL    HW233243   3.685   0.834   3.930  1.6713 -2.5866  1.0907
 7204SOL     OW33244   1.859   1.970   5.192 -0.1530  0.1222  0.7033
 7204SOL    HW133245   1.798   2.019   5.136  1.1394  0.1009 -0.7373
 7204SOL    HW233246   1.913   1.947   5.116 -0.6856  0.1946  0.3016
 7205SOL     OW33247   0.073   2.180   7.280  0.2367  0.2925 -0.4037
 7205SOL    HW133248   0.080   2.109   7.343 -1.7692 -1.5578 -2.2757
 7205SOL    HW233249   4.718   2.200   7.279  0.5707  1.7135 -2.0678
 7206SOL     OW33250   0.315   1.115   5.146  0.2692  0.5998 -0.2629
 7206SOL    HW133251   0.375   1.100   5.219 -0.4849 -1.3103 -0.0430
 7206SOL    HW233252   0.237   1.096   5.198  0.1053  0.3598 -0.6020
 7207SOL     OW33253   4.603   2.402   4.069  0.1804  0.0314 -0.2169
 7207SOL    HW133254   4.540   2.427   4.001  1.5290  0.0729 -1.4457
 7207SOL    HW233255   4.653   2.483   4.066  1.0836 -0.5018  0.6078
 7208SOL     OW33256   0.171   1.213   4.844  0.0936  0.0120 -0.4835
 7208SOL    HW133257   0.259   1.178   4.858 -0.8607 -2.0413  0.3519
 7208SOL    HW233258   0.118   1.136   4.867  0.4501 -0.2667 -0.5941
 7209SOL     OW33259   0.289   0.784   7.629 -0.7930 -0.7429 -0.4923
 7209SOL    HW133260   0.236   0.711   7.595 -2.3427  0.5319 -0.8087
 7209SOL    HW233261   0.318   0.749   7.713 -1.0654 -0.0191 -0.0993
 7210SOL     OW33262   1.120   4.188   2.911  0.6724  0.0668 -0.0029
 7210SOL    HW133263   1.211   4.175   2.935  0.3897 -0.2609  0.8856
 7210SOL    HW233264   1.120   4.175   2.816 -0.2084 -1.1972  0.1726
 7211SOL     OW33265   3.567   0.427   9.127  0.1027  0.4225 -1.1221
 7211SOL    HW133266   3.485   0.416   9.175  0.5075  1.1048 -0.2713
 7211SOL    HW233267   3.617   0.499   9.164  0.5932  0.2081 -1.3701
 7212SOL     OW33268   3.077   0.193   4.741  0.0205  0.3581  0.1434
 7212SOL    HW133269   3.092   0.106   4.704 -1.0851  0.1168  0.2664
 7212SOL    HW233270   3.125   0.199   4.824  1.8222 -0.1316 -0.8746
 7213SOL     OW33271   1.390   0.884   7.687  0.7413 -0.8053  0.3651
 7213SOL    HW133272   1.359   0.851   7.603  0.3683 -2.4366  1.1485
 7213SOL    HW233273   1.474   0.920   7.661  0.9537 -0.7828  1.0630
 7214SOL     OW33274   1.818   4.112   6.881 -0.1968 -0.0392  0.5332
 7214SOL    HW133275   1.827   4.084   6.790  0.0659  0.2055  0.4815
 7214SOL    HW233276   1.814   4.206   6.866 -1.5281 -0.2167 -0.1819
 7215SOL     OW33277   3.218   2.880   6.410  0.5961  0.1243  0.4276
 7215SOL    HW133278   3.163   2.801   6.419  0.8986 -0.0349  0.8474
 7215SOL    HW233279   3.298   2.851   6.366  0.0368  2.1310 -1.8928
 7216SOL     OW33280   1.647   2.736   5.360 -0.3352 -0.0841 -0.5033
 7216SOL    HW133281   1.664   2.827   5.337 -2.0892  0.5635  0.6979
 7216SOL    HW233282   1.553   2.733   5.341 -0.8116  1.6121  1.6246
 7217SOL     OW33283   3.168   3.475   6.352  0.1540 -0.1116  0.1318
 7217SOL    HW133284   3.211   3.430   6.279 -0.6082 -0.1389 -0.2958
 7217SOL    HW233285   3.088   3.428   6.373 -0.5013  0.5095 -0.9529
 7218SOL     OW33286   2.098   3.662   4.075  0.4223 -0.0707  0.0508
 7218SOL    HW133287   2.012   3.629   4.049  0.4605 -0.6781  0.6813
 7218SOL    HW233288   2.074   3.745   4.116  1.0778 -1.0906  2.5151
 7219SOL     OW33289   2.554   0.394   2.984 -0.0207  0.1404 -0.1149
 7219SOL    HW133290   2.639   0.404   3.027 -0.4403 -0.3804  0.8225
 7219SOL    HW233291   2.550   0.479   2.938 -0.4104  0.3068  0.2327
 7220SOL     OW33292   0.507   1.941   7.744 -0.6741 -0.1037  0.4010
 7220SOL    HW133293   0.467   1.996   7.811 -1.0091  1.9777 -1.4899
 7220SOL    HW233294   0.481   1.853   7.772 -1.4883  0.6758  2.0850
 7221SOL     OW33295   3.587   0.575   7.907  0.2580 -0.6957  0.0066
 7221SOL    HW133296   3.631   0.494   7.934  1.1210 -0.0836  0.4425
 7221SOL    HW233297   3.657   0.639   7.920 -1.6435  1.0868  1.3956
 7222SOL     OW33298   3.673   2.319   9.460 -0.3050  0.2466  0.2949
 7222SOL    HW133299   3.730   2.308   9.383 -0.7338 -1.5211  0.2239
 7222SOL    HW233300   3.740   2.350   9.521 -0.3129 -0.0051  0.4311
 7223SOL     OW33301   1.536   0.588   5.792 -0.1457  0.3763  0.1266
 7223SOL    HW133302   1.586   0.537   5.729  0.2434  1.2320 -0.2653
 7223SOL    HW233303   1.486   0.517   5.832  0.8592 -0.4437 -0.0702
 7224SOL     OW33304   1.174   0.438  11.457  0.9453 -0.0948 -0.4523
 7224SOL    HW133305   1.198   0.398  11.373 -1.0332  1.1435 -1.6047
 7224SOL    HW233306   1.177   0.530  11.429  0.1071 -0.3136 -1.2853
 7225SOL     OW33307   4.081   1.106   9.269 -0.2228 -0.2944 -0.4722
 7225SOL    HW133308   4.109   1.109   9.361  0.2827 -1.0653 -0.6099
 7225SOL    HW233309   4.003   1.162   9.271  0.1922  0.3063 -1.4432
 7226SOL     OW33310   3.732   4.470   6.604 -0.7019 -0.5774  0.0702
 7226SOL    HW133311   3.824   4.495   6.600 -0.8321 -0.3444 -1.3093
 7226SOL    HW233312   3.688   4.544   6.647  0.6059  1.7592 -2.6095
 7227SOL     OW33313   0.554   0.877  11.639 -0.3172  0.0038 -0.2978
 7227SOL    HW133314   0.515   0.872  11.726 -0.2371  0.2049 -0.2504
 7227SOL    HW233315   0.539   0.788  11.609  1.1503  0.4708 -2.4093
 7228SOL     OW33316   3.922   1.505   5.344 -0.4276  0.9491 -0.2438
 7228SOL    HW133317   3.934   1.595   5.374  0.6062 -0.1758  2.7334
 7228SOL    HW233318   3.978   1.507   5.266  0.6938 -0.3866  0.5201
 7229SOL     OW33319   0.418   3.451   1.090 -0.5191 -0.4241  0.0396
 7229SOL    HW133320   0.419   3.394   1.167  1.0000  1.2506  1.2426
 7229SOL    HW233321   0.482   3.517   1.116 -2.0072  0.6333  1.0013
 7230SOL     OW33322   0.611   2.408   5.023 -0.1081 -0.0749  0.0065
 7230SOL    HW133323   0.526   2.431   4.985 -0.1679  0.5694  0.5243
 7230SOL    HW233324   0.583   2.400   5.114  1.5063 -2.8733  0.2630
 7231SOL     OW33325   0.307   2.510   8.348 -0.3057 -0.5700 -0.6240
 7231SOL    HW133326   0.227   2.563   8.349  0.3386  0.4036 -0.2415
 7231SOL    HW233327   0.355   2.536   8.269  1.4421 -0.0679  0.5906
 7232SOL     OW33328   1.757   1.930  16.293 -0.2889 -0.6491 -0.3046
 7232SOL    HW133329   1.739   1.925  16.200 -0.2422  2.2472 -0.4591
 7232SOL    HW233330   1.693   1.869  16.329  0.8019 -1.2571  0.6484
 7233SOL     OW33331   2.682   3.778   2.025 -0.0123  0.2617  0.1007
 7233SOL    HW133332   2.665   3.789   1.932  1.0481 -3.2505 -0.4997
 7233SOL    HW233333   2.593   3.753   2.051 -0.6901  2.3084 -0.2095
 7234SOL     OW33334   1.027   3.546   5.180 -0.0238 -0.6632  0.4719
 7234SOL    HW133335   1.015   3.541   5.275  3.9327 -4.5480  0.7778
 7234SOL    HW233336   1.090   3.475   5.165  0.0117  0.1228 -3.1373
 7235SOL     OW33337   2.856   3.174   6.268  0.4349 -0.1709 -0.8331
 7235SOL    HW133338   2.881   3.252   6.318 -0.5029  0.1194 -0.8193
 7235SOL    HW233339   2.825   3.118   6.338  0.0220 -0.1798 -1.0232
 7236SOL     OW33340   2.128   3.259   6.540  0.0683 -0.2615  0.4126
 7236SOL    HW133341   2.114   3.275   6.447  2.8653 -0.5327 -0.0721
 7236SOL    HW233342   2.166   3.341   6.573  0.1099  0.4860 -1.5199
 7237SOL     OW33343   3.086   2.871   1.948 -0.1959 -0.1789 -0.2259
 7237SOL    HW133344   3.031   2.808   1.996 -4.0038  1.7067 -2.1091
 7237SOL    HW233345   3.100   2.938   2.014 -0.6549  1.8475 -2.2124
 7238SOL     OW33346   3.679   1.985   7.969  0.3348 -0.0507  0.1746
 7238SOL    HW133347   3.738   2.017   7.900  0.9583 -1.8606 -0.1429
 7238SOL    HW233348   3.726   2.011   8.048  0.6947 -4.1269  1.3289
 7239SOL     OW33349   1.555   2.845   1.627 -1.0123  0.2965  0.1629
 7239SOL    HW133350   1.509   2.762   1.617  4.6561 -2.9670  1.5522
 7239SOL    HW233351   1.510   2.897   1.694 -0.9091 -1.8002  1.8665
 7240SOL     OW33352   1.627   4.651   3.119 -0.2401 -0.3079 -0.0332
 7240SOL    HW133353   1.650   4.560   3.133  0.5580 -0.0361  0.4493
 7240SOL    HW233354   1.559   4.642   3.052  1.7007  3.0872 -2.5039
 7241SOL     OW33355   1.703   0.157   5.909  0.0407 -0.1680 -0.0631
 7241SOL    HW133356   1.622   0.195   5.942  0.2006  0.9233 -0.9264
 7241SOL    HW233357   1.678   0.083   5.854  1.0600  0.0807 -0.8732
 7242SOL     OW33358   1.072   3.875   4.434 -0.6310 -0.1670  0.0477
 7242SOL    HW133359   1.061   3.962   4.470 -1.2720 -0.5694  0.8225
 7242SOL    HW233360   0.983   3.844   4.454 -0.3780 -0.2983  0.9917
 7243SOL     OW33361   3.650   0.559  10.368 -0.4213  0.2542 -0.1115
 7243SOL    HW133362   3.677   0.511  10.289 -1.3279  2.3617 -1.7008
 7243SOL    HW233363   3.564   0.520  10.384 -0.7873  2.2103  2.6881
 7244SOL     OW33364   4.215   2.307   3.105 -0.3916  0.0572  0.5511
 7244SOL    HW133365   4.276   2.375   3.134  0.4105 -0.5165  0.2214
 7244SOL    HW233366   4.127   2.338   3.126 -0.4475  0.3993 -0.1979
 7245SOL     OW33367   3.731   4.144   7.224  0.9458  0.0855  0.2834
 7245SOL    HW133368   3.670   4.090   7.276  0.1417  1.7296  1.0437
 7245SOL    HW233369   3.813   4.099   7.244  1.8996  1.8139  0.2291
 7246SOL     OW33370   4.172   0.757   5.396  0.3321 -0.3499  0.1444
 7246SOL    HW133371   4.124   0.687   5.440  0.6750 -2.2875 -2.5397
 7246SOL    HW233372   4.119   0.836   5.403 -1.5761 -1.2415 -3.7620
 7247SOL     OW33373   2.933   1.092  12.309 -0.2334 -0.7002 -0.0160
 7247SOL    HW133374   3.023   1.060  12.297 -0.2252 -0.6181 -0.1758
 7247SOL    HW233375   2.906   1.039  12.384 -0.4819 -1.0447 -0.3499
 7248SOL     OW33376   3.290   3.125   1.966  0.3274 -0.2167  0.2770
 7248SOL    HW133377   3.226   3.136   1.896 -0.4863 -1.4425  0.8382
 7248SOL    HW233378   3.323   3.035   1.957 -2.8214 -1.4372  1.0188
 7249SOL     OW33379   1.479   4.378   5.198 -0.5190  0.4108  0.2553
 7249SOL    HW133380   1.435   4.435   5.261  1.6923  0.3846  1.8601
 7249SOL    HW233381   1.565   4.420   5.205  0.1228 -0.7885 -0.4108
 7250SOL     OW33382   3.932   3.478   0.328  0.4405 -0.2025 -0.3745
 7250SOL    HW133383   3.951   3.518   0.413 -0.2124 -1.7092  0.4869
 7250SOL    HW233384   3.864   3.416   0.356 -0.7762  1.7137  0.9229
 7251SOL     OW33385   2.961   0.590   5.566 -0.1847 -0.0733  0.2633
 7251SOL    HW133386   2.950   0.502   5.601  1.1653 -0.2432  0.2538
 7251SOL    HW233387   2.926   0.652   5.630  0.0410  0.6574 -0.3233
 7252SOL     OW33388   4.140   3.004   5.674 -0.3698  0.2527 -0.1082
 7252SOL    HW133389   4.204   3.066   5.638 -1.4916  0.2270 -2.1247
 7252SOL    HW233390   4.175   2.973   5.757  1.6465  2.1512 -0.2410
 7253SOL     OW33391   3.084   2.096  12.929 -0.2178  0.3611  0.4237
 7253SOL    HW133392   3.149   2.134  12.988  0.2420  0.6536 -0.2852
 7253SOL    HW233393   3.134   2.040  12.870 -1.2726  0.2970 -0.4213
 7254SOL     OW33394   4.150   0.082   6.958  0.0170 -0.5032  0.3839
 7254SOL    HW133395   4.103   4.739   6.970 -0.9221 -0.0924 -0.5278
 7254SOL    HW233396   4.089   0.147   6.993 -1.1656 -1.3311 -0.1433
 7255SOL     OW33397   1.093   2.066   1.570 -0.2977  0.0521 -0.0592
 7255SOL    HW133398   1.161   2.081   1.504 -0.7518  3.6781  0.2853
 7255SOL    HW233399   1.015   2.077   1.516 -0.2322  0.0150 -0.1620
 7256SOL     OW33400   1.588   2.500   9.236 -0.3041  0.1352 -0.3046
 7256SOL    HW133401   1.503   2.525   9.200 -1.1204 -0.6306  1.1391
 7256SOL    HW233402   1.584   2.404   9.233 -1.0228  0.1874 -1.2294
 7257SOL     OW33403   3.599   0.457  17.016  0.2329  0.1917  0.5668
 7257SOL    HW133404   3.507   0.481  17.022 -0.1598 -0.5311 -2.3209
 7257SOL    HW233405   3.641   0.517  17.078 -1.1058 -0.6596  2.2864
 7258SOL     OW33406   3.270   0.323   2.492  0.3379  0.5185  0.4981
 7258SOL    HW133407   3.208   0.261   2.453 -0.2437  0.1177  2.0395
 7258SOL    HW233408   3.216   0.376   2.551 -1.2386 -0.2472 -0.2504
 7259SOL     OW33409   3.858   2.349  13.671 -1.0223  0.1214 -0.2859
 7259SOL    HW133410   3.820   2.436  13.678  2.0905  1.2857  2.0157
 7259SOL    HW233411   3.787   2.287  13.688 -0.6668  0.4736  2.4293
 7260SOL     OW33412   1.162   3.145   4.031  0.5453 -0.7342  0.0697
 7260SOL    HW133413   1.069   3.134   4.014  0.6330 -2.4623  0.6690
 7260SOL    HW233414   1.177   3.098   4.113 -0.8844  0.7829  1.1877
 7261SOL     OW33415   3.151   3.136   6.489  0.1266 -0.3494 -0.4434
 7261SOL    HW133416   3.069   3.129   6.538 -0.2237  0.2845 -0.9506
 7261SOL    HW233417   3.156   3.044   6.462 -0.9453  0.0106 -1.8371
 7262SOL     OW33418   4.599   1.886  10.272  0.2234 -0.6052 -0.3781
 7262SOL    HW133419   4.505   1.874  10.286  0.5722 -3.0170 -0.1940
 7262SOL    HW233420   4.607   1.980  10.291 -3.1706 -0.2544 -0.7945
 7263SOL     OW33421   4.293   0.107   0.697  0.6351  0.5460  0.3213
 7263SOL    HW133422   4.205   0.070   0.696  0.2739  1.4464 -1.5198
 7263SOL    HW233423   4.310   0.147   0.782 -1.0140  3.5830 -0.7867
 7264SOL     OW33424   2.772   1.993   6.726 -0.0911 -0.4403  0.1665
 7264SOL    HW133425   2.749   2.070   6.778  1.9736 -0.0247  0.4516
 7264SOL    HW233426   2.857   2.018   6.691 -0.3875 -2.7061 -2.1403
 7265SOL     OW33427   3.353   0.007   4.883 -0.5661  0.5038 -0.0737
 7265SOL    HW133428   3.387   0.081   4.832 -1.1517  1.2391  0.5951
 7265SOL    HW233429   3.271   0.047   4.913  0.0802  1.5934  0.2380
 7266SOL     OW33430   1.213   1.629  15.864  0.5491 -0.0435 -0.3031
 7266SOL    HW133431   1.193   1.693  15.933 -1.3040  0.7725 -1.5787
 7266SOL    HW233432   1.120   1.609  15.850  0.4994  1.1940 -1.6516
 7267SOL     OW33433   0.372   3.875   5.160  0.4163 -0.3783  0.5766
 7267SOL    HW133434   0.412   3.788   5.159  0.4407 -0.3783  1.6029
 7267SOL    HW233435   0.288   3.849   5.121  0.8530  0.4097 -0.9044
 7268SOL     OW33436   2.185   3.391  11.151  0.9241 -0.0531  0.2088
 7268SOL    HW133437   2.253   3.343  11.199 -1.6846 -1.8591  2.0533
 7268SOL    HW233438   2.167   3.464  11.210 -1.3956 -0.9273  0.5686
 7269SOL     OW33439   1.184   3.149   1.056  0.3627  0.3419 -0.0601
 7269SOL    HW133440   1.133   3.085   1.006  0.4360 -0.2068  0.5659
 7269SOL    HW233441   1.274   3.118   1.042  0.5100  0.4067  0.7657
 7270SOL     OW33442   0.571   1.338   2.014  0.3184  0.0749 -0.4436
 7270SOL    HW133443   0.653   1.299   2.042  0.3440  0.0639 -0.5345
 7270SOL    HW233444   0.601   1.417   1.969 -1.6269  2.1761  1.9653
 7271SOL     OW33445   0.191   4.351   1.711  0.2180 -0.0839 -0.5505
 7271SOL    HW133446   0.097   4.360   1.694  0.0463  0.8798  0.9019
 7271SOL    HW233447   0.212   4.278   1.653 -1.5290 -0.6209 -0.5173
 7272SOL     OW33448   0.618   1.617  11.440  0.3780  0.0444  0.4140
 7272SOL    HW133449   0.635   1.677  11.367 -1.0321  2.5160  2.1347
 7272SOL    HW233450   0.663   1.655  11.516 -0.6235 -0.0336  1.0411
 7273SOL     OW33451   2.224   2.142   8.504  0.3082  0.3786 -0.7147
 7273SOL    HW133452   2.284   2.088   8.556  2.2143  0.8269 -2.4331
 7273SOL    HW233453   2.188   2.065   8.460  2.2407 -0.7755 -0.2826
 7274SOL     OW33454   3.577   2.574   9.361 -0.2119  0.2352  0.0477
 7274SOL    HW133455   3.549   2.555   9.272 -0.3742  0.5839  0.0232
 7274SOL    HW233456   3.588   2.485   9.396 -0.0176  1.1487  2.2997
 7275SOL     OW33457   1.006   1.036   5.535 -0.1494  0.3009 -0.5641
 7275SOL    HW133458   0.937   1.087   5.577 -0.4922 -0.2509 -0.4568
 7275SOL    HW233459   1.075   1.033   5.601 -0.7892 -0.8685  0.0487
 7276SOL     OW33460   3.352   4.505   3.098 -0.1871 -0.0592 -0.1102
 7276SOL    HW133461   3.334   4.585   3.148 -0.0006  1.5252 -2.5435
 7276SOL    HW233462   3.340   4.536   3.008 -1.1736 -0.9339 -0.2689
 7277SOL     OW33463   3.836   2.684  16.395  0.2271 -0.0218  0.5101
 7277SOL    HW133464   3.895   2.609  16.400 -1.1393 -1.1516 -0.3737
 7277SOL    HW233465   3.782   2.685  16.474  1.5611  0.8367  1.4016
 7278SOL     OW33466   2.730   3.078  17.259 -0.1718 -0.1077  0.3120
 7278SOL    HW133467   2.763   3.165  17.282  1.8099 -0.8387  0.2017
 7278SOL    HW233468   2.677   3.057  17.336  1.8906 -1.4948  1.3491
 7279SOL     OW33469   0.928   3.283  11.893 -0.5337  0.2085  0.3081
 7279SOL    HW133470   1.012   3.280  11.939 -1.2657  0.1893  1.6502
 7279SOL    HW233471   0.873   3.223  11.944  0.9062 -0.7092  0.8042
 7280SOL     OW33472   0.600   0.420   8.244  0.1240  0.7034  0.2344
 7280SOL    HW133473   0.541   0.449   8.313 -1.0252  1.6281 -1.1320
 7280SOL    HW233474   0.680   0.460   8.278 -0.0095  1.5625 -0.4439
 7281SOL     OW33475   3.017   2.444  12.265  0.1664 -0.2129  0.0081
 7281SOL    HW133476   2.991   2.535  12.275 -0.5042 -0.4588  0.5197
 7281SOL    HW233477   3.111   2.456  12.276 -0.0158 -1.7447  3.3537
 7282SOL     OW33478   3.566   3.894   0.869 -0.3317  0.0586 -0.2309
 7282SOL    HW133479   3.505   3.935   0.931  0.2094  1.5809 -0.7127
 7282SOL    HW233480   3.625   3.852   0.932  1.1403  1.2025 -0.8548
 7283SOL     OW33481   2.274   2.526  16.862 -0.0696 -0.3497 -0.5178
 7283SOL    HW133482   2.273   2.433  16.840 -2.6259 -1.0282  2.4460
 7283SOL    HW233483   2.197   2.557  16.814 -0.6908  0.5755  1.0471
 7284SOL     OW33484   0.055   2.375  13.886 -0.0384  0.1565 -0.3325
 7284SOL    HW133485   4.713   2.404  13.843  0.2536  1.5169  0.0323
 7284SOL    HW233486   0.082   2.298  13.837  2.6397  0.8693  0.0700
 7285SOL     OW33487   1.988   2.134   3.683  0.3811 -0.3117  0.1273
 7285SOL    HW133488   1.893   2.139   3.686  0.5410  0.9398  2.7253
 7285SOL    HW233489   2.001   2.101   3.771  0.9272 -0.7916 -0.1291
 7286SOL     OW33490   4.394   2.627  15.225  0.4401  0.7412 -0.0531
 7286SOL    HW133491   4.351   2.552  15.183  0.8966  0.5189 -0.1217
 7286SOL    HW233492   4.317   2.673  15.258  0.4393  2.4482 -2.4039
 7287SOL     OW33493   1.937   3.485  13.327 -0.5660  0.3426 -0.0709
 7287SOL    HW133494   1.843   3.476  13.341 -0.2973 -0.7456  0.9923
 7287SOL    HW233495   1.942   3.493  13.232 -0.8299  0.8891 -0.0404
 7288SOL     OW33496   2.286   1.056   7.166  0.3899  0.1090 -0.2291
 7288SOL    HW133497   2.279   1.016   7.079  2.0543 -0.6623 -0.0167
 7288SOL    HW233498   2.372   1.023   7.190  1.0277  0.5525 -1.8693
 7289SOL     OW33499   2.061   2.245   6.016  0.1205 -0.5335 -0.0236
 7289SOL    HW133500   2.066   2.194   6.096 -1.4890  0.0121  0.4240
 7289SOL    HW233501   2.018   2.178   5.962  0.3644  1.0046 -2.1257
 7290SOL     OW33502   1.820   0.528  13.965  0.2222 -0.4952 -0.2355
 7290SOL    HW133503   1.731   0.560  13.983  1.8253  3.0378  1.4440
 7290SOL    HW233504   1.826   0.530  13.870  1.7988  0.2450 -0.1215
 7291SOL     OW33505   0.890   3.173  13.272  0.3647  0.3175  0.4791
 7291SOL    HW133506   0.820   3.206  13.216 -0.5507  0.8596  1.9474
 7291SOL    HW233507   0.850   3.209  13.351 -1.5933  0.8974 -0.7829
 7292SOL     OW33508   1.208   0.243  10.286 -0.3597 -0.2896 -0.1411
 7292SOL    HW133509   1.245   0.245  10.374  2.5533 -2.5587 -1.3326
 7292SOL    HW233510   1.186   0.150  10.280  1.4518 -0.6316 -1.2579
 7293SOL     OW33511   1.302   0.627  14.194 -1.0995 -0.0752  0.2478
 7293SOL    HW133512   1.247   0.706  14.188  0.3669  1.0285  1.2179
 7293SOL    HW233513   1.250   0.572  14.252 -1.3183 -2.4949 -2.2612
 7294SOL     OW33514   3.020   4.199   2.952  0.2398  0.7810 -0.3963
 7294SOL    HW133515   2.930   4.168   2.946 -0.3098  2.3508 -0.0032
 7294SOL    HW233516   3.046   4.240   2.870  0.0178  0.3566 -0.6788
 7295SOL     OW33517   1.726   1.122   4.468 -0.4971 -0.2708 -0.3069
 7295SOL    HW133518   1.751   1.034   4.439  1.3724 -0.1700  0.9498
 7295SOL    HW233519   1.631   1.127   4.465 -0.7029 -1.7675  2.7233
 7296SOL     OW33520   3.894   0.697   4.197 -0.0974 -0.1841 -0.2962
 7296SOL    HW133521   3.990   0.690   4.204 -0.3705 -2.3879  1.1775
 7296SOL    HW233522   3.876   0.662   4.110  0.7380 -0.8286 -0.2168
 7297SOL     OW33523   2.314   3.047   0.255  0.5075  0.3727 -0.1615
 7297SOL    HW133524   2.363   3.063   0.174  1.4295 -2.2992 -0.1400
 7297SOL    HW233525   2.361   3.112   0.307 -0.3028  0.7975  0.0370
 7298SOL     OW33526   0.643   0.380   8.937  0.4082 -0.2668 -0.1783
 7298SOL    HW133527   0.597   0.322   8.876 -0.8403  1.2734 -0.7248
 7298SOL    HW233528   0.705   0.311   8.961 -1.0004 -1.5360 -0.1291
 7299SOL     OW33529   3.280   0.570  16.311  0.2305  0.5402  0.3324
 7299SOL    HW133530   3.221   0.603  16.379 -1.1460  0.6454 -0.9072
 7299SOL    HW233531   3.232   0.614  16.240 -0.0807  1.7198  1.2615
 7300SOL     OW33532   0.460   1.150   6.381  0.6296  0.5399 -0.8920
 7300SOL    HW133533   0.434   1.233   6.422 -2.0704 -0.2761 -0.9404
 7300SOL    HW233534   0.460   1.090   6.455  3.5096  0.3261 -1.0843
 7301SOL     OW33535   4.401   1.789   3.178 -0.1802  0.8184  0.0924
 7301SOL    HW133536   4.375   1.846   3.106 -1.0558  0.3546  0.0513
 7301SOL    HW233537   4.398   1.703   3.136 -2.1777  0.3461  1.2410
 7302SOL     OW33538   0.206   0.118   5.942 -0.1761  0.3246  0.7367
 7302SOL    HW133539   0.238   0.188   5.885  0.9750 -1.5726 -0.9505
 7302SOL    HW233540   0.288   0.093   5.984 -0.4187 -0.6315  0.6293
 7303SOL     OW33541   2.688   3.785   9.641  0.8485  0.6371 -0.7242
 7303SOL    HW133542   2.636   3.820   9.568 -0.4147  1.2267  0.4608
 7303SOL    HW233543   2.624   3.755   9.705  1.1041  1.8206  0.0792
 7304SOL     OW33544   3.776   4.150  16.211 -0.0827 -0.0050 -0.6046
 7304SOL    HW133545   3.827   4.072  16.232  0.8652  0.7345 -0.1500
 7304SOL    HW233546   3.746   4.176  16.298  0.8517 -1.4783  0.1547
 7305SOL     OW33547   2.672   1.943   7.440  0.3358  0.6780 -0.1192
 7305SOL    HW133548   2.719   1.945   7.523  0.1372  0.0575  0.0073
 7305SOL    HW233549   2.689   1.855   7.406 -0.5829  0.8323 -0.9714
 7306SOL     OW33550   2.984   4.128   8.126 -0.9456  0.4543  0.4231
 7306SOL    HW133551   2.921   4.063   8.156 -2.5642  0.8533 -2.1092
 7306SOL    HW233552   3.048   4.095   8.189 -2.0391  0.1299  1.3544
 7307SOL     OW33553   0.330   3.395   3.851  0.7331 -0.2437  0.3170
 7307SOL    HW133554   0.272   3.440   3.789  0.6154 -1.2169 -0.2971
 7307SOL    HW233555   0.305   3.443   3.930  1.3240  1.0058 -0.2497
 7308SOL     OW33556   0.360   1.662   6.430  0.5248 -0.7170  0.1354
 7308SOL    HW133557   0.376   1.752   6.459 -0.0221 -0.2950 -0.8638
 7308SOL    HW233558   0.442   1.636   6.389  1.1516  0.0569  0.9156
 7309SOL     OW33559   3.321   0.787  14.035 -0.1306 -0.2039  0.3155
 7309SOL    HW133560   3.239   0.829  14.012  1.1323  1.7107 -0.6399
 7309SOL    HW233561   3.348   0.825  14.119 -0.9989  0.6829  0.1812
 7310SOL     OW33562   1.716   4.377   8.857 -0.1882 -0.6998 -0.4196
 7310SOL    HW133563   1.785   4.396   8.920 -1.8873  2.2711  0.5233
 7310SOL    HW233564   1.756   4.301   8.814  0.9347 -0.2692 -0.1414
 7311SOL     OW33565   1.477   3.875   4.068  0.1467  0.1066 -0.1585
 7311SOL    HW133566   1.486   3.970   4.075  2.4786 -0.1981  0.8916
 7311SOL    HW233567   1.423   3.851   4.143 -0.7950  0.6119 -0.6759
 7312SOL     OW33568   1.898   2.029   3.341 -1.1766  0.0418  0.1728
 7312SOL    HW133569   1.983   2.006   3.379 -0.3967 -0.3227 -1.7854
 7312SOL    HW233570   1.867   1.938   3.329 -0.0215 -0.4234  0.7672
 7313SOL     OW33571   2.935   1.132  17.053  0.1233 -0.0777  0.0337
 7313SOL    HW133572   2.872   1.064  17.076 -0.7168  0.3011 -1.1749
 7313SOL    HW233573   2.966   1.159  17.140 -0.1688  0.4553 -0.0331
 7314SOL     OW33574   4.180   4.281   8.489 -0.2322  0.5183 -0.4786
 7314SOL    HW133575   4.235   4.344   8.536  2.0055 -1.0207 -1.0448
 7314SOL    HW233576   4.207   4.202   8.536  0.0435 -0.3180 -2.0756
 7315SOL     OW33577   3.151   1.136  13.785 -0.1956 -0.1093  0.3845
 7315SOL    HW133578   3.215   1.085  13.835  0.7524  0.9524  0.2444
 7315SOL    HW233579   3.131   1.073  13.716 -0.7071  1.4351 -0.8714
 7316SOL     OW33580   2.712   2.970   7.411 -0.2633 -0.0465  0.4190
 7316SOL    HW133581   2.742   2.889   7.371 -1.0848 -0.0930 -0.0940
 7316SOL    HW233582   2.661   2.997   7.335  0.3036  0.8385  0.3530
 7317SOL     OW33583   0.497   1.183   6.103  0.0598  0.3095  0.0460
 7317SOL    HW133584   0.412   1.171   6.061  0.6888 -0.6020 -0.9811
 7317SOL    HW233585   0.476   1.150   6.191 -0.7810  0.2738 -0.1679
 7318SOL     OW33586   0.772   0.211  15.505  0.1605  0.7614  0.2300
 7318SOL    HW133587   0.721   0.166  15.437 -0.8932  2.0624  0.1663
 7318SOL    HW233588   0.704   0.273  15.533 -0.3408 -0.6869  2.2829
 7319SOL     OW33589   0.356   2.944   9.166  0.5444 -0.3030  0.4241
 7319SOL    HW133590   0.394   2.868   9.209  0.4830  0.2968  1.5228
 7319SOL    HW233591   0.299   2.976   9.236  0.2114 -0.0574  0.0431
 7320SOL     OW33592   3.298   2.720   3.956 -0.1966  0.7281  0.6770
 7320SOL    HW133593   3.224   2.701   4.014  0.7034 -0.3219  1.4617
 7320SOL    HW233594   3.285   2.803   3.909  1.4847 -0.3740 -1.7335
 7321SOL     OW33595   2.530   4.391  12.496 -0.3281  0.4894 -0.3482
 7321SOL    HW133596   2.595   4.448  12.455 -0.6855  1.1877  0.0588
 7321SOL    HW233597   2.571   4.305  12.504 -2.4838 -0.2984  1.8989
 7322SOL     OW33598   3.175   3.824   3.572  0.4966 -0.1395  0.4276
 7322SOL    HW133599   3.214   3.812   3.486  0.1182 -1.8694  0.4855
 7322SOL    HW233600   3.216   3.906   3.599 -2.2901  1.2790  0.3770
 7323SOL     OW33601   4.717   4.655  10.869  0.1422  0.1830 -0.2189
 7323SOL    HW133602   0.048   4.702  10.915 -0.8536  0.8769  0.5613
 7323SOL    HW233603   4.655   4.728  10.865 -0.7797 -0.4896  1.7436
 7324SOL     OW33604   4.629   0.210  14.984 -0.3965 -0.1873  1.5056
 7324SOL    HW133605   4.535   0.213  14.971 -0.2076 -1.5018 -0.2197
 7324SOL    HW233606   4.658   0.122  14.959  3.1555  1.7557 -1.3278
 7325SOL     OW33607   3.157   3.307  11.990 -0.3552 -0.1495  0.3608
 7325SOL    HW133608   3.074   3.260  12.007 -1.0928  0.9104 -0.3108
 7325SOL    HW233609   3.212   3.236  11.956 -2.0452  0.1348 -2.9792
 7326SOL     OW33610   2.819   4.290   7.102  0.6661  0.0001  0.1938
 7326SOL    HW133611   2.841   4.314   7.192  0.6696 -1.0427  0.4679
 7326SOL    HW233612   2.901   4.316   7.061  1.8119 -2.3091  1.0640
 7327SOL     OW33613   4.632   4.295  12.786  0.3317  0.0611 -0.3644
 7327SOL    HW133614   4.654   4.210  12.823  1.8536  0.0017 -1.4230
 7327SOL    HW233615   4.597   4.345  12.861 -0.7561 -1.6940  0.2864
 7328SOL     OW33616   2.105   1.252   2.709 -0.1495 -0.1152  0.3421
 7328SOL    HW133617   2.024   1.258   2.759 -1.1272 -2.5203 -0.9655
 7328SOL    HW233618   2.067   1.235   2.623  0.5462  1.7054 -0.3439
 7329SOL     OW33619   1.206   2.290  16.125 -0.2854 -0.8424  0.0232
 7329SOL    HW133620   1.111   2.294  16.128 -0.2296  2.1900 -1.2890
 7329SOL    HW233621   1.234   2.264  16.212  1.7484  0.3185 -0.2615
 7330SOL     OW33622   0.034   1.028   8.534  0.4187  0.2746 -0.4790
 7330SOL    HW133623   0.100   1.076   8.584  0.8384 -1.3227  0.5341
 7330SOL    HW233624   0.010   0.955   8.591 -0.0939  0.6831 -0.1701
 7331SOL     OW33625   2.440   2.434   4.052  0.3794 -0.9577 -0.1777
 7331SOL    HW133626   2.516   2.377   4.040  0.2388 -0.9408 -1.1648
 7331SOL    HW233627   2.478   2.497   4.113  1.3343  0.7468 -2.5356
 7332SOL     OW33628   4.459   3.653   5.273 -0.1466 -0.4953 -0.2635
 7332SOL    HW133629   4.512   3.648   5.352 -0.5527  0.4518  0.0701
 7332SOL    HW233630   4.400   3.578   5.282 -1.0288  0.3067  0.6147
 7333SOL     OW33631   3.110   0.856   4.792  0.0873  0.3449  0.3024
 7333SOL    HW133632   3.160   0.923   4.746 -0.0843 -1.1058 -1.9832
 7333SOL    HW233633   3.173   0.784   4.797 -0.6878 -0.2792  1.1489
 7334SOL     OW33634   3.474   3.080  10.084  0.7284  0.2556 -0.3770
 7334SOL    HW133635   3.379   3.087  10.099  0.4319 -0.0979 -2.0369
 7334SOL    HW233636   3.504   3.012  10.144 -2.9471  2.5397  4.0526
 7335SOL     OW33637   3.292   3.216   5.126 -0.0606 -0.7438  0.0148
 7335SOL    HW133638   3.235   3.259   5.062 -0.8164  1.5666  2.2625
 7335SOL    HW233639   3.376   3.256   5.101  0.2789 -1.6381 -0.2664
 7336SOL     OW33640   0.998   2.086  17.388 -0.4684  0.3139  0.6104
 7336SOL    HW133641   0.923   2.052  17.339 -0.8236  1.6529  0.2332
 7336SOL    HW233642   0.952   2.152  17.440  1.3527  1.6175  0.5644
 7337SOL     OW33643   3.311   0.019   5.762 -0.3507  0.3122  0.3073
 7337SOL    HW133644   3.375   4.688   5.746 -3.9765 -2.7395 -0.7785
 7337SOL    HW233645   3.259   4.722   5.834  2.5850  0.0850  2.3240
 7338SOL     OW33646   2.722   2.834  17.719  0.1856 -0.2744 -0.0669
 7338SOL    HW133647   2.722   2.800   0.056  0.5877 -0.2799 -0.0684
 7338SOL    HW233648   2.661   2.770  17.682 -1.0201  0.2179  1.0484
 7339SOL     OW33649   3.971   0.887   0.945  0.3922 -0.2289  0.8377
 7339SOL    HW133650   3.948   0.795   0.958 -0.3434 -0.0565  0.7111
 7339SOL    HW233651   3.929   0.932   1.017 -1.6400 -2.3746  0.9927
 7340SOL     OW33652   3.551   1.008   9.665 -0.5300 -0.3299  0.2392
 7340SOL    HW133653   3.622   1.004   9.601  0.0081 -1.2100  0.8874
 7340SOL    HW233654   3.585   0.949   9.733  1.5467 -0.6359 -1.0584
 7341SOL     OW33655   0.782   2.423  12.013  0.1937  0.3209 -0.1972
 7341SOL    HW133656   0.710   2.401  11.953  1.2808  0.5475 -1.5869
 7341SOL    HW233657   0.747   2.377  12.089  0.8106 -0.7215 -0.5465
 7342SOL     OW33658   3.662   0.849   8.429  0.4553  0.0195 -0.4659
 7342SOL    HW133659   3.580   0.855   8.380  0.0382 -1.6319  0.0141
 7342SOL    HW233660   3.627   0.832   8.517  0.1668  0.4862 -0.4866
 7343SOL     OW33661   1.996   3.679   6.494 -0.7235 -0.5903 -0.4331
 7343SOL    HW133662   2.043   3.647   6.570 -1.0979 -1.0474 -0.3950
 7343SOL    HW233663   1.903   3.667   6.515 -0.8742  1.7565  0.2197
 7344SOL     OW33664   0.794   2.080   6.056  0.0575 -0.1691  0.2020
 7344SOL    HW133665   0.875   2.085   6.006  2.7970 -1.9726  4.4363
 7344SOL    HW233666   0.816   2.041   6.141  0.0439  2.8431  1.6070
 7345SOL     OW33667   3.342   0.095   8.037  0.4376  0.1279 -0.3606
 7345SOL    HW133668   3.381   0.035   8.101 -0.3000 -0.6008 -0.5988
 7345SOL    HW233669   3.268   0.120   8.092 -0.2672  2.0569 -2.1691
 7346SOL     OW33670   0.095   0.699  16.890 -0.2315 -0.8231 -0.5381
 7346SOL    HW133671   0.031   0.631  16.911  0.8025 -1.6762 -0.1465
 7346SOL    HW233672   0.080   0.758  16.964 -1.9880  0.4481 -1.9010
 7347SOL     OW33673   1.910   0.692   6.296  0.5373 -0.0967 -0.6080
 7347SOL    HW133674   1.930   0.707   6.203  0.4305 -0.8532 -0.7542
 7347SOL    HW233675   1.816   0.677   6.307  0.9864 -1.0528  1.7753
 7348SOL     OW33676   2.060   1.505   3.037  0.1299  0.0416  0.4989
 7348SOL    HW133677   2.035   1.519   2.946 -0.3407  0.9132  0.7626
 7348SOL    HW233678   2.015   1.420   3.044 -0.4459  0.1928 -1.4992
 7349SOL     OW33679   2.141   2.407   5.823 -0.0125 -0.2305 -0.3833
 7349SOL    HW133680   2.106   2.351   5.892 -0.1981 -0.2944 -0.5287
 7349SOL    HW233681   2.067   2.464   5.801  0.1483 -0.1356 -0.6811
 7350SOL     OW33682   4.144   0.027  10.174  0.6756  1.3960 -0.3607
 7350SOL    HW133683   4.076   0.092  10.192 -1.0420 -0.9601  1.6471
 7350SOL    HW233684   4.221   0.063  10.217 -0.6078  0.9091  2.3633
 7351SOL     OW33685   1.536   3.993   3.125 -0.9299 -0.2169  0.5849
 7351SOL    HW133686   1.552   3.928   3.056 -0.3931  0.9606 -0.4132
 7351SOL    HW233687   1.611   3.982   3.184 -1.5254  2.1210  1.7954
 7352SOL     OW33688   0.276   1.271  12.153 -0.1100 -0.2550  0.9306
 7352SOL    HW133689   0.368   1.250  12.139 -0.4845 -2.0418  1.0829
 7352SOL    HW233690   0.243   1.203  12.212  3.3073 -2.6963 -0.0187
 7353SOL     OW33691   0.497   0.315   9.532  0.3771  0.7093 -0.2818
 7353SOL    HW133692   0.583   0.294   9.495 -0.0784 -0.9972 -0.3365
 7353SOL    HW233693   0.448   0.296   9.451 -1.0183 -1.8938  1.1753
 7354SOL     OW33694   0.141   3.822   3.983  0.2862  0.1706  0.3100
 7354SOL    HW133695   0.103   3.807   4.069 -0.3198  1.4701  0.2747
 7354SOL    HW233696   0.072   3.868   3.934  0.1668  0.2769  0.5769
 7355SOL     OW33697   2.779   0.980  14.321  0.5423 -0.1857  0.4990
 7355SOL    HW133698   2.707   1.040  14.307 -0.4803 -1.2693  1.1399
 7355SOL    HW233699   2.745   0.915  14.382  0.0459 -2.0640 -1.7470
 7356SOL     OW33700   2.374   1.858   4.530 -0.5272  0.5672  0.3705
 7356SOL    HW133701   2.317   1.856   4.607  0.9622 -1.1517  1.4290
 7356SOL    HW233702   2.443   1.798   4.559  0.6164  2.0088  0.6020
 7357SOL     OW33703   1.233   1.106   4.864  0.0334 -0.5373  0.6631
 7357SOL    HW133704   1.194   1.057   4.792  0.0501  0.9163 -0.3135
 7357SOL    HW233705   1.321   1.077   4.841 -0.3540 -1.0694 -0.1549
 7358SOL     OW33706   0.992   3.350   5.697 -0.4824 -0.2854  0.0127
 7358SOL    HW133707   0.969   3.263   5.730 -1.7768 -0.4257 -1.2587
 7358SOL    HW233708   0.939   3.411   5.748  0.4267  1.3713 -1.0177
 7359SOL     OW33709   1.628   0.114   5.424 -0.1771  0.1344  0.0588
 7359SOL    HW133710   1.570   0.135   5.497 -2.2664 -0.2793 -1.4830
 7359SOL    HW233711   1.562   0.099   5.356 -1.1328  1.0457  0.7771
 7360SOL     OW33712   0.100   1.225  13.003 -0.4699  0.6998  0.3043
 7360SOL    HW133713   0.098   1.235  12.908  2.9299 -0.9340  0.0503
 7360SOL    HW233714   0.006   1.217  13.019 -0.5050 -1.5148 -0.9094
 7361SOL     OW33715   4.631   4.630  14.903 -0.3906  0.4551  0.0669
 7361SOL    HW133716   4.545   4.626  14.862  0.3424 -0.8175 -1.3667
 7361SOL    HW233717   4.633   4.546  14.949 -1.3960 -0.2459 -1.1825
 7362SOL     OW33718   2.599   1.976   4.761 -0.2747  0.1181  0.7054
 7362SOL    HW133719   2.563   2.047   4.815 -1.8526 -0.7887  0.8336
 7362SOL    HW233720   2.677   1.956   4.812  1.1964 -0.8306 -1.9648
 7363SOL     OW33721   3.395   3.970   1.047 -0.9217  0.2977 -0.0261
 7363SOL    HW133722   3.357   4.023   1.117  0.1807 -0.8131  1.4105
 7363SOL    HW233723   3.341   3.894   1.068 -0.5226  0.2569  0.8545
 7364SOL     OW33724   0.641   2.227   1.143 -0.4434 -0.4072 -0.1736
 7364SOL    HW133725   0.734   2.248   1.151 -0.5849 -0.0268  0.4303
 7364SOL    HW233726   0.633   2.168   1.217 -0.0039 -0.6499 -0.3189
 7365SOL     OW33727   2.699   1.162   8.049 -0.2767 -0.8076  0.6451
 7365SOL    HW133728   2.774   1.130   8.099  0.7336 -2.2698 -1.7722
 7365SOL    HW233729   2.726   1.253   8.043 -2.1930 -0.2322  0.5790
 7366SOL     OW33730   4.491   1.877   5.019  0.0472 -0.0827 -0.1833
 7366SOL    HW133731   4.545   1.940   4.970 -0.2454 -1.2045 -1.9506
 7366SOL    HW233732   4.400   1.904   5.007  0.0848  0.6342  1.2716
 7367SOL     OW33733   2.047   0.962   3.996  0.1606 -0.6733 -0.2987
 7367SOL    HW133734   2.009   0.985   3.911  0.0530  3.5222  0.8898
 7367SOL    HW233735   2.103   0.892   3.961 -0.9276 -1.6306 -0.0993
 7368SOL     OW33736   1.834   2.385   5.496  0.3356 -0.3558  0.5366
 7368SOL    HW133737   1.811   2.471   5.531 -3.2181 -1.3972  0.7716
 7368SOL    HW233738   1.928   2.367   5.502  0.5650  0.7872  0.3420
 7369SOL     OW33739   1.314   4.731   3.293 -0.2553 -0.1114 -0.1976
 7369SOL    HW133740   1.354   4.665   3.349 -0.7382 -0.5471 -0.3625
 7369SOL    HW233741   1.221   4.708   3.286 -0.6074  1.1402  0.3534
 7370SOL     OW33742   0.114   2.263   7.561  1.0266  0.6029 -0.5427
 7370SOL    HW133743   0.136   2.173   7.587 -2.8551 -0.0485  0.4635
 7370SOL    HW233744   0.167   2.263   7.481  0.4797 -1.0119 -0.9093
 7371SOL     OW33745   2.767   2.751   2.399 -0.3777  0.1873  0.2721
 7371SOL    HW133746   2.827   2.823   2.378  0.9085 -0.7700  0.6607
 7371SOL    HW233747   2.687   2.783   2.357 -0.1218 -0.3501 -0.6188
 7372SOL     OW33748   2.503   0.085   5.672  0.1517 -0.1433  0.3908
 7372SOL    HW133749   2.588   0.129   5.670  1.0967 -2.0069 -0.8948
 7372SOL    HW233750   2.533   0.005   5.629 -0.1317 -0.3010  0.4861
 7373SOL     OW33751   1.157   1.872   3.911  0.4700  0.5029  0.4485
 7373SOL    HW133752   1.230   1.888   3.851  0.8336  2.3997  1.3708
 7373SOL    HW233753   1.159   1.777   3.919 -1.2592  0.5543  1.6182
 7374SOL     OW33754   2.285   4.642   7.852  0.0513  0.2185  0.0252
 7374SOL    HW133755   2.271   4.554   7.888  0.3670 -1.2497 -3.4337
 7374SOL    HW233756   2.206   4.690   7.878 -0.6692  0.0591 -1.8458
 7375SOL     OW33757   4.484   0.696   5.837  0.2741 -0.2808  0.5189
 7375SOL    HW133758   4.493   0.755   5.763 -1.0778  0.1285  0.6952
 7375SOL    HW233759   4.462   0.752   5.911 -2.4385 -0.5078 -0.1423
 7376SOL     OW33760   4.570   1.325   3.257  0.0802  0.1231 -0.2753
 7376SOL    HW133761   4.479   1.323   3.227 -0.4616  0.0571  1.3985
 7376SOL    HW233762   4.615   1.332   3.173 -2.7748 -0.6604 -1.8849
 7377SOL     OW33763   1.032   2.614   6.623 -0.9180  0.1970  0.3502
 7377SOL    HW133764   1.068   2.551   6.560 -1.7363  0.4557 -0.3821
 7377SOL    HW233765   1.063   2.693   6.580 -0.7657  0.3723  0.7966
 7378SOL     OW33766   3.921   1.697   2.909 -0.0299 -0.1770  0.6843
 7378SOL    HW133767   3.920   1.772   2.850  1.3666 -1.8333 -1.4357
 7378SOL    HW233768   3.832   1.691   2.943 -0.5530  1.0891 -0.4603
 7379SOL     OW33769   0.586   4.566   2.614 -0.3858  0.5521  0.6760
 7379SOL    HW133770   0.651   4.519   2.562 -0.9323  0.5082  0.0387
 7379SOL    HW233771   0.508   4.520   2.584 -0.0646 -0.1232  0.8933
 7380SOL     OW33772   3.849   1.625   2.531  0.4811  0.0097  0.3803
 7380SOL    HW133773   3.807   1.665   2.607  1.0396 -1.5945  1.5368
 7380SOL    HW233774   3.781   1.567   2.497  2.0791 -2.3805  1.2434
 7381SOL     OW33775   1.274   1.065   8.103  0.3658  0.0375  0.2600
 7381SOL    HW133776   1.305   0.975   8.091  1.2321  0.5154 -1.1445
 7381SOL    HW233777   1.181   1.046   8.099  0.6984 -0.9093 -2.9137
 7382SOL     OW33778   3.872   4.619   4.231 -0.1996  0.4401  0.7070
 7382SOL    HW133779   3.780   4.610   4.256 -0.2621 -2.3621 -0.5107
 7382SOL    HW233780   3.887   4.701   4.277 -0.5934 -0.6965  2.8575
 7383SOL     OW33781   0.540   0.929  14.434  0.5038  0.1063 -0.3102
 7383SOL    HW133782   0.536   1.002  14.372 -0.5748 -0.2224 -0.6261
 7383SOL    HW233783   0.571   0.973  14.514 -1.8310  1.9382 -0.4150
 7384SOL     OW33784   0.365   2.814   6.928  0.3331  0.3777 -0.2438
 7384SOL    HW133785   0.430   2.768   6.981 -0.3823 -0.5642 -0.1852
 7384SOL    HW233786   0.416   2.811   6.847 -0.4870  2.1583 -0.8365
 7385SOL     OW33787   3.039   1.970   5.872  0.0861 -0.3144 -0.2405
 7385SOL    HW133788   3.078   1.950   5.957 -0.2914  1.0840  0.2713
 7385SOL    HW233789   3.008   1.881   5.853 -1.4789 -0.2715  2.0822
 7386SOL     OW33790   4.417   2.857   7.951  0.0317  0.1640  0.7534
 7386SOL    HW133791   4.428   2.932   8.009 -0.7664  1.1053 -0.3229
 7386SOL    HW233792   4.446   2.879   7.863 -0.3134 -0.6850  0.4293
 7387SOL     OW33793   2.855   3.379   1.985  0.4886  0.6774  0.6581
 7387SOL    HW133794   2.942   3.374   2.024  0.3792 -0.6555  0.7419
 7387SOL    HW233795   2.801   3.346   2.057  0.2996 -1.1004 -0.2938
 7388SOL     OW33796   0.786   2.707   8.124 -0.1412 -0.0846 -0.0583
 7388SOL    HW133797   0.746   2.739   8.043  2.6737 -1.1437 -1.9059
 7388SOL    HW233798   0.843   2.636   8.093  1.5942  2.1816 -2.0682
 7389SOL     OW33799   2.119   1.740   2.221 -0.7878 -0.2602 -0.2427
 7389SOL    HW133800   2.128   1.750   2.126  3.2220  2.3098  0.4094
 7389SOL    HW233801   2.042   1.796   2.233 -0.2240  0.0633  1.7675
 7390SOL     OW33802   0.371   4.723   3.481 -0.4639  0.2283  0.1040
 7390SOL    HW133803   0.384   0.010   3.389 -0.9276 -1.6166 -0.4808
 7390SOL    HW233804   0.369   0.076   3.509  0.6345  1.0898 -2.6422
 7391SOL     OW33805   3.483   1.513  16.468 -0.1223  0.1629  0.4023
 7391SOL    HW133806   3.440   1.485  16.549 -0.5847 -0.9247 -0.2212
 7391SOL    HW233807   3.462   1.440  16.410 -2.4185  2.1975 -1.2989
 7392SOL     OW33808   4.596   3.322   3.467  0.6875  0.1836 -0.5465
 7392SOL    HW133809   4.643   3.371   3.536 -0.4805  0.6854 -0.1104
 7392SOL    HW233810   4.507   3.351   3.483 -0.0578 -0.0758 -4.3863
 7393SOL     OW33811   1.738   3.728   2.930 -0.0299  0.1860 -0.1578
 7393SOL    HW133812   1.650   3.699   2.950 -0.1162  0.9584  0.5942
 7393SOL    HW233813   1.717   3.748   2.839  0.6597  0.6502 -0.2174
 7394SOL     OW33814   2.074   1.006   3.115 -0.0479  0.4482  0.1020
 7394SOL    HW133815   2.130   0.928   3.123 -0.0629  0.4923  0.6442
 7394SOL    HW233816   2.130   1.053   3.053  2.5305 -0.7105  1.5448
 7395SOL     OW33817   4.677   0.049   0.009 -0.0790 -0.4740  0.2395
 7395SOL    HW133818   4.613   4.721  17.735 -0.1808 -1.7748  3.7964
 7395SOL    HW233819   4.711   0.018   0.092  1.0229 -0.9198 -0.3725
 7396SOL     OW33820   0.452   1.307  10.148  0.6662 -0.2964 -0.9287
 7396SOL    HW133821   0.393   1.382  10.139  0.4574 -0.2234  1.0213
 7396SOL    HW233822   0.508   1.328  10.223 -1.0938 -0.3365  0.3958
 7397SOL     OW33823   3.486   4.722   4.423  0.3615  0.3103 -0.2547
 7397SOL    HW133824   3.566   4.697   4.378  0.6032 -2.6974  1.8182
 7397SOL    HW233825   3.471   0.076   4.402  3.3034  0.5710 -1.2267
 7398SOL     OW33826   0.778   1.963   3.077  0.4276 -1.0432  0.1907
 7398SOL    HW133827   0.782   2.059   3.072  1.1977 -1.0879 -0.0710
 7398SOL    HW233828   0.786   1.953   3.172 -0.2467  0.1807  0.3903
 7399SOL     OW33829   3.207   3.432  14.717 -0.4139  0.1156 -0.3077
 7399SOL    HW133830   3.160   3.354  14.687 -0.8848  0.5915 -0.8181
 7399SOL    HW233831   3.163   3.465  14.796 -1.8434 -1.6269 -0.3821
 7400SOL     OW33832   1.625   2.518   0.022 -0.4441 -0.0346 -0.2979
 7400SOL    HW133833   1.639   2.591   0.084 -0.1002  2.0379 -2.8250
 7400SOL    HW233834   1.712   2.497  17.742  0.1414  2.1822 -0.1828
 7401SOL     OW33835   2.550   1.074   4.591 -0.2878  0.0892 -0.1280
 7401SOL    HW133836   2.596   1.090   4.509  1.7279 -1.1280  0.7457
 7401SOL    HW233837   2.496   0.997   4.572  0.2630 -0.3650  0.1282
 7402SOL     OW33838   4.409   2.038   9.757  0.0241 -0.5782  0.3973
 7402SOL    HW133839   4.505   2.041   9.762 -0.0264  1.4259  0.2828
 7402SOL    HW233840   4.379   2.076   9.840 -2.5495 -0.2783 -0.6846
 7403SOL     OW33841   4.011   0.224   1.269  0.4812 -0.3925  0.4615
 7403SOL    HW133842   4.057   0.234   1.352  1.2935 -2.0479  0.1946
 7403SOL    HW233843   4.077   0.188   1.210 -0.6373  0.3102 -1.2524
 7404SOL     OW33844   4.505   0.358   4.112  0.3609 -0.0703 -0.1443
 7404SOL    HW133845   4.532   0.407   4.190 -0.1211  1.0326 -0.6785
 7404SOL    HW233846   4.587   0.318   4.082 -0.5644 -1.4270 -0.8949
 7405SOL     OW33847   1.631   3.749   2.677  0.3515 -0.3659  0.3213
 7405SOL    HW133848   1.540   3.723   2.692  0.9479 -1.0780  2.7129
 7405SOL    HW233849   1.664   3.671   2.633 -0.0023 -0.8305  0.8766
 7406SOL     OW33850   4.170   0.644   8.216  0.9698  0.4448  0.1287
 7406SOL    HW133851   4.117   0.681   8.145 -0.9116 -1.8401  0.3597
 7406SOL    HW233852   4.142   0.706   8.283  0.9959  2.2749 -1.5556
 7407SOL     OW33853   1.760   4.422  13.514  0.0792  0.1303 -0.3806
 7407SOL    HW133854   1.683   4.365  13.509  0.6789 -0.6780 -0.5552
 7407SOL    HW233855   1.803   4.408  13.430  1.4700 -0.2590  0.3809
 7408SOL     OW33856   3.809   1.108   3.145 -0.0533 -0.4781  0.3252
 7408SOL    HW133857   3.850   1.189   3.174  1.6407 -0.9364 -0.7407
 7408SOL    HW233858   3.841   1.046   3.210  1.5682  0.3311  0.2983
 7409SOL     OW33859   4.333   0.383   2.389 -0.1312 -0.4190 -0.3597
 7409SOL    HW133860   4.382   0.465   2.381  1.3346 -1.3892 -1.3009
 7409SOL    HW233861   4.370   0.328   2.320 -0.2404  0.1610 -0.8779
 7410SOL     OW33862   4.288   1.125   8.339  0.0512  0.2189  0.0158
 7410SOL    HW133863   4.373   1.163   8.360  0.2545 -0.3743  0.2774
 7410SOL    HW233864   4.258   1.127   8.430 -0.0066  1.1439 -0.0292
 7411SOL     OW33865   4.208   1.321  17.606 -0.1073  0.2463 -0.2809
 7411SOL    HW133866   4.296   1.287  17.593 -0.6773 -0.8192 -1.3031
 7411SOL    HW233867   4.157   1.242  17.589 -1.1565  1.0504 -0.8355
 7412SOL     OW33868   3.350   0.268   5.894 -0.4145  0.3690  0.1250
 7412SOL    HW133869   3.320   0.311   5.814  1.0251 -0.0740 -0.6556
 7412SOL    HW233870   3.333   0.177   5.870  0.6407 -0.4769  2.5674
 7413SOL     OW33871   1.529   2.111   0.618 -0.5264  0.0321 -0.0281
 7413SOL    HW133872   1.535   2.072   0.531 -1.2035 -0.3945  0.1162
 7413SOL    HW233873   1.497   2.199   0.599  1.9496  0.6448 -1.3474
 7414SOL     OW33874   3.687   4.076   4.785 -0.0830  0.2442  0.0021
 7414SOL    HW133875   3.750   4.121   4.841 -0.9613  0.7536  0.5903
 7414SOL    HW233876   3.707   4.120   4.702 -0.8216  1.5629  0.5314
 7415SOL     OW33877   0.325   4.205   8.882  0.2798 -0.4485 -0.1354
 7415SOL    HW133878   0.312   4.163   8.797 -0.3027  0.4215 -0.4721
 7415SOL    HW233879   0.397   4.152   8.917  1.0577  1.3189  0.9657
 7416SOL     OW33880   0.320   1.162   5.803  0.2148  0.0139  0.4784
 7416SOL    HW133881   0.235   1.203   5.785  0.2794 -0.2724 -0.4783
 7416SOL    HW233882   0.299   1.086   5.857 -1.2636 -0.0794 -0.2072
 7417SOL     OW33883   0.134   4.585   2.629 -0.2889 -0.1976 -0.4781
 7417SOL    HW133884   0.082   4.646   2.577 -2.6279 -0.9159  1.0024
 7417SOL    HW233885   0.179   4.534   2.561 -0.4386 -0.6727 -0.2211
 7418SOL     OW33886   3.764   2.593  12.733 -0.1405  0.2947  0.3386
 7418SOL    HW133887   3.775   2.675  12.686 -0.7052  0.0428 -0.2302
 7418SOL    HW233888   3.824   2.529  12.694  0.0257  1.4064 -1.2169
 7419SOL     OW33889   1.422   0.623   4.666  0.4635  0.6278  0.1782
 7419SOL    HW133890   1.371   0.545   4.687  0.5278  0.8883  1.3282
 7419SOL    HW233891   1.507   0.579   4.669 -0.5906 -1.3716  0.5845
 7420SOL     OW33892   0.909   2.636   4.442  0.0404 -0.5684  0.1300
 7420SOL    HW133893   0.815   2.630   4.458 -0.4987  1.7616 -2.0729
 7420SOL    HW233894   0.922   2.605   4.352 -0.8583 -0.1977 -0.1337
 7421SOL     OW33895   0.528   2.488   0.997  0.1715 -0.4887  0.4550
 7421SOL    HW133896   0.551   2.515   0.908 -2.9838  0.4206 -0.0832
 7421SOL    HW233897   0.571   2.403   1.005 -2.1748 -1.5514  1.9261
 7422SOL     OW33898   0.825   2.292   1.584  0.0689 -0.0462  0.1396
 7422SOL    HW133899   0.730   2.297   1.580  0.1034  0.1036 -0.4367
 7422SOL    HW233900   0.844   2.205   1.549 -0.9414 -0.2633  0.1356
 7423SOL     OW33901   2.600   3.657  13.289  0.1298 -0.3449 -0.1670
 7423SOL    HW133902   2.535   3.630  13.224 -1.6283  1.4137  0.8847
 7423SOL    HW233903   2.673   3.683  13.232  1.9908 -2.0936  1.4125
 7424SOL     OW33904   4.696   3.406   2.592  0.5143  0.0265  0.2768
 7424SOL    HW133905   4.670   3.466   2.661  0.0299 -0.1978  0.2912
 7424SOL    HW233906   4.637   3.330   2.590 -0.1325  0.4951  1.8726
 7425SOL     OW33907   3.781   0.268  17.597  0.5886 -0.2791 -0.0500
 7425SOL    HW133908   3.756   0.361  17.590 -0.0203 -0.1822  3.3008
 7425SOL    HW233909   3.842   0.254  17.525  1.1577 -0.9087  0.5481
 7426SOL     OW33910   1.494   1.052   4.782  0.0376  0.1588  0.1907
 7426SOL    HW133911   1.565   0.997   4.814  0.9988  0.7615 -0.8813
 7426SOL    HW233912   1.469   1.001   4.705  0.0616 -0.2958  0.4868
 7427SOL     OW33913   1.747   2.822   4.260 -0.1367  0.4721 -0.0214
 7427SOL    HW133914   1.785   2.759   4.321  0.0566 -0.5098 -1.1522
 7427SOL    HW233915   1.780   2.781   4.180  0.4867  0.7677  0.0887
 7428SOL     OW33916   1.288   0.121   4.488 -0.2248 -0.2358  0.3390
 7428SOL    HW133917   1.297   0.093   4.397  1.2346  0.6339  0.2088
 7428SOL    HW233918   1.310   0.040   4.534  0.7787 -0.6835 -0.9262
 7429SOL     OW33919   2.632   1.191   7.087 -0.4464  0.3193  0.4221
 7429SOL    HW133920   2.617   1.280   7.055 -3.7916 -0.1481  0.6872
 7429SOL    HW233921   2.600   1.194   7.178 -3.5024  2.3724 -0.6987
 7430SOL     OW33922   2.477   4.288   5.509 -0.2348  0.1544 -0.2863
 7430SOL    HW133923   2.482   4.272   5.603  1.2317  2.8699  0.1048
 7430SOL    HW233924   2.566   4.268   5.478 -0.2547 -0.9407  0.3521
 7431SOL     OW33925   3.442   3.340  15.253 -0.1315  0.1318  0.2068
 7431SOL    HW133926   3.441   3.247  15.278  1.2684 -0.1987 -0.9871
 7431SOL    HW233927   3.353   3.357  15.286  0.0543 -0.5528  1.0552
 7432SOL     OW33928   2.765   2.045   2.155  0.6616 -0.1389  0.3144
 7432SOL    HW133929   2.734   1.988   2.084  1.6770 -2.0845  1.4269
 7432SOL    HW233930   2.712   2.020   2.230  1.3754  2.8503  1.8062
 7433SOL     OW33931   2.603   3.912   2.330  0.5144 -0.4690  0.3772
 7433SOL    HW133932   2.602   3.983   2.394 -1.1071  0.6510 -0.8765
 7433SOL    HW233933   2.682   3.927   2.279  0.2917 -0.3011  0.0794
 7434SOL     OW33934   0.089   4.142   8.233 -1.1053  0.1742  0.2419
 7434SOL    HW133935   0.076   4.056   8.273 -0.1434  0.1147  0.4430
 7434SOL    HW233936   0.032   4.132   8.157  0.2816 -0.7469 -0.6923
 7435SOL     OW33937   2.418   4.304   7.139 -0.2732  0.8132 -0.0533
 7435SOL    HW133938   2.487   4.281   7.200  0.3785  0.2736 -0.9870
 7435SOL    HW233939   2.413   4.229   7.080 -2.2158  2.4140 -1.9368
 7436SOL     OW33940   0.442   3.064   5.282 -0.0295  0.0639  0.0222
 7436SOL    HW133941   0.468   2.972   5.269  0.5205  0.2315 -0.0463
 7436SOL    HW233942   0.399   3.081   5.198  0.0507  0.5113  0.0718
 7437SOL     OW33943   2.118   3.404  12.630  0.0821 -1.0132 -0.7173
 7437SOL    HW133944   2.162   3.334  12.678 -1.9029 -1.8224 -0.0527
 7437SOL    HW233945   2.142   3.377  12.542 -1.8117  2.2571 -2.2260
 7438SOL     OW33946   3.143   1.310   3.664 -0.9387  0.6601 -0.0420
 7438SOL    HW133947   3.232   1.335   3.689 -0.2292 -0.8851 -1.0399
 7438SOL    HW233948   3.115   1.240   3.724  0.8780 -0.9102 -1.0174
 7439SOL     OW33949   2.081   1.093   9.165  0.3708 -0.0810  0.5393
 7439SOL    HW133950   2.140   1.049   9.225  0.9585  2.3973  1.7931
 7439SOL    HW233951   2.003   1.100   9.221 -0.0523  1.3137 -0.2100
 7440SOL     OW33952   2.024   2.437   4.535  0.5097 -0.7247 -0.1334
 7440SOL    HW133953   2.029   2.464   4.627 -1.1693 -1.4424  0.1647
 7440SOL    HW233954   2.107   2.390   4.537  0.8891 -0.1541 -2.5207
 7441SOL     OW33955   3.892   2.879   0.401  0.2526  0.0361 -0.6464
 7441SOL    HW133956   3.849   2.959   0.370  1.8183  1.6319  1.2970
 7441SOL    HW233957   3.837   2.820   0.351  0.8733 -1.9949  1.0653
 7442SOL     OW33958   0.149   3.571  13.740  0.0533 -0.4410  0.0002
 7442SOL    HW133959   0.130   3.610  13.825  2.1546 -1.7619  1.0726
 7442SOL    HW233960   0.068   3.523  13.724  0.0586 -0.4820  0.0932
 7443SOL     OW33961   2.916   3.631   0.125 -0.5903  0.0832 -0.8474
 7443SOL    HW133962   2.984   3.667   0.068 -0.7928 -0.4875 -1.4381
 7443SOL    HW233963   2.898   3.558   0.066 -1.8630 -0.3001  0.0021
 7444SOL     OW33964   0.901   3.186   0.042  0.2746  0.1514  0.0701
 7444SOL    HW133965   0.890   3.168   0.136  1.1524  1.6219  0.4589
 7444SOL    HW233966   0.836   3.255   0.034  2.1785  1.7440 -1.4047
 7445SOL     OW33967   3.571   1.990   3.686 -0.1383  0.2103 -0.7546
 7445SOL    HW133968   3.504   1.922   3.675  1.1075 -1.3789  1.3358
 7445SOL    HW233969   3.544   2.068   3.638 -0.7233 -1.3601 -2.9765
 7446SOL     OW33970   0.148   4.387   2.291 -0.3128  0.0038  0.3213
 7446SOL    HW133971   0.102   4.447   2.232 -2.6450 -1.7707  0.3401
 7446SOL    HW233972   0.180   4.330   2.221 -2.3175 -0.0013 -0.5765
 7447SOL     OW33973   1.632   3.806   7.810 -0.2541 -0.0758  0.0551
 7447SOL    HW133974   1.718   3.821   7.848 -0.0003 -1.6403  0.1084
 7447SOL    HW233975   1.652   3.744   7.740  0.0089  0.1065 -0.0306
 7448SOL     OW33976   1.426   1.824  12.659 -0.3326  0.0945  0.2570
 7448SOL    HW133977   1.380   1.792  12.581  1.1768  3.4268 -1.9766
 7448SOL    HW233978   1.501   1.875  12.630  0.1834  0.5582  2.3939
 7449SOL     OW33979   2.822   1.399   5.465  0.1319  0.7143  0.0374
 7449SOL    HW133980   2.792   1.364   5.549 -1.4600 -0.3505 -0.9663
 7449SOL    HW233981   2.792   1.490   5.471 -2.3804 -0.0844 -0.1496
 7450SOL     OW33982   2.928   0.811   4.490  0.2969 -0.0609 -0.2945
 7450SOL    HW133983   2.922   0.904   4.512 -0.1945  0.5950 -3.2065
 7450SOL    HW233984   2.914   0.806   4.396 -0.7536 -1.0585 -0.0912
 7451SOL     OW33985   4.276   3.815  17.244  0.3288 -0.8534 -0.0301
 7451SOL    HW133986   4.225   3.748  17.289  1.4729 -0.9986  1.0677
 7451SOL    HW233987   4.344   3.757  17.210  1.0155  0.0670 -0.2408
 7452SOL     OW33988   0.557   3.545   3.524  0.1560  0.0916 -0.7998
 7452SOL    HW133989   0.551   3.640   3.532 -1.6559 -0.2573  1.8192
 7452SOL    HW233990   0.520   3.536   3.436 -0.3642  2.0742 -0.7794
 7453SOL     OW33991   1.233   3.310  16.882 -0.1214 -0.4495 -0.5076
 7453SOL    HW133992   1.304   3.250  16.859 -1.2183 -1.2188 -1.9014
 7453SOL    HW233993   1.264   3.386  16.833  0.7582 -0.9309 -0.6892
 7454SOL     OW33994   4.493   0.037   5.687 -0.0871 -0.1889  0.3267
 7454SOL    HW133995   4.441   4.723   5.627 -0.5905  0.9217 -0.2102
 7454SOL    HW233996   4.526   0.109   5.633  0.6309  0.4004  1.5589
 7455SOL     OW33997   1.962   1.857  16.907 -0.5695 -0.0567  0.1676
 7455SOL    HW133998   1.936   1.820  16.991 -2.3171  1.4194  0.2754
 7455SOL    HW233999   1.956   1.782  16.848  0.8750  0.8169 -1.0677
 7456SOL     OW34000   0.792   0.156   3.414 -0.3108  0.4770 -0.6167
 7456SOL    HW134001   0.820   0.120   3.498  2.5063  0.3117 -1.5998
 7456SOL    HW234002   0.726   0.220   3.441 -1.1391 -1.1568  1.1852
 7457SOL     OW34003   1.204   3.883   1.948  0.2745  0.2298 -0.2700
 7457SOL    HW134004   1.255   3.965   1.953 -0.6579  0.6326  2.9127
 7457SOL    HW234005   1.148   3.900   2.024  0.1402 -1.1624 -0.0680
 7458SOL     OW34006   2.163   1.075   2.322 -0.5380 -0.2642 -0.0086
 7458SOL    HW134007   2.239   1.089   2.265  0.9087 -1.7048  1.5492
 7458SOL    HW234008   2.119   1.159   2.313 -0.4496 -0.4279 -1.9807
 7459SOL     OW34009   3.169   0.655   3.180  0.0530  0.4600 -0.6903
 7459SOL    HW134010   3.136   0.740   3.150  0.8836  1.2031  0.5067
 7459SOL    HW234011   3.262   0.670   3.196 -0.2405  1.6390 -0.0425
 7460SOL     OW34012   1.039   1.538  14.204 -0.4846 -0.0389 -0.0103
 7460SOL    HW134013   1.013   1.624  14.237 -0.2410 -0.3618  1.0072
 7460SOL    HW234014   0.951   1.504  14.191 -0.3255  0.2346 -1.8514
 7461SOL     OW34015   2.705   0.986  10.173  0.6121 -0.3651 -0.4629
 7461SOL    HW134016   2.702   1.011  10.266  0.6060 -0.5455 -0.4142
 7461SOL    HW234017   2.736   1.063  10.126  1.2482  0.6543  1.6399
 7462SOL     OW34018   1.579   3.268  15.210 -0.0518  0.3339  0.4514
 7462SOL    HW134019   1.535   3.245  15.292 -0.4856  2.7073  0.9080
 7462SOL    HW234020   1.511   3.310  15.156 -1.8021 -1.7213  1.0455
 7463SOL     OW34021   1.365   2.281   1.613 -0.6456 -0.2343 -0.1059
 7463SOL    HW134022   1.388   2.343   1.544  2.0162 -0.4653  0.5711
 7463SOL    HW234023   1.322   2.220   1.554 -1.6476  1.4352 -1.0889
 7464SOL     OW34024   1.277   1.502   0.672 -0.6087 -0.5269  0.5429
 7464SOL    HW134025   1.352   1.562   0.677 -3.1706  2.8530 -1.1723
 7464SOL    HW234026   1.234   1.528   0.753  0.2986 -0.4134  0.9801
 7465SOL     OW34027   4.579   2.604   3.255 -0.2266  0.2866  0.6502
 7465SOL    HW134028   4.545   2.525   3.298  2.0802 -1.3869 -0.5681
 7465SOL    HW234029   4.662   2.586   3.210 -0.1515 -0.3111  1.0315
 7466SOL     OW34030   1.200   0.701   5.092  0.0271 -0.0346 -0.2320
 7466SOL    HW134031   1.197   0.613   5.054  2.4071  0.9599 -2.6869
 7466SOL    HW234032   1.223   0.742   5.009 -0.9020  0.6089 -0.1732
 7467SOL     OW34033   3.967   3.048  10.632 -0.0537  0.1101  0.6548
 7467SOL    HW134034   3.955   3.138  10.663  0.2905  0.7103 -0.9276
 7467SOL    HW234035   3.913   3.002  10.697 -1.6143 -1.0040 -1.4092
 7468SOL     OW34036   1.666   3.105  17.589 -0.0902 -0.2075  0.5428
 7468SOL    HW134037   1.701   3.160  17.658  0.2449  0.9027 -0.5086
 7468SOL    HW234038   1.732   3.112  17.520 -2.4674 -0.3556 -1.7854
 7469SOL     OW34039   1.334   4.202   5.698  0.2675 -0.2359 -0.0945
 7469SOL    HW134040   1.280   4.124   5.703 -1.2913  0.7245 -1.9157
 7469SOL    HW234041   1.417   4.169   5.663 -1.0742 -3.0718 -0.5579
 7470SOL     OW34042   3.305   3.599   2.652  0.6393  0.3990  0.1239
 7470SOL    HW134043   3.244   3.670   2.633 -0.3875 -0.4500  0.2566
 7470SOL    HW234044   3.383   3.654   2.642  1.2195 -0.7605 -1.6220
 7471SOL     OW34045   3.416   2.238   3.987 -0.0712  0.1267 -0.4007
 7471SOL    HW134046   3.374   2.312   3.943 -1.2079 -1.4405 -1.9735
 7471SOL    HW234047   3.367   2.162   3.954  0.5454 -0.6342  0.4561
 7472SOL     OW34048   0.907   2.736  13.460 -0.0788 -0.1080 -0.2831
 7472SOL    HW134049   0.884   2.744  13.553  0.0363  1.0178 -0.3551
 7472SOL    HW234050   0.816   2.749  13.433  0.0435 -1.0172 -1.1195
 7473SOL     OW34051   4.175   0.743  11.547  0.0680 -0.3733 -0.8405
 7473SOL    HW134052   4.088   0.747  11.586  0.0602  3.4265 -1.2475
 7473SOL    HW234053   4.189   0.651  11.568 -2.2506 -0.4633  0.3188
 7474SOL     OW34054   2.097   4.332   3.328  0.2654 -0.0913 -0.3429
 7474SOL    HW134055   2.126   4.281   3.253 -1.3988  0.3536 -1.2708
 7474SOL    HW234056   2.143   4.414   3.310  0.1851  0.2768  1.1397
 7475SOL     OW34057   0.555   4.483  10.165 -0.2960  0.2892  0.2044
 7475SOL    HW134058   0.535   4.422  10.093  0.0268 -1.9756  2.0249
 7475SOL    HW234059   0.551   4.417  10.234 -0.0849 -1.9743 -1.9161
 7476SOL     OW34060   1.780   0.556  11.781  0.4015  0.0949  0.0654
 7476SOL    HW134061   1.699   0.541  11.829  1.3013 -0.1599  1.5242
 7476SOL    HW234062   1.793   0.649  11.798  0.8720 -0.1507  1.0675
 7477SOL     OW34063   2.340   3.663   7.663 -0.5089  0.2540 -1.1651
 7477SOL    HW134064   2.341   3.572   7.633  0.5181 -0.8427  2.1924
 7477SOL    HW234065   2.422   3.670   7.712 -0.7417 -0.5012 -0.6682
 7478SOL     OW34066   2.716   4.624   6.415 -0.3015  0.0962  0.5142
 7478SOL    HW134067   2.657   4.552   6.439 -0.4616  0.0499 -0.0181
 7478SOL    HW234068   2.702   4.625   6.320  0.0526 -3.2313  0.4360
 7479SOL     OW34069   0.682   4.573  10.919  0.5588 -0.3072  0.0818
 7479SOL    HW134070   0.710   4.551  11.008 -0.3248  0.5205  0.5607
 7479SOL    HW234071   0.769   4.584  10.882  0.0671  0.3301 -0.8941
 7480SOL     OW34072   2.899   4.693  11.221 -0.2675 -0.3313  0.8041
 7480SOL    HW134073   2.865   4.616  11.177 -1.0170 -0.3920  1.4921
 7480SOL    HW234074   2.895   4.667  11.313  2.1281  0.5448  1.1677
 7481SOL     OW34075   4.479   0.399   8.738  0.1286  0.1262  0.3154
 7481SOL    HW134076   4.486   0.305   8.722  1.0922  0.6832 -2.5784
 7481SOL    HW234077   4.536   0.413   8.814  0.3318  3.6633 -0.4890
 7482SOL     OW34078   3.835   4.654   2.423  0.1590  0.4053 -0.0895
 7482SOL    HW134079   3.896   4.667   2.350 -0.8736 -2.9683 -1.5703
 7482SOL    HW234080   3.873   4.701   2.497  1.0418 -2.1407  1.0759
 7483SOL     OW34081   1.140   2.425  17.309  0.2744 -0.2359 -0.7984
 7483SOL    HW134082   1.146   2.415  17.404  2.4803 -1.4344 -1.0900
 7483SOL    HW234083   1.205   2.358  17.291  1.8343  0.7593  1.1315
 7484SOL     OW34084   0.446   3.998   2.151  0.1830  0.3942 -0.2214
 7484SOL    HW134085   0.474   3.937   2.218  1.7510 -0.5469 -1.7351
 7484SOL    HW234086   0.359   3.966   2.127  1.0235 -0.9158 -1.5302
 7485SOL     OW34087   1.062   3.421  17.082  0.2851 -0.1790  0.4898
 7485SOL    HW134088   1.135   3.446  17.139 -0.7263  1.9771  0.8382
 7485SOL    HW234089   1.122   3.382  17.019  0.0900 -1.8966  1.3407
 7486SOL     OW34090   3.501   4.529   6.985 -0.1503 -0.8709 -0.4640
 7486SOL    HW134091   3.492   4.574   6.900  1.1043 -2.9225 -1.6904
 7486SOL    HW234092   3.559   4.581   7.042  0.1831 -5.2269  3.1223
 7487SOL     OW34093   2.245   0.235  11.105  0.0694 -0.3917  0.0350
 7487SOL    HW134094   2.284   0.257  11.189 -0.0179 -1.4841  0.3513
 7487SOL    HW234095   2.316   0.178  11.077  0.3854 -0.0167  0.0702
 7488SOL     OW34096   4.691   3.210   0.691  0.8364 -0.0989 -0.0654
 7488SOL    HW134097   0.045   3.224   0.714  1.4838 -2.8207 -1.0068
 7488SOL    HW234098   4.656   3.234   0.777  0.3109  0.5454 -0.4629
 7489SOL     OW34099   4.436   4.054  11.846 -0.1815  0.4123 -0.0268
 7489SOL    HW134100   4.519   4.071  11.892 -0.2764 -0.6125  0.5190
 7489SOL    HW234101   4.432   4.116  11.773 -2.1387  2.0322  1.4647
 7490SOL     OW34102   2.610   0.138   7.696  0.1996  0.1964  0.4091
 7490SOL    HW134103   2.679   0.164   7.758  1.0826  2.4354 -1.5400
 7490SOL    HW234104   2.644   0.175   7.614  0.3158 -2.5720 -0.7746
 7491SOL     OW34105   4.480   3.171   7.490  0.2392  0.5334 -0.2565
 7491SOL    HW134106   4.471   3.262   7.461 -2.2892  0.3944  0.1289
 7491SOL    HW234107   4.407   3.127   7.448  0.1479 -1.6751  2.2357
 7492SOL     OW34108   2.239   2.260   7.907 -0.5954  0.6210 -0.0411
 7492SOL    HW134109   2.189   2.240   7.828 -1.9733  1.1000  0.7058
 7492SOL    HW234110   2.188   2.330   7.947 -0.8751  0.4016 -0.0139
 7493SOL     OW34111   2.982   0.305  10.167 -0.1342 -0.0503  0.0237
 7493SOL    HW134112   2.950   0.312  10.257 -1.4482  0.7750 -0.4972
 7493SOL    HW234113   2.955   0.391  10.135  0.2055 -0.4380 -1.3052
 7494SOL     OW34114   2.612   3.559   9.808  0.5503 -0.2085 -0.4735
 7494SOL    HW134115   2.642   3.566   9.899 -2.7019  1.7329  0.4534
 7494SOL    HW234116   2.542   3.496   9.824  0.1030  0.1665 -0.9754
 7495SOL     OW34117   3.692   0.575  11.223  0.1831  0.8085 -0.3280
 7495SOL    HW134118   3.691   0.527  11.140  1.9442  0.3854 -0.1188
 7495SOL    HW234119   3.704   0.667  11.198  0.6054  1.0775  0.8888
 7496SOL     OW34120   4.461   0.772   6.679 -0.1203 -0.3376 -0.2412
 7496SOL    HW134121   4.436   0.808   6.764  1.8415 -0.4834  0.4011
 7496SOL    HW234122   4.470   0.853   6.628  1.5944  0.8062  1.8920
 7497SOL     OW34123   3.255   3.177   2.224 -0.0981  0.5542 -0.6028
 7497SOL    HW134124   3.232   3.086   2.240  0.7406  0.3520 -0.5515
 7497SOL    HW234125   3.277   3.162   2.132  0.5774  2.2276 -0.7178
 7498SOL     OW34126   0.277   4.294   8.139  0.5750 -0.4011  0.1995
 7498SOL    HW134127   0.208   4.231   8.157 -0.0959  0.9673  2.4448
 7498SOL    HW234128   0.294   4.278   8.046  0.2680 -0.3523  0.1358
 7499SOL     OW34129   4.705   4.577   0.491  0.2324  0.3761  0.0542
 7499SOL    HW134130   0.026   4.627   0.546  2.1144 -1.4214 -0.3258
 7499SOL    HW234131   4.628   4.634   0.493 -0.7926 -0.9886 -0.2579
 7500SOL     OW34132   3.323   1.127  15.621 -0.1437  0.4096  0.6412
 7500SOL    HW134133   3.230   1.126  15.643  0.0041  3.6484  1.4397
 7500SOL    HW234134   3.363   1.124  15.708  1.7137  0.5914 -0.1931
 7501SOL     OW34135   0.763   3.099   8.467  0.0685 -0.2957 -0.1197
 7501SOL    HW134136   0.723   3.023   8.424 -0.0726 -0.1684 -0.2161
 7501SOL    HW234137   0.678   3.137   8.490  0.8033 -0.3649  2.7300
 7502SOL     OW34138   1.417   4.117   6.254 -0.2993  0.0402 -0.4286
 7502SOL    HW134139   1.335   4.142   6.212  0.1547  0.4556 -1.0833
 7502SOL    HW234140   1.380   4.068   6.327  3.4629 -0.0099  1.4422
 7503SOL     OW34141   4.520   4.153  12.195  0.7961  0.0592  0.5182
 7503SOL    HW134142   4.615   4.148  12.194  0.7397 -0.8569 -0.4023
 7503SOL    HW234143   4.493   4.103  12.272  0.1527  0.2126  0.3943
 7504SOL     OW34144   3.820   0.996   4.169 -0.0259  0.6432 -0.2888
 7504SOL    HW134145   3.793   1.015   4.259  1.0220  0.8545 -0.0282
 7504SOL    HW234146   3.872   0.916   4.183 -0.4572  0.6515  1.3901
 7505SOL     OW34147   0.703   2.164   3.763  0.7596  0.0641  0.0580
 7505SOL    HW134148   0.714   2.251   3.725 -1.5757  0.7839  1.0106
 7505SOL    HW234149   0.792   2.132   3.778  0.5793 -0.7767 -0.6625
 7506SOL     OW34150   0.573   2.697  13.531 -0.0421 -0.2065  0.0941
 7506SOL    HW134151   0.581   2.760  13.459 -2.9743 -0.9530 -0.8759
 7506SOL    HW234152   0.539   2.749  13.603  1.0185 -2.2288  2.0391
 7507SOL     OW34153   1.750   1.418   7.198 -0.2850 -0.0382  0.0563
 7507SOL    HW134154   1.811   1.419   7.271 -0.5955  0.9592  0.2997
 7507SOL    HW234155   1.725   1.326   7.205 -1.4522  0.1428 -1.5419
 7508SOL     OW34156   1.283   2.679   6.778  0.1881 -0.3662 -0.1617
 7508SOL    HW134157   1.324   2.596   6.803 -1.6165 -0.6845  1.7915
 7508SOL    HW234158   1.294   2.675   6.683 -0.9802 -0.0755 -0.3128
 7509SOL     OW34159   2.518   0.712   8.218  0.0139  0.7045 -0.4852
 7509SOL    HW134160   2.507   0.776   8.148 -0.5393  0.1276 -0.9271
 7509SOL    HW234161   2.439   0.662   8.241  0.3888  0.5773  0.5343
 7510SOL     OW34162   1.757   4.467   8.390  0.1453  0.6062  0.3220
 7510SOL    HW134163   1.818   4.395   8.407  0.7360  0.8199 -0.9125
 7510SOL    HW234164   1.764   4.511   8.474  0.0559  1.5704 -0.1769
 7511SOL     OW34165   0.298   1.967   1.354  0.5560  0.7358 -0.2527
 7511SOL    HW134166   0.351   1.888   1.343 -0.2238 -0.0826  1.8818
 7511SOL    HW234167   0.219   1.936   1.309  0.4134  0.0809  0.4431
 7512SOL     OW34168   3.257   4.473   7.769  0.0972  0.0102 -0.2979
 7512SOL    HW134169   3.285   4.555   7.729  1.7548  0.0986  0.9984
 7512SOL    HW234170   3.275   4.415   7.695  0.9737  1.2915 -1.0881
 7513SOL     OW34171   0.193   1.816   3.895 -0.1347  0.1349 -0.3732
 7513SOL    HW134172   0.214   1.883   3.960 -0.0717 -0.2225 -0.0243
 7513SOL    HW234173   0.266   1.833   3.836 -0.8623  2.8112 -0.5082
 7514SOL     OW34174   0.189   1.380   7.387 -0.1376 -0.3522  0.5363
 7514SOL    HW134175   0.099   1.383   7.355  0.1035  2.1116  0.0948
 7514SOL    HW234176   0.220   1.470   7.394  1.8194 -1.0460  0.6966
 7515SOL     OW34177   3.662   2.364   7.747  0.4318 -0.1473 -0.3506
 7515SOL    HW134178   3.734   2.413   7.788 -1.0324  1.5162  0.1977
 7515SOL    HW234179   3.687   2.377   7.655  0.4716  0.9694 -0.1875
 7516SOL     OW34180   4.532   0.640   4.065  0.1737 -0.0766  0.2527
 7516SOL    HW134181   4.501   0.551   4.046 -0.9667  0.8217 -2.0660
 7516SOL    HW234182   4.542   0.632   4.160 -1.4992 -0.6980  0.3684
 7517SOL     OW34183   3.931   2.573   8.588 -0.2569 -0.5461 -0.4961
 7517SOL    HW134184   3.856   2.523   8.555 -2.0427  1.1308  1.0049
 7517SOL    HW234185   3.991   2.559   8.515 -2.0105  0.2899 -2.1160
 7518SOL     OW34186   4.585   4.031   7.146 -0.1290 -0.3835 -0.0412
 7518SOL    HW134187   4.525   4.105   7.159  0.8424  0.4265 -0.1337
 7518SOL    HW234188   4.659   4.072   7.101 -2.0829  0.7937 -2.2028
 7519SOL     OW34189   1.132   1.499   4.443  0.1876 -0.0508  0.6299
 7519SOL    HW134190   1.095   1.579   4.479 -2.1452 -0.6263 -0.5232
 7519SOL    HW234191   1.149   1.444   4.520 -0.0182 -0.2055  0.5654
 7520SOL     OW34192   2.204   1.163   4.131  0.2891  0.0079  0.0553
 7520SOL    HW134193   2.123   1.212   4.140 -0.6145 -1.8601  2.0025
 7520SOL    HW234194   2.177   1.096   4.069  1.2671 -0.8923  0.5797
 7521SOL     OW34195   1.272   3.395   7.652 -0.2030  0.1704 -0.1357
 7521SOL    HW134196   1.261   3.301   7.634  2.0987 -0.1142 -0.0166
 7521SOL    HW234197   1.221   3.409   7.732 -1.5333 -0.7415 -0.8110
 7522SOL     OW34198   3.134   2.237  11.477  0.6049  0.0859 -0.5401
 7522SOL    HW134199   3.039   2.229  11.477  0.5196  1.1060  0.1292
 7522SOL    HW234200   3.141   2.328  11.448  3.0607 -0.0972 -0.5289
 7523SOL     OW34201   2.755   4.348  17.030 -0.0483 -0.6721 -0.3076
 7523SOL    HW134202   2.718   4.262  17.046  0.0577 -0.6195  0.2195
 7523SOL    HW234203   2.694   4.380  16.964  0.2548  0.0516 -0.2386
 7524SOL     OW34204   1.679   0.248   5.189  0.7178  0.0778 -0.5046
 7524SOL    HW134205   1.591   0.278   5.210  0.7212  0.2979 -0.8021
 7524SOL    HW234206   1.677   0.160   5.227 -1.1348  0.3024 -0.1135
 7525SOL     OW34207   1.166   3.313   6.296  0.0093 -0.2446  0.3598
 7525SOL    HW134208   1.127   3.359   6.221 -1.4162 -2.3899 -0.2283
 7525SOL    HW234209   1.093   3.304   6.357  0.6510  0.6836  1.2573
 7526SOL     OW34210   0.344   4.010  17.024 -0.4918  0.7608  0.1708
 7526SOL    HW134211   0.283   4.067  16.975 -1.9491  0.5399  1.7263
 7526SOL    HW234212   0.402   3.970  16.960 -1.6884 -2.4664  1.1061
 7527SOL     OW34213   3.521   3.584   3.396  0.0443 -0.0044  0.1657
 7527SOL    HW134214   3.517   3.558   3.304  1.4462  2.9171 -0.7282
 7527SOL    HW234215   3.600   3.639   3.394  0.0645 -0.0233  0.3862
 7528SOL     OW34216   1.884   2.429   4.008  0.0406  0.3155  0.4167
 7528SOL    HW134217   1.816   2.364   4.025  0.0245  0.4888  0.9945
 7528SOL    HW234218   1.959   2.370   3.997  1.4627  2.4058 -1.0885
 7529SOL     OW34219   3.373   1.020   9.120  0.2031  0.5790  0.5248
 7529SOL    HW134220   3.410   0.936   9.094  0.0858  0.6613  0.0942
 7529SOL    HW234221   3.294   0.992   9.167 -1.3266  2.1491 -1.1388
 7530SOL     OW34222   3.721   3.253   5.191  0.4544 -0.0537 -0.1366
 7530SOL    HW134223   3.653   3.279   5.130 -2.1319 -1.9478  1.9342
 7530SOL    HW234224   3.778   3.330   5.199  0.5521 -0.2493  1.1973
 7531SOL     OW34225   1.722   1.339   2.266 -0.1863  0.1696  0.3874
 7531SOL    HW134226   1.708   1.328   2.360 -1.3905  0.7675  0.2759
 7531SOL    HW234227   1.721   1.435   2.260 -0.3402  0.1427  0.0114
 7532SOL     OW34228   2.469   3.938   9.522 -0.7161 -0.4234 -0.1695
 7532SOL    HW134229   2.514   4.012   9.481 -0.9792 -0.1647  0.0016
 7532SOL    HW234230   2.431   3.986   9.596 -0.3536  0.2403 -0.4138
 7533SOL     OW34231   4.733   1.453   1.135  0.5970 -0.1689 -0.1681
 7533SOL    HW134232   4.685   1.530   1.104  1.7115 -0.1581 -1.8421
 7533SOL    HW234233   4.685   1.382   1.093  3.3136 -1.2740 -1.3412
 7534SOL     OW34234   2.748   1.576  12.163  0.7583 -0.4553 -0.0012
 7534SOL    HW134235   2.820   1.562  12.102 -0.0962 -1.2068 -0.8359
 7534SOL    HW234236   2.731   1.484  12.186  1.0132 -0.4295  0.2898
 7535SOL     OW34237   1.766   2.755  10.244  0.0624  0.4725 -0.2886
 7535SOL    HW134238   1.743   2.840  10.205  0.4732  1.2388  1.1423
 7535SOL    HW234239   1.820   2.730  10.169  0.6891  0.8860  0.0236
 7536SOL     OW34240   1.586   3.698   6.483 -0.5901 -0.4993 -0.2831
 7536SOL    HW134241   1.634   3.653   6.554  1.3377 -0.7890 -1.7701
 7536SOL    HW234242   1.656   3.752   6.446  0.0024 -1.7031 -0.9367
 7537SOL     OW34243   1.657   2.597  10.781  0.1095 -0.0610  0.6346
 7537SOL    HW134244   1.655   2.552  10.697 -1.6367  0.6262  0.2995
 7537SOL    HW234245   1.583   2.657  10.770  0.9042  0.8944  0.5519
 7538SOL     OW34246   1.761   3.362   6.818 -0.3407  0.2380 -0.1714
 7538SOL    HW134247   1.849   3.332   6.794 -0.8806  0.1609 -2.0390
 7538SOL    HW234248   1.719   3.278   6.832  0.2526 -0.0589 -0.1588
 7539SOL     OW34249   3.705   1.760   7.671  0.0948 -0.3993 -0.2204
 7539SOL    HW134250   3.640   1.691   7.683  0.6781 -0.9876 -0.4609
 7539SOL    HW234251   3.668   1.793   7.588  0.8017 -1.8813 -1.1128
 7540SOL     OW34252   1.907   4.474   4.275 -0.0733  0.0063 -0.5297
 7540SOL    HW134253   1.884   4.563   4.248  2.2818  1.0626  0.8901
 7540SOL    HW234254   1.961   4.486   4.353  0.7854  0.0624 -1.1270
 7541SOL     OW34255   2.154   2.727   8.049  0.6191 -0.0055 -0.1565
 7541SOL    HW134256   2.173   2.692   8.136  0.5881  0.1267 -0.0973
 7541SOL    HW234257   2.221   2.790   8.026 -0.6598  0.2718 -3.0838
 7542SOL     OW34258   4.507   3.973   8.750  0.3460 -0.2419 -0.7691
 7542SOL    HW134259   4.572   3.978   8.680  0.5199 -3.0405 -0.8048
 7542SOL    HW234260   4.557   3.992   8.829 -0.2251 -0.6865 -0.3011
 7543SOL     OW34261   3.146   2.244  12.042  0.2004 -0.9291  0.1041
 7543SOL    HW134262   3.077   2.300  12.005  1.1476 -0.1737 -0.5112
 7543SOL    HW234263   3.223   2.288  12.006 -1.9984  0.7939 -2.5097
 7544SOL     OW34264   1.088   1.151  13.492 -0.7283  0.2623 -0.2016
 7544SOL    HW134265   1.156   1.139  13.425 -0.7382  0.2432 -0.2082
 7544SOL    HW234266   1.091   1.064  13.532  0.3424 -0.4248 -1.7732
 7545SOL     OW34267   0.166   1.512  16.872 -0.6341 -0.2933 -0.3440
 7545SOL    HW134268   0.071   1.506  16.877 -0.5163 -1.8915 -0.0416
 7545SOL    HW234269   0.178   1.598  16.912 -1.0741 -0.3420 -0.1140
 7546SOL     OW34270   4.571   4.182   3.369 -0.3704  0.2787 -0.3627
 7546SOL    HW134271   4.494   4.237   3.355 -0.4446  0.2272 -0.1483
 7546SOL    HW234272   4.610   4.218   3.448 -0.7152 -0.0316 -0.0509
 7547SOL     OW34273   1.852   4.111   3.073 -0.5202 -0.2854  0.1181
 7547SOL    HW134274   1.781   4.156   3.119  1.4610 -0.1837  3.1142
 7547SOL    HW234275   1.855   4.018   3.099 -1.8596 -0.4295 -0.2595
 7548SOL     OW34276   1.243   3.985   7.860  0.1066  0.0504  0.1803
 7548SOL    HW134277   1.266   3.902   7.817  0.2072 -0.0156  0.3598
 7548SOL    HW234278   1.305   3.993   7.932  1.4773  1.1143 -1.1236
 7549SOL     OW34279   2.827   1.666   2.788 -0.1771 -0.0524  0.7652
 7549SOL    HW134280   2.767   1.610   2.836 -0.5148  0.0221  0.4282
 7549SOL    HW234281   2.798   1.645   2.699  2.8953 -1.6857  0.1666
 7550SOL     OW34282   1.892   0.635   5.668  0.1359 -0.3042  0.1364
 7550SOL    HW134283   1.966   0.640   5.608  0.0969 -2.7601 -0.1094
 7550SOL    HW234284   1.820   0.684   5.630 -0.0833  0.0736  1.0295
 7551SOL     OW34285   1.482   3.182   6.062 -0.3720 -1.0795 -0.0636
 7551SOL    HW134286   1.485   3.263   6.010 -1.7556 -2.0349 -1.6355
 7551SOL    HW234287   1.405   3.135   6.030 -2.1440 -0.8957  3.8655
 7552SOL     OW34288   2.995   0.288   5.946 -0.2900  0.0341  0.2959
 7552SOL    HW134289   3.033   0.260   6.030  0.7780 -0.1829 -0.2546
 7552SOL    HW234290   2.916   0.335   5.971 -0.0681  0.4052  0.3098
 7553SOL     OW34291   1.646   4.150   8.460 -0.1373 -0.0554 -0.1500
 7553SOL    HW134292   1.657   4.100   8.541 -1.4023 -0.5862 -0.3136
 7553SOL    HW234293   1.734   4.180   8.437  0.1944 -1.8672 -1.2715
 7554SOL     OW34294   1.900   0.922  16.247  0.0872  0.1534 -0.0607
 7554SOL    HW134295   1.975   0.915  16.188  0.9489 -2.2237  1.2657
 7554SOL    HW234296   1.833   0.883  16.190  1.7773 -1.3972 -1.0046
 7555SOL     OW34297   3.941   1.633  15.337  0.2890 -0.1494 -0.2617
 7555SOL    HW134298   3.944   1.545  15.299  0.1468 -0.3673  0.2371
 7555SOL    HW234299   3.975   1.690  15.267 -2.4644  1.2421 -0.4534
 7556SOL     OW34300   0.965   4.682   6.947 -0.3127 -0.0583  0.1560
 7556SOL    HW134301   0.876   4.717   6.956 -0.6376 -0.7967 -0.1603
 7556SOL    HW234302   0.961   4.600   6.997 -1.0322  0.5087  1.0375
 7557SOL     OW34303   2.454   3.099  17.148 -0.0618 -0.0613 -0.2383
 7557SOL    HW134304   2.533   3.090  17.202 -0.3300 -1.0042 -0.0088
 7557SOL    HW234305   2.396   3.025  17.166 -0.0513  0.1725  0.7587
 7558SOL     OW34306   2.379   0.216   7.817 -0.3134 -0.4865  0.6147
 7558SOL    HW134307   2.403   0.209   7.909  1.3386  1.3478  0.3418
 7558SOL    HW234308   2.461   0.192   7.773 -0.7468 -1.3379  0.2829
 7559SOL     OW34309   3.903   4.118   7.953 -0.2207 -0.0786 -0.2982
 7559SOL    HW134310   3.998   4.113   7.941  0.0495  0.5751  1.5556
 7559SOL    HW234311   3.881   4.190   8.012  2.7278  0.4691  0.1019
 7560SOL     OW34312   4.471   2.490  10.079 -0.1323  0.0601  0.4390
 7560SOL    HW134313   4.547   2.526  10.124  0.0336 -0.5147  0.6151
 7560SOL    HW234314   4.416   2.567  10.066 -1.3400 -0.8623 -0.0043
 7561SOL     OW34315   2.964   1.916   4.216 -0.3518  0.2408  0.4181
 7561SOL    HW134316   2.965   1.938   4.309 -0.1015 -0.4043  0.5674
 7561SOL    HW234317   3.027   1.844   4.209 -0.7557 -0.0333 -0.4200
 7562SOL     OW34318   1.646   2.920  15.262  0.6326 -0.1255  0.1510
 7562SOL    HW134319   1.708   2.961  15.322 -0.6274  2.2313 -0.1603
 7562SOL    HW234320   1.691   2.923  15.177 -1.0050  2.5375 -0.6223
 7563SOL     OW34321   3.884   2.138   8.133 -0.0454 -0.3946 -0.3464
 7563SOL    HW134322   3.905   2.065   8.192  0.5349 -0.5558 -0.7514
 7563SOL    HW234323   3.942   2.125   8.057  0.8604  0.8558  0.1198
 7564SOL     OW34324   3.912   3.368   7.794  0.0474 -0.5587  0.4001
 7564SOL    HW134325   3.828   3.407   7.817 -0.1298 -0.1327 -0.9641
 7564SOL    HW234326   3.890   3.310   7.720  0.9307  0.7049 -0.8410
 7565SOL     OW34327   1.128   3.660  17.566  0.4595  0.2910  0.1508
 7565SOL    HW134328   1.098   3.615  17.487 -3.3382  0.2183  1.6209
 7565SOL    HW234329   1.049   3.708  17.589  0.5867 -0.4670  2.1575
 7566SOL     OW34330   0.644   3.303   2.976 -0.7171  0.1923 -0.3992
 7566SOL    HW134331   0.685   3.359   2.910  1.5515  0.2709  1.0817
 7566SOL    HW234332   0.560   3.281   2.937 -0.7570  0.3300 -0.3931
 7567SOL     OW34333   1.955   0.616   3.929  0.4968  0.3337  0.4754
 7567SOL    HW134334   2.016   0.685   3.903  0.0204  1.2239  1.7294
 7567SOL    HW234335   1.923   0.584   3.844  0.3123  1.4840  0.1167
 7568SOL     OW34336   2.892   1.316  14.185  0.7230 -0.2091 -0.0513
 7568SOL    HW134337   2.885   1.407  14.156  0.7242  0.4558  2.0902
 7568SOL    HW234338   2.821   1.321  14.249 -0.1232 -0.5686 -0.9488
 7569SOL     OW34339   1.561   3.873  14.844  0.3507 -0.0979  1.0293
 7569SOL    HW134340   1.640   3.823  14.825  0.9068  0.7334  1.1760
 7569SOL    HW234341   1.567   3.899  14.936 -0.3348  2.6607  0.2883
 7570SOL     OW34342   3.696   2.904  12.908 -0.2563 -0.0827 -0.1178
 7570SOL    HW134343   3.684   2.982  12.961  1.5582  0.9714 -1.2833
 7570SOL    HW234344   3.733   2.946  12.831 -0.2444  0.3394  0.1207
 7571SOL     OW34345   4.314   0.118   7.997 -0.4141 -0.2023 -0.7847
 7571SOL    HW134346   4.285   0.205   8.026  0.9611 -0.0431  0.0795
 7571SOL    HW234347   4.403   0.109   8.030 -0.8131 -0.0332  0.3356
 7572SOL     OW34348   1.909   2.486   1.995  0.1472 -0.3333 -0.0132
 7572SOL    HW134349   1.961   2.567   1.993 -4.2121  2.5851  3.9024
 7572SOL    HW234350   1.826   2.508   1.954  0.7208  0.4838 -0.7458
 7573SOL     OW34351   1.397   0.184   5.284  0.2920  0.1716  0.2262
 7573SOL    HW134352   1.338   0.148   5.218 -1.1757 -0.4640  1.8841
 7573SOL    HW234353   1.345   0.254   5.323 -0.7056 -1.2681  1.4665
 7574SOL     OW34354   4.449   2.758  10.144 -0.1310  0.4838 -0.3332
 7574SOL    HW134355   4.538   2.788  10.163  0.2317  0.1792 -1.5185
 7574SOL    HW234356   4.423   2.842  10.105 -0.2717  0.0891 -1.0909
 7575SOL     OW34357   4.490   4.097   1.755  0.1177 -0.0545 -0.3061
 7575SOL    HW134358   4.536   4.155   1.817 -2.9605  1.4826  0.5751
 7575SOL    HW234359   4.485   4.023   1.816  0.0936 -1.9877 -2.6881
 7576SOL     OW34360   3.978   1.346  12.237  0.0524  0.6840  0.4538
 7576SOL    HW134361   3.966   1.262  12.193  0.4389  0.7784  0.1588
 7576SOL    HW234362   4.070   1.335  12.264 -0.2681 -0.6786  0.9897
 7577SOL     OW34363   1.144   4.363  14.584  0.2620 -0.1786  0.3321
 7577SOL    HW134364   1.076   4.416  14.544  0.0450 -0.6721  0.0577
 7577SOL    HW234365   1.096   4.282  14.599  2.6021 -1.3790  1.4461
 7578SOL     OW34366   2.776   3.728   4.861  0.6185  0.4459 -0.1380
 7578SOL    HW134367   2.686   3.761   4.857  0.1172 -0.6795  1.6323
 7578SOL    HW234368   2.810   3.782   4.932 -1.4445 -0.5498  1.5967
 7579SOL     OW34369   3.506   0.750   9.109 -0.3764 -0.0384  0.1035
 7579SOL    HW134370   3.450   0.743   9.186 -1.5476  1.4497 -0.6099
 7579SOL    HW234371   3.467   0.680   9.056 -2.2683  0.0965  1.3545
 7580SOL     OW34372   2.299   3.256   3.136 -0.2304 -0.2412 -0.3537
 7580SOL    HW134373   2.246   3.205   3.197 -1.7722  1.4320 -0.2622
 7580SOL    HW234374   2.231   3.280   3.072 -1.1750  0.8073  1.0218
 7581SOL     OW34375   2.670   1.109  16.403 -0.8273  0.1149  0.0088
 7581SOL    HW134376   2.702   1.178  16.461 -1.1591  0.4908 -0.2591
 7581SOL    HW234377   2.613   1.165  16.351 -0.0129  1.3581  0.4810
 7582SOL     OW34378   1.245   2.657   4.732 -0.3558  0.4776  0.4520
 7582SOL    HW134379   1.284   2.646   4.818  0.8090 -0.5277 -0.2076
 7582SOL    HW234380   1.272   2.576   4.688 -0.1107 -1.0094  3.3718
 7583SOL     OW34381   3.283   0.629  11.187  0.3951  0.3515  0.1472
 7583SOL    HW134382   3.315   0.596  11.103  0.5250  1.4577 -0.2298
 7583SOL    HW234383   3.344   0.596  11.254  1.4168 -2.3581 -2.1129
 7584SOL     OW34384   0.821   0.493   7.903 -0.0125 -0.6023 -0.5734
 7584SOL    HW134385   0.801   0.401   7.882  2.1283 -0.7656 -1.9242
 7584SOL    HW234386   0.778   0.496   7.989 -1.0556  1.9778 -1.1980
 7585SOL     OW34387   3.202   2.578  16.306  0.2067  0.0105 -0.3583
 7585SOL    HW134388   3.201   2.583  16.211  0.5774 -1.2235 -0.4245
 7585SOL    HW234389   3.112   2.604  16.328  0.5621  1.2154 -0.3320
 7586SOL     OW34390   2.587   1.277  16.201  0.1442 -0.8070  0.3386
 7586SOL    HW134391   2.672   1.234  16.188  0.3750 -0.4545  0.7046
 7586SOL    HW234392   2.574   1.309  16.112  1.0182  1.1112  0.8992
 7587SOL     OW34393   0.258   1.201   2.661  0.3257 -0.3200  0.3785
 7587SOL    HW134394   0.284   1.292   2.674 -1.0048  0.3264 -1.4946
 7587SOL    HW234395   0.296   1.190   2.574  0.0151 -2.4542  0.5116
 7588SOL     OW34396   2.555   4.377   3.665  0.6756 -0.3421 -0.1107
 7588SOL    HW134397   2.635   4.389   3.615  1.4816  3.1761  1.9709
 7588SOL    HW234398   2.487   4.417   3.609 -1.8417 -2.6011  1.3325
 7589SOL     OW34399   2.042   3.845   9.917 -0.3527  0.2428  0.1079
 7589SOL    HW134400   2.120   3.829   9.864  1.1681  2.4649  1.6873
 7589SOL    HW234401   2.015   3.755   9.937  0.4319  0.8868  4.0791
 7590SOL     OW34402   3.227   2.125   7.189  0.3757  0.2494 -0.6329
 7590SOL    HW134403   3.138   2.110   7.220  1.1094 -0.9477  0.9341
 7590SOL    HW234404   3.210   2.219   7.180 -2.5154 -0.2305 -0.2004
 7591SOL     OW34405   4.128   1.197   1.642  0.0063 -0.6121 -0.4896
 7591SOL    HW134406   4.115   1.106   1.617 -0.4320  0.2488 -3.3889
 7591SOL    HW234407   4.129   1.190   1.738 -2.1920  0.9652 -0.3457
 7592SOL     OW34408   2.470   0.722   3.747 -0.1919  0.0922 -0.1253
 7592SOL    HW134409   2.552   0.755   3.709 -1.0596  0.2619 -1.8370
 7592SOL    HW234410   2.494   0.633   3.771  3.7426  1.0584 -0.4663
 7593SOL     OW34411   3.374   3.292  13.995  0.1894 -0.1616 -0.6101
 7593SOL    HW134412   3.377   3.237  13.917 -0.8312 -0.0737 -0.7014
 7593SOL    HW234413   3.291   3.339  13.986 -0.4187 -0.5716  2.8647
 7594SOL     OW34414   3.180   4.620   3.428  0.4656  0.0714 -0.0717
 7594SOL    HW134415   3.213   4.672   3.501  0.4894 -2.3610  1.6417
 7594SOL    HW234416   3.216   4.670   3.354  0.8434 -0.5811 -0.3353
 7595SOL     OW34417   0.020   0.778   3.408 -0.1565  0.3335  0.0970
 7595SOL    HW134418   4.675   0.752   3.447 -0.2773  1.0661  0.3206
 7595SOL    HW234419   0.003   0.866   3.373 -0.4750  0.8778  1.6407
 7596SOL     OW34420   2.241   3.265   8.736 -0.7716  0.4365 -0.6004
 7596SOL    HW134421   2.164   3.256   8.679 -2.2728  1.2105  1.2863
 7596SOL    HW234422   2.308   3.209   8.697  0.9601  0.4184  2.4497
 7597SOL     OW34423   4.313   4.563   5.761  0.4582 -0.1539 -0.3752
 7597SOL    HW134424   4.303   4.578   5.667 -0.8351 -0.1127 -0.2299
 7597SOL    HW234425   4.370   4.638   5.776  0.6403 -0.4743  0.5341
 7598SOL     OW34426   0.702   1.451   9.365 -0.2630  0.2109 -0.2329
 7598SOL    HW134427   0.607   1.440   9.360 -0.2647 -0.3184  0.9389
 7598SOL    HW234428   0.717   1.483   9.454  1.4060 -0.8277 -0.1247
 7599SOL     OW34429   3.173   0.225  11.284  0.5401 -0.0643 -0.1015
 7599SOL    HW134430   3.123   0.193  11.358  1.2461  1.4173  1.0338
 7599SOL    HW234431   3.104   0.241  11.220  0.6403  2.3159  0.3558
 7600SOL     OW34432   2.775   1.217  11.851  0.1971  0.3903  0.1737
 7600SOL    HW134433   2.792   1.137  11.801  0.6793  1.6026 -1.6152
 7600SOL    HW234434   2.760   1.180  11.938  0.2575  0.3258  0.1568
 7601SOL     OW34435   1.089   0.324  13.183 -0.5738 -0.0128 -0.1469
 7601SOL    HW134436   1.176   0.317  13.145 -0.7790 -0.2562 -0.5676
 7601SOL    HW234437   1.100   0.266  13.258  1.6714 -0.7266 -1.0351
 7602SOL     OW34438   3.886   4.537   6.097  0.4020 -0.3117  1.4018
 7602SOL    HW134439   3.967   4.528   6.046  0.2010  1.3186  0.7903
 7602SOL    HW234440   3.850   4.619   6.063  0.2686 -1.9469 -2.3505
 7603SOL     OW34441   3.240   1.571   9.932 -0.1006  0.0400  0.2577
 7603SOL    HW134442   3.321   1.607   9.895 -0.7109 -0.7860 -1.8920
 7603SOL    HW234443   3.232   1.490   9.881  1.3373  0.1957 -0.2278
 7604SOL     OW34444   0.225   4.283   7.576 -0.2962 -0.0379  0.0902
 7604SOL    HW134445   0.266   4.355   7.528 -2.6978  1.1067 -0.2670
 7604SOL    HW234446   0.215   4.209   7.516  1.0052  0.2043 -0.4195
 7605SOL     OW34447   0.173   0.998   4.337  0.2711 -0.1225 -0.5867
 7605SOL    HW134448   0.266   0.994   4.360 -0.0325 -0.1330  0.6489
 7605SOL    HW234449   0.160   1.083   4.296  0.3295 -0.0646 -0.4846
 7606SOL     OW34450   4.458   1.817   4.436 -0.2222 -0.3323  0.2110
 7606SOL    HW134451   4.547   1.852   4.444 -0.6077  0.7662 -0.3916
 7606SOL    HW234452   4.472   1.742   4.379 -0.2627 -0.3268  0.1942
 7607SOL     OW34453   4.638   0.467   9.845  0.5518  0.5088  0.4937
 7607SOL    HW134454   4.632   0.527   9.920 -2.5474 -1.5254  1.8708
 7607SOL    HW234455   4.551   0.476   9.808  0.4691  0.9087  0.7813
 7608SOL     OW34456   3.866   0.046   8.188 -0.6347 -0.2890 -0.5623
 7608SOL    HW134457   3.895   4.735   8.265  0.5155  1.9851  0.4862
 7608SOL    HW234458   3.916   0.126   8.203  0.5489 -0.7849 -1.9182
 7609SOL     OW34459   2.376   0.816   4.045 -0.2896  0.2275 -0.2370
 7609SOL    HW134460   2.443   0.800   3.978  2.1139 -0.5439  2.3611
 7609SOL    HW234461   2.322   0.738   4.026  1.8904 -1.7277  1.6765
 7610SOL     OW34462   1.528   2.609   0.736  0.5691  0.0214  0.5012
 7610SOL    HW134463   1.485   2.547   0.677  2.2139 -1.8774  1.3494
 7610SOL    HW234464   1.564   2.671   0.673 -0.3622  0.5590  0.4875
 7611SOL     OW34465   1.040   4.491   2.349  0.2524  0.4427  0.1904
 7611SOL    HW134466   0.996   4.438   2.283  1.4669 -1.6770  1.0860
 7611SOL    HW234467   1.037   4.571   2.297 -0.7721  0.3620  0.1376
 7612SOL     OW34468   0.621   2.604   9.231 -0.5042  0.4731  0.5728
 7612SOL    HW134469   0.639   2.533   9.169 -0.8205 -0.2560  1.3077
 7612SOL    HW234470   0.671   2.677   9.196  0.4826  0.7327  2.5161
 7613SOL     OW34471   0.950   0.508   3.950 -0.0751 -0.5515  0.3817
 7613SOL    HW134472   0.899   0.466   3.881 -0.3896 -1.6511  1.2824
 7613SOL    HW234473   0.894   0.585   3.964  0.9824  0.3284 -0.3106
 7614SOL     OW34474   1.721   4.330  13.234 -0.9752 -0.8420  0.1186
 7614SOL    HW134475   1.676   4.399  13.186  0.9956 -0.1174 -0.7048
 7614SOL    HW234476   1.648   4.270  13.221 -3.3267  1.7252  1.5343
 7615SOL     OW34477   1.716   4.218  12.328 -0.0381  0.5951  0.2275
 7615SOL    HW134478   1.704   4.298  12.277 -1.3361  0.0875 -0.2509
 7615SOL    HW234479   1.628   4.181  12.320  0.6914 -0.5020 -2.6632
 7616SOL     OW34480   3.728   0.369   7.265  0.0469 -0.1694 -0.4976
 7616SOL    HW134481   3.810   0.400   7.304 -0.2771  0.6277 -0.4718
 7616SOL    HW234482   3.674   0.448   7.263 -0.3476 -0.3626  1.9466
 7617SOL     OW34483   1.533   2.925  10.236 -0.0784 -0.2758  0.1309
 7617SOL    HW134484   1.562   2.851  10.183 -2.4128  0.5885 -2.3755
 7617SOL    HW234485   1.451   2.894  10.274 -0.3942  0.4620  0.0568
 7618SOL     OW34486   0.582   4.465  14.611  0.1062 -0.1713  0.7279
 7618SOL    HW134487   0.595   4.539  14.551 -1.0909 -1.7847 -1.5409
 7618SOL    HW234488   0.634   4.399  14.564 -0.2982 -0.8758  1.2837
 7619SOL     OW34489   0.473   0.183   0.642  0.6791 -0.0349  0.3566
 7619SOL    HW134490   0.568   0.194   0.651  0.5691  1.0459  0.1692
 7619SOL    HW234491   0.470   0.095   0.603  2.4426  0.5281 -1.0723
 7620SOL     OW34492   2.262   0.457   7.089 -0.4184 -0.4830  1.4400
 7620SOL    HW134493   2.276   0.547   7.059 -0.5892 -0.1136  2.5045
 7620SOL    HW234494   2.168   0.447   7.077 -0.6800  1.6791  1.6691
 7621SOL     OW34495   1.180   2.522   9.377  0.4483  0.0410  0.2045
 7621SOL    HW134496   1.244   2.564   9.434 -0.6750 -0.4048  1.8259
 7621SOL    HW234497   1.233   2.503   9.300 -1.3215  1.0922 -1.2558
 7622SOL     OW34498   2.375   4.635   5.331 -0.1394 -0.1999 -0.1309
 7622SOL    HW134499   2.372   4.726   5.361 -2.0468 -0.4820  0.5005
 7622SOL    HW234500   2.362   4.590   5.414 -1.3365 -1.6730 -1.1173
 7623SOL     OW34501   2.000   1.435   7.352  0.0074 -0.1657 -0.6328
 7623SOL    HW134502   2.084   1.460   7.313 -0.1795 -0.6686 -1.3595
 7623SOL    HW234503   1.958   1.518   7.374 -0.5698 -0.8319  0.7796
 7624SOL     OW34504   4.517   1.447   1.556  0.1212 -0.0585  0.3345
 7624SOL    HW134505   4.473   1.363   1.539  1.4079 -0.9768  1.5331
 7624SOL    HW234506   4.502   1.492   1.473  0.9246  3.1636  1.9378
 7625SOL     OW34507   1.073   1.308   2.287 -0.0835 -0.0433  0.8206
 7625SOL    HW134508   1.024   1.238   2.244 -1.5197  0.8132  1.0614
 7625SOL    HW234509   1.105   1.272   2.370  0.6479  0.5192  0.7819
 7626SOL     OW34510   0.797   3.356   3.753  0.3451 -0.3899  0.6297
 7626SOL    HW134511   0.707   3.376   3.728  0.1671 -1.3849  0.4980
 7626SOL    HW234512   0.806   3.413   3.830 -0.5524  2.1762 -1.1704
 7627SOL     OW34513   0.972   1.292   0.462 -0.2769 -0.0181  0.7918
 7627SOL    HW134514   1.063   1.262   0.472  0.3143  1.6663  0.4358
 7627SOL    HW234515   0.975   1.332   0.375  2.6853 -3.5619 -0.7512
 7628SOL     OW34516   1.649   3.244  14.896  0.3479  0.2307 -0.5391
 7628SOL    HW134517   1.591   3.169  14.884  1.1032 -0.6596  1.4493
 7628SOL    HW234518   1.612   3.282  14.976  0.1447  0.1799 -0.6083
 7629SOL     OW34519   0.420   2.432   4.658 -0.2027 -0.2507  0.4105
 7629SOL    HW134520   0.406   2.344   4.692  0.0889 -0.3635  0.2473
 7629SOL    HW234521   0.364   2.475   4.722  1.2023 -0.5192  1.8229
 7630SOL     OW34522   2.420   0.173   4.428  0.2980  0.0996  0.6127
 7630SOL    HW134523   2.374   0.125   4.497 -0.5974 -0.0155 -0.0577
 7630SOL    HW234524   2.507   0.134   4.423 -0.6329 -1.8640 -0.3617
 7631SOL     OW34525   4.204   0.283   0.005 -0.0208  0.3135 -0.0134
 7631SOL    HW134526   4.154   0.298   0.085 -1.4912  2.0030 -1.2691
 7631SOL    HW234527   4.202   0.189  17.744  2.4552 -0.0427  2.0713
 7632SOL     OW34528   4.344   2.705   4.683  0.3488  0.2254 -0.0804
 7632SOL    HW134529   4.415   2.703   4.620  0.2403  0.1752 -0.2017
 7632SOL    HW234530   4.328   2.799   4.694 -0.8285 -0.0701  0.8047
 7633SOL     OW34531   3.242   2.461   1.587  0.4746 -0.2774 -0.3496
 7633SOL    HW134532   3.195   2.529   1.635  1.2120 -0.8659  1.2208
 7633SOL    HW234533   3.298   2.445   1.663 -3.0123  1.6505  2.6405
 7634SOL     OW34534   1.013   3.378   8.125 -0.0826  0.4526  0.2788
 7634SOL    HW134535   1.047   3.428   8.199 -0.4834 -0.0534  0.8115
 7634SOL    HW234536   0.978   3.307   8.179  0.2150 -0.7599 -1.1126
 7635SOL     OW34537   2.653   3.349   5.976  0.2415 -0.2786 -0.5010
 7635SOL    HW134538   2.716   3.420   5.967 -1.4470  1.4071  1.1616
 7635SOL    HW234539   2.713   3.274   5.978 -0.9849 -1.2463  0.4729
 7636SOL     OW34540   3.680   4.038   5.351  0.2751  0.3025 -0.7993
 7636SOL    HW134541   3.727   4.116   5.381  0.2837  2.0094 -5.2990
 7636SOL    HW234542   3.618   4.074   5.288  1.1497  0.8976 -1.3097
 7637SOL     OW34543   2.350   3.174  16.872 -0.2770 -0.5664  0.4342
 7637SOL    HW134544   2.418   3.162  16.806 -0.9802 -0.3637 -0.3338
 7637SOL    HW234545   2.397   3.129  16.942  2.5523  0.1748 -1.0115
 7638SOL     OW34546   3.599   1.561   2.685  0.3616 -0.1954 -0.6429
 7638SOL    HW134547   3.517   1.518   2.709  1.8913 -2.8205 -0.1472
 7638SOL    HW234548   3.653   1.482   2.681  1.4887  0.5680 -0.4661
 7639SOL     OW34549   1.157   2.850   3.272  0.1746 -0.3484  0.5807
 7639SOL    HW134550   1.088   2.899   3.227  2.2584  1.0609 -1.0541
 7639SOL    HW234551   1.235   2.891   3.236 -0.4009 -0.1644 -0.4565
 7640SOL     OW34552   3.790   0.346   4.966  0.8213  0.3082 -0.1805
 7640SOL    HW134553   3.710   0.293   4.970 -0.7067  2.5246 -1.2383
 7640SOL    HW234554   3.752   0.422   4.922  0.1528  0.4327  0.6043
 7641SOL     OW34555   0.108   1.676   7.755  0.1190 -0.1917 -0.0464
 7641SOL    HW134556   0.075   1.596   7.795 -0.3820 -0.1440 -0.3566
 7641SOL    HW234557   0.029   1.705   7.709  0.6215  2.0502  0.4915
 7642SOL     OW34558   2.130   0.185   5.949 -0.4747  0.3859 -0.1928
 7642SOL    HW134559   2.090   0.183   5.862  0.8876  1.9443 -0.8555
 7642SOL    HW234560   2.214   0.223   5.925 -0.5951  1.8792  1.7112
 7643SOL     OW34561   1.275   1.562  13.747  0.0544 -0.0922  0.0474
 7643SOL    HW134562   1.299   1.561  13.655 -1.3164  1.7317 -0.3258
 7643SOL    HW234563   1.179   1.563  13.738  0.0985  2.4667 -0.0307
 7644SOL     OW34564   2.512   1.396   3.939  0.6127  0.6013  0.3226
 7644SOL    HW134565   2.424   1.432   3.926  1.0027  1.1713 -0.7784
 7644SOL    HW234566   2.492   1.304   3.954 -0.2714  1.2729  3.2804
 7645SOL     OW34567   1.541   2.514  17.250 -0.0209  0.3376 -0.3856
 7645SOL    HW134568   1.582   2.570  17.184  1.4653  1.1162  1.2066
 7645SOL    HW234569   1.591   2.534  17.328  1.3491  2.8295 -1.8993
 7646SOL     OW34570   3.658   0.518   4.804  0.3868  0.0492  0.0969
 7646SOL    HW134571   3.685   0.586   4.742 -2.4019  2.1508  1.2200
 7646SOL    HW234572   3.570   0.507   4.769  1.1835 -2.8341 -1.0116
 7647SOL     OW34573   0.703   1.631  15.994 -0.1219 -0.6097 -0.5872
 7647SOL    HW134574   0.716   1.709  16.049  0.8278  0.9164 -2.9857
 7647SOL    HW234575   0.792   1.620  15.962  0.9262  1.1819  1.6545
 7648SOL     OW34576   1.914   3.322   2.550 -0.3469 -0.2490 -0.5282
 7648SOL    HW134577   1.975   3.345   2.480 -0.6465  0.1370 -0.6625
 7648SOL    HW234578   1.969   3.334   2.628 -1.5034 -0.3351  0.2912
 7649SOL     OW34579   2.110   0.573  13.127  0.2750 -0.1512 -0.2935
 7649SOL    HW134580   2.149   0.510  13.188 -0.5405 -0.5437 -0.1786
 7649SOL    HW234581   2.086   0.513  13.056 -0.2206 -1.0662  0.6425
 7650SOL     OW34582   1.864   1.574  16.279  0.4065  0.5029  0.4462
 7650SOL    HW134583   1.937   1.523  16.244  0.9905  0.4440  1.7486
 7650SOL    HW234584   1.826   1.621  16.205  0.1514 -0.5425 -0.0864
 7651SOL     OW34585   1.302   4.132   6.535  0.3037  0.4472  0.2342
 7651SOL    HW134586   1.380   4.079   6.520 -0.2812 -0.1915 -0.5507
 7651SOL    HW234587   1.284   4.107   6.626  1.3912 -3.1086 -0.5445
 7652SOL     OW34588   0.271   3.957   6.787 -0.3401 -0.4320 -0.5146
 7652SOL    HW134589   0.334   4.003   6.842  0.3578 -4.1197  1.6948
 7652SOL    HW234590   0.216   4.033   6.765 -4.7621 -3.7166 -0.8087
 7653SOL     OW34591   2.091   3.661   5.800  0.0868  0.2192  1.0520
 7653SOL    HW134592   2.068   3.736   5.746  0.7567  0.6435  1.3593
 7653SOL    HW234593   2.091   3.706   5.885  1.2775 -0.9048  1.6526
 7654SOL     OW34594   0.041   3.720   8.552  0.6141  0.1758 -0.4705
 7654SOL    HW134595   4.699   3.673   8.571  1.4760 -1.8596 -1.7862
 7654SOL    HW234596   0.025   3.808   8.587 -0.3621 -0.7600  1.4335
 7655SOL     OW34597   4.417   1.316   0.393  0.4660 -0.0796 -0.1280
 7655SOL    HW134598   4.344   1.377   0.383 -0.9586 -2.2168 -3.0762
 7655SOL    HW234599   4.483   1.353   0.335 -0.7692  1.3698 -0.6021
 7656SOL     OW34600   2.365   1.786  13.856 -0.7440  0.1133  0.2566
 7656SOL    HW134601   2.285   1.834  13.836 -0.7815 -0.3441 -0.6764
 7656SOL    HW234602   2.407   1.847  13.917 -0.7491  0.1053  0.2683
 7657SOL     OW34603   1.413   2.505  15.534  0.0977 -0.1427 -0.7980
 7657SOL    HW134604   1.378   2.566  15.469  1.2320  1.0511 -0.2939
 7657SOL    HW234605   1.361   2.428  15.510 -0.6651  0.7832 -2.1546
 7658SOL     OW34606   1.596   2.218  16.398  0.4573 -0.3247 -0.0657
 7658SOL    HW134607   1.525   2.273  16.430  0.8219  0.3751 -0.4712
 7658SOL    HW234608   1.568   2.130  16.425 -0.8438  0.3886  0.9328
 7659SOL     OW34609   2.737   3.414   2.669  0.2213  0.0855  0.1480
 7659SOL    HW134610   2.664   3.464   2.632 -0.1779 -0.8023 -0.2668
 7659SOL    HW234611   2.744   3.452   2.756 -1.7995  1.6837 -0.3864
 7660SOL     OW34612   4.607   0.880   4.158 -0.8415  0.1358 -0.1204
 7660SOL    HW134613   4.603   0.819   4.084  1.6681 -1.5993  1.1820
 7660SOL    HW234614   4.534   0.932   4.122  0.0683  2.1067  0.8992
 7661SOL     OW34615   0.786   1.946   4.724 -0.6547  0.2980 -0.3449
 7661SOL    HW134616   0.728   2.021   4.715  1.3982  2.0293  1.0465
 7661SOL    HW234617   0.731   1.878   4.683  1.1674 -1.8479  0.7625
 7662SOL     OW34618   3.097   1.672   4.105 -0.1035 -0.0495 -0.8352
 7662SOL    HW134619   3.076   1.582   4.078  0.9778 -0.6259  0.2243
 7662SOL    HW234620   3.132   1.663   4.194 -2.3352  2.4049  0.2872
 7663SOL     OW34621   1.434   0.331  14.360 -0.3598 -0.2387  0.0521
 7663SOL    HW134622   1.351   0.301  14.324 -0.6735 -1.8762  2.1932
 7663SOL    HW234623   1.395   0.370  14.438 -0.2875 -1.4785  0.6962
 7664SOL     OW34624   0.098   4.692   7.393  0.1159 -0.2007 -0.2799
 7664SOL    HW134625   0.038   4.684   7.319 -0.8399  2.3479  0.2108
 7664SOL    HW234626   0.179   4.661   7.352 -0.4169 -1.8264 -0.0879
 7665SOL     OW34627   1.586   3.548   5.114 -0.1194 -0.1900 -0.3015
 7665SOL    HW134628   1.521   3.562   5.045 -1.3117 -0.0440  0.8531
 7665SOL    HW234629   1.664   3.594   5.084  0.3880 -0.0958  1.1974
 7666SOL     OW34630   1.717   0.432   6.784  0.4274 -0.2280  0.2269
 7666SOL    HW134631   1.673   0.431   6.699  1.6638  2.0046 -0.4031
 7666SOL    HW234632   1.756   0.519   6.779 -2.0698  0.9004  0.0929
 7667SOL     OW34633   3.341   4.594  13.560  0.0186 -0.1607  0.3652
 7667SOL    HW134634   3.427   4.632  13.542  0.3892 -1.6409 -0.9941
 7667SOL    HW234635   3.342   4.547  13.643  2.0212  0.2035  0.5462
 7668SOL     OW34636   1.436   0.141   8.491  0.2642 -0.0517 -0.1621
 7668SOL    HW134637   1.359   0.130   8.436  1.5718 -1.5210 -1.6927
 7668SOL    HW234638   1.448   0.063   8.546 -2.9168 -0.7342 -0.4073
 7669SOL     OW34639   2.391   3.143   9.559 -0.2819 -0.7182 -0.4358
 7669SOL    HW134640   2.437   3.064   9.532 -0.2110 -1.6188  2.3199
 7669SOL    HW234641   2.451   3.171   9.628 -1.4922 -2.5478  1.3382
 7670SOL     OW34642   1.829   0.284  16.607 -0.1851  0.5547  0.4644
 7670SOL    HW134643   1.829   0.375  16.578 -1.9721 -0.1180 -1.7130
 7670SOL    HW234644   1.735   0.266  16.619 -0.2936  0.4120 -0.5843
 7671SOL     OW34645   3.230   0.534  13.927  0.7805 -0.0761  0.0461
 7671SOL    HW134646   3.140   0.551  13.898  0.9173  1.9165  0.7752
 7671SOL    HW234647   3.259   0.622  13.953  0.9984 -0.4579  1.0646
 7672SOL     OW34648   1.286   0.771   2.114 -0.1522 -0.3980  0.4715
 7672SOL    HW134649   1.370   0.727   2.112  0.3535  0.4646  2.8911
 7672SOL    HW234650   1.232   0.698   2.084  0.8303  0.2072 -2.7915
 7673SOL     OW34651   0.328   0.640  14.738  0.3409 -0.0343 -0.1076
 7673SOL    HW134652   0.329   0.663  14.645  0.3000  0.7537  0.0899
 7673SOL    HW234653   0.416   0.666  14.763  0.7266 -0.1679 -1.3028
 7674SOL     OW34654   3.762   4.589   4.750 -0.1110  0.1866  0.2875
 7674SOL    HW134655   3.677   4.616   4.715  0.0866  0.5946  0.1289
 7674SOL    HW234656   3.747   4.562   4.841  1.6921 -1.0620  0.2224
 7675SOL     OW34657   0.009   1.475   4.906 -0.3098 -0.2785 -0.3359
 7675SOL    HW134658   0.080   1.469   4.842  0.2609  2.9126 -0.0084
 7675SOL    HW234659   4.686   1.534   4.862  0.4204  1.7063  1.3014
 7676SOL     OW34660   2.404   3.946   9.103  0.6490 -0.2435 -0.4329
 7676SOL    HW134661   2.403   4.020   9.042 -2.5323 -0.1229 -0.2008
 7676SOL    HW234662   2.399   3.987   9.190  1.3997  0.5349 -0.7610
 7677SOL     OW34663   0.389   2.416   6.590 -0.3810 -0.5065 -0.4740
 7677SOL    HW134664   0.320   2.356   6.619  0.3712 -0.2742  1.8118
 7677SOL    HW234665   0.412   2.449   6.677  0.3120  1.5705 -1.4486
 7678SOL     OW34666   4.318   2.430  15.021  0.5945 -0.4996  0.0245
 7678SOL    HW134667   4.298   2.440  14.928 -2.4703  0.4647  0.7912
 7678SOL    HW234668   4.409   2.458  15.014  0.6634 -0.7884 -0.2571
 7679SOL     OW34669   3.554   3.463  17.510  0.3149  0.2014 -0.3059
 7679SOL    HW134670   3.600   3.537  17.549 -1.5962  0.6921  1.0295
 7679SOL    HW234671   3.472   3.455  17.560  0.1189  0.2429 -0.6214
 7680SOL     OW34672   4.472   3.487  15.686  0.1189  0.0403  0.3311
 7680SOL    HW134673   4.432   3.531  15.761  0.3729 -0.8472  0.9936
 7680SOL    HW234674   4.484   3.405  15.735 -3.1877 -0.5725  0.1483
 7681SOL     OW34675   1.463   1.908  10.118 -0.3141  0.5019  0.0786
 7681SOL    HW134676   1.371   1.891  10.142 -0.3105  0.6949  0.2270
 7681SOL    HW234677   1.458   1.864  10.033  0.9506  1.2031 -0.3503
 7682SOL     OW34678   1.586   2.200   1.292  0.3096  0.0097  0.3217
 7682SOL    HW134679   1.584   2.109   1.264  2.2381  0.7252 -2.0860
 7682SOL    HW234680   1.631   2.243   1.219  2.0323  0.7716  1.8308
 7683SOL     OW34681   1.996   0.018   4.248 -0.1270 -0.2890 -0.0391
 7683SOL    HW134682   1.916   0.066   4.230 -0.3913 -0.4007  0.8507
 7683SOL    HW234683   2.065   0.072   4.209 -1.4382 -0.8608 -3.1494
 7684SOL     OW34684   3.810   1.938   3.092  0.4237  0.3118 -0.3502
 7684SOL    HW134685   3.864   1.908   3.165 -0.5237 -1.2821 -0.3222
 7684SOL    HW234686   3.724   1.943   3.132 -0.9241 -1.5461 -3.0080
 7685SOL     OW34687   0.041   0.299   4.739 -0.1172 -0.1874  0.1864
 7685SOL    HW134688   0.135   0.314   4.737 -0.6552  3.0112 -1.0425
 7685SOL    HW234689   0.001   0.377   4.778  0.2393  0.5731 -0.9613
 7686SOL     OW34690   3.138   1.241  13.478 -0.2096  0.5762  0.2938
 7686SOL    HW134691   3.211   1.302  13.488  2.8126 -2.8889 -0.5624
 7686SOL    HW234692   3.075   1.272  13.542 -0.7387  1.2413 -0.5532
 7687SOL     OW34693   4.143   4.001   9.005  0.2340  0.3015 -0.1458
 7687SOL    HW134694   4.070   3.940   9.015 -0.1925  0.6862 -0.9759
 7687SOL    HW234695   4.165   4.002   8.912 -2.1483  0.4959 -0.6959
 7688SOL     OW34696   1.680   1.648  11.058 -0.1130  0.0195  0.1645
 7688SOL    HW134697   1.606   1.604  11.099 -1.4947  1.4832 -0.7683
 7688SOL    HW234698   1.660   1.739  11.081 -3.5083 -0.6414 -0.1046
 7689SOL     OW34699   3.329   0.179   3.681  0.0047  0.5453 -0.5409
 7689SOL    HW134700   3.236   0.163   3.668  0.6642 -2.8578 -0.8612
 7689SOL    HW234701   3.343   0.147   3.770 -0.8279  1.3513 -0.1173
 7690SOL     OW34702   3.778   3.559   8.145  0.4081  0.1849 -0.0365
 7690SOL    HW134703   3.779   3.640   8.197 -0.2005 -1.4303  2.4584
 7690SOL    HW234704   3.845   3.507   8.188 -1.4502 -1.1651  1.2588
 7691SOL     OW34705   1.310   2.416   9.149  0.1635 -0.0144  0.3616
 7691SOL    HW134706   1.347   2.329   9.138 -1.5986 -0.7141 -0.0334
 7691SOL    HW234707   1.228   2.402   9.101  0.9001  0.8067 -1.1727
 7692SOL     OW34708   3.557   2.644   7.093  0.3228  0.3288  0.1744
 7692SOL    HW134709   3.469   2.672   7.068  0.0064 -0.3877  0.4787
 7692SOL    HW234710   3.576   2.584   7.021 -0.2415  1.0359 -0.5636
 7693SOL     OW34711   4.107   1.510   5.129 -0.5098  0.3293 -0.1656
 7693SOL    HW134712   4.110   1.484   5.037  0.4664  0.2066 -0.0948
 7693SOL    HW234713   4.168   1.449   5.171  0.0119  2.7478  2.5476
 7694SOL     OW34714   1.991   0.861  13.545  0.1722  0.3377  0.1672
 7694SOL    HW134715   2.018   0.883  13.456  0.6604 -0.7983  0.0320
 7694SOL    HW234716   2.057   0.800  13.578  1.1610  1.6030  0.5098
 7695SOL     OW34717   0.399   4.539   8.675  0.2043  0.4511  0.2321
 7695SOL    HW134718   0.346   4.591   8.735  0.6741  1.0547  0.1285
 7695SOL    HW234719   0.322   4.495   8.640  0.4390  1.8033 -1.9433
 7696SOL     OW34720   2.453   3.380   2.422  0.0360 -0.2545  0.0538
 7696SOL    HW134721   2.474   3.322   2.495 -0.0761 -0.0991  0.2108
 7696SOL    HW234722   2.378   3.334   2.386 -0.3543 -1.0611  1.8981
 7697SOL     OW34723   2.369   3.256  14.723 -0.2052 -0.1847 -0.2010
 7697SOL    HW134724   2.428   3.331  14.728  3.3755 -2.9008 -1.9501
 7697SOL    HW234725   2.413   3.203  14.790  1.1878 -0.2979 -1.2179
 7698SOL     OW34726   0.270   4.335   4.860 -0.3440  0.3448 -0.3339
 7698SOL    HW134727   0.299   4.335   4.951  0.4863  0.6285 -0.5897
 7698SOL    HW234728   0.356   4.355   4.822  0.0620  0.6894  0.7790
 7699SOL     OW34729   2.758   2.525  17.210  0.7870  0.0338  0.2647
 7699SOL    HW134730   2.784   2.615  17.194  1.4890 -0.4287 -1.2220
 7699SOL    HW234731   2.765   2.512  17.304  1.6535  1.9031  0.4543
 7700SOL     OW34732   4.507   3.074   2.239  0.3093 -0.1839 -0.1314
 7700SOL    HW134733   4.563   3.152   2.237  0.8908 -0.6503 -2.4052
 7700SOL    HW234734   4.462   3.076   2.154 -1.9988 -2.4776  1.0679
 7701SOL     OW34735   0.705   2.846   8.326 -0.0015 -0.4870 -0.0432
 7701SOL    HW134736   0.612   2.862   8.310 -0.3088 -3.9499 -1.7943
 7701SOL    HW234737   0.729   2.799   8.246  0.6303  1.8281 -1.2091
 7702SOL     OW34738   0.243   2.595  11.661  0.1614  0.7248 -0.3545
 7702SOL    HW134739   0.311   2.645  11.615  1.9551 -1.8917 -0.5336
 7702SOL    HW234740   0.287   2.515  11.689 -1.5977 -0.7867 -1.9658
 7703SOL     OW34741   2.466   0.471  15.121  0.1279  0.3161 -0.3019
 7703SOL    HW134742   2.510   0.395  15.084 -0.9627 -0.7618  0.6192
 7703SOL    HW234743   2.541   0.507  15.167 -1.8073  1.0494  2.2578
 7704SOL     OW34744   2.579   3.167   0.725  0.4277 -0.3301 -0.2505
 7704SOL    HW134745   2.655   3.118   0.757  0.7722  0.7594  0.5907
 7704SOL    HW234746   2.567   3.239   0.788 -1.9740  0.1521 -1.2690
 7705SOL     OW34747   2.494   1.744  10.026  0.2182  0.1886  0.4336
 7705SOL    HW134748   2.517   1.668   9.972 -1.9290  0.5933 -1.0555
 7705SOL    HW234749   2.468   1.697  10.105 -0.2510  0.2579  0.3203
 7706SOL     OW34750   4.419   4.599   6.210  0.2520 -0.2012 -0.3989
 7706SOL    HW134751   4.364   4.676   6.224  1.0308  0.0520  1.3280
 7706SOL    HW234752   4.365   4.563   6.140  1.6291  1.4615 -2.2992
 7707SOL     OW34753   4.166   3.382  13.818 -0.4991 -0.1207  0.5421
 7707SOL    HW134754   4.119   3.464  13.803 -1.8133 -1.0068 -0.1609
 7707SOL    HW234755   4.113   3.312  13.779 -0.2460  0.0097 -0.0450
 7708SOL     OW34756   4.219   0.481   3.192  0.2145  0.2673 -0.2774
 7708SOL    HW134757   4.152   0.541   3.160 -0.1293  1.1037  2.0291
 7708SOL    HW234758   4.164   0.417   3.237  1.2444 -0.1670  0.3551
 7709SOL     OW34759   2.282   0.990   7.431  0.5477 -0.0416 -0.0303
 7709SOL    HW134760   2.273   1.081   7.461  0.4180 -0.4519  1.1441
 7709SOL    HW234761   2.259   1.023   7.343 -0.7624 -2.3366 -0.5408
 7710SOL     OW34762   0.819   0.143   8.365  0.4917  0.2565  0.4800
 7710SOL    HW134763   0.869   0.074   8.321 -0.6520  0.3219 -0.9132
 7710SOL    HW234764   0.866   0.217   8.327  1.0923  0.0594  0.8228
 7711SOL     OW34765   3.331   1.985   3.502  0.0717 -0.3132  0.2104
 7711SOL    HW134766   3.395   2.056   3.508  0.1032 -0.2745 -0.6763
 7711SOL    HW234767   3.269   2.009   3.433  0.1732 -1.1174 -0.1528
 7712SOL     OW34768   0.755   3.813   0.252 -0.1366  0.1153  0.5564
 7712SOL    HW134769   0.832   3.844   0.203 -0.8506  0.6004 -0.2426
 7712SOL    HW234770   0.784   3.814   0.343  1.2954 -0.1669  0.1046
 7713SOL     OW34771   0.731   1.399   6.773  0.2327  0.5955 -0.1423
 7713SOL    HW134772   0.741   1.435   6.862 -1.4345  2.3131 -0.6453
 7713SOL    HW234773   0.679   1.319   6.781  0.9959 -0.1916 -3.1267
 7714SOL     OW34774   2.810   0.479   4.510 -0.2292  0.3430 -0.0424
 7714SOL    HW134775   2.820   0.442   4.422 -1.3858 -0.0372 -0.0187
 7714SOL    HW234776   2.823   0.573   4.497 -0.0649  0.3625  0.2723
 7715SOL     OW34777   2.891   4.502  17.199  0.0154 -0.0547  0.4096
 7715SOL    HW134778   2.924   4.436  17.261  0.8090 -0.5768 -0.5653
 7715SOL    HW234779   2.853   4.456  17.124  1.3057  0.5978 -0.6437
 7716SOL     OW34780   4.707   0.447   9.452 -0.3352 -0.0790  0.0978
 7716SOL    HW134781   4.641   0.508   9.486 -0.4612 -1.3137  2.0355
 7716SOL    HW234782   0.015   0.429   9.533  1.7843  0.2372 -1.0301
 7717SOL     OW34783   1.956   3.792  10.963  0.1546  0.4939  0.2270
 7717SOL    HW134784   2.014   3.767  10.892 -1.4918 -0.2703 -0.8275
 7717SOL    HW234785   1.891   3.829  10.904  0.5982  1.1150  0.1323
 7718SOL     OW34786   0.730   0.489   3.548  0.5398  0.3448  0.1451
 7718SOL    HW134787   0.775   0.416   3.592 -0.2511  1.0530  2.1078
 7718SOL    HW234788   0.653   0.494   3.605  0.2078 -0.0411 -0.2688
 7719SOL     OW34789   1.470   1.652  16.779 -0.2974 -0.4110  0.0707
 7719SOL    HW134790   1.389   1.702  16.791  0.9189  0.9870  2.5042
 7719SOL    HW234791   1.452   1.618  16.692 -0.7721 -1.0105  0.4043
 7720SOL     OW34792   3.614   0.695   8.849 -0.0421 -0.0434  0.0197
 7720SOL    HW134793   3.533   0.645   8.863 -0.4748  1.0963  1.5728
 7720SOL    HW234794   3.650   0.676   8.936 -2.0411 -1.1471  0.6205
 7721SOL     OW34795   1.259   0.856  14.374 -0.1006 -0.3949  0.4618
 7721SOL    HW134796   1.188   0.918  14.389  1.5760  1.3612  1.1470
 7721SOL    HW234797   1.219   0.775  14.406  2.1209 -1.5093  0.3853
 7722SOL     OW34798   4.264   2.074  10.329  0.0062  0.1827  0.2824
 7722SOL    HW134799   4.230   2.085  10.418 -2.8616 -0.0437 -0.7906
 7722SOL    HW234800   4.264   2.164  10.297 -0.4726  0.6024  1.4393
 7723SOL     OW34801   3.501   3.684   1.795 -1.3385  0.1558 -0.1301
 7723SOL    HW134802   3.560   3.672   1.721 -1.5038  1.2589 -0.4429
 7723SOL    HW234803   3.557   3.664   1.870 -1.3622  1.9635  0.3604
 7724SOL     OW34804   2.662   3.549  10.068  0.2164 -0.1901  0.6006
 7724SOL    HW134805   2.755   3.539  10.091  0.5792  0.6621 -0.4740
 7724SOL    HW234806   2.618   3.473  10.107  2.5330 -1.0113  1.6295
 7725SOL     OW34807   2.978   0.327   5.683  0.3254 -0.2617  0.3377
 7725SOL    HW134808   2.989   0.319   5.777  0.3149 -0.5541  0.3136
 7725SOL    HW234809   3.068   0.340   5.653  0.5518  0.1335  1.1953
 7726SOL     OW34810   0.571   3.447   6.500  0.4487 -0.4531  0.1085
 7726SOL    HW134811   0.511   3.413   6.433 -0.2695 -0.1752  0.6156
 7726SOL    HW234812   0.608   3.365   6.532 -1.2024 -1.3682 -0.3170
 7727SOL     OW34813   3.410   0.311  11.174  0.5779  0.0395 -0.2775
 7727SOL    HW134814   3.327   0.298  11.220  0.3244  1.2644 -0.4051
 7727SOL    HW234815   3.459   0.383  11.214 -0.4763 -0.7135  2.3950
 7728SOL     OW34816   0.090   4.020  11.846 -0.1310  0.5821 -0.2043
 7728SOL    HW134817   0.166   4.071  11.821  0.3190  0.6409  1.2637
 7728SOL    HW234818   0.112   3.956  11.778 -0.0502 -0.1565  0.5125
 7729SOL     OW34819   4.574   1.942   1.105  0.1706  0.5031 -0.5372
 7729SOL    HW134820   4.556   1.955   1.012 -2.1585  1.0796 -0.0273
 7729SOL    HW234821   4.509   2.007   1.132  0.4935  0.8849 -0.6838
 7730SOL     OW34822   1.488   1.687   1.307 -0.1915  0.1789  0.3182
 7730SOL    HW134823   1.466   1.623   1.374 -0.2307 -0.4221 -0.2697
 7730SOL    HW234824   1.401   1.721   1.286  0.1448  1.0932  0.4205
 7731SOL     OW34825   3.744   0.642   9.111 -0.2031  0.1069  0.3415
 7731SOL    HW134826   3.666   0.694   9.129 -0.0055  0.2038  0.9078
 7731SOL    HW234827   3.818   0.701   9.128  0.1883 -0.2888  0.0049
 7732SOL     OW34828   0.487   2.778  15.482  0.4717  0.0709 -0.3951
 7732SOL    HW134829   0.577   2.754  15.461  0.2804 -1.3122  0.3958
 7732SOL    HW234830   0.495   2.869  15.454  1.0528  0.4923  1.1205
 7733SOL     OW34831   4.045   2.363   5.166  0.1705 -0.1526 -0.4313
 7733SOL    HW134832   4.135   2.361   5.200 -0.5043  1.4560  1.4226
 7733SOL    HW234833   4.057   2.426   5.095  0.9133 -0.5060 -0.6196
 7734SOL     OW34834   1.383   2.608   4.319  0.1430  0.0713  0.3246
 7734SOL    HW134835   1.434   2.615   4.400 -0.3780  1.0677  0.5666
 7734SOL    HW234836   1.451   2.615   4.251 -0.0164  3.8936  0.5691
 7735SOL     OW34837   4.108   0.369   5.644 -0.3367 -0.1211  0.4524
 7735SOL    HW134838   4.123   0.278   5.621 -1.0983  0.1032 -0.9827
 7735SOL    HW234839   4.119   0.350   5.737  2.5695 -1.1527 -0.1197
 7736SOL     OW34840   1.917   2.031   4.213 -0.0249  0.3157 -0.0379
 7736SOL    HW134841   1.825   2.024   4.241 -0.0828 -0.9768 -0.5594
 7736SOL    HW234842   1.949   2.092   4.280  1.9740 -0.0086 -0.7107
 7737SOL     OW34843   0.102   2.689   5.472 -0.3605 -0.0695 -0.1057
 7737SOL    HW134844   0.117   2.783   5.461 -0.5403  0.0812  0.9286
 7737SOL    HW234845   0.152   2.670   5.552  0.8582 -0.2485 -0.8976
 7738SOL     OW34846   1.097   4.234   1.646 -0.3483 -0.1727  0.4756
 7738SOL    HW134847   1.161   4.182   1.694  0.1235 -0.9023 -0.9267
 7738SOL    HW234848   1.017   4.181   1.653  1.3913 -2.5483  2.2946
 7739SOL     OW34849   4.268   3.131   3.471 -0.6802 -0.1732 -0.3017
 7739SOL    HW134850   4.195   3.072   3.489  0.7244 -1.7999  0.0685
 7739SOL    HW234851   4.291   3.113   3.380  0.7387  2.5161 -0.4816
 7740SOL     OW34852   3.615   1.994   8.291  0.1118  1.1714  0.3180
 7740SOL    HW134853   3.526   1.963   8.307  0.3816  0.5101  0.5561
 7740SOL    HW234854   3.608   2.067   8.230 -0.1527  1.1690  0.3485
 7741SOL     OW34855   0.138   3.296   5.377  0.1155  0.0442 -0.0985
 7741SOL    HW134856   0.119   3.225   5.315  1.3249  2.5463 -3.3037
 7741SOL    HW234857   0.215   3.334   5.336  0.5196  0.5356  1.1180
 7742SOL     OW34858   3.330   2.310   7.454 -0.2571  0.0497  0.6484
 7742SOL    HW134859   3.392   2.307   7.381 -1.2081  0.9529 -0.1995
 7742SOL    HW234860   3.377   2.364   7.518  1.4962  0.2690 -0.8206
 7743SOL     OW34861   1.276   3.957  11.913 -0.2969 -0.3992  0.8457
 7743SOL    HW134862   1.286   4.032  11.855 -1.8099  0.7930  2.1167
 7743SOL    HW234863   1.365   3.925  11.931  0.7686  1.8696 -0.4077
 7744SOL     OW34864   3.116   2.268   6.801 -0.2506 -0.1113  0.1413
 7744SOL    HW134865   3.117   2.266   6.706 -2.2530  0.0072  0.1033
 7744SOL    HW234866   3.130   2.177   6.826 -2.0744  0.0378  1.7666
 7745SOL     OW34867   0.947   4.109  11.904 -0.5619 -0.0929  0.1287
 7745SOL    HW134868   0.958   4.034  11.963  0.0535 -0.1228 -0.0229
 7745SOL    HW234869   1.028   4.161  11.909  0.4551 -1.5412 -1.3637
 7746SOL     OW34870   1.258   1.058   2.101  0.0121 -0.0713  0.3699
 7746SOL    HW134871   1.335   1.095   2.144  0.5900 -0.4420 -0.3267
 7746SOL    HW234872   1.269   0.962   2.102 -0.5143 -0.1035  1.7223
 7747SOL     OW34873   0.133   3.862   9.927  0.0758  0.4463 -0.1492
 7747SOL    HW134874   0.101   3.856  10.017  1.0454  2.1795  0.3092
 7747SOL    HW234875   0.076   3.802   9.878 -0.6730 -0.2059  1.5350
 7748SOL     OW34876   4.148   1.877   6.849 -0.0630 -0.6667  0.3480
 7748SOL    HW134877   4.168   1.803   6.791  1.2042 -1.2653  1.5482
 7748SOL    HW234878   4.055   1.882   6.827 -0.2792 -2.2169  0.9530
 7749SOL     OW34879   1.525   3.222   1.318 -0.4945  0.2135 -0.5410
 7749SOL    HW134880   1.574   3.303   1.308  1.2018 -0.6284  0.9049
 7749SOL    HW234881   1.560   3.199   1.404 -0.1829 -2.0242 -1.2415
 7750SOL     OW34882   1.695   2.719   2.185  0.1384  0.2504  0.2539
 7750SOL    HW134883   1.753   2.675   2.247  1.1800  1.4662  0.1501
 7750SOL    HW234884   1.623   2.656   2.178 -0.6037  1.1301 -0.0330
 7751SOL     OW34885   2.375   2.056  17.486  0.4939  0.1292  0.0263
 7751SOL    HW134886   2.400   1.986  17.546 -1.4140 -1.9606 -1.6096
 7751SOL    HW234887   2.421   2.036  17.404 -1.9381 -4.3888 -0.2203
 7752SOL     OW34888   3.792   2.428  17.010 -0.2669 -0.3187 -0.0243
 7752SOL    HW134889   3.819   2.382  16.931 -0.9233  2.4542 -1.8872
 7752SOL    HW234890   3.785   2.520  16.984  0.7825 -0.0902  0.5161
 7753SOL     OW34891   2.239   4.012  16.528 -0.1761  0.4605 -0.0130
 7753SOL    HW134892   2.165   3.964  16.489 -0.5185 -0.1212  1.3221
 7753SOL    HW234893   2.209   4.098  16.499  0.8070  0.3641 -1.2796
 7754SOL     OW34894   1.964   0.653  16.933 -0.3099 -0.2935 -0.1125
 7754SOL    HW134895   2.041   0.698  16.899 -1.3067  1.0291 -0.6277
 7754SOL    HW234896   1.919   0.642  16.849 -0.4908  1.9638 -0.3087
 7755SOL     OW34897   2.114   2.380   6.570 -0.2442  0.4888  0.1904
 7755SOL    HW134898   2.122   2.387   6.665  0.2974  2.9282 -0.0503
 7755SOL    HW234899   2.197   2.342   6.540 -0.8215 -0.3647 -0.3446
 7756SOL     OW34900   1.293   0.064  15.986  0.4264 -0.0137 -0.4877
 7756SOL    HW134901   1.261   4.721  15.946  2.2110 -0.2228 -1.4918
 7756SOL    HW234902   1.320   0.122  15.915 -1.6862 -0.1537 -1.3993
 7757SOL     OW34903   1.326   1.597  12.144  0.5870  0.0924  0.6853
 7757SOL    HW134904   1.291   1.625  12.229 -0.2349 -0.4456  0.5230
 7757SOL    HW234905   1.336   1.502  12.157 -1.4517 -0.0212  1.3766
 7758SOL     OW34906   0.410   0.022   8.985 -0.2809  0.4785  0.6484
 7758SOL    HW134907   0.476   4.710   9.034 -0.8494  0.4074  1.3324
 7758SOL    HW234908   0.335   4.707   8.959 -0.2741  0.5860  0.4083
 7759SOL     OW34909   1.873   4.043   2.424  0.1986  0.0131  0.3495
 7759SOL    HW134910   1.854   4.108   2.492  0.3135  0.9398 -0.4894
 7759SOL    HW234911   1.968   4.041   2.423  0.2127  0.1629  1.0848
 7760SOL     OW34912   3.909   1.723   7.106 -0.0293  0.4726 -0.8907
 7760SOL    HW134913   3.893   1.701   7.014 -1.0557  0.3636 -0.6887
 7760SOL    HW234914   3.874   1.811   7.121 -3.0562 -0.1496 -4.3266
 7761SOL     OW34915   2.577   1.760   8.970 -0.4772 -0.3118  0.3013
 7761SOL    HW134916   2.534   1.728   9.050  1.6976 -0.4677  1.3962
 7761SOL    HW234917   2.558   1.854   8.966  0.6353 -0.0553  0.9597
 7762SOL     OW34918   1.648   3.639   3.914 -0.0904 -0.2225 -0.2522
 7762SOL    HW134919   1.608   3.554   3.928  1.5371 -1.2424 -1.7205
 7762SOL    HW234920   1.593   3.704   3.957 -1.5065 -1.1832 -0.6143
 7763SOL     OW34921   0.671   3.800  16.418  0.2840 -0.3474 -0.3829
 7763SOL    HW134922   0.580   3.811  16.443  1.1397  2.4579  1.4615
 7763SOL    HW234923   0.694   3.714  16.452  0.1249  0.2004  1.0828
 7764SOL     OW34924   3.994   0.094  13.628  0.1404  0.5361  0.6075
 7764SOL    HW134925   4.053   0.069  13.557 -0.7254 -1.7327  0.6875
 7764SOL    HW234926   4.036   0.175  13.656 -0.3034  1.0347 -0.1716
 7765SOL     OW34927   4.558   4.530   3.734 -0.0281  0.0057  0.5112
 7765SOL    HW134928   4.567   4.618   3.771 -1.4865 -0.0311  0.9599
 7765SOL    HW234929   4.628   4.472   3.764 -0.5480 -0.6546  0.4485
 7766SOL     OW34930   2.748   4.506  15.055  0.6808 -0.2062 -0.4783
 7766SOL    HW134931   2.769   4.468  14.969  1.1296  1.5156 -1.1258
 7766SOL    HW234932   2.790   4.592  15.061  1.5377 -0.6577  0.0752
 7767SOL     OW34933   0.135   1.186   7.830  0.1415 -0.3782 -0.4087
 7767SOL    HW134934   0.158   1.178   7.923 -0.1167 -0.9149 -0.3929
 7767SOL    HW234935   0.144   1.097   7.797  1.0354 -1.0987  1.7577
 7768SOL     OW34936   3.546   4.596  17.746 -0.3813  0.3602  0.0414
 7768SOL    HW134937   3.555   4.676  17.693 -3.4496  1.4157  1.1134
 7768SOL    HW234938   3.458   4.563  17.727 -0.3067  0.1549  0.0584
 7769SOL     OW34939   4.002   3.650   7.915 -0.0544  0.1553  0.2449
 7769SOL    HW134940   4.082   3.664   7.864  1.0810  0.5677  2.1661
 7769SOL    HW234941   4.021   3.563   7.950  0.8428  0.2519 -0.0010
 7770SOL     OW34942   3.839   4.065   3.344 -0.0004  0.5667 -0.0731
 7770SOL    HW134943   3.828   4.091   3.253  2.8828 -0.3890 -0.7019
 7770SOL    HW234944   3.759   4.014   3.357 -0.6314  0.7968 -3.1559
 7771SOL     OW34945   0.556   3.344   7.767 -0.3696  0.4133 -0.0425
 7771SOL    HW134946   0.571   3.436   7.789  0.1247  0.1784  0.6229
 7771SOL    HW234947   0.531   3.350   7.675  0.4579 -2.3234 -0.4544
 7772SOL     OW34948   3.393   0.122   9.295 -0.6515  0.1200 -0.3182
 7772SOL    HW134949   3.426   0.140   9.383  0.6250 -0.9030 -0.5915
 7772SOL    HW234950   3.471   0.083   9.255 -0.6060  0.9927 -1.0682
 7773SOL     OW34951   1.734   1.576  17.493  0.2835  0.8686 -0.3082
 7773SOL    HW134952   1.694   1.565  17.407 -3.1178 -0.4785  1.4605
 7773SOL    HW234953   1.747   1.671  17.491  1.5393  0.7473  1.2462
 7774SOL     OW34954   1.571   1.452   9.298 -0.4280  0.0999  0.8532
 7774SOL    HW134955   1.617   1.432   9.217 -0.9137 -3.0839  1.3786
 7774SOL    HW234956   1.633   1.435   9.369  1.9224  1.8747 -0.7818
 7775SOL     OW34957   3.153   0.558   3.819  0.3781  0.1039 -0.2945
 7775SOL    HW134958   3.242   0.591   3.805  0.1270  1.4620  1.2757
 7775SOL    HW234959   3.168   0.466   3.837  0.7720  0.6030  1.9973
 7776SOL     OW34960   3.656   1.802   7.165 -0.1685  0.8103 -0.6571
 7776SOL    HW134961   3.590   1.736   7.145 -1.1557  1.3875  0.7003
 7776SOL    HW234962   3.604   1.883   7.171 -0.0707  1.0476 -2.8087
 7777SOL     OW34963   1.132   0.776   6.279 -0.3134 -0.2179  0.0034
 7777SOL    HW134964   1.151   0.797   6.371  2.0452  1.4569 -0.8756
 7777SOL    HW234965   1.055   0.834   6.278 -0.4526 -0.3855  0.9775
 7778SOL     OW34966   0.992   4.657   5.539 -0.3995  0.2935  0.3247
 7778SOL    HW134967   0.937   4.590   5.579  0.3510 -0.3730  0.2421
 7778SOL    HW234968   1.065   4.604   5.506 -0.6349 -1.0818  1.9961
 7779SOL     OW34969   3.028   3.822   2.222  0.1115 -0.3282  0.3359
 7779SOL    HW134970   2.990   3.737   2.245 -1.2057  0.8731  2.5431
 7779SOL    HW234971   3.040   3.802   2.129 -1.1765 -1.2299  0.3575
 7780SOL     OW34972   1.828   0.735   2.850 -0.7410 -0.0597 -0.2011
 7780SOL    HW134973   1.835   0.645   2.882  3.7014 -0.4289 -2.2666
 7780SOL    HW234974   1.807   0.728   2.757  2.7803  0.6742 -1.0617
 7781SOL     OW34975   3.740   0.915   3.561  0.2475 -0.0782 -0.5232
 7781SOL    HW134976   3.811   0.850   3.562  2.7216  2.6201 -1.3111
 7781SOL    HW234977   3.769   0.972   3.490 -0.9167 -0.4554 -1.3115
 7782SOL     OW34978   1.321   3.796   7.698  0.8424 -0.0605 -0.6720
 7782SOL    HW134979   1.357   3.707   7.704  0.6282  0.0003  1.5492
 7782SOL    HW234980   1.387   3.847   7.651  2.8758 -0.9419  1.2279
 7783SOL     OW34981   4.593   2.733   9.489  0.1569 -0.0872  0.0252
 7783SOL    HW134982   4.586   2.656   9.545  1.6661 -0.2160  0.0286
 7783SOL    HW234983   4.653   2.694   9.426 -0.9847 -2.4019  0.3712
 7784SOL     OW34984   3.946   2.292   2.323  0.0760  0.0483 -0.0923
 7784SOL    HW134985   4.023   2.348   2.328 -0.5746  0.9894 -0.4922
 7784SOL    HW234986   3.974   2.214   2.275 -0.3987  0.4056 -0.9558
 7785SOL     OW34987   3.276   0.126   5.207  0.5572 -0.7410 -0.0734
 7785SOL    HW134988   3.277   0.106   5.301  1.3086  0.7407  0.2363
 7785SOL    HW234989   3.369   0.140   5.189 -0.4415  2.3725 -2.8216
 7786SOL     OW34990   0.940   1.738   4.819  0.0925  0.3515 -0.0319
 7786SOL    HW134991   0.922   1.672   4.886  1.2885 -0.5974 -0.6420
 7786SOL    HW234992   0.868   1.800   4.833  0.7311  0.8173  1.1629
 7787SOL     OW34993   0.005   3.416   3.697  0.1621 -0.6290 -0.2732
 7787SOL    HW134994   0.033   3.326   3.682 -0.6985 -0.5581 -2.3316
 7787SOL    HW234995   0.070   3.469   3.652  1.5190  0.1918  2.6835
 7788SOL     OW34996   0.545   4.356  10.855 -0.0870  0.9216 -0.2488
 7788SOL    HW134997   0.595   4.437  10.864 -0.4139  0.9448  1.2693
 7788SOL    HW234998   0.462   4.375  10.899 -0.3789  0.8222 -0.7558
 7789SOL     OW34999   3.434   0.809   6.940 -0.3811  0.1600 -0.0548
 7789SOL    HW135000   3.458   0.833   6.850 -2.7927  4.9604  0.6068
 7789SOL    HW235001   3.358   0.752   6.929 -0.1032  0.0689 -1.4697
 7790SOL     OW35002   1.053   2.447   4.981 -0.3563 -0.1265 -0.3317
 7790SOL    HW135003   1.076   2.414   5.068 -0.7996  0.0241 -0.1556
 7790SOL    HW235004   1.128   2.422   4.927 -1.7086  0.9128 -2.6920
 7791SOL     OW35005   0.827   1.474   6.503  0.1034 -0.7416  0.3412
 7791SOL    HW135006   0.897   1.433   6.453  0.0647  1.7851 -1.8242
 7791SOL    HW235007   0.844   1.424   6.583  1.9007 -2.7353 -1.2922
 7792SOL     OW35008   1.342   0.362   4.796  0.0959  0.1116 -0.1828
 7792SOL    HW135009   1.275   0.353   4.728  0.2404 -2.3000 -0.0332
 7792SOL    HW235010   1.414   0.308   4.763 -0.6834 -0.5848 -0.7534
 7793SOL     OW35011   3.801   1.028  12.297  0.1436 -0.2999 -0.3451
 7793SOL    HW135012   3.707   1.008  12.288  0.0600 -0.5762  1.0319
 7793SOL    HW235013   3.823   1.055  12.208 -1.3963  1.3977 -0.2111
 7794SOL     OW35014   1.352   1.918   5.839  0.5837 -0.5872 -0.1827
 7794SOL    HW135015   1.357   1.951   5.749  0.1170 -1.0285 -0.3704
 7794SOL    HW235016   1.434   1.869   5.846  0.3986 -0.9325 -0.4586
 7795SOL     OW35017   4.625   1.717   7.154  0.1078  0.0033 -0.1390
 7795SOL    HW135018   4.645   1.678   7.239 -1.4994 -3.7427 -1.4532
 7795SOL    HW235019   4.610   1.807   7.183 -0.1542 -0.1004  0.0481
 7796SOL     OW35020   3.575   2.533   5.675 -0.0375  0.2594  0.1040
 7796SOL    HW135021   3.655   2.483   5.657 -0.4226 -0.8647  1.5851
 7796SOL    HW235022   3.509   2.477   5.634 -0.7353  2.0836 -1.2658
 7797SOL     OW35023   2.603   1.159  13.292 -0.4555  0.0320  0.1863
 7797SOL    HW135024   2.511   1.130  13.299 -0.3118 -0.2686  0.8440
 7797SOL    HW235025   2.574   1.250  13.294  0.1874  0.2665 -2.3085
 7798SOL     OW35026   3.949   3.958   6.217  0.6409  0.5388  0.1319
 7798SOL    HW135027   3.996   4.038   6.193  0.8053  0.1112 -0.9796
 7798SOL    HW235028   3.859   3.971   6.188  0.5223 -1.0365 -0.2266
 7799SOL     OW35029   2.289   3.170   5.137  0.3473  0.0404 -0.0638
 7799SOL    HW135030   2.286   3.178   5.042  1.2287 -0.6068 -0.1523
 7799SOL    HW235031   2.227   3.242   5.149 -1.2924 -1.5371  1.0094
 7800SOL     OW35032   1.672   4.570  13.964 -0.2224  0.1812 -0.0927
 7800SOL    HW135033   1.644   4.486  14.001 -0.0450  0.1657  0.0050
 7800SOL    HW235034   1.631   4.629  14.027 -0.4945 -0.6699  0.5262
 7801SOL     OW35035   3.120   2.375   9.572  0.4394  0.0559 -0.1206
 7801SOL    HW135036   3.087   2.405   9.487 -0.4761  0.6717  0.4557
 7801SOL    HW235037   3.156   2.459   9.600  1.3106  0.1603 -1.5315
 7802SOL     OW35038   1.878   4.017   4.076 -0.5968 -0.0239  0.1046
 7802SOL    HW135039   1.924   3.959   4.137  0.3340 -0.0657 -0.6357
 7802SOL    HW235040   1.819   4.062   4.137  2.4647  1.5520  1.9151
 7803SOL     OW35041   4.555   0.849   5.609 -0.2228 -0.1804  0.4154
 7803SOL    HW135042   4.596   0.929   5.643 -1.6259  0.2108  1.1629
 7803SOL    HW235043   4.531   0.875   5.520 -0.2100  1.6136  0.9389
 7804SOL     OW35044   3.738   2.898   2.842 -0.1419  0.3034 -0.1245
 7804SOL    HW135045   3.719   2.948   2.764  1.8651 -0.2515 -0.9751
 7804SOL    HW235046   3.791   2.830   2.799  0.8278  1.0481 -0.1067
 7805SOL     OW35047   3.042   3.177  15.204  0.0512  0.1724  0.0929
 7805SOL    HW135048   3.101   3.208  15.273  0.8935  0.3000 -0.6661
 7805SOL    HW235049   2.973   3.243  15.210 -0.4318 -0.2007 -1.3887
 7806SOL     OW35050   3.534   1.347   7.213  0.1465 -0.2174 -0.2859
 7806SOL    HW135051   3.607   1.325   7.271 -0.4018 -1.6852 -0.1722
 7806SOL    HW235052   3.537   1.273   7.153  3.9191 -0.8473  0.6747
 7807SOL     OW35053   3.057   0.846  11.905  0.1021  0.2142 -0.0323
 7807SOL    HW135054   3.113   0.788  11.854 -0.5391 -0.4042 -0.0329
 7807SOL    HW235055   2.974   0.798  11.908  0.2298  0.1529  2.2828
 7808SOL     OW35056   0.176   1.379   8.323 -0.8279  0.2502  0.2796
 7808SOL    HW135057   0.215   1.459   8.360 -1.9691  1.1694 -0.5123
 7808SOL    HW235058   0.251   1.320   8.319 -0.5361  0.5651  0.9869
 7809SOL     OW35059   2.626   3.407   3.888  0.4820 -0.0086  0.0411
 7809SOL    HW135060   2.562   3.388   3.820 -0.3051  0.0621  0.7620
 7809SOL    HW235061   2.612   3.500   3.904  0.4359  0.1504 -0.9450
 7810SOL     OW35062   4.133   2.428   3.416  0.5281  0.0094  0.2042
 7810SOL    HW135063   4.055   2.462   3.459  0.1433  0.8744 -1.1732
 7810SOL    HW235064   4.100   2.424   3.326 -1.5792  4.5630  0.7723
 7811SOL     OW35065   4.699   0.998   3.614 -0.0081  0.2475  0.5149
 7811SOL    HW135066   4.651   0.923   3.651  1.0835 -0.8615 -0.3415
 7811SOL    HW235067   4.631   1.040   3.561  0.5777 -1.0180 -1.2313
 7812SOL     OW35068   0.347   1.084   2.427  0.1491  0.1490 -0.6983
 7812SOL    HW135069   0.433   1.089   2.469 -0.7100 -1.2902  1.2539
 7812SOL    HW235070   0.382   1.048   2.345  1.0794 -0.0008 -0.2345
 7813SOL     OW35071   3.716   0.220  16.169 -0.5601  0.0721 -0.2284
 7813SOL    HW135072   3.716   0.133  16.128  0.9039  0.0323 -0.1586
 7813SOL    HW235073   3.668   0.268  16.101 -0.7522  0.0106 -0.1337
 7814SOL     OW35074   4.042   3.047  12.816 -0.1182 -0.8138  0.7652
 7814SOL    HW135075   4.068   3.109  12.748  2.6610  0.4748  2.9803
 7814SOL    HW235076   4.017   3.101  12.891  1.5623 -0.0334  0.7620
 7815SOL     OW35077   3.886   1.478   7.573 -0.2413 -0.4583  0.1761
 7815SOL    HW135078   3.891   1.543   7.504  2.4503  1.2183  1.9612
 7815SOL    HW235079   3.883   1.531   7.653 -0.4503 -0.6643  0.3040
 7816SOL     OW35080   4.290   3.000   7.407 -0.2413  0.1457 -0.1549
 7816SOL    HW135081   4.251   2.942   7.473 -0.6955  0.2962 -0.2935
 7816SOL    HW235082   4.211   3.013   7.355 -0.4089 -2.2450 -0.4732
 7817SOL     OW35083   2.250   2.974   5.348 -0.2526  0.3728 -0.4442
 7817SOL    HW135084   2.269   3.041   5.281  0.2738 -0.5293 -1.2078
 7817SOL    HW235085   2.324   2.919   5.321 -0.5453  0.9601 -2.4547
 7818SOL     OW35086   3.259   3.977   7.127 -0.0147 -0.0157  0.5232
 7818SOL    HW135087   3.268   3.898   7.074 -2.2628  1.5134 -2.1195
 7818SOL    HW235088   3.299   4.042   7.070 -1.4918  1.3258  1.0053
 7819SOL     OW35089   4.466   1.506   9.919  0.7069  0.0960 -0.1641
 7819SOL    HW135090   4.437   1.590   9.953  0.6091 -0.5178  1.2660
 7819SOL    HW235091   4.537   1.537   9.863 -0.0219 -0.5484 -1.4526
 7820SOL     OW35092   4.271   3.072   6.410 -0.0578  0.2204  0.5208
 7820SOL    HW135093   4.293   2.990   6.455 -0.2890  1.0972  2.2439
 7820SOL    HW235094   4.360   3.101   6.389 -0.1669 -0.0333 -0.2844
 7821SOL     OW35095   3.022   3.265   4.658  0.0273 -0.3676 -0.2239
 7821SOL    HW135096   3.031   3.347   4.609 -0.4382 -0.6117 -0.7141
 7821SOL    HW235097   3.098   3.225   4.615  0.3814 -1.0725  1.0656
 7822SOL     OW35098   4.023   0.701   7.412  0.2971 -0.1302  0.0857
 7822SOL    HW135099   4.009   0.748   7.494  0.7693 -0.6440  0.4641
 7822SOL    HW235100   3.960   0.743   7.354  0.3776 -0.1477 -0.0152
 7823SOL     OW35101   2.898   0.764  12.393 -0.2390 -1.0687  0.3090
 7823SOL    HW135102   2.907   0.854  12.423  1.9031 -1.4022  0.6544
 7823SOL    HW235103   2.974   0.718  12.429  0.8434  1.4096  1.1356
 7824SOL     OW35104   3.649   2.307   7.294 -0.2955  0.1346 -0.2429
 7824SOL    HW135105   3.711   2.311   7.221 -0.8406 -2.2125 -0.8097
 7824SOL    HW235106   3.573   2.321   7.237 -0.1789  1.2843 -0.1242
 7825SOL     OW35107   4.277   2.448   5.323  0.1946 -0.2497 -0.0228
 7825SOL    HW135108   4.341   2.486   5.383  1.6982 -0.2272 -1.6418
 7825SOL    HW235109   4.282   2.357   5.353  1.2083  0.0272  0.6380
 7826SOL     OW35110   0.947   4.264   8.312 -0.3362 -0.0954 -0.2487
 7826SOL    HW135111   0.986   4.335   8.261 -0.4546 -0.5848 -1.0200
 7826SOL    HW235112   0.856   4.269   8.284 -0.9225  0.2332  1.7580
 7827SOL     OW35113   3.470   0.627   4.381  0.4253  0.3930  0.5599
 7827SOL    HW135114   3.418   0.566   4.330  0.2012  1.4547 -0.4701
 7827SOL    HW235115   3.409   0.661   4.447 -2.8233 -1.4741 -1.4617
 7828SOL     OW35116   0.255   4.160   1.555  0.1093  0.0299 -0.1704
 7828SOL    HW135117   0.183   4.134   1.498  1.2798 -2.3569 -0.5720
 7828SOL    HW235118   0.301   4.078   1.573 -2.0979 -0.9290  1.0662
 7829SOL     OW35119   1.860   4.469   2.455  0.1997  0.8593 -0.1513
 7829SOL    HW135120   1.769   4.476   2.484  0.0786  2.4516 -0.9050
 7829SOL    HW235121   1.891   4.551   2.493 -0.8356  0.9928  0.4276
 7830SOL     OW35122   0.561   2.692   3.504 -0.0793  0.4933 -0.1803
 7830SOL    HW135123   0.560   2.613   3.558 -0.7508 -0.4006 -1.5200
 7830SOL    HW235124   0.611   2.654   3.431  0.1511  1.1192 -0.3570
 7831SOL     OW35125   2.892   1.942   7.042 -0.4116  0.2012  0.5512
 7831SOL    HW135126   2.804   1.979   7.037 -1.2650 -1.9017  0.1962
 7831SOL    HW235127   2.868   1.851   7.057  0.3281 -0.0261  0.3295
 7832SOL     OW35128   0.968   4.187   1.357 -0.0139 -0.7119 -0.8657
 7832SOL    HW135129   0.955   4.234   1.439  0.7500 -0.7548 -0.7215
 7832SOL    HW235130   1.050   4.221   1.322  2.2935 -3.7209  1.6535
 7833SOL     OW35131   2.860   3.890   8.160  0.1101  0.3782  0.1850
 7833SOL    HW135132   2.795   3.912   8.226 -1.1914  0.5523 -1.1345
 7833SOL    HW235133   2.804   3.867   8.086  0.4922 -0.9900  0.3224
 7834SOL     OW35134   1.234   2.046   4.959  0.1475 -0.3647  0.4373
 7834SOL    HW135135   1.190   2.035   4.875  1.3419  0.9819 -0.3716
 7834SOL    HW235136   1.249   1.953   4.975 -2.1211 -0.4598  2.0530
 7835SOL     OW35137   0.553   0.379   7.882 -0.0344  0.3419  0.1826
 7835SOL    HW135138   0.560   0.284   7.897  2.4400  0.6259  0.9142
 7835SOL    HW235139   0.520   0.384   7.792 -0.1599 -1.4316  0.1239
 7836SOL     OW35140   1.379   3.543  13.892  0.1304  0.1887 -0.1474
 7836SOL    HW135141   1.346   3.630  13.871 -0.8126 -0.0214  0.4551
 7836SOL    HW235142   1.468   3.563  13.922 -0.4408  0.4779  1.3625
 7837SOL     OW35143   3.724   3.925   8.549  0.2310  0.2658  0.5293
 7837SOL    HW135144   3.759   3.958   8.467  0.0412  0.2080  0.4255
 7837SOL    HW235145   3.632   3.950   8.558  0.0168  0.0087 -0.8997
 7838SOL     OW35146   0.381   3.820  14.383 -0.2655 -0.2785 -0.4705
 7838SOL    HW135147   0.379   3.815  14.479  0.4895 -1.5528 -0.5224
 7838SOL    HW235148   0.371   3.914  14.368 -1.3451 -0.1624  0.9457
 7839SOL     OW35149   2.814   4.445   4.359 -0.4816 -0.1459 -0.2891
 7839SOL    HW135150   2.889   4.389   4.377 -0.6929 -0.1816  0.4705
 7839SOL    HW235151   2.763   4.418   4.436 -0.3792 -0.8329 -0.4572
 7840SOL     OW35152   0.981   1.508   4.986 -0.0655 -0.0121 -0.4827
 7840SOL    HW135153   0.934   1.430   5.014  1.4170 -0.2150  1.4477
 7840SOL    HW235154   0.988   1.475   4.896 -1.0883  0.0182 -0.5759
 7841SOL     OW35155   2.388   4.413   5.098 -1.0189 -0.2293  0.1695
 7841SOL    HW135156   2.417   4.471   5.169  0.6325 -0.1555 -0.5604
 7841SOL    HW235157   2.412   4.466   5.022 -1.9328  0.3598  0.2875
 7842SOL     OW35158   2.929   3.123   4.023  0.0755  1.1685  0.0441
 7842SOL    HW135159   2.862   3.083   3.967 -0.1113  1.5565 -0.0062
 7842SOL    HW235160   2.886   3.119   4.108 -1.1688 -1.4758 -0.6933
 7843SOL     OW35161   4.411   0.463   1.505  0.1492 -0.5372 -0.2494
 7843SOL    HW135162   4.504   0.442   1.516  0.9194  3.1236  0.3897
 7843SOL    HW235163   4.407   0.558   1.516  0.5370 -0.9090  3.3586
 7844SOL     OW35164   4.517   0.207   6.080 -0.1773  0.3096  0.2557
 7844SOL    HW135165   4.538   0.301   6.076  0.7877  0.1661  2.4258
 7844SOL    HW235166   4.601   0.167   6.057 -1.0101  0.0373 -2.3614
 7845SOL     OW35167   4.465   2.740   8.737 -0.5754  0.4449  0.1692
 7845SOL    HW135168   4.394   2.690   8.779 -0.7484 -0.0488 -0.7245
 7845SOL    HW235169   4.418   2.819   8.711  1.1896  1.4320 -0.0389
 7846SOL     OW35170   1.671   2.505   9.499 -0.2826 -0.1827  0.0104
 7846SOL    HW135171   1.682   2.599   9.484 -1.7206 -0.2119 -1.1682
 7846SOL    HW235172   1.649   2.480   9.409 -0.2983 -1.7679  0.4528
 7847SOL     OW35173   0.093   4.638   6.634 -0.0309  0.8682 -0.0786
 7847SOL    HW135174   4.738   4.642   6.650 -0.6926 -2.1122 -3.3691
 7847SOL    HW235175   0.104   4.719   6.584  0.0435 -0.0374 -1.5348
 7848SOL     OW35176   3.075   0.662   3.555  0.2134 -0.0734 -0.6126
 7848SOL    HW135177   3.003   0.636   3.612  0.3492  2.3789  0.6824
 7848SOL    HW235178   3.058   0.755   3.547 -0.2862  0.0007  1.4289
 7849SOL     OW35179   4.484   0.820   4.772  0.4665 -0.3671 -0.3097
 7849SOL    HW135180   4.478   0.785   4.861 -0.7236  0.6412  0.0216
 7849SOL    HW235181   4.528   0.904   4.789  0.1606  0.0277 -1.4673
 7850SOL     OW35182   0.925   4.210   0.280  0.1907  0.4632  0.3844
 7850SOL    HW135183   0.946   4.299   0.250  1.1144  0.1355  0.0542
 7850SOL    HW235184   0.892   4.183   0.194  1.9062  1.0882 -0.4601
 7851SOL     OW35185   3.449   4.609   5.103 -0.1001  0.4680  0.1980
 7851SOL    HW135186   3.535   4.571   5.122 -0.1082 -0.6909 -2.0584
 7851SOL    HW235187   3.465   4.677   5.037 -0.4400  0.6125  0.2673
 7852SOL     OW35188   1.953   2.244  14.836 -0.3444  0.4972 -0.1809
 7852SOL    HW135189   2.005   2.208  14.763  0.9172 -1.5545  1.7267
 7852SOL    HW235190   1.972   2.334  14.811 -1.5809  0.5255 -0.9916
 7853SOL     OW35191   4.017   0.917   9.729  0.8909  0.1787 -0.0503
 7853SOL    HW135192   3.943   0.943   9.784 -0.7797 -0.1519 -2.1531
 7853SOL    HW235193   4.077   0.980   9.768  2.9012 -1.3543 -0.6749
 7854SOL     OW35194   1.455   2.313  15.728 -0.3291 -0.0540  0.2044
 7854SOL    HW135195   1.425   2.392  15.773  0.3141  1.6967 -2.4858
 7854SOL    HW235196   1.452   2.351  15.641 -0.4859 -0.3623  0.0751
 7855SOL     OW35197   0.720   1.021  11.488 -0.1960 -0.1830 -0.2465
 7855SOL    HW135198   0.773   0.949  11.452 -0.0365  1.5329 -3.3580
 7855SOL    HW235199   0.683   0.988  11.570 -1.8775 -1.4874 -1.5316
 7856SOL     OW35200   2.082   2.167  11.629 -0.6245 -0.2168 -0.5277
 7856SOL    HW135201   2.002   2.190  11.676 -2.8903 -3.3653 -2.9151
 7856SOL    HW235202   2.101   2.080  11.663 -1.2308  0.6513  2.0282
 7857SOL     OW35203   0.409   1.259  14.491 -0.5711  0.2876  0.1211
 7857SOL    HW135204   0.338   1.200  14.467 -0.4321 -0.7018  2.0981
 7857SOL    HW235205   0.385   1.271  14.583 -0.9078  0.2515  0.0377
 7858SOL     OW35206   1.731   2.731  10.519 -0.4587  0.3853  0.4837
 7858SOL    HW135207   1.702   2.809  10.566 -0.6991  0.6999 -0.1839
 7858SOL    HW235208   1.824   2.729  10.543 -0.1925 -0.0641 -0.6043
 7859SOL     OW35209   1.315   4.508   2.797  0.0680  0.4475 -0.0795
 7859SOL    HW135210   1.315   4.414   2.816  3.2300  0.3959 -0.4091
 7859SOL    HW235211   1.279   4.504   2.708 -1.5333  0.9321  0.5510
 7860SOL     OW35212   3.771   0.483   3.280  0.0907  0.0257 -0.3297
 7860SOL    HW135213   3.849   0.539   3.278 -0.5025  0.7119 -4.1748
 7860SOL    HW235214   3.712   0.523   3.344  0.8968  0.4547  0.1565
 7861SOL     OW35215   0.651   1.701  15.626 -0.4887  0.1928 -0.0302
 7861SOL    HW135216   0.615   1.623  15.584  0.8620 -1.5941  2.1849
 7861SOL    HW235217   0.592   1.768  15.591  1.0016  1.8726  0.6582
 7862SOL     OW35218   4.635   4.266  11.794  0.1423 -0.5287  0.4000
 7862SOL    HW135219   4.599   4.271  11.705 -0.1649 -2.4241  0.4062
 7862SOL    HW235220   4.718   4.222  11.775 -0.0056 -1.4545  1.8867
 7863SOL     OW35221   1.143   0.018   0.940  0.1305  0.2101  0.6077
 7863SOL    HW135222   1.141   4.665   0.915  1.9825  0.6130 -1.0333
 7863SOL    HW235223   1.134   4.737   1.033  0.5780 -1.5807  0.2667
 7864SOL     OW35224   2.491   3.694   6.980  0.2922  0.1437 -0.5980
 7864SOL    HW135225   2.458   3.744   6.905  0.3840  3.0461  1.2648
 7864SOL    HW235226   2.584   3.715   6.969  0.1389  1.9832  1.5769
 7865SOL     OW35227   3.805   2.159   0.777  0.3035 -0.1630  0.6861
 7865SOL    HW135228   3.742   2.105   0.826 -1.6488 -0.8154 -2.4960
 7865SOL    HW235229   3.861   2.084   0.757 -0.4785 -0.2373 -1.2460
 7866SOL     OW35230   2.288   1.936   0.006  0.4703  0.4141 -0.2117
 7866SOL    HW135231   2.352   1.914   0.074  0.1630 -0.7599 -0.2998
 7866SOL    HW235232   2.327   2.016  17.726  2.1017  1.4871  4.3336
 7867SOL     OW35233   1.825   1.287   2.786 -0.0034  0.2368 -0.1325
 7867SOL    HW135234   1.751   1.265   2.843  0.7517 -1.7076  0.1123
 7867SOL    HW235235   1.797   1.289   2.695 -0.4608 -2.6687 -0.0629
 7868SOL     OW35236   4.393   2.458   9.361  0.0068 -0.3517 -0.2365
 7868SOL    HW135237   4.485   2.477   9.343  1.0225 -3.7933  1.3109
 7868SOL    HW235238   4.395   2.382   9.419  1.2404  0.6309  1.0165
 7869SOL     OW35239   0.777   1.873  16.055 -0.7908  0.5256 -0.2493
 7869SOL    HW135240   0.782   1.926  15.976  3.2535 -0.2774 -0.5317
 7869SOL    HW235241   0.729   1.931  16.114  2.9266  1.5183  1.8339
 7870SOL     OW35242   3.305   1.850   6.435  0.1164  0.2762  0.4063
 7870SOL    HW135243   3.249   1.796   6.492 -0.3300  1.0297  0.6820
 7870SOL    HW235244   3.273   1.940   6.428  2.4399  1.2085  1.7806
 7871SOL     OW35245   3.758   4.266  14.607 -0.0942 -0.4025 -0.1690
 7871SOL    HW135246   3.815   4.204  14.652 -1.2054 -1.3654 -0.0964
 7871SOL    HW235247   3.724   4.225  14.528 -0.5536 -0.7010  0.1790
 7872SOL     OW35248   0.556   4.310   1.638 -0.0206  0.3770  0.0042
 7872SOL    HW135249   0.466   4.331   1.662 -0.8355 -0.2782 -2.5030
 7872SOL    HW235250   0.547   4.236   1.578  1.5184  0.1314  0.0698
 7873SOL     OW35251   2.013   4.292   7.053 -0.0891 -0.4702  0.7866
 7873SOL    HW135252   1.968   4.313   6.971  1.4554 -2.3558 -0.5312
 7873SOL    HW235253   1.953   4.322   7.121 -2.5762  0.0085 -1.6602
 7874SOL     OW35254   1.809   4.622  13.716 -0.4375 -0.0524 -0.3537
 7874SOL    HW135255   1.736   4.594  13.772 -1.9561 -1.1033 -2.8961
 7874SOL    HW235256   1.786   4.574  13.637 -2.5914  1.0731 -0.4063
 7875SOL     OW35257   4.082   3.255   3.080  0.0268  0.1399  0.0679
 7875SOL    HW135258   4.016   3.308   3.125 -0.0745 -0.2057  0.3207
 7875SOL    HW235259   4.023   3.207   3.022  1.8433 -1.3246 -0.5672
 7876SOL     OW35260   1.241   4.564  12.492 -0.0480  0.1078 -0.2965
 7876SOL    HW135261   1.325   4.522  12.507 -0.2534 -0.6230 -1.2121
 7876SOL    HW235262   1.267   4.644  12.447 -0.1813  0.4948  0.3126
 7877SOL     OW35263   0.567   1.285   5.789 -0.5017 -0.4285 -0.5579
 7877SOL    HW135264   0.527   1.370   5.769  0.5679  0.5497  1.4155
 7877SOL    HW235265   0.492   1.226   5.794 -0.0930 -0.6980  2.6557
 7878SOL     OW35266   1.765   4.647   6.411 -0.6327 -0.2396 -0.0351
 7878SOL    HW135267   1.695   4.585   6.433  1.1077 -1.2741  2.5320
 7878SOL    HW235268   1.715   4.721   6.376  0.0631  0.3501  0.2323
 7879SOL     OW35269   3.785   2.636   3.454 -0.0486 -0.3753  0.3185
 7879SOL    HW135270   3.839   2.610   3.529  1.2200  0.9385 -0.1269
 7879SOL    HW235271   3.844   2.681   3.393 -1.0931  0.2177 -0.2507
 7880SOL     OW35272   0.696   0.633   2.292 -0.0143  0.2372 -0.1431
 7880SOL    HW135273   0.661   0.614   2.379  0.7945  1.8377  0.5422
 7880SOL    HW235274   0.629   0.581   2.246  0.3107  1.3171 -1.8487
 7881SOL     OW35275   3.043   4.443   2.470 -0.0760  0.6114 -0.3427
 7881SOL    HW135276   3.121   4.472   2.423  0.2241 -0.6529 -0.6079
 7881SOL    HW235277   2.994   4.526   2.464 -1.0343 -0.0491 -1.5518
 7882SOL     OW35278   4.432   0.725   5.311  0.0568  0.2638  0.1049
 7882SOL    HW135279   4.348   0.757   5.342  0.7550  1.6487  0.5686
 7882SOL    HW235280   4.436   0.641   5.355 -0.3317 -0.1233 -0.6008
 7883SOL     OW35281   0.439   1.474   5.329  0.5222 -0.0516 -0.1983
 7883SOL    HW135282   0.381   1.431   5.267  0.0554  0.6724 -0.2644
 7883SOL    HW235283   0.432   1.413   5.403  0.1734 -0.1851 -0.3461
 7884SOL     OW35284   2.647   2.652   9.923 -0.0404  0.0730  0.3345
 7884SOL    HW135285   2.735   2.663   9.960  0.1744 -0.3219 -0.0525
 7884SOL    HW235286   2.617   2.570   9.960 -0.0460 -0.6177 -1.1853
 7885SOL     OW35287   3.754   3.034   3.256 -0.4787 -0.5115 -0.3219
 7885SOL    HW135288   3.800   3.116   3.275 -0.7512 -0.3551 -0.3528
 7885SOL    HW235289   3.674   3.051   3.304 -0.8742 -0.8271 -0.8734
 7886SOL     OW35290   2.092   1.671   4.636 -0.2904 -0.8379  0.1952
 7886SOL    HW135291   2.094   1.577   4.655 -0.2004  0.0027  4.2162
 7886SOL    HW235292   2.046   1.673   4.551  1.1811 -2.5259 -0.6390
 7887SOL     OW35293   0.240   0.857   7.233 -0.1526  0.4939 -0.0553
 7887SOL    HW135294   0.314   0.860   7.294  0.7517 -2.1420 -1.0156
 7887SOL    HW235295   0.206   0.944   7.252  0.7905  1.1812 -1.5579
 7888SOL     OW35296   3.573   2.597   2.650 -0.2735 -0.3348 -0.3596
 7888SOL    HW135297   3.534   2.570   2.733  0.5718  1.7767  0.7265
 7888SOL    HW235298   3.664   2.580   2.672 -0.0280  1.5812  0.1595
 7889SOL     OW35299   4.729   2.593  10.178 -0.0819 -0.4820 -0.3288
 7889SOL    HW135300   0.003   2.597  10.272 -1.0972  0.9096 -0.2434
 7889SOL    HW235301   0.081   2.590  10.147 -0.5754  2.8675 -2.1910
 7890SOL     OW35302   0.618   3.207   5.910 -0.6798  0.0695  0.4474
 7890SOL    HW135303   0.527   3.227   5.931 -0.9310  0.5284 -1.0989
 7890SOL    HW235304   0.660   3.225   5.995 -0.7667  1.6131  0.1551
 7891SOL     OW35305   0.525   2.346   2.533 -0.4244 -0.1617  0.3124
 7891SOL    HW135306   0.604   2.310   2.493  1.2188  1.6149  1.9049
 7891SOL    HW235307   0.477   2.263   2.528  0.1132 -0.3749 -1.1731
 7892SOL     OW35308   1.878   3.701   0.444 -0.4013  0.6706 -0.2129
 7892SOL    HW135309   1.961   3.748   0.438  0.7166 -1.1515  0.9880
 7892SOL    HW235310   1.902   3.619   0.487 -1.2514  0.2775 -0.4879
 7893SOL     OW35311   3.911   1.835   3.928  0.4275  0.1105 -0.1029
 7893SOL    HW135312   3.909   1.766   3.994  0.5288 -0.4199 -0.6474
 7893SOL    HW235313   3.981   1.811   3.867  1.0944  0.9830  0.3288
 7894SOL     OW35314   4.265   3.862  12.676  0.2687 -0.4045 -0.2441
 7894SOL    HW135315   4.222   3.914  12.608 -0.9753 -2.6553 -1.2017
 7894SOL    HW235316   4.220   3.778  12.665 -2.8712  1.2594  0.0627
 7895SOL     OW35317   4.139   1.445  15.433  0.2596  0.3162 -0.1551
 7895SOL    HW135318   4.127   1.539  15.430  1.4874  0.5148  1.0081
 7895SOL    HW235319   4.099   1.412  15.353  1.9176  0.2817 -0.9674
 7896SOL     OW35320   2.800   4.157   4.088 -0.0738 -0.6102  0.8846
 7896SOL    HW135321   2.803   4.175   4.182 -0.5009 -0.8470  0.9452
 7896SOL    HW235322   2.882   4.107   4.079 -0.9402 -2.4786  3.3215
 7897SOL     OW35323   1.455   4.359   3.782 -0.4586 -0.0253  0.2919
 7897SOL    HW135324   1.524   4.336   3.844  0.3826  1.3849 -0.1369
 7897SOL    HW235325   1.462   4.454   3.783 -0.7222  0.0199 -1.2168
 7898SOL     OW35326   1.329   2.785  16.975  0.2522  0.2695  0.0229
 7898SOL    HW135327   1.293   2.859  17.023  1.6728 -0.6517  2.5230
 7898SOL    HW235328   1.285   2.713  17.020  0.0628  1.0213  1.0258
 7899SOL     OW35329   4.070   2.507  11.251 -0.4658 -0.5286  0.1496
 7899SOL    HW135330   4.009   2.572  11.217  0.4627  0.5311  0.5291
 7899SOL    HW235331   4.143   2.531  11.195 -1.5505  0.1624 -0.9699
 7900SOL     OW35332   0.686   3.367   0.032  0.4767 -0.4998  0.0798
 7900SOL    HW135333   0.613   3.320  17.744 -1.0155  1.1059  0.8801
 7900SOL    HW235334   0.645   3.433   0.089 -2.2901 -1.6780 -0.5762
 7901SOL     OW35335   3.362   4.090   4.156  0.2903  0.2261  0.3029
 7901SOL    HW135336   3.337   4.035   4.082  0.8832  1.6792 -0.9722
 7901SOL    HW235337   3.451   4.060   4.178 -0.1036 -0.6586  0.7100
 7902SOL     OW35338   0.854   0.087   7.246 -0.5402  0.0836  0.0064
 7902SOL    HW135339   0.931   0.083   7.303 -1.1486 -0.9060  0.7440
 7902SOL    HW235340   0.862   0.181   7.228  1.6808  0.2782  2.0779
 7903SOL     OW35341   1.070   0.819   7.843 -0.3950 -0.2789 -0.2888
 7903SOL    HW135342   1.051   0.853   7.756 -2.5971  1.8092  1.0340
 7903SOL    HW235343   1.155   0.784   7.814 -0.0616  1.4244 -1.3400
 7904SOL     OW35344   1.985   3.388  16.392  0.1460 -0.2163  0.4854
 7904SOL    HW135345   1.997   3.456  16.459 -1.8469 -0.8192  1.4714
 7904SOL    HW235346   2.060   3.393  16.334 -1.0338 -0.4715 -1.0511
 7905SOL     OW35347   2.196   1.363   3.405  0.3879 -0.3136  0.2279
 7905SOL    HW135348   2.119   1.420   3.406 -0.7924 -1.9540  1.5165
 7905SOL    HW235349   2.146   1.285   3.432 -1.1105  0.5053 -0.1768
 7906SOL     OW35350   4.362   4.170   6.017 -0.2482  0.0178 -0.3803
 7906SOL    HW135351   4.431   4.139   6.076  0.3584  0.1267 -1.0375
 7906SOL    HW235352   4.402   4.167   5.930  2.9220  0.6689  1.0668
 7907SOL     OW35353   0.127   3.895   9.174  0.3337 -0.9616 -0.5772
 7907SOL    HW135354   0.060   3.834   9.206 -2.4399  2.3818 -0.0328
 7907SOL    HW235355   0.129   3.954   9.250  0.8723 -0.8676 -0.6629
 7908SOL     OW35356   1.896   4.315   2.912 -0.1532  0.3990  0.0150
 7908SOL    HW135357   1.889   4.245   2.977 -1.4470 -0.2839 -0.8530
 7908SOL    HW235358   1.949   4.265   2.850 -0.6314 -0.2795  0.1463
 7909SOL     OW35359   1.963   3.981   7.735 -0.6278  0.7388 -0.6640
 7909SOL    HW135360   2.028   3.961   7.668  0.4743 -1.4151  1.0602
 7909SOL    HW235361   1.937   3.891   7.750 -0.3555  0.9579  1.0669
 7910SOL     OW35362   1.333   0.911   2.764  0.3551 -0.1592 -0.0850
 7910SOL    HW135363   1.365   0.830   2.804 -0.6594 -0.9227 -0.8207
 7910SOL    HW235364   1.240   0.913   2.787  0.4180  1.2610  0.0474
 7911SOL     OW35365   0.071   3.143   5.658 -0.4650 -0.6698  0.2286
 7911SOL    HW135366   0.144   3.126   5.598 -0.3556 -1.3215  0.5482
 7911SOL    HW235367   0.063   3.060   5.706  0.0913 -0.7861  0.1212
 7912SOL     OW35368   4.011   2.199  16.201 -0.5609 -0.0072  0.0645
 7912SOL    HW135369   3.964   2.186  16.283  0.6890  0.1514  0.8091
 7912SOL    HW235370   4.053   2.285  16.210  3.2211 -1.7001 -1.3676
 7913SOL     OW35371   3.913   4.715  11.083  0.1606 -0.3421 -0.1180
 7913SOL    HW135372   3.927   4.670  11.167 -0.7425  1.5032  1.0318
 7913SOL    HW235373   3.857   4.655  11.034 -0.1376 -2.6848  3.1005
 7914SOL     OW35374   1.692   1.159   6.950 -0.0397 -0.4155  0.1437
 7914SOL    HW135375   1.601   1.181   6.929 -0.2226 -1.1027  0.1842
 7914SOL    HW235376   1.684   1.068   6.980 -1.8079  0.0690  1.1784
 7915SOL     OW35377   1.582   4.193   2.405 -0.0163 -0.2466 -0.2683
 7915SOL    HW135378   1.641   4.268   2.415  0.7712 -0.9697  0.4777
 7915SOL    HW235379   1.602   4.142   2.483 -1.1324 -1.2977 -0.6752
 7916SOL     OW35380   0.116   0.891   3.920 -0.6153  0.0831 -0.1839
 7916SOL    HW135381   0.051   0.944   3.966  1.3853  1.5411  0.9791
 7916SOL    HW235382   0.160   0.961   3.871  1.9714 -1.5846 -0.2545
 7917SOL     OW35383   1.106   3.605   6.881  0.0444 -0.4910 -0.2226
 7917SOL    HW135384   1.097   3.700   6.883  1.2733 -0.4022  1.2447
 7917SOL    HW235385   1.170   3.594   6.810  2.4945  0.9623  1.7606
 7918SOL     OW35386   3.232   0.213   9.661  0.2334  0.3965  0.0220
 7918SOL    HW135387   3.154   0.264   9.637 -0.9655 -1.0987  0.6742
 7918SOL    HW235388   3.205   0.123   9.641  1.1979 -0.2660  1.7368
 7919SOL     OW35389   0.502   3.112   2.685  0.0676  0.1494  0.0621
 7919SOL    HW135390   0.456   3.092   2.603 -0.4141 -2.9819  1.1148
 7919SOL    HW235391   0.435   3.086   2.748  3.0450 -0.9809  2.7737
 7920SOL     OW35392   0.264   0.814   6.935  0.1011 -0.0598  0.1606
 7920SOL    HW135393   0.250   0.832   7.028  2.0355  0.1117  0.4371
 7920SOL    HW235394   0.204   0.875   6.892  1.2540  0.7596 -0.3233
 7921SOL     OW35395   2.520   4.634  17.517 -0.2470  0.1217  0.4151
 7921SOL    HW135396   2.480   4.686  17.448 -0.3973  0.7543  0.9817
 7921SOL    HW235397   2.509   4.685  17.597  0.3044 -0.0992  0.6308
 7922SOL     OW35398   2.492   3.064  16.676 -0.1581 -0.2842  0.6278
 7922SOL    HW135399   2.475   2.976  16.709  1.0405 -0.7434  0.0033
 7922SOL    HW235400   2.437   3.066  16.598 -0.2445  2.2791  0.7478
 7923SOL     OW35401   1.774   3.499   4.420 -0.1082  0.5668 -0.2529
 7923SOL    HW135402   1.696   3.469   4.373  1.6742 -2.0571 -1.5426
 7923SOL    HW235403   1.809   3.413   4.444  0.5028  0.7783 -0.3595
 7924SOL     OW35404   3.518   1.239   6.368  0.3680 -0.2734  0.8845
 7924SOL    HW135405   3.453   1.173   6.393  2.0545 -2.3582 -0.2203
 7924SOL    HW235406   3.498   1.320   6.414  2.7715 -0.7344  2.7643
 7925SOL     OW35407   2.132   2.160  17.391 -0.1555 -0.6710  0.2049
 7925SOL    HW135408   2.174   2.219  17.328 -0.3109 -0.2717  0.4795
 7925SOL    HW235409   2.201   2.114  17.440  0.4234 -0.4014 -0.3551
 7926SOL     OW35410   1.719   3.268   4.095  0.5293  0.2553 -0.0666
 7926SOL    HW135411   1.693   3.331   4.029 -3.3882  0.8190  2.0027
 7926SOL    HW235412   1.666   3.294   4.171 -0.1638 -1.9667  0.2195
 7927SOL     OW35413   3.396   1.722   4.967 -0.3066  0.2787  0.5160
 7927SOL    HW135414   3.318   1.760   4.928  0.4357  1.0748 -0.2056
 7927SOL    HW235415   3.359   1.660   5.030  0.6059 -0.6779  0.1242
 7928SOL     OW35416   3.607   3.971   4.223  0.1037  0.5141  0.0134
 7928SOL    HW135417   3.618   3.880   4.250 -2.4533 -0.3661 -1.9798
 7928SOL    HW235418   3.656   3.961   4.141  0.0164 -0.6331  0.1028
 7929SOL     OW35419   2.042   0.695  16.098  0.6793 -0.3040  0.2650
 7929SOL    HW135420   1.947   0.703  16.105  0.6359  1.1452 -1.9861
 7929SOL    HW235421   2.078   0.780  16.074 -0.0564 -0.4786 -1.4320
 7930SOL     OW35422   1.946   3.933   7.073  0.0568 -0.1545  0.3358
 7930SOL    HW135423   1.931   4.011   7.020  2.4182  0.5223  0.6689
 7930SOL    HW235424   2.008   3.972   7.135 -1.0826  1.8776  0.1677
 7931SOL     OW35425   4.176   2.547   7.690  0.4631  0.3577  0.5906
 7931SOL    HW135426   4.098   2.555   7.744 -0.6569 -0.9302 -0.8308
 7931SOL    HW235427   4.222   2.628   7.711 -0.7001  1.7402 -2.1208
 7932SOL     OW35428   2.727   4.289   6.295  0.7077 -0.1602 -0.1151
 7932SOL    HW135429   2.679   4.325   6.369  2.0941  3.0312 -0.7431
 7932SOL    HW235430   2.726   4.195   6.312 -0.1498 -0.1334  0.0017
 7933SOL     OW35431   1.804   2.268   6.925 -0.0524 -0.2067 -0.3938
 7933SOL    HW135432   1.780   2.190   6.976 -0.1981  0.6632  0.8665
 7933SOL    HW235433   1.778   2.339   6.984  1.7123 -0.6879  0.9486
 7934SOL     OW35434   3.961   4.139   5.604 -0.0110  0.0126 -0.2793
 7934SOL    HW135435   3.974   4.084   5.527 -1.0126  0.1934 -0.5646
 7934SOL    HW235436   4.048   4.152   5.642  0.6735 -1.3118 -1.3950
 7935SOL     OW35437   2.206   2.430   3.912  0.1306  0.1499  0.0215
 7935SOL    HW135438   2.293   2.436   3.950  0.5476  0.5088 -0.9747
 7935SOL    HW235439   2.178   2.352   3.959 -1.5250 -0.4167 -1.8773
 7936SOL     OW35440   1.813   0.087   7.135  0.5613  0.9524 -0.4002
 7936SOL    HW135441   1.763   0.153   7.086 -0.7007  0.3189  0.0349
 7936SOL    HW235442   1.904   0.112   7.118  0.0677  0.8149 -3.2661
 7937SOL     OW35443   3.409   0.277  15.950  0.2761  0.4611  0.0638
 7937SOL    HW135444   3.419   0.333  16.027  1.0312 -0.2615  0.4935
 7937SOL    HW235445   3.441   0.342  15.888  0.3202  0.6742  0.3078
 7938SOL     OW35446   4.530   2.811   5.666  0.6047 -0.1138 -0.1675
 7938SOL    HW135447   4.555   2.866   5.591 -1.9335 -1.8406 -2.2927
 7938SOL    HW235448   4.615   2.809   5.710  1.1564 -0.9298 -1.2734
 7939SOL     OW35449   2.828   4.436   5.962 -0.2749  0.3619  0.6754
 7939SOL    HW135450   2.899   4.377   5.939 -0.2132  0.0619  1.6332
 7939SOL    HW235451   2.853   4.513   5.910 -0.3349  0.1747  0.3703
 7940SOL     OW35452   4.651   3.832  13.064 -0.3189 -0.1321  0.4409
 7940SOL    HW135453   4.558   3.848  13.049 -0.2807  1.4651  1.8948
 7940SOL    HW235454   4.670   3.740  13.082 -0.9692 -0.2354  0.5932
 7941SOL     OW35455   2.727   0.036  15.086 -0.8937 -0.4286 -0.5348
 7941SOL    HW135456   2.672   0.016  15.162 -0.2072  1.2581  0.4028
 7941SOL    HW235457   2.674   0.088  15.026  1.1965  0.6082 -1.4768
 7942SOL     OW35458   3.646   2.252   1.044  0.4381  0.4296 -0.2947
 7942SOL    HW135459   3.683   2.313   0.981 -0.3792  0.4854 -0.7278
 7942SOL    HW235460   3.673   2.293   1.126  0.5033 -0.2532  0.0325
 7943SOL     OW35461   0.389   2.179   4.794  0.8268 -0.0092 -0.2931
 7943SOL    HW135462   0.478   2.183   4.829 -0.5413  1.7499  2.9473
 7943SOL    HW235463   0.347   2.113   4.849  1.3652  0.6104  0.8508
 7944SOL     OW35464   0.308   0.053   1.711  0.0666  0.0678  0.1051
 7944SOL    HW135465   0.380   0.014   1.661  0.1686 -1.0359  1.1138
 7944SOL    HW235466   0.283   4.727   1.777  1.7759 -1.0582 -0.3323
 7945SOL     OW35467   3.717   1.454  11.144 -0.3830  0.1513 -0.1059
 7945SOL    HW135468   3.645   1.461  11.207  0.5373 -1.2783  1.1087
 7945SOL    HW235469   3.710   1.367  11.106 -2.3801  2.0842 -4.1583
 7946SOL     OW35470   2.512   4.644   2.531  0.5394 -0.1716  0.3084
 7946SOL    HW135471   2.509   4.652   2.435  0.9524 -0.0573  0.3088
 7946SOL    HW235472   2.453   4.716   2.553 -0.2551 -0.7993  0.2519
 7947SOL     OW35473   0.035   4.131   3.900  0.0847  0.2458 -0.6540
 7947SOL    HW135474   0.021   4.123   3.994  1.5999  0.8412 -0.3812
 7947SOL    HW235475   4.688   4.169   3.883 -0.3406 -0.1956  0.5230
 7948SOL     OW35476   0.404   1.937   6.471 -0.1438  0.2213 -0.1903
 7948SOL    HW135477   0.412   1.919   6.565  0.1154 -0.3053 -0.3162
 7948SOL    HW235478   0.363   2.024   6.478  1.3217  1.1370 -3.3655
 7949SOL     OW35479   3.455   4.446  12.875 -0.3896 -0.1546 -0.6052
 7949SOL    HW135480   3.442   4.365  12.924  0.7017  0.6407  0.9937
 7949SOL    HW235481   3.485   4.405  12.794 -1.5866 -2.1867 -0.0222
 7950SOL     OW35482   3.866   2.653   4.423 -0.3248 -0.0257 -0.4926
 7950SOL    HW135483   3.917   2.646   4.504 -1.3030  1.1147  0.2201
 7950SOL    HW235484   3.879   2.561   4.399  2.8266  0.2918 -0.0381
 7951SOL     OW35485   2.968   1.818   9.460  0.3720 -0.0229 -0.3015
 7951SOL    HW135486   2.949   1.898   9.509 -2.1536 -2.5404  2.7990
 7951SOL    HW235487   2.924   1.830   9.375  0.1560  0.0647 -0.1774
 7952SOL     OW35488   2.517   4.411   4.817 -0.1649 -0.3887 -0.0790
 7952SOL    HW135489   2.480   4.326   4.793 -0.1579 -0.8692  1.6277
 7952SOL    HW235490   2.469   4.474   4.764  0.3108  2.5562  2.9972
 7953SOL     OW35491   3.260   0.626  14.344  0.1349  0.5072  0.5534
 7953SOL    HW135492   3.292   0.536  14.343  0.6063  0.6710  1.0861
 7953SOL    HW235493   3.296   0.659  14.262 -2.8078  1.8987 -0.1639
 7954SOL     OW35494   3.868   0.066   9.292 -0.4765  0.0042 -0.0278
 7954SOL    HW135495   3.868   0.065   9.388  0.4984 -1.9726 -0.0636
 7954SOL    HW235496   3.894   0.157   9.276  0.8698 -0.0060  2.0711
 7955SOL     OW35497   3.323   3.673   6.148  0.1137 -0.2794 -0.3472
 7955SOL    HW135498   3.362   3.614   6.083 -0.9580 -0.1855 -1.0814
 7955SOL    HW235499   3.281   3.601   6.195  0.9170 -0.1609  0.5668
 7956SOL     OW35500   0.854   3.059   7.798  0.3759  0.4152  0.4922
 7956SOL    HW135501   0.831   2.968   7.780  0.9838  0.5205 -0.8141
 7956SOL    HW235502   0.861   3.060   7.894  2.7553  1.8290  0.3065
 7957SOL     OW35503   0.537   2.939   4.771 -0.2654 -0.1844  0.4752
 7957SOL    HW135504   0.506   2.854   4.739 -1.8996  0.8075 -0.5910
 7957SOL    HW235505   0.457   2.975   4.809 -1.0805 -0.0832 -1.3438
 7958SOL     OW35506   2.184   3.839   6.985  1.0873  0.1344  0.0936
 7958SOL    HW135507   2.233   3.819   7.064 -0.2718  0.8011  1.0870
 7958SOL    HW235508   2.095   3.869   7.000  1.7069  0.7067  2.4909
 7959SOL     OW35509   0.570   1.140  14.251  0.3275 -0.0980 -0.3670
 7959SOL    HW135510   0.620   1.201  14.305  1.6899 -1.0586 -0.5304
 7959SOL    HW235511   0.641   1.079  14.230  0.6696  1.3419 -3.4123
 7960SOL     OW35512   1.058   3.454   5.472 -0.3119 -0.3951  0.1356
 7960SOL    HW135513   1.030   3.408   5.551  0.9778  0.0248  0.8220
 7960SOL    HW235514   1.134   3.407   5.437  1.4989  0.1918  3.3552
 7961SOL     OW35515   2.337   3.935   7.243 -0.0801  0.0721  0.0634
 7961SOL    HW135516   2.250   3.976   7.247 -0.0587  0.3104 -1.8343
 7961SOL    HW235517   2.394   3.983   7.184 -0.1373 -0.5046 -0.4553
 7962SOL     OW35518   0.162   2.817   8.385 -0.4457 -0.2207  0.5489
 7962SOL    HW135519   0.195   2.817   8.295  1.5258 -1.9359  1.2758
 7962SOL    HW235520   0.098   2.747   8.374 -0.5839 -0.0486  0.2624
 7963SOL     OW35521   4.184   1.837   0.626 -0.4456  0.0490 -0.8385
 7963SOL    HW135522   4.104   1.873   0.589  0.2270 -0.9250 -3.2713
 7963SOL    HW235523   4.150   1.750   0.647  0.8943  0.0564  1.3640
 7964SOL     OW35524   0.929   1.686  16.597 -0.1114 -0.0623 -0.2164
 7964SOL    HW135525   1.000   1.700  16.661 -0.8583 -0.1686  0.6283
 7964SOL    HW235526   0.951   1.596  16.575  1.2976  0.1123  0.4255
 7965SOL     OW35527   4.478   4.674   4.224  0.6868  0.0730  0.2449
 7965SOL    HW135528   4.548   4.714   4.277  0.1804 -0.1096  1.0415
 7965SOL    HW235529   4.423   0.009   4.198  1.8896  1.4458  1.6150
 7966SOL     OW35530   2.109   0.924   1.814  0.3445  0.1259 -0.0066
 7966SOL    HW135531   2.190   0.927   1.864  0.1184 -1.4345  0.4496
 7966SOL    HW235532   2.047   0.929   1.887 -1.0618  0.1700 -1.1939
 7967SOL     OW35533   1.194   0.440   8.533 -0.0599  0.4777  0.1382
 7967SOL    HW135534   1.260   0.414   8.469  0.9543  1.8537  0.6242
 7967SOL    HW235535   1.242   0.441   8.616 -0.2564  0.8877  0.2466
 7968SOL     OW35536   3.496   0.208   4.701 -0.2562 -0.1341  0.2407
 7968SOL    HW135537   3.417   0.231   4.653  1.1705  1.6733 -1.2022
 7968SOL    HW235538   3.569   0.233   4.644  1.1551 -2.5136  0.9955
 7969SOL     OW35539   0.486   0.149  16.969  0.8703 -0.1141  0.6076
 7969SOL    HW135540   0.484   0.201  16.889  0.8540  0.3214  0.8967
 7969SOL    HW235541   0.523   0.211  17.031  0.6690  1.4394 -0.8496
 7970SOL     OW35542   2.607   1.775   6.005  0.1192 -0.0985  0.2515
 7970SOL    HW135543   2.590   1.867   5.987 -0.9559 -0.1403  1.0382
 7970SOL    HW235544   2.607   1.734   5.919 -1.3547 -2.2005  1.2528
 7971SOL     OW35545   1.450   2.135  16.689  0.1668  0.4007 -0.3189
 7971SOL    HW135546   1.398   2.136  16.769 -0.9201 -1.4481 -0.9870
 7971SOL    HW235547   1.444   2.226  16.661 -0.0749 -0.0460 -1.7630
 7972SOL     OW35548   3.807   2.676   3.896 -0.3562 -0.4119  0.0811
 7972SOL    HW135549   3.737   2.736   3.870 -0.1921  0.1747  1.0111
 7972SOL    HW235550   3.759   2.627   3.963  0.2878  0.0382  0.8744
 7973SOL     OW35551   2.337   0.095   1.614  0.4322  0.1280  0.1254
 7973SOL    HW135552   2.363   0.175   1.567  0.4254  0.1233  0.1136
 7973SOL    HW235553   2.381   0.030   1.559  2.9383 -0.0959  2.3863
 7974SOL     OW35554   2.259   3.529   0.360  0.2963  1.0500 -0.3530
 7974SOL    HW135555   2.292   3.612   0.325  0.9171  1.4999  1.2693
 7974SOL    HW235556   2.237   3.474   0.285  0.4379  0.0589  0.3298
 7975SOL     OW35557   1.554   2.046  14.795  0.2160  0.0410  0.3696
 7975SOL    HW135558   1.541   1.962  14.839 -1.5274 -0.4446 -1.0605
 7975SOL    HW235559   1.462   2.066  14.778  0.8492  0.8493 -2.0811
 7976SOL     OW35560   4.736   4.571   3.202 -0.3490 -0.2419  0.1101
 7976SOL    HW135561   0.074   4.586   3.146 -1.1387  2.6992 -0.1522
 7976SOL    HW235562   4.716   4.479   3.185 -0.8261 -0.5288  2.2289
 7977SOL     OW35563   4.035   3.004   7.806 -0.3638 -0.4646  0.0675
 7977SOL    HW135564   3.983   3.048   7.873 -1.3899  0.0334 -1.0617
 7977SOL    HW235565   4.108   3.062   7.783 -0.9515 -0.2884 -1.3517
 7978SOL     OW35566   4.251   0.082   6.282  0.2763  0.0175 -0.1619
 7978SOL    HW135567   4.216   0.163   6.246 -1.1390 -1.4252 -2.0691
 7978SOL    HW235568   4.168   0.035   6.267 -0.7356  1.9370 -0.5681
 7979SOL     OW35569   0.565   0.808   4.919 -0.6149  0.3900  0.1106
 7979SOL    HW135570   0.578   0.828   5.012  2.0951  1.3756 -0.4714
 7979SOL    HW235571   0.652   0.839   4.895 -1.9174  1.9878 -2.5611
 7980SOL     OW35572   3.136   1.900  16.668  0.6477 -0.3158 -0.2917
 7980SOL    HW135573   3.183   1.850  16.600  3.2325  0.3503  0.9864
 7980SOL    HW235574   3.110   1.833  16.732  0.9997 -1.5002 -1.3818
 7981SOL     OW35575   0.935   1.948   8.883  0.7030 -0.3077  0.5780
 7981SOL    HW135576   0.987   1.874   8.851  1.4329  0.8881 -0.9650
 7981SOL    HW235577   0.850   1.932   8.842  0.2819  0.7889  1.0358
 7982SOL     OW35578   2.041   4.050  12.698  0.6249 -0.3875 -0.1375
 7982SOL    HW135579   2.083   4.019  12.618  1.9451  0.7104  0.1284
 7982SOL    HW235580   2.115   4.092  12.743  0.2185 -2.0018  2.0389
 7983SOL     OW35581   1.073   2.538   0.066  0.3781 -0.3721 -0.3351
 7983SOL    HW135582   1.024   2.615   0.036  1.1312  0.6144  0.9943
 7983SOL    HW235583   1.101   2.508  17.732 -0.6352 -1.6397 -0.2238
 7984SOL     OW35584   1.593   1.636   8.644  0.4555  0.1636  0.0453
 7984SOL    HW135585   1.535   1.642   8.720  0.8212  0.4207  0.3032
 7984SOL    HW235586   1.671   1.593   8.680  0.6404  1.1124  0.7596
 7985SOL     OW35587   4.497   0.437   7.775 -0.4086 -0.2092  0.0691
 7985SOL    HW135588   4.536   0.518   7.742 -1.5189  0.4549  0.3851
 7985SOL    HW235589   4.416   0.445   7.725 -0.1375  2.6537  0.1306
 7986SOL     OW35590   2.710   1.915   3.545  0.3772 -0.2387  0.1713
 7986SOL    HW135591   2.714   1.847   3.477 -1.2764 -0.6479  0.4899
 7986SOL    HW235592   2.619   1.901   3.572 -0.0705  0.0897 -1.1677
 7987SOL     OW35593   4.138   3.835   7.333 -1.2073  0.5608 -0.1164
 7987SOL    HW135594   4.094   3.773   7.390  1.6756 -2.5247 -1.2226
 7987SOL    HW235595   4.218   3.859   7.379  0.2201 -3.4362 -0.4829
 7988SOL     OW35596   3.628   2.973  14.308  0.3109 -0.5928  0.0052
 7988SOL    HW135597   3.609   3.046  14.367  1.1439  0.6007 -1.1819
 7988SOL    HW235598   3.615   3.017  14.224 -0.0427 -1.2458 -0.2773
 7989SOL     OW35599   2.679   0.350   2.459  0.4629  0.1219  0.1044
 7989SOL    HW135600   2.648   0.436   2.430 -1.0832 -1.1518 -2.0151
 7989SOL    HW235601   2.634   0.336   2.542 -0.3298  0.8472 -0.2077
 7990SOL     OW35602   4.226   0.008   8.507 -0.6671  0.1808  0.1436
 7990SOL    HW135603   4.255   0.061   8.433 -0.2746  0.9794  0.8743
 7990SOL    HW235604   4.142   4.734   8.463 -0.4336  0.8678 -0.5062
 7991SOL     OW35605   2.647   4.644  11.365  0.1964 -0.5192  0.3641
 7991SOL    HW135606   2.574   4.599  11.408  0.4956 -1.6026 -0.2436
 7991SOL    HW235607   2.703   4.568  11.347  0.8559  0.0312  0.1073
 7992SOL     OW35608   1.765   3.340   3.371 -0.0370  0.2197  0.8617
 7992SOL    HW135609   1.850   3.383   3.361 -0.4527  0.5783 -1.2586
 7992SOL    HW235610   1.765   3.262   3.315  1.8032  1.2315 -0.5408
 7993SOL     OW35611   1.342   1.507   5.087  0.1324  0.0712  0.3414
 7993SOL    HW135612   1.327   1.413   5.091  2.5247 -0.4042 -2.0579
 7993SOL    HW235613   1.263   1.551   5.118 -0.3059  0.1000 -0.8250
 7994SOL     OW35614   2.700   0.043   2.984 -0.4242 -0.0234 -1.0381
 7994SOL    HW135615   2.772   0.070   3.041 -0.4626 -1.8042 -0.1600
 7994SOL    HW235616   2.625   0.085   3.026  0.0045 -2.2482  2.0019
 7995SOL     OW35617   3.106   0.576   1.793 -0.5642 -0.9016 -0.1622
 7995SOL    HW135618   3.052   0.503   1.764  0.9109 -1.0882 -2.4157
 7995SOL    HW235619   3.101   0.637   1.719 -0.9322  1.1742  1.5717
 7996SOL     OW35620   3.829   2.876   3.601 -0.3265  0.0862 -0.4916
 7996SOL    HW135621   3.737   2.890   3.625  0.1258 -0.2274  1.4406
 7996SOL    HW235622   3.820   2.876   3.506 -2.6845 -0.5552 -0.2839
 7997SOL     OW35623   0.196   0.467   3.218 -0.2375  0.7782 -0.1478
 7997SOL    HW135624   0.240   0.439   3.298  1.9548 -2.0873 -2.3397
 7997SOL    HW235625   0.202   0.391   3.159  2.8002  0.0411  1.1215
 7998SOL     OW35626   3.208   3.021   6.149  0.3678 -0.0245  0.3431
 7998SOL    HW135627   3.231   2.993   6.238 -1.7989  1.3702  1.3386
 7998SOL    HW235628   3.191   3.114   6.161  2.9767  0.6931 -1.5414
 7999SOL     OW35629   2.431   0.220  16.344 -0.6116 -0.0295 -0.6350
 7999SOL    HW135630   2.358   0.279  16.362 -1.7385 -1.7499  0.4412
 7999SOL    HW235631   2.399   0.185  16.261 -1.7641 -1.3399  0.3461
 8000SOL     OW35632   2.471   1.071   0.832  0.1224  0.4523  0.0745
 8000SOL    HW135633   2.482   1.119   0.914 -2.5937  2.2391 -0.5927
 8000SOL    HW235634   2.401   1.009   0.853  0.4252  0.1415  0.1620
 8001SOL     OW35635   4.346   3.445   1.198  0.5986  0.3265  0.3595
 8001SOL    HW135636   4.398   3.369   1.223  1.9901  0.9394 -0.6825
 8001SOL    HW235637   4.410   3.485   1.140  0.5393 -0.7931 -0.4701
 8002SOL     OW35638   1.310   3.287   7.983 -0.0140  0.6193  0.0097
 8002SOL    HW135639   1.259   3.353   7.935 -0.2748  2.3888  2.7302
 8002SOL    HW235640   1.295   3.296   8.077 -0.6956 -1.6201  0.1296
 8003SOL     OW35641   3.358   4.496  12.152 -0.2706 -0.7741  0.0646
 8003SOL    HW135642   3.423   4.565  12.136 -0.6759 -0.5466 -0.5836
 8003SOL    HW235643   3.411   4.455  12.220 -1.6267 -2.2430  0.2527
 8004SOL     OW35644   0.656   3.128  15.118  0.3594  0.2322 -0.2622
 8004SOL    HW135645   0.748   3.122  15.095  0.5343  0.5625  0.3634
 8004SOL    HW235646   0.615   3.043  15.138 -1.4474  1.6020  1.8004
 8005SOL     OW35647   2.149   1.886   8.442 -0.3370  0.5631  0.0883
 8005SOL    HW135648   2.096   1.873   8.521 -1.5488  1.6539 -0.5536
 8005SOL    HW235649   2.091   1.852   8.375  1.5197 -4.2222  0.8956
 8006SOL     OW35650   1.905   1.030   3.773 -0.2142  0.1235 -0.1130
 8006SOL    HW135651   1.835   0.993   3.719 -1.9529  3.7336 -0.3623
 8006SOL    HW235652   1.872   1.119   3.779 -0.3065 -0.0993  2.7107
 8007SOL     OW35653   3.785   0.853   8.705  0.3184 -0.6551 -0.7317
 8007SOL    HW135654   3.707   0.807   8.736 -1.6731  1.2808 -2.8329
 8007SOL    HW235655   3.854   0.810   8.755  1.5550  0.7220 -1.2430
 8008SOL     OW35656   2.997   3.558  12.240  0.2340  0.0581 -0.3086
 8008SOL    HW135657   2.967   3.625  12.301  1.7195  0.4623 -0.0361
 8008SOL    HW235658   3.019   3.484  12.297  1.8636 -0.1674 -1.2366
 8009SOL     OW35659   1.851   4.202   7.820  0.0752  0.1208  0.4584
 8009SOL    HW135660   1.912   4.138   7.783 -2.2566 -2.6533  1.4671
 8009SOL    HW235661   1.772   4.148   7.826  0.1651 -0.2356 -1.3183
 8010SOL     OW35662   0.901   1.344  13.644  0.3812 -0.2632  0.1259
 8010SOL    HW135663   0.850   1.270  13.611  0.5054  0.7524 -2.3027
 8010SOL    HW235664   0.987   1.305  13.628  0.1592 -0.2624 -1.0371
 8011SOL     OW35665   0.709   2.414   9.894  0.3177 -0.2098  0.5553
 8011SOL    HW135666   0.702   2.335   9.841  0.5271  0.0266  0.1717
 8011SOL    HW235667   0.692   2.391   9.986 -0.4040  0.3990  0.5742
 8012SOL     OW35668   0.072   0.092   2.049  0.3162 -0.1246 -0.2710
 8012SOL    HW135669   0.075   0.187   2.060 -1.4570  0.0620 -1.3997
 8012SOL    HW235670   0.011   0.082   1.976 -1.2110  0.5282  0.9149
 8013SOL     OW35671   3.732   1.903   9.199  0.0604 -0.5440 -0.0787
 8013SOL    HW135672   3.682   1.984   9.199  0.1162 -0.4960  1.5481
 8013SOL    HW235673   3.652   1.850   9.195 -0.3379 -0.0355  1.0397
 8014SOL     OW35674   1.949   3.466   7.444 -0.0161  0.6035 -0.4462
 8014SOL    HW135675   1.960   3.561   7.446  0.8316  0.4690  1.7572
 8014SOL    HW235676   2.003   3.433   7.515 -0.6631  0.2688 -0.1150
 8015SOL     OW35677   2.592   1.881   5.408  0.6299 -0.6428 -0.0934
 8015SOL    HW135678   2.504   1.918   5.411  1.1952  0.6712  0.2712
 8015SOL    HW235679   2.587   1.792   5.443  1.1265 -0.8914 -0.6614
 8016SOL     OW35680   4.038   3.736   6.093  0.1050 -0.3919  0.1630
 8016SOL    HW135681   4.032   3.749   5.998 -0.3757 -0.8935  0.1263
 8016SOL    HW235682   3.999   3.818   6.122  0.6177 -0.6924  1.7340
 8017SOL     OW35683   2.792   0.071   6.056 -0.0266  0.6063  0.1253
 8017SOL    HW135684   2.763   4.727   6.094  0.2932  0.6403  0.4436
 8017SOL    HW235685   2.860   0.036   5.998 -2.0653  1.6565 -2.9148
 8018SOL     OW35686   2.261   1.419  10.062  0.4810 -0.0784  0.1137
 8018SOL    HW135687   2.223   1.434  10.148  1.7676 -2.0130  1.0299
 8018SOL    HW235688   2.233   1.328  10.050  2.1303 -0.5810  0.0447
 8019SOL     OW35689   2.779   3.062  14.916  0.6149 -0.2170  0.5031
 8019SOL    HW135690   2.836   2.985  14.905 -1.0311 -1.6095  1.7392
 8019SOL    HW235691   2.823   3.095  14.994  2.1274 -0.1706 -0.3597
 8020SOL     OW35692   2.454   1.466   7.734 -0.3706  0.4511  0.7185
 8020SOL    HW135693   2.403   1.491   7.657  1.7291 -1.3763 -1.2716
 8020SOL    HW235694   2.387   1.447   7.799  0.3030  0.9039  1.5545
 8021SOL     OW35695   1.040   0.745   2.742 -0.0245  0.1348 -0.1034
 8021SOL    HW135696   1.088   0.673   2.702 -1.0053 -0.6897  0.1949
 8021SOL    HW235697   0.970   0.748   2.676 -1.2998  0.4371  1.2635
 8022SOL     OW35698   0.965   1.037   2.365 -0.3570 -0.0724 -0.2988
 8022SOL    HW135699   1.056   1.066   2.372 -0.4294  0.1338 -0.2204
 8022SOL    HW235700   0.985   0.943   2.359  0.3440  0.1757 -1.9423
 8023SOL     OW35701   3.306   2.047   8.775 -0.0254  0.3143  0.1706
 8023SOL    HW135702   3.261   2.130   8.792 -0.3478 -0.3086  2.3336
 8023SOL    HW235703   3.232   2.008   8.728 -0.6783  0.9882  0.6492
 8024SOL     OW35704   4.427   3.205   4.237  0.3565 -0.9341 -0.4812
 8024SOL    HW135705   4.474   3.121   4.239 -0.2000 -1.2344 -0.0072
 8024SOL    HW235706   4.398   3.202   4.146  0.1717  2.3610 -0.5406
 8025SOL     OW35707   0.209   0.594   1.098 -0.3074  0.1648 -0.2834
 8025SOL    HW135708   0.304   0.600   1.110 -0.4039 -1.4548  1.2928
 8025SOL    HW235709   0.212   0.583   1.003 -0.3078  0.2245 -0.2902
 8026SOL     OW35710   1.057   3.598   3.771  0.0111  0.9766 -0.4378
 8026SOL    HW135711   1.114   3.537   3.819  0.7797  1.1672 -1.1232
 8026SOL    HW235712   0.978   3.598   3.825 -0.3733  1.8578 -1.0009
 8027SOL     OW35713   3.959   2.866   6.700 -0.2609  1.1393  0.1213
 8027SOL    HW135714   4.013   2.795   6.734 -1.3540  1.0586  1.6587
 8027SOL    HW235715   3.998   2.936   6.752  1.3340  0.3695 -0.0311
 8028SOL     OW35716   0.431   2.441   3.382  0.1014  0.1832 -0.4547
 8028SOL    HW135717   0.450   2.441   3.476 -2.0074  1.2771 -0.0317
 8028SOL    HW235718   0.383   2.522   3.361  3.0610  2.3977  1.2358
 8029SOL     OW35719   4.415   1.791   8.136 -0.0305  0.0234  0.0429
 8029SOL    HW135720   4.344   1.841   8.098 -1.0944 -0.3297  1.5764
 8029SOL    HW235721   4.486   1.854   8.147  0.0914 -0.0531 -0.3040
 8030SOL     OW35722   1.274   0.450   6.297 -0.7726  0.0405  0.4040
 8030SOL    HW135723   1.357   0.498   6.305 -0.3027 -1.1843  2.8561
 8030SOL    HW235724   1.237   0.468   6.384  0.2408 -2.0480  1.2813
 8031SOL     OW35725   2.214   0.743   6.287 -0.6345 -0.1180  0.0084
 8031SOL    HW135726   2.118   0.733   6.284 -0.6945  0.6347 -0.6634
 8031SOL    HW235727   2.237   0.660   6.330 -2.1795  1.1212  3.2559
 8032SOL     OW35728   2.673   1.263   4.744  0.1189  0.2716  0.4493
 8032SOL    HW135729   2.635   1.192   4.693  3.2249 -1.1137  0.0566
 8032SOL    HW235730   2.595   1.320   4.746 -0.0409 -0.0007  1.6702
 8033SOL     OW35731   0.701   1.078  15.460 -0.6341 -0.1510 -0.0675
 8033SOL    HW135732   0.616   1.121  15.467 -0.0140  0.9441  0.6499
 8033SOL    HW235733   0.744   1.096  15.544 -0.9588 -0.8586  0.2541
 8034SOL     OW35734   1.852   1.881   1.044 -0.7803  0.4910  0.1542
 8034SOL    HW135735   1.947   1.886   1.053 -0.6461 -0.3294 -0.7289
 8034SOL    HW235736   1.821   1.842   1.125  1.8580  2.1227  1.9315
 8035SOL     OW35737   2.741   0.571   8.248  0.6361 -0.7064 -0.1720
 8035SOL    HW135738   2.650   0.595   8.227  0.5796  0.4529  1.3437
 8035SOL    HW235739   2.721   0.488   8.292 -2.7954 -1.0199 -2.2799
 8036SOL     OW35740   3.877   0.426   5.292  0.1204  0.0898 -0.0688
 8036SOL    HW135741   3.942   0.407   5.225 -2.0406 -0.8383 -1.8717
 8036SOL    HW235742   3.850   0.345   5.335  0.7289  0.3688  0.8362
 8037SOL     OW35743   0.978   0.661   5.213  0.0112 -0.0211  0.0367
 8037SOL    HW135744   1.054   0.677   5.156 -0.3975  0.0017 -0.5013
 8037SOL    HW235745   1.019   0.675   5.299 -0.9146 -2.0162  0.8019
 8038SOL     OW35746   0.561   0.596   3.161  0.0147 -0.0954  0.8038
 8038SOL    HW135747   0.536   0.657   3.230  0.3481 -0.7403  1.4831
 8038SOL    HW235748   0.627   0.543   3.205  1.4181 -0.1720 -1.3341
 8039SOL     OW35749   2.853   4.123   6.737  0.1453 -0.6872 -0.5913
 8039SOL    HW135750   2.940   4.083   6.733  1.2609  1.5466  1.0911
 8039SOL    HW235751   2.870   4.206   6.693  1.2195 -0.6578 -0.1333
 8040SOL     OW35752   4.644   0.991   2.121  0.6459 -0.0549  0.1654
 8040SOL    HW135753   4.694   1.058   2.167  2.5933 -0.3279 -1.5764
 8040SOL    HW235754   4.670   1.007   2.030 -1.1092  0.6605 -0.2126
 8041SOL     OW35755   2.263   0.064   9.194 -0.3320  0.0370 -0.2388
 8041SOL    HW135756   2.336   0.102   9.243 -0.3285  0.8946 -0.8895
 8041SOL    HW235757   2.288   0.091   9.105  0.5388  0.0449  0.0104
 8042SOL     OW35758   1.063   4.544   2.614 -0.0862 -0.1766  0.1094
 8042SOL    HW135759   1.028   4.459   2.638 -0.6734  0.6252  2.1367
 8042SOL    HW235760   1.060   4.531   2.519 -0.8839 -1.8661  0.3836
 8043SOL     OW35761   0.394   1.886   9.495 -0.5849  0.4117 -0.4825
 8043SOL    HW135762   0.475   1.934   9.476 -0.7666  1.1622  0.6727
 8043SOL    HW235763   0.373   1.840   9.414  1.2866  1.8037 -1.7392
 8044SOL     OW35764   3.692   2.998   7.931 -0.3609 -0.1478  0.3203
 8044SOL    HW135765   3.652   3.063   7.874 -0.4118  0.2840  0.8472
 8044SOL    HW235766   3.767   3.052   7.956 -0.2554  0.5820 -1.5400
 8045SOL     OW35767   3.517   1.173   0.217 -0.2891  0.3623  0.6370
 8045SOL    HW135768   3.522   1.216   0.132 -0.8673 -0.0988  0.3673
 8045SOL    HW235769   3.609   1.151   0.230  0.2882  1.5667 -1.4434
 8046SOL     OW35770   4.502   3.298   9.198 -0.0172  0.4824  0.2539
 8046SOL    HW135771   4.532   3.278   9.287 -0.3767 -0.1925  0.2221
 8046SOL    HW235772   4.472   3.387   9.215 -1.4212 -0.4982  2.9187
 8047SOL     OW35773   3.170   3.528   7.117 -0.2949 -0.4677  0.4739
 8047SOL    HW135774   3.148   3.458   7.055 -0.6665 -0.9314  1.1275
 8047SOL    HW235775   3.100   3.591   7.104 -0.4804 -0.3143  2.1843
 8048SOL     OW35776   2.032   4.575   2.825 -0.4419 -0.4707  0.2156
 8048SOL    HW135777   2.006   4.489   2.858  1.7545 -1.4777 -0.6750
 8048SOL    HW235778   1.947   4.613   2.803 -0.6501 -0.1922  1.4481
 8049SOL     OW35779   2.345   4.714   3.665  1.0071  0.6314 -0.1719
 8049SOL    HW135780   2.415   0.014   3.613  1.5555 -0.4119 -0.2012
 8049SOL    HW235781   2.399   4.669   3.729  1.2097 -1.9890 -2.1911
 8050SOL     OW35782   2.771   4.247  11.702 -0.1311 -0.2884 -0.2688
 8050SOL    HW135783   2.813   4.333  11.701 -2.4626  0.8497  0.6176
 8050SOL    HW235784   2.714   4.264  11.627 -0.9910  1.1299  0.7096
 8051SOL     OW35785   4.571   0.211   4.579  0.2655 -0.2336  0.5553
 8051SOL    HW135786   4.594   0.165   4.499 -0.7148  2.6975 -1.3995
 8051SOL    HW235787   4.655   0.247   4.608  0.4685 -0.5671  0.3774
 8052SOL     OW35788   4.388   0.990   9.283 -0.0268 -0.2321  0.4990
 8052SOL    HW135789   4.298   1.007   9.308  0.4093  1.8853  0.6323
 8052SOL    HW235790   4.410   0.898   9.297  0.0487 -0.0097  1.7638
 8053SOL     OW35791   0.172   3.128  11.215 -0.8167  0.5093 -0.3703
 8053SOL    HW135792   0.113   3.069  11.262  0.2057 -0.2496 -0.0305
 8053SOL    HW235793   0.234   3.153  11.283 -1.1718 -0.2146  0.2087
 8054SOL     OW35794   1.760   3.875   8.547  0.6518  0.3275 -0.7193
 8054SOL    HW135795   1.756   3.785   8.513  2.1674  0.0537 -0.1933
 8054SOL    HW235796   1.834   3.864   8.607 -1.3781 -1.8487  1.3897
 8055SOL     OW35797   2.049   1.202   6.345 -0.1324  0.3772  0.2687
 8055SOL    HW135798   2.096   1.141   6.402  1.2249  0.7419 -0.4400
 8055SOL    HW235799   2.082   1.178   6.258  1.0946 -0.8157  1.0600
 8056SOL     OW35800   2.810   2.533  17.484 -0.0382 -0.2757 -0.1936
 8056SOL    HW135801   2.823   2.627  17.501  1.6115 -0.6574  0.5944
 8056SOL    HW235802   2.808   2.485  17.567  0.1756 -0.2235 -0.1590
 8057SOL     OW35803   1.493   1.091   8.329  0.0255 -0.6330  0.1086
 8057SOL    HW135804   1.421   1.088   8.267 -1.5526  1.5101  1.8261
 8057SOL    HW235805   1.560   1.040   8.285 -0.2607  1.5194 -2.8366
 8058SOL     OW35806   1.376   3.598   2.662  0.3209  0.0101 -0.5684
 8058SOL    HW135807   1.337   3.636   2.583  0.1254 -0.8921 -0.9071
 8058SOL    HW235808   1.299   3.605   2.718  1.3770  0.4513  0.8050
 8059SOL     OW35809   2.408   0.248   7.061  0.4776  0.2072  0.4999
 8059SOL    HW135810   2.418   0.252   6.966  1.2375 -0.6885  0.5441
 8059SOL    HW235811   2.353   0.325   7.076 -0.5872  0.0314 -2.4726
 8060SOL     OW35812   0.259   1.748   4.882 -0.1917 -0.3221 -0.3896
 8060SOL    HW135813   0.286   1.722   4.970  0.5195  2.5716  0.2670
 8060SOL    HW235814   0.341   1.778   4.841  0.1667  1.8959  1.9139
 8061SOL     OW35815   2.850   3.397   4.097 -0.3764  0.0631 -0.7435
 8061SOL    HW135816   2.768   3.395   4.047 -0.6397  0.5147 -0.3293
 8061SOL    HW235817   2.919   3.385   4.032 -1.4813 -2.8503 -1.3637
 8062SOL     OW35818   1.344   4.290   9.142  0.1010  0.7550  0.0557
 8062SOL    HW135819   1.327   4.257   9.054  0.9961  0.8192 -0.1353
 8062SOL    HW235820   1.309   4.228   9.206 -0.4100 -1.7991 -2.7290
 8063SOL     OW35821   1.807   3.990   3.810  0.5432 -0.1606  0.2735
 8063SOL    HW135822   1.894   3.951   3.797  0.9642 -0.5292  4.0353
 8063SOL    HW235823   1.813   4.012   3.904  0.2892  1.8993 -0.1947
 8064SOL     OW35824   3.827   3.295   9.025 -0.5852  0.6515 -0.3716
 8064SOL    HW135825   3.735   3.299   9.052 -1.0997 -2.0426 -1.6843
 8064SOL    HW235826   3.836   3.203   9.001 -0.4436  0.7543 -0.7123
 8065SOL     OW35827   3.138   1.607   9.504 -0.2386 -0.0706  0.5038
 8065SOL    HW135828   3.188   1.652   9.573 -0.2870  0.2646  0.3191
 8065SOL    HW235829   3.072   1.674   9.491 -0.5021 -0.0819  1.7899
 8066SOL     OW35830   3.552   3.115  14.089  0.2620 -0.1164 -0.3666
 8066SOL    HW135831   3.485   3.179  14.065 -0.5282 -0.9484 -0.3809
 8066SOL    HW235832   3.618   3.155  14.033  1.2864 -1.1934  0.0629
 8067SOL     OW35833   2.262   2.678  10.189 -0.6139 -0.2541 -0.1351
 8067SOL    HW135834   2.224   2.726  10.115 -0.7573  1.1309  0.8323
 8067SOL    HW235835   2.253   2.590  10.153 -0.2275  0.3302 -1.6362
 8068SOL     OW35836   2.321   3.877  12.273  0.3275  0.1195 -0.2661
 8068SOL    HW135837   2.301   3.922  12.355  2.1387  1.3077 -0.4728
 8068SOL    HW235838   2.236   3.854  12.237  1.6535 -3.2252 -1.2425
 8069SOL     OW35839   1.165   3.892   3.382  0.2914  0.1776 -0.1191
 8069SOL    HW135840   1.174   3.830   3.455 -0.8634  1.1894  0.8801
 8069SOL    HW235841   1.074   3.876   3.357  0.5977 -0.2618 -0.9735
 8070SOL     OW35842   1.292   2.812   1.390 -0.1869  0.5265 -0.3664
 8070SOL    HW135843   1.243   2.794   1.310  1.3379 -0.6605 -1.0322
 8070SOL    HW235844   1.367   2.862   1.359  0.2379  0.9201  1.3082
 8071SOL     OW35845   4.364   4.333   9.165 -0.0118 -0.8025 -0.1749
 8071SOL    HW135846   4.417   4.326   9.086 -0.3039  0.6205 -0.4877
 8071SOL    HW235847   4.425   4.297   9.230  0.2470  0.3239  0.2097
 8072SOL     OW35848   4.200   0.144  11.127 -0.2521  0.3783  0.1481
 8072SOL    HW135849   4.215   0.089  11.049  1.7610  1.7230 -0.4099
 8072SOL    HW235850   4.150   0.087  11.185  1.5557  0.6167  1.9303
 8073SOL     OW35851   1.296   0.663   3.301 -0.2102 -0.3836  0.2734
 8073SOL    HW135852   1.355   0.599   3.260 -0.9573  1.9442 -4.4433
 8073SOL    HW235853   1.318   0.747   3.261  0.1490  0.9394  3.2827
 8074SOL     OW35854   1.433   1.569   7.246  0.2582  0.0188 -0.1656
 8074SOL    HW135855   1.340   1.589   7.252 -0.2119 -1.9952 -1.0596
 8074SOL    HW235856   1.457   1.593   7.336  1.7496 -2.1424  0.0238
 8075SOL     OW35857   2.171   3.861   7.591 -0.0278 -0.5810  0.1958
 8075SOL    HW135858   2.225   3.784   7.612  2.7858  1.0822 -0.8806
 8075SOL    HW235859   2.117   3.828   7.519 -1.6012  2.1716  0.1008
 8076SOL     OW35860   0.027   3.357  17.082  0.1256 -0.1703  0.0098
 8076SOL    HW135861   4.670   3.349  17.083  0.1559 -0.5389  0.1117
 8076SOL    HW235862   0.041   3.384  17.173 -1.6718  1.1936 -0.1246
 8077SOL     OW35863   4.514   4.727   3.178  0.0904  0.3763  0.1373
 8077SOL    HW135864   4.538   4.733   3.085  2.2860 -4.9148  0.3799
 8077SOL    HW235865   4.573   4.658   3.209  1.8128  1.0613 -1.6261
 8078SOL     OW35866   0.019   3.153   1.293 -0.6074  0.0766  0.0915
 8078SOL    HW135867   0.090   3.151   1.229  0.1646  0.5097  0.9388
 8078SOL    HW235868   0.030   3.070   1.339 -2.2569  0.5771  1.3808
 8079SOL     OW35869   1.595   0.875   2.958  0.0542 -0.3011 -0.5927
 8079SOL    HW135870   1.533   0.859   2.887 -0.4322 -1.5026  0.0955
 8079SOL    HW235871   1.674   0.829   2.929  0.2061  0.7364 -1.8456
 8080SOL     OW35872   1.711   1.351   8.785  0.2227  0.2090  0.1791
 8080SOL    HW135873   1.724   1.265   8.745  0.4679  0.2531  0.1614
 8080SOL    HW235874   1.783   1.401   8.744  0.6086 -0.3992  0.1128
 8081SOL     OW35875   0.519   2.794   7.224 -0.5367  0.0962 -0.2441
 8081SOL    HW135876   0.484   2.875   7.185  1.0622  1.1909  0.6055
 8081SOL    HW235877   0.442   2.780   7.279  0.5342 -2.4715  0.5860
 8082SOL     OW35878   0.766   3.645   8.919 -0.4660  0.8545 -0.0472
 8082SOL    HW135879   0.842   3.689   8.957  1.0875 -1.8183 -0.0374
 8082SOL    HW235880   0.785   3.555   8.943  1.6548  1.0019 -1.1357
 8083SOL     OW35881   4.498   2.816  12.836 -1.0674  0.5234 -0.0034
 8083SOL    HW135882   4.490   2.878  12.764  1.3069  2.9098  1.7965
 8083SOL    HW235883   4.583   2.773  12.825 -1.3394 -0.1605  0.5397
 8084SOL     OW35884   4.184   4.610  16.750  0.2370  0.2571  0.3146
 8084SOL    HW135885   4.187   4.705  16.742 -2.3588  0.4346  1.5242
 8084SOL    HW235886   4.209   4.599  16.842  1.7136  0.1903 -0.0981
 8085SOL     OW35887   3.212   1.824   7.143  0.1218 -0.0740 -0.1927
 8085SOL    HW135888   3.301   1.799   7.168  0.6691 -0.1548 -2.1994
 8085SOL    HW235889   3.228   1.901   7.088 -0.7467  0.6208  0.5265
 8086SOL     OW35890   4.264   4.243   6.330 -0.0441 -0.3667  0.2703
 8086SOL    HW135891   4.215   4.251   6.249  0.6460  0.5086 -0.0601
 8086SOL    HW235892   4.246   4.329   6.367  2.1167  0.5971 -0.9477
 8087SOL     OW35893   3.895   3.876   2.028  0.1220  1.2092  0.1122
 8087SOL    HW135894   3.826   3.888   2.093  1.1897  0.2735  1.4282
 8087SOL    HW235895   3.924   3.784   2.032 -0.1764  1.0413 -1.6583
 8088SOL     OW35896   4.570   2.918   5.421 -0.0037 -0.8167  0.1514
 8088SOL    HW135897   4.606   2.845   5.370 -0.5249 -0.1097 -1.2301
 8088SOL    HW235898   4.510   2.951   5.354  2.7375 -1.4103 -2.6004
 8089SOL     OW35899   1.468   1.187   2.192  0.2128 -0.5896 -0.2590
 8089SOL    HW135900   1.483   1.178   2.286  1.9217  1.3124 -0.3512
 8089SOL    HW235901   1.552   1.226   2.166 -0.3108  0.0903 -0.9271
 8090SOL     OW35902   4.616   1.390  13.235 -0.3005  0.3458 -0.2712
 8090SOL    HW135903   4.552   1.459  13.250  1.2298  1.7746 -0.3019
 8090SOL    HW235904   4.676   1.442  13.182 -0.5157 -1.0954 -1.9378
 8091SOL     OW35905   2.393   2.824   0.422  0.1563  0.4873  0.1429
 8091SOL    HW135906   2.410   2.828   0.516  3.3283 -0.1955 -0.3960
 8091SOL    HW235907   2.371   2.914   0.400  0.6915  0.2083 -1.5339
 8092SOL     OW35908   1.480   1.380   4.070  0.3132 -0.9273 -0.1907
 8092SOL    HW135909   1.553   1.440   4.053 -0.4545 -0.4201 -1.7479
 8092SOL    HW235910   1.443   1.422   4.148 -0.9493 -2.8568  0.2515
 8093SOL     OW35911   3.702   1.210   3.983 -0.1650  0.1931 -0.3589
 8093SOL    HW135912   3.772   1.262   4.022 -0.1001  0.9647 -1.5130
 8093SOL    HW235913   3.768   1.150   3.946 -2.0507 -3.3566  2.0823
 8094SOL     OW35914   2.427   1.178   6.184  0.0710 -0.5241  0.3630
 8094SOL    HW135915   2.339   1.142   6.172  0.0317 -0.7099  1.1712
 8094SOL    HW235916   2.421   1.211   6.274 -0.7122 -0.2264  0.2047
 8095SOL     OW35917   4.470   1.528   3.576 -0.2956  0.2964 -0.0974
 8095SOL    HW135918   4.562   1.542   3.557  0.4768 -1.0865  2.5789
 8095SOL    HW235919   4.429   1.591   3.516  0.0945  1.1245  0.5110
 8096SOL     OW35920   1.016   1.127   2.089  0.0365  0.2843  0.0188
 8096SOL    HW135921   0.989   1.035   2.092  0.1040  0.1564 -3.9133
 8096SOL    HW235922   1.106   1.102   2.068 -0.5977 -1.4512 -0.6133
 8097SOL     OW35923   2.034   1.624   8.268 -0.4416 -0.2735  0.2883
 8097SOL    HW135924   1.959   1.599   8.214 -1.7397  2.0428  1.0370
 8097SOL    HW235925   2.044   1.535   8.303  0.4299  0.6663  2.4067
 8098SOL     OW35926   2.013   3.130   6.760  0.1080  0.5965  0.2385
 8098SOL    HW135927   2.035   3.173   6.678 -1.9106  2.4921  0.6540
 8098SOL    HW235928   2.098   3.123   6.803 -0.1025 -0.6883  0.4415
 8099SOL     OW35929   3.378   0.575   8.942  0.1264  0.2800  0.3088
 8099SOL    HW135930   3.297   0.618   8.914 -0.6562  0.4166  2.7904
 8099SOL    HW235931   3.354   0.492   8.984  0.1607  0.8603  1.4733
 8100SOL     OW35932   1.580   2.406   8.930 -0.5706 -0.3543 -0.1011
 8100SOL    HW135933   1.593   2.325   8.980 -1.4593  0.1155  0.8650
 8100SOL    HW235934   1.636   2.392   8.853  0.3542 -2.1805  0.8917
 8101SOL     OW35935   4.734   1.812   5.511  0.2257  0.4814  0.4465
 8101SOL    HW135936   4.686   1.881   5.466  1.2494  1.1167  0.3382
 8101SOL    HW235937   4.728   1.844   5.601  0.6806  1.9507 -0.0492
 8102SOL     OW35938   1.516   2.956   6.303 -0.1344  0.3374 -0.1242
 8102SOL    HW135939   1.511   2.987   6.213 -1.1528  0.6843  0.0537
 8102SOL    HW235940   1.474   3.026   6.353 -1.0570  0.0768 -0.5405
 8103SOL     OW35941   4.410   2.269   8.664  0.1319 -0.5986 -0.1797
 8103SOL    HW135942   4.481   2.316   8.619 -0.6742  0.6461 -0.1463
 8103SOL    HW235943   4.341   2.333   8.645  1.1459  0.6880  0.4918
 8104SOL     OW35944   0.409   3.099   8.896 -0.2953  0.3711  0.1598
 8104SOL    HW135945   0.338   3.051   8.854 -1.7496  1.4543  1.3965
 8104SOL    HW235946   0.397   3.074   8.988  0.5436 -0.8433 -0.0596
 8105SOL     OW35947   2.154   1.224   1.814  0.1914  0.3244  0.5568
 8105SOL    HW135948   2.123   1.139   1.845  0.5813  0.1523  0.4741
 8105SOL    HW235949   2.229   1.228   1.874  1.2272 -0.6842 -0.6773
 8106SOL     OW35950   1.996   0.471   0.943 -0.2784  0.4039 -0.4149
 8106SOL    HW135951   2.039   0.411   0.882  1.5135  0.7318  0.5394
 8106SOL    HW235952   2.018   0.435   1.029 -1.0279 -0.1092 -0.4365
 8107SOL     OW35953   3.490   3.399  10.418  0.1612  0.3899 -0.3085
 8107SOL    HW135954   3.517   3.307  10.429 -0.6948  0.0679 -0.8668
 8107SOL    HW235955   3.395   3.389  10.410  0.1115  0.1714  0.6045
 8108SOL     OW35956   4.611   0.264   5.532 -0.4677 -0.2010  0.1405
 8108SOL    HW135957   4.566   0.333   5.580 -0.0885 -0.7404  1.2902
 8108SOL    HW235958   4.610   0.294   5.441 -3.0285 -1.9661 -0.4118
 8109SOL     OW35959   1.549   4.002   2.620  0.1684  0.1776  0.8149
 8109SOL    HW135960   1.592   3.919   2.642  1.2062  0.6411  0.5330
 8109SOL    HW235961   1.463   3.970   2.592  0.9856 -0.7632 -0.6235
 8110SOL     OW35962   3.301   0.458   6.291 -0.0297 -0.3704 -0.0009
 8110SOL    HW135963   3.347   0.406   6.226 -1.2759  0.7090 -1.7497
 8110SOL    HW235964   3.315   0.397   6.363  0.2448 -0.6052 -0.2557
 8111SOL     OW35965   0.546   3.364   0.794  0.5608  0.6261 -0.1110
 8111SOL    HW135966   0.609   3.367   0.867 -0.7485 -0.7290  1.0672
 8111SOL    HW235967   0.521   3.272   0.782  0.7430  0.4402  0.9304
 8112SOL     OW35968   4.681   4.712   4.031 -0.5203  0.2379 -0.4911
 8112SOL    HW135969   4.730   4.735   4.110 -0.3502 -1.3461 -0.1535
 8112SOL    HW235970   4.647   4.632   4.071 -0.6497  1.0235  0.9736
 8113SOL     OW35971   2.550   1.213   7.355  0.1408  0.0428  0.1381
 8113SOL    HW135972   2.603   1.292   7.368  0.6395 -0.5062  1.4297
 8113SOL    HW235973   2.563   1.169   7.439  1.5791  0.7526  0.2975
 8114SOL     OW35974   3.023   0.116  13.391 -0.1340  0.0629  0.2064
 8114SOL    HW135975   3.049   0.186  13.450  0.6961 -0.4502  0.4599
 8114SOL    HW235976   2.928   0.122  13.396 -0.2288 -0.3740 -1.0727
 8115SOL     OW35977   3.175   4.608  10.159  0.0289 -0.3943 -0.4572
 8115SOL    HW135978   3.101   4.669  10.152 -0.3875 -0.8255  0.2970
 8115SOL    HW235979   3.147   4.555  10.084  1.4315 -3.1435  0.9529
 8116SOL     OW35980   3.725   3.466   7.262 -0.2659 -0.0556 -0.2140
 8116SOL    HW135981   3.763   3.467   7.350  1.4276 -0.3705 -0.9397
 8116SOL    HW235982   3.695   3.556   7.253  0.5196  0.2471  0.2283
 8117SOL     OW35983   3.733   3.635   6.825 -1.1577  0.1589 -0.0251
 8117SOL    HW135984   3.689   3.593   6.751 -0.7060  0.7781 -0.6526
 8117SOL    HW235985   3.779   3.562   6.866  2.0163  2.1079 -0.0794
 8118SOL     OW35986   2.725   0.589   3.915 -0.0248 -0.7135  0.1810
 8118SOL    HW135987   2.669   0.563   3.988  2.4166  0.6121  2.5203
 8118SOL    HW235988   2.790   0.650   3.953 -0.1974  0.4720 -1.4233
 8119SOL     OW35989   4.462   3.429   6.885  0.1055 -0.2238 -0.0188
 8119SOL    HW135990   4.521   3.357   6.864 -0.1854 -0.6310  0.5595
 8119SOL    HW235991   4.520   3.481   6.941  1.3373 -1.3654 -0.2134
 8120SOL     OW35992   3.771   1.763   8.619  0.1401  0.2094 -0.5689
 8120SOL    HW135993   3.736   1.773   8.530  0.1704  0.9745 -0.4993
 8120SOL    HW235994   3.762   1.669   8.632  0.2538  0.3121  0.2815
 8121SOL     OW35995   2.481   3.688   5.507  0.0411 -0.6129 -0.1693
 8121SOL    HW135996   2.547   3.715   5.443  1.6692  2.0166  2.6064
 8121SOL    HW235997   2.524   3.621   5.559  0.8380  1.7535  2.2251
 8122SOL     OW35998   4.599   0.793   2.648 -0.1090  0.1451  0.6044
 8122SOL    HW135999   4.649   0.859   2.599 -0.9945  0.6981  0.4553
 8122SOL    HW236000   4.533   0.840   2.699  0.0372  1.0705 -0.0812
 8123SOL     OW36001   4.210   3.437   8.990  0.3299  0.1232  0.1257
 8123SOL    HW136002   4.165   3.516   8.961 -1.8402 -1.0849  0.1850
 8123SOL    HW236003   4.263   3.472   9.062 -1.9709  1.1778  1.3200
 8124SOL     OW36004   1.961   2.015   6.452  0.3300  0.2001  0.2731
 8124SOL    HW136005   1.946   2.069   6.530  0.2960 -0.0029  0.4077
 8124SOL    HW236006   1.879   1.967   6.449 -0.1058  0.7829  2.6296
 8125SOL     OW36007   3.021   3.648  12.950 -0.6225 -0.1765 -0.7428
 8125SOL    HW136008   2.991   3.559  12.967 -0.6948 -0.3027 -1.5050
 8125SOL    HW236009   3.061   3.672  13.033  2.6068  0.9263 -2.6158
 8126SOL     OW36010   3.402   1.272   2.668  0.5236 -0.2595 -0.3961
 8126SOL    HW136011   3.468   1.228   2.721  1.3844  0.2047 -1.0944
 8126SOL    HW236012   3.324   1.235   2.708  1.1718 -0.0096  1.0754
 8127SOL     OW36013   0.051   0.144  15.960  0.0207 -0.3280  0.2217
 8127SOL    HW136014   0.117   0.213  15.966 -0.4459  0.0986  0.4207
 8127SOL    HW236015   0.047   0.127  15.866  1.3780 -2.6478  0.5748
 8128SOL     OW36016   3.129   3.464   6.815  0.7511  0.2147  0.0927
 8128SOL    HW136017   3.167   3.510   6.740 -2.4073  0.2229 -1.5229
 8128SOL    HW236018   3.188   3.389   6.812  1.8712  1.1261 -0.9671
 8129SOL     OW36019   1.565   2.688   6.635 -0.0438 -0.0078 -0.2191
 8129SOL    HW136020   1.641   2.651   6.679 -0.5675 -1.3964 -0.4523
 8129SOL    HW236021   1.546   2.618   6.572 -0.9556 -0.3107  0.4014
 8130SOL     OW36022   3.066   1.643   2.266 -0.2453  0.0837 -0.3125
 8130SOL    HW136023   3.124   1.654   2.341 -1.8971  3.7574  0.3903
 8130SOL    HW236024   3.096   1.565   2.220  1.1058  0.6099 -0.3123
 8131SOL     OW36025   3.818   2.036   7.755 -0.1026 -0.1910  0.0488
 8131SOL    HW136026   3.777   2.101   7.697  0.4893  3.1871  3.4533
 8131SOL    HW236027   3.770   1.959   7.724  1.5573 -0.5350 -1.6637
 8132SOL     OW36028   4.544   1.476  11.634  0.4745  0.4635 -0.1922
 8132SOL    HW136029   4.477   1.544  11.642 -0.4879 -0.3249 -1.4372
 8132SOL    HW236030   4.560   1.434  11.718  2.2362  0.3154 -0.5969
 8133SOL     OW36031   4.333   3.205   3.987 -0.0724  0.0936 -0.2653
 8133SOL    HW136032   4.283   3.251   3.920 -0.3534 -0.2891 -0.3164
 8133SOL    HW236033   4.252   3.171   4.024  1.2409 -1.2670  1.3680
 8134SOL     OW36034   4.500   2.663   2.098 -0.3205 -0.1254 -0.1997
 8134SOL    HW136035   4.533   2.574   2.088  2.3294  0.8177  0.0169
 8134SOL    HW236036   4.573   2.721   2.075  1.9365 -2.5404  0.9464
 8135SOL     OW36037   2.947   1.196   7.855  0.0280  0.4692  0.4813
 8135SOL    HW136038   2.904   1.255   7.917 -1.2233  0.8017 -0.6937
 8135SOL    HW236039   2.878   1.177   7.792  0.8073  4.1159 -1.4797
 8136SOL     OW36040   0.190   2.970   0.029 -0.1732  0.1201  0.4279
 8136SOL    HW136041   0.283   2.985   0.010  0.2378 -0.8195  1.7005
 8136SOL    HW236042   0.184   2.924   0.113 -2.9059  0.2584  0.3233
 8137SOL     OW36043   0.265   2.208   0.272  0.0471 -0.0801 -0.4538
 8137SOL    HW136044   0.222   2.289   0.300  3.4283  1.9939 -1.2547
 8137SOL    HW236045   0.327   2.237   0.205  1.2453 -0.8956  0.3209
 8138SOL     OW36046   0.983   0.935   9.070  0.4556 -0.1160  0.8782
 8138SOL    HW136047   0.927   0.997   9.118 -0.8607 -0.9275  0.4123
 8138SOL    HW236048   1.064   0.943   9.120  0.1177  0.7570  1.3008
 8139SOL     OW36049   2.221   1.152  14.760 -0.0774 -0.1101  0.2120
 8139SOL    HW136050   2.241   1.106  14.678 -1.9323  1.2184 -0.9851
 8139SOL    HW236051   2.245   1.082  14.821 -2.1616  0.5659  1.8010
 8140SOL     OW36052   0.872   2.536   9.657 -0.6164 -0.2102  0.1186
 8140SOL    HW136053   0.964   2.549   9.678 -0.3514  0.4684 -1.5097
 8140SOL    HW236054   0.848   2.502   9.744 -0.4368  1.2683  0.7492
 8141SOL     OW36055   2.949   1.371  12.312 -0.1521  0.0756  0.2359
 8141SOL    HW136056   2.871   1.375  12.367  0.5000  0.2448  1.1432
 8141SOL    HW236057   2.950   1.276  12.297  1.0846 -0.1114  1.5850
 8142SOL     OW36058   3.333   4.181   7.583 -0.2959  0.0380  0.3669
 8142SOL    HW136059   3.386   4.102   7.596  0.7394  0.1326 -3.2626
 8142SOL    HW236060   3.285   4.173   7.665  0.4935  0.7870  0.9102
 8143SOL     OW36061   2.084   2.218   4.058  0.1281 -0.1232 -0.0668
 8143SOL    HW136062   2.036   2.138   4.082  0.1005 -0.2350 -0.4985
 8143SOL    HW236063   2.147   2.224   4.130  0.4621 -1.6078 -0.2203
 8144SOL     OW36064   0.870   0.688  16.101 -0.0114 -0.0010  0.4537
 8144SOL    HW136065   0.821   0.613  16.067 -1.1304  1.3265 -0.8308
 8144SOL    HW236066   0.872   0.742  16.023 -1.1645 -0.9047 -0.1956
 8145SOL     OW36067   1.098   2.189  16.956 -0.2013  0.3957 -0.3445
 8145SOL    HW136068   1.030   2.247  16.989  1.8282  3.7048 -2.0631
 8145SOL    HW236069   1.157   2.251  16.914  1.0741 -1.0763 -0.7295
 8146SOL     OW36070   3.159   0.538  12.003 -0.5152  0.0474  0.1135
 8146SOL    HW136071   3.106   0.492  12.068  1.7413 -1.4328  0.9094
 8146SOL    HW236072   3.175   0.622  12.046  1.3393 -0.0274 -0.4409
 8147SOL     OW36073   0.400   2.774   6.096  0.4457  0.3954  0.0077
 8147SOL    HW136074   0.458   2.773   6.020  1.1541  2.8686  0.5206
 8147SOL    HW236075   0.372   2.682   6.095  0.6975  0.3077  1.1961
 8148SOL     OW36076   0.144   1.335   7.024  0.2131  0.2451  0.2743
 8148SOL    HW136077   0.122   1.419   7.065 -1.3919 -0.6006  1.1297
 8148SOL    HW236078   0.076   1.337   6.957  1.6519 -0.8276 -1.1965
 8149SOL     OW36079   4.213   1.718   4.467  0.4987 -0.4811  0.2830
 8149SOL    HW136080   4.232   1.644   4.410 -3.4990  0.5864 -2.4836
 8149SOL    HW236081   4.302   1.751   4.479  0.5999 -0.3976 -0.6930
 8150SOL     OW36082   1.438   2.185  14.095  0.0969 -0.0193  0.1040
 8150SOL    HW136083   1.519   2.233  14.109 -0.8662  1.7003 -0.2129
 8150SOL    HW236084   1.417   2.210  14.005 -0.0482 -0.6672 -0.0398
 8151SOL     OW36085   0.556   3.957   0.147 -0.0195 -0.2951 -0.4165
 8151SOL    HW136086   0.593   3.932   0.231 -1.1380 -2.4166 -0.5394
 8151SOL    HW236087   0.635   3.989   0.104 -0.0401 -1.1571 -1.1149
 8152SOL     OW36088   2.200   3.627  11.355  0.3037 -0.7232 -0.2143
 8152SOL    HW136089   2.110   3.658  11.356  0.8667  0.8437  0.7529
 8152SOL    HW236090   2.243   3.690  11.412  1.1198 -1.6613  0.2125
 8153SOL     OW36091   2.044   1.468  11.379  0.0764  0.0654  0.1272
 8153SOL    HW136092   2.041   1.531  11.450 -0.2675  0.8664 -0.5977
 8153SOL    HW236093   2.136   1.441  11.375 -0.2988 -1.2887  1.0015
 8154SOL     OW36094   0.879   0.393   7.539 -0.2408 -0.2666  0.5868
 8154SOL    HW136095   0.912   0.481   7.555  2.4528 -1.3700  1.1236
 8154SOL    HW236096   0.945   0.343   7.588 -0.4569  0.0103  1.1604
 8155SOL     OW36097   3.556   2.374   4.936  0.8949 -0.4243  1.0466
 8155SOL    HW136098   3.616   2.405   4.868  0.1452 -1.2663 -0.0041
 8155SOL    HW236099   3.561   2.433   5.011 -1.1027 -0.2027  1.0070
 8156SOL     OW36100   4.235   3.042   4.985 -0.2701 -0.1875 -0.6830
 8156SOL    HW136101   4.151   3.006   5.015 -0.2710 -0.3909 -0.9233
 8156SOL    HW236102   4.300   3.027   5.053  1.9047  1.8438 -2.3234
 8157SOL     OW36103   4.176   0.441  11.757 -0.4879 -0.3279  0.0003
 8157SOL    HW136104   4.264   0.416  11.785 -0.2450  0.1185 -0.3689
 8157SOL    HW236105   4.182   0.475  11.668  0.0891 -1.4352 -0.3812
 8158SOL     OW36106   1.559   3.883  17.418 -0.1260 -0.1943  0.6256
 8158SOL    HW136107   1.557   3.958  17.478  0.8399 -1.3754  2.1448
 8158SOL    HW236108   1.642   3.912  17.381 -0.3164  0.7360  0.9249
 8159SOL     OW36109   4.179   4.239   6.720  0.3285  0.5607  0.1961
 8159SOL    HW136110   4.238   4.315   6.726  0.4989  0.5159 -0.8868
 8159SOL    HW236111   4.249   4.174   6.715 -0.7078 -0.6271  1.3448
 8160SOL     OW36112   0.382   1.374   4.178 -0.4354 -0.5704 -0.2643
 8160SOL    HW136113   0.354   1.361   4.268 -1.8075  0.7594 -0.5166
 8160SOL    HW236114   0.474   1.399   4.193 -0.4683 -0.7851  0.2883
 8161SOL     OW36115   4.466   0.408   8.206 -0.1656 -0.3628 -0.8580
 8161SOL    HW136116   4.524   0.423   8.132 -0.3088  2.5435 -0.3978
 8161SOL    HW236117   4.491   0.482   8.262  2.9458 -0.7531 -1.7252
 8162SOL     OW36118   2.034   1.288   3.861 -0.5983  0.8102  0.0682
 8162SOL    HW136119   2.000   1.294   3.951 -0.5289 -1.6029  0.2405
 8162SOL    HW236120   1.957   1.312   3.810 -1.2125 -0.9515  0.1864
 8163SOL     OW36121   4.022   1.368   6.106 -0.4331  0.3371  0.4079
 8163SOL    HW136122   4.041   1.274   6.103  0.5366  0.6339 -2.1054
 8163SOL    HW236123   4.070   1.397   6.029 -0.7002  2.0862  0.9114
 8164SOL     OW36124   1.723   2.800   3.051  0.7776  0.7969 -0.0909
 8164SOL    HW136125   1.773   2.823   3.129  1.9479 -2.2282  0.0444
 8164SOL    HW236126   1.751   2.864   2.984 -0.9031  0.5964 -0.9930
 8165SOL     OW36127   3.813   0.223   6.083  0.3734  0.3307  0.2770
 8165SOL    HW136128   3.836   0.308   6.118  1.7321 -0.0129  0.1963
 8165SOL    HW236129   3.766   0.255   6.006  2.3622 -0.3674 -1.2248
 8166SOL     OW36130   4.430   1.185   8.777 -0.1077 -0.0816  0.1894
 8166SOL    HW136131   4.452   1.266   8.730 -0.8039 -1.3180 -2.2601
 8166SOL    HW236132   4.377   1.139   8.712 -0.2411  0.4535 -0.0784
 8167SOL     OW36133   3.278   1.114   4.303 -0.0785  0.0714  0.0006
 8167SOL    HW136134   3.321   1.096   4.219  0.9953  0.1160  0.5409
 8167SOL    HW236135   3.184   1.109   4.286 -0.1894  2.1744  0.0538
 8168SOL     OW36136   4.543   4.186   0.345 -0.0512 -0.0008  0.4478
 8168SOL    HW136137   4.574   4.097   0.329 -2.5861 -1.2772  2.7594
 8168SOL    HW236138   4.624   4.235   0.360 -1.2291  1.2319  2.8154
 8169SOL     OW36139   1.688   3.490   2.617  0.3793 -0.2294 -0.0276
 8169SOL    HW136140   1.698   3.470   2.710 -1.8906  0.3490  0.3335
 8169SOL    HW236141   1.751   3.429   2.579  1.3793  0.2394  0.8708
 8170SOL     OW36142   4.626   0.396   6.865 -0.2702  0.5081  0.0461
 8170SOL    HW136143   4.617   0.454   6.789 -0.0609  0.2896 -0.1453
 8170SOL    HW236144   4.550   0.339   6.871 -0.2183  0.5306  0.9882
 8171SOL     OW36145   1.411   2.888   7.452 -0.2266  0.0446 -0.4851
 8171SOL    HW136146   1.392   2.949   7.381 -0.8377  0.0613 -0.3118
 8171SOL    HW236147   1.364   2.810   7.422 -0.1409 -0.4667  0.7174
 8172SOL     OW36148   2.029   2.645  14.978 -1.1148  0.5308 -0.3875
 8172SOL    HW136149   2.105   2.701  14.963 -0.2551  0.4895  3.7837
 8172SOL    HW236150   2.011   2.615  14.889  1.8078  0.7679 -1.0596
 8173SOL     OW36151   3.307   2.054   5.811  0.1744  0.0655  0.4125
 8173SOL    HW136152   3.280   2.113   5.882  1.8236  1.3782 -0.0799
 8173SOL    HW236153   3.235   1.990   5.812 -0.6217  0.9403 -1.2242
 8174SOL     OW36154   3.963   1.955   4.891  0.4207 -0.0007 -0.1201
 8174SOL    HW136155   3.894   1.889   4.884 -0.7754  1.5844 -2.9943
 8174SOL    HW236156   3.917   2.039   4.892 -0.4446 -0.4755 -0.0261
 8175SOL     OW36157   3.737   4.461   4.979 -0.0794 -0.3084 -0.4205
 8175SOL    HW136158   3.699   4.445   5.066  0.0560 -1.6028 -0.5896
 8175SOL    HW236159   3.778   4.376   4.959 -0.1661 -1.0410  2.5653
 8176SOL     OW36160   0.338   3.574  12.583 -0.4203  0.0652 -0.1463
 8176SOL    HW136161   0.422   3.549  12.545 -1.4001 -3.6997  0.1638
 8176SOL    HW236162   0.314   3.643  12.521 -0.3695 -0.9755 -1.3368
 8177SOL     OW36163   3.487   4.471   8.536  0.4124  0.1716  0.1367
 8177SOL    HW136164   3.494   4.538   8.604 -1.8178  1.0817 -0.5585
 8177SOL    HW236165   3.548   4.411   8.580  0.4629 -0.0540 -0.2454
 8178SOL     OW36166   4.622   1.415  11.381 -0.0416 -0.1017 -0.0756
 8178SOL    HW136167   4.600   1.322  11.374 -1.0216  0.1367 -0.0741
 8178SOL    HW236168   4.589   1.430  11.470 -1.0007 -0.4930 -0.3728
 8179SOL     OW36169   4.571   0.252   3.333 -0.4068  0.4976 -0.1698
 8179SOL    HW136170   4.612   0.312   3.271  0.8418  0.0574  0.2110
 8179SOL    HW236171   4.579   0.161   3.302 -1.0622  0.9439 -1.6530
 8180SOL     OW36172   2.326   2.593   9.806 -0.3270  0.0467  0.0621
 8180SOL    HW136173   2.375   2.517   9.774  1.2498  1.0599  0.0493
 8180SOL    HW236174   2.320   2.562   9.897 -2.1247 -1.4504 -0.5618
 8181SOL     OW36175   1.460   2.777  13.955  0.5386  0.0114  0.1057
 8181SOL    HW136176   1.527   2.797  14.020 -0.2925  1.3067  0.5435
 8181SOL    HW236177   1.379   2.789  14.004 -0.8097  1.8783 -2.5637
 8182SOL     OW36178   1.081   0.130   6.737 -0.5077  0.1183 -0.2085
 8182SOL    HW136179   1.054   0.093   6.821 -1.2947  0.3026 -0.3791
 8182SOL    HW236180   1.032   0.213   6.742 -1.6891 -0.5123 -1.2782
 8183SOL     OW36181   3.363   1.094   8.133  0.8615 -0.0872  0.3247
 8183SOL    HW136182   3.292   1.075   8.071  1.3382 -0.1453 -0.1964
 8183SOL    HW236183   3.346   1.185   8.155  3.8729  0.1855  1.4306
 8184SOL     OW36184   3.710   3.812   1.075 -0.8332 -0.1435  0.6548
 8184SOL    HW136185   3.673   3.879   1.133 -0.3704 -0.8179  1.7349
 8184SOL    HW236186   3.801   3.839   1.086 -1.2914  1.2658  0.9345
 8185SOL     OW36187   1.626   1.658  17.157 -0.4411 -0.0662  1.0040
 8185SOL    HW136188   1.709   1.704  17.144 -0.8355  0.5215  0.5175
 8185SOL    HW236189   1.572   1.724  17.113  2.3960  2.3779  1.1661
 8186SOL     OW36190   0.370   0.843   9.311  0.2277 -0.6486  0.6929
 8186SOL    HW136191   0.291   0.819   9.359  0.4205 -1.8105  0.4343
 8186SOL    HW236192   0.332   0.874   9.228  0.3502 -0.5940  0.6573
 8187SOL     OW36193   0.081   0.763   4.254  0.5115 -0.2689 -0.4056
 8187SOL    HW136194   4.729   0.772   4.226  1.0985 -0.3019 -2.2789
 8187SOL    HW236195   0.090   0.857   4.271 -1.8069 -0.2211  0.5445
 8188SOL     OW36196   2.488   3.167   9.874  0.1532  0.4846  0.1861
 8188SOL    HW136197   2.477   3.173   9.969  2.3582 -2.5616  0.6781
 8188SOL    HW236198   2.440   3.086   9.855 -0.2471  1.5362 -3.1663
 8189SOL     OW36199   2.984   2.342   3.497  0.2181  0.3867 -0.5873
 8189SOL    HW136200   2.935   2.317   3.419  1.5787 -2.9253 -0.3551
 8189SOL    HW236201   2.921   2.407   3.530  1.9652  1.6355  0.2849
 8190SOL     OW36202   1.925   0.239  12.190  0.3335  0.2042  0.0014
 8190SOL    HW136203   1.894   0.285  12.112  0.9443  3.4566  1.6370
 8190SOL    HW236204   1.844   0.252  12.241 -0.5829  2.2505 -1.9553
 8191SOL     OW36205   4.447   0.092   7.471  0.1440  0.2744  0.0652
 8191SOL    HW136206   4.388   0.153   7.514  0.8306 -0.2102  1.7056
 8191SOL    HW236207   4.394   0.016   7.495  2.0599 -0.7945  0.9748
 8192SOL     OW36208   3.307   3.872   6.524 -0.0079  0.2770 -0.1479
 8192SOL    HW136209   3.349   3.957   6.535 -0.9386  0.8700 -1.2134
 8192SOL    HW236210   3.370   3.828   6.467 -0.6284 -1.7952  0.7775
 8193SOL     OW36211   4.479   2.865   6.044 -0.1264  0.3232 -0.0516
 8193SOL    HW136212   4.547   2.888   6.107 -1.1713 -1.8868  1.8595
 8193SOL    HW236213   4.415   2.815   6.094  1.8720 -0.0217  2.1471
 8194SOL     OW36214   2.717   0.435   8.859 -0.4885 -0.3116 -0.8510
 8194SOL    HW136215   2.808   0.445   8.832  0.2072 -0.5988  1.4242
 8194SOL    HW236216   2.679   0.450   8.772 -2.1090 -0.1456 -0.1101
 8195SOL     OW36217   3.105   0.662  16.120  0.1048 -0.3627 -0.2146
 8195SOL    HW136218   3.013   0.647  16.141  0.0679 -1.2683 -1.0214
 8195SOL    HW236219   3.114   0.631  16.030 -1.4009  0.7739 -0.7544
 8196SOL     OW36220   3.268   3.113   7.094 -0.6840 -0.7317  0.3681
 8196SOL    HW136221   3.236   3.150   7.177  0.6089 -1.6175  1.2622
 8196SOL    HW236222   3.355   3.150   7.109 -0.6617 -1.2195  1.4795
 8197SOL     OW36223   2.292   1.571   3.189  0.3531 -0.4742  0.3999
 8197SOL    HW136224   2.283   1.499   3.251  3.4573 -1.3142 -0.1248
 8197SOL    HW236225   2.203   1.577   3.154  1.3990 -0.9884 -2.3451
 8198SOL     OW36226   3.843   0.233   1.585  0.0748  0.0115 -0.5512
 8198SOL    HW136227   3.836   0.289   1.662  2.4132 -0.0714 -0.2762
 8198SOL    HW236228   3.828   0.307   1.526  1.6873 -0.4934 -1.6075
 8199SOL     OW36229   4.338   3.351   6.181 -0.4573  0.3279 -0.0281
 8199SOL    HW136230   4.252   3.320   6.153  0.2302  0.0692 -1.9000
 8199SOL    HW236231   4.302   3.435   6.209  0.2365  0.0727  1.6545
 8200SOL     OW36232   4.327   4.692   9.483  0.4567 -0.2617  0.4187
 8200SOL    HW136233   4.313   4.638   9.405  1.8133  0.0361 -0.0213
 8200SOL    HW236234   4.257   4.652   9.536  0.3768  0.2594  0.7096
 8201SOL     OW36235   0.207   4.022   3.735  0.3198  0.3262 -0.4032
 8201SOL    HW136236   0.209   4.090   3.667 -1.4940  1.9921  1.1990
 8201SOL    HW236237   0.123   4.041   3.777 -0.0718 -0.0670 -0.9949
 8202SOL     OW36238   3.103   4.471   5.380  0.2853  0.5625 -0.3483
 8202SOL    HW136239   3.101   4.566   5.388 -1.9414  0.3804  0.9822
 8202SOL    HW236240   3.052   4.465   5.299  1.2722  1.5256 -1.0437
 8203SOL     OW36241   3.864   1.012   8.517 -0.3493 -0.2236 -0.3615
 8203SOL    HW136242   3.859   0.982   8.608 -3.2930  2.8478  0.4790
 8203SOL    HW236243   3.789   0.959   8.487  0.1591 -0.2894 -1.5214
 8204SOL     OW36244   4.553   3.944   1.992  0.3203  0.0368 -0.1264
 8204SOL    HW136245   4.648   3.947   1.981  0.2942  0.1553 -0.3136
 8204SOL    HW236246   4.554   3.949   2.088 -1.0049 -4.1060  0.0773
 8205SOL     OW36247   1.512   1.323   3.795 -0.3611  0.2346  0.4728
 8205SOL    HW136248   1.427   1.353   3.762  0.2945  0.8564 -0.6101
 8205SOL    HW236249   1.510   1.359   3.884 -3.5500  2.6811 -0.5838
 8206SOL     OW36250   0.738   2.549  17.499  0.2810 -0.6656 -0.2596
 8206SOL    HW136251   0.649   2.572  17.473  0.2554 -0.6787 -0.1838
 8206SOL    HW236252   0.797   2.614  17.460 -1.7807  1.0054 -0.6132
 8207SOL     OW36253   2.275   3.830  15.527 -0.2703  0.0281  0.2000
 8207SOL    HW136254   2.219   3.908  15.530 -0.9079 -0.5124  1.8700
 8207SOL    HW236255   2.209   3.761  15.517  0.7664 -1.2665  2.4468
 8208SOL     OW36256   1.223   3.453  14.103  0.1396  0.6080 -0.0502
 8208SOL    HW136257   1.149   3.452  14.042  0.8572 -1.1951 -0.8917
 8208SOL    HW236258   1.288   3.459  14.034  1.1365  2.5814  1.0888
 8209SOL     OW36259   4.145   3.075   9.663 -0.0768  0.0650 -0.1395
 8209SOL    HW136260   4.096   3.149   9.698  0.0002  0.4809 -0.9163
 8209SOL    HW236261   4.094   3.047   9.587 -0.8254 -0.1292  0.4427
 8210SOL     OW36262   1.078   0.508   6.114  0.1016 -0.7953  0.6587
 8210SOL    HW136263   1.152   0.485   6.170  1.3175 -2.3464 -1.5943
 8210SOL    HW236264   1.049   0.579   6.172 -1.2660  0.0490 -1.0273
 8211SOL     OW36265   1.605   2.893   0.056  0.3489 -0.0058 -0.4362
 8211SOL    HW136266   1.665   2.831   0.014 -0.6773  0.0392 -1.9962
 8211SOL    HW236267   1.647   2.973   0.024  1.4594  0.0242  1.1223
 8212SOL     OW36268   1.826   3.497   1.505  0.2931  0.5054  0.3947
 8212SOL    HW136269   1.883   3.479   1.580  0.8540  0.3995 -0.0550
 8212SOL    HW236270   1.804   3.587   1.527  1.6716  0.7151  0.9582
 8213SOL     OW36271   1.175   1.601   1.691 -0.2340  0.3356 -0.2158
 8213SOL    HW136272   1.089   1.620   1.729  0.3021  0.6887  0.8397
 8213SOL    HW236273   1.223   1.610   1.774  1.0741  1.3858 -1.0803
 8214SOL     OW36274   0.184   1.748  17.072 -0.1474 -0.2523  0.4568
 8214SOL    HW136275   0.155   1.775  16.985  3.6409 -0.5903 -0.9051
 8214SOL    HW236276   0.125   1.803  17.124  1.7908  1.2700  1.0235
 8215SOL     OW36277   3.062   4.075   7.296 -0.0501  0.2386  0.0925
 8215SOL    HW136278   3.135   4.057   7.237 -1.3528 -2.1263 -0.7868
 8215SOL    HW236279   3.099   4.150   7.342  2.6235 -1.2598  0.3690
 8216SOL     OW36280   4.148   2.309   8.461 -0.2203 -0.0821 -0.6682
 8216SOL    HW136281   4.120   2.344   8.546  1.3367 -1.3551  0.3685
 8216SOL    HW236282   4.150   2.394   8.416  2.3857 -1.9711 -4.0815
 8217SOL     OW36283   1.242   4.576  11.248 -0.5437  0.0285 -0.6949
 8217SOL    HW136284   1.177   4.512  11.219 -2.0593  1.1277  0.2763
 8217SOL    HW236285   1.288   4.528  11.317  0.7145  0.8050 -0.9835
 8218SOL     OW36286   3.539   0.613   9.412  0.4352  0.1367  0.4683
 8218SOL    HW136287   3.588   0.639   9.491  0.3660  0.4625  0.4070
 8218SOL    HW236288   3.468   0.677   9.417  1.1481  1.0348 -1.0408
 8219SOL     OW36289   4.731   1.020   4.997  0.1283  0.5162  0.1892
 8219SOL    HW136290   4.646   1.063   5.003 -0.2964 -0.3614  0.4855
 8219SOL    HW236291   0.030   1.033   5.084  0.5655 -1.1795  0.2484
 8220SOL     OW36292   3.877   0.320   4.672  0.5740 -0.1146 -0.0912
 8220SOL    HW136293   3.965   0.286   4.688  1.2025  0.7578 -1.6708
 8220SOL    HW236294   3.871   0.380   4.746  0.6912 -0.0513 -0.1341
 8221SOL     OW36295   1.510   0.680   6.095 -0.2801 -0.2169  0.4499
 8221SOL    HW136296   1.555   0.596   6.101  0.7894  0.2147 -1.2930
 8221SOL    HW236297   1.467   0.663   6.011  0.7931  0.4217 -0.2303
 8222SOL     OW36298   2.577   2.512   8.614 -0.0788  0.6841  0.2185
 8222SOL    HW136299   2.515   2.584   8.625 -1.3672 -0.7767  2.6055
 8222SOL    HW236300   2.654   2.536   8.666 -0.0677  1.1574 -0.0208
 8223SOL     OW36301   3.532   1.485   8.361 -0.3599 -0.2008 -0.2575
 8223SOL    HW136302   3.590   1.416   8.329  0.0441 -1.3627  2.9785
 8223SOL    HW236303   3.590   1.560   8.367 -0.1537 -0.3389 -0.5099
 8224SOL     OW36304   1.726   3.051   4.422  0.2452 -0.4367 -0.3004
 8224SOL    HW136305   1.733   2.982   4.488 -2.6119 -1.7450 -1.3390
 8224SOL    HW236306   1.728   2.993   4.346 -2.1782  0.5522 -1.1197
 8225SOL     OW36307   2.097   4.369   1.890  0.2245  0.0993 -0.3720
 8225SOL    HW136308   2.138   4.289   1.858  0.3714  0.4852 -1.1594
 8225SOL    HW236309   2.102   4.358   1.985  0.4598  2.2399 -0.1197
 8226SOL     OW36310   0.099   3.730  14.634 -0.2022 -0.8156 -0.2259
 8226SOL    HW136311   0.125   3.638  14.633  1.1393 -0.3901 -3.1076
 8226SOL    HW236312   0.005   3.725  14.619 -0.5966  0.7791  1.7780
 8227SOL     OW36313   2.724   3.270   7.919  0.2822  0.0768  0.6016
 8227SOL    HW136314   2.703   3.210   7.848 -0.6822  0.2698  0.7124
 8227SOL    HW236315   2.785   3.219   7.971 -0.6645  0.0350  1.6727
 8228SOL     OW36316   3.645   1.604   5.291 -0.3400  0.2341  0.2989
 8228SOL    HW136317   3.623   1.573   5.379  0.5880 -3.1882 -0.6821
 8228SOL    HW236318   3.698   1.680   5.316 -0.6387  0.5056  0.1054
 8229SOL     OW36319   3.782   2.029   1.140 -0.1288 -0.4487  0.3129
 8229SOL    HW136320   3.786   1.961   1.074  2.9546  0.0386  0.0183
 8229SOL    HW236321   3.727   2.092   1.094  0.9593 -0.4265 -0.9427
 8230SOL     OW36322   0.541   3.562   3.259 -0.0395 -0.3852 -0.7735
 8230SOL    HW136323   0.518   3.641   3.210 -0.3773 -1.2490 -2.0178
 8230SOL    HW236324   0.629   3.561   3.220  0.4317 -2.6932  0.3791
 8231SOL     OW36325   0.373   2.213   6.402  0.4705  0.9141  0.3219
 8231SOL    HW136326   0.291   2.260   6.407 -2.1944 -3.5408 -1.0350
 8231SOL    HW236327   0.406   2.251   6.483  2.4701 -2.1279  0.9358
 8232SOL     OW36328   0.201   4.135   9.893 -0.0025 -0.1517  0.1372
 8232SOL    HW136329   0.156   4.064   9.939  0.4753 -0.0921  0.6982
 8232SOL    HW236330   0.228   4.089   9.813  2.0731  0.9426  0.2052
 8233SOL     OW36331   4.556   1.270   4.994 -0.2454 -0.0505  0.1357
 8233SOL    HW136332   4.541   1.227   4.910  1.1415  2.0397 -1.1877
 8233SOL    HW236333   4.630   1.328   4.977  0.0068 -0.5897 -0.5655
 8234SOL     OW36334   4.111   2.830  17.181 -0.1212 -0.2458  0.2268
 8234SOL    HW136335   4.064   2.777  17.245 -1.2372  1.9169  1.2141
 8234SOL    HW236336   4.171   2.767  17.142  0.3985  0.9685 -0.9338
 8235SOL     OW36337   0.781   2.292   9.332  0.8621  0.4773  0.4066
 8235SOL    HW136338   0.828   2.363   9.375  1.3043 -0.9791  2.3317
 8235SOL    HW236339   0.759   2.330   9.247 -0.3722 -0.2537  0.3952
 8236SOL     OW36340   3.665   1.019  17.626  0.3023  0.2150  0.4119
 8236SOL    HW136341   3.617   1.052  17.549  0.2183 -0.1903  0.2909
 8236SOL    HW236342   3.619   0.935  17.629  0.6702 -0.0796 -2.1954
 8237SOL     OW36343   0.228   3.097   1.676  0.0994 -0.0844 -1.1852
 8237SOL    HW136344   0.254   3.025   1.734 -1.1312 -0.6379 -1.3289
 8237SOL    HW236345   0.134   3.081   1.672  0.2199 -1.5310  2.0512
 8238SOL     OW36346   4.649   2.627   6.921 -0.3554 -0.4426  0.0784
 8238SOL    HW136347   4.722   2.683   6.893 -0.3254 -0.8951 -0.7629
 8238SOL    HW236348   4.662   2.544   6.875 -2.2758 -0.6102 -0.1538
 8239SOL     OW36349   0.877   0.068   6.480 -0.3443  0.0608  0.2621
 8239SOL    HW136350   0.842   4.723   6.510 -1.7759 -0.1796 -2.0159
 8239SOL    HW236351   0.819   0.126   6.529 -1.1800  0.6042 -1.3448
 8240SOL     OW36352   1.905   3.352   4.964  0.0475 -0.1610  0.2051
 8240SOL    HW136353   1.813   3.331   4.948  0.8366 -1.2995 -2.8109
 8240SOL    HW236354   1.890   3.441   4.997  3.2299  1.0300 -1.6081
 8241SOL     OW36355   4.106   0.553  14.482  0.2100 -0.2407 -0.0173
 8241SOL    HW136356   4.041   0.513  14.424 -0.9580  0.1474  1.0295
 8241SOL    HW236357   4.185   0.510  14.448  0.3078  0.2706 -0.4410
 8242SOL     OW36358   1.439   4.563   6.193  0.6161 -0.4401 -0.3674
 8242SOL    HW136359   1.455   4.641   6.247 -2.0713  0.6904 -1.1664
 8242SOL    HW236360   1.354   4.589   6.156 -0.1824 -1.0704  1.0206
 8243SOL     OW36361   4.243   2.051   2.646  0.0587  0.9279  0.2924
 8243SOL    HW136362   4.223   2.111   2.719 -0.3109  2.0077 -0.6976
 8243SOL    HW236363   4.155   2.050   2.608  1.2332  1.8296 -2.4386
 8244SOL     OW36364   0.893   4.369   5.854  0.5587  0.2126  0.3511
 8244SOL    HW136365   0.970   4.403   5.900  0.3705  1.6578 -0.4322
 8244SOL    HW236366   0.846   4.323   5.923 -2.6830 -0.6615 -2.4872
 8245SOL     OW36367   1.367   1.347   4.769 -0.1735  0.9446  0.0863
 8245SOL    HW136368   1.402   1.286   4.704  0.2764 -0.0192  1.2347
 8245SOL    HW236369   1.339   1.280   4.831  0.4008 -0.2135 -0.9001
 8246SOL     OW36370   1.611   3.322   3.682  0.1881 -0.9170  0.0956
 8246SOL    HW136371   1.659   3.333   3.600 -0.4095 -0.2227 -0.1579
 8246SOL    HW236372   1.610   3.226   3.680  1.9061 -0.9466  0.7603
 8247SOL     OW36373   1.086   3.663   2.712 -0.4098  0.0267  0.0213
 8247SOL    HW136374   0.997   3.629   2.714 -0.0332 -0.8428  1.9211
 8247SOL    HW236375   1.095   3.690   2.621  0.1703  1.1632  0.4066
 8248SOL     OW36376   1.684   1.155   5.306 -0.1485 -0.3375 -0.2645
 8248SOL    HW136377   1.695   1.178   5.398 -1.1155 -1.8885  0.2407
 8248SOL    HW236378   1.642   1.231   5.266  0.9143  0.1624 -0.4338
 8249SOL     OW36379   3.937   2.182   5.961  0.3681  0.6050 -0.1881
 8249SOL    HW136380   3.946   2.264   5.912 -1.1848  0.4591 -0.7154
 8249SOL    HW236381   3.999   2.179   6.034  0.9934 -1.0883 -0.8018
 8250SOL     OW36382   4.539   2.321   7.263 -0.8403  0.6157 -0.0798
 8250SOL    HW136383   4.463   2.265   7.247  0.0705 -0.1190 -1.8280
 8250SOL    HW236384   4.506   2.399   7.217  1.8779  1.2858 -0.9179
 8251SOL     OW36385   1.241   0.616   2.487 -0.6039 -0.1042  0.1049
 8251SOL    HW136386   1.257   0.544   2.548  2.8992  0.4902 -0.1025
 8251SOL    HW236387   1.309   0.609   2.419  1.2502  0.0003  1.9448
 8252SOL     OW36388   2.477   4.649   7.556 -0.3454 -0.0345 -0.1914
 8252SOL    HW136389   2.539   4.619   7.490 -0.8370  0.7892 -1.0459
 8252SOL    HW236390   2.527   4.718   7.600 -0.0387  1.0022 -2.1593
 8253SOL     OW36391   4.616   3.789   0.782 -0.2481  0.5560 -0.4951
 8253SOL    HW136392   4.588   3.711   0.734  3.5754 -0.2752 -1.3939
 8253SOL    HW236393   4.686   3.750   0.833 -0.4977  1.5435  0.6038
 8254SOL     OW36394   4.670   0.749   8.966  0.4285 -0.3102 -0.6005
 8254SOL    HW136395   4.670   0.785   9.055 -1.1463  1.8531 -1.4775
 8254SOL    HW236396   0.024   0.763   8.948  0.1204  1.9538 -0.4572
 8255SOL     OW36397   1.049   4.510   3.384 -0.1727  0.1006  0.2239
 8255SOL    HW136398   1.022   4.520   3.293  0.7227  2.5814  0.2141
 8255SOL    HW236399   1.036   4.601   3.413 -1.2010 -0.0842  0.3212
 8256SOL     OW36400   3.445   4.204   0.912  0.0781 -0.1037  0.0617
 8256SOL    HW136401   3.461   4.131   0.972  0.6346  1.3402  1.6600
 8256SOL    HW236402   3.497   4.175   0.836 -2.4657  1.2963 -2.2068
 8257SOL     OW36403   3.988   3.963   7.609 -0.1478  0.5769 -0.0655
 8257SOL    HW136404   3.901   3.972   7.568  0.4216  1.5134 -1.0691
 8257SOL    HW236405   4.010   4.052   7.635 -2.1508  0.8277  0.7714
 8258SOL     OW36406   4.721   0.577   8.553 -0.6355  0.0378  0.4280
 8258SOL    HW136407   4.677   0.568   8.469  0.1206 -0.5876  0.0965
 8258SOL    HW236408   0.008   0.485   8.563 -0.2944 -0.0558 -1.3009
 8259SOL     OW36409   0.915   2.074   9.448 -0.0360  0.0785  0.4682
 8259SOL    HW136410   0.879   2.154   9.411  0.7927 -0.6054 -1.8219
 8259SOL    HW236411   0.919   2.021   9.368 -1.0468  1.1849 -0.3024
 8260SOL     OW36412   2.247   4.205  13.618 -0.4704 -0.1688 -0.0509
 8260SOL    HW136413   2.160   4.234  13.591 -1.2895 -1.7578  0.8509
 8260SOL    HW236414   2.304   4.251  13.556 -1.6405  1.9752  0.4925
 8261SOL     OW36415   1.599   2.635   3.215  0.0326  0.0082 -0.0093
 8261SOL    HW136416   1.653   2.692   3.159 -0.3164  0.4623  0.1207
 8261SOL    HW236417   1.666   2.620   3.283  2.2291 -1.0433 -2.3881
 8262SOL     OW36418   1.671   3.426  11.978 -0.0463 -0.0923 -0.5629
 8262SOL    HW136419   1.655   3.518  12.002  1.6914 -0.2576  1.2612
 8262SOL    HW236420   1.645   3.378  12.057  0.1342  0.5152 -0.1298
 8263SOL     OW36421   3.819   0.294   9.861 -0.0101  0.0278  0.2998
 8263SOL    HW136422   3.821   0.205   9.895 -4.0009  1.0129  3.1658
 8263SOL    HW236423   3.892   0.281   9.800  0.6577 -0.0916  1.1400
 8264SOL     OW36424   1.732   1.685   6.967 -0.8818 -0.1419 -0.0108
 8264SOL    HW136425   1.738   1.754   6.901  1.9820  0.9560  1.3852
 8264SOL    HW236426   1.692   1.606   6.930 -0.7490 -0.1395 -0.1612
 8265SOL     OW36427   2.969   3.513   3.864  0.1508  0.4323  0.5572
 8265SOL    HW136428   2.910   3.589   3.869 -2.0804 -1.2070 -1.1281
 8265SOL    HW236429   3.054   3.558   3.855  0.6148 -0.4825  0.4110
 8266SOL     OW36430   1.891   0.370   5.464  0.0955 -0.0395 -0.2491
 8266SOL    HW136431   1.875   0.425   5.387 -0.9779  0.0128  0.0123
 8266SOL    HW236432   1.856   0.290   5.424  0.6768 -0.0961 -0.6501
 8267SOL     OW36433   2.520   0.262   2.757 -0.0689 -0.6040 -0.5869
 8267SOL    HW136434   2.515   0.319   2.834  1.0994 -0.7743 -0.3853
 8267SOL    HW236435   2.434   0.276   2.718 -0.2231  1.9446  0.6882
 8268SOL     OW36436   2.960   3.510   8.198  0.1109 -0.1777 -0.3701
 8268SOL    HW136437   3.033   3.448   8.205  0.0287 -0.0001  2.1578
 8268SOL    HW236438   2.947   3.508   8.104  0.0136  0.8101 -0.3814
 8269SOL     OW36439   1.801   4.030   0.337 -0.0816  0.3442  0.2335
 8269SOL    HW136440   1.890   3.997   0.331  0.6372  1.9152  2.3314
 8269SOL    HW236441   1.781   4.035   0.243 -0.8028  2.0989  0.4849
 8270SOL     OW36442   4.675   1.214   3.981 -0.5873 -0.0049 -0.0119
 8270SOL    HW136443   4.665   1.196   3.887  0.5970  0.1066 -0.1634
 8270SOL    HW236444   4.583   1.228   4.004 -0.2691 -0.7572  1.7433
 8271SOL     OW36445   1.748   2.596   8.533  0.0040  0.2865 -0.1608
 8271SOL    HW136446   1.684   2.667   8.529  1.3569  1.3876 -1.9600
 8271SOL    HW236447   1.690   2.534   8.488  0.7138 -0.2988 -0.2647
 8272SOL     OW36448   3.342   1.285  16.382 -0.1185 -0.1232 -0.2294
 8272SOL    HW136449   3.258   1.331  16.388  0.2652  0.2708  2.0123
 8272SOL    HW236450   3.365   1.278  16.289 -2.2420  0.8596 -0.8439
 8273SOL     OW36451   0.663   4.020   3.124 -0.1578 -0.2991 -0.1073
 8273SOL    HW136452   0.669   4.082   3.196  0.5216  0.0874 -0.4844
 8273SOL    HW236453   0.707   4.070   3.055 -0.2190  1.5144  1.1768
 8274SOL     OW36454   1.663   4.518   3.530  0.0797  0.1431 -0.1495
 8274SOL    HW136455   1.718   4.515   3.452 -1.6546 -1.1796 -1.3225
 8274SOL    HW236456   1.577   4.496   3.494  0.9302 -4.0278  0.2973
 8275SOL     OW36457   0.508   3.675  17.410 -0.2644  0.4490 -0.0668
 8275SOL    HW136458   0.472   3.759  17.381 -0.3054  0.5281  0.2097
 8275SOL    HW236459   0.543   3.639  17.329  0.8543  0.2940  0.4847
 8276SOL     OW36460   1.091   4.429   7.881  0.6481 -0.4996 -0.0492
 8276SOL    HW136461   1.145   4.359   7.845 -1.0969 -2.4860  1.2344
 8276SOL    HW236462   1.039   4.447   7.803 -1.4164 -1.7001  1.0356
 8277SOL     OW36463   1.234   3.529   2.912  0.0421  0.1733  0.5059
 8277SOL    HW136464   1.171   3.478   2.964 -0.7510  2.6116  1.9175
 8277SOL    HW236465   1.175   3.569   2.847 -0.8891 -0.5041  0.9285
 8278SOL     OW36466   0.263   0.509   2.374 -0.3378 -0.0910 -0.4601
 8278SOL    HW136467   0.181   0.464   2.395 -0.7240  0.8160 -0.0177
 8278SOL    HW236468   0.298   0.544   2.455 -2.2912  0.4674  0.1424
 8279SOL     OW36469   3.585   1.120   9.278  0.1778  0.2032  0.1104
 8279SOL    HW136470   3.505   1.082   9.243  0.9030  2.6568 -4.2421
 8279SOL    HW236471   3.611   1.046   9.332 -1.8906 -0.2939  0.4075
 8280SOL     OW36472   0.394   4.181  11.882 -0.0807 -0.4931 -0.1399
 8280SOL    HW136473   0.405   4.271  11.850 -2.8350  0.6666  2.1537
 8280SOL    HW236474   0.468   4.140  11.838 -0.0772 -1.1480  0.4739
 8281SOL     OW36475   3.057   3.149  17.084  0.3492 -0.0677  0.2024
 8281SOL    HW136476   3.044   3.097  17.005 -0.2090 -0.8323  0.7854
 8281SOL    HW236477   3.060   3.079  17.150 -0.8691 -0.3793 -0.0712
 8282SOL     OW36478   0.134   1.392   9.066 -0.5265 -0.5058  0.4249
 8282SOL    HW136479   0.060   1.339   9.036 -0.7638 -0.3739  0.7856
 8282SOL    HW236480   0.114   1.391   9.159  0.1691  0.5489  0.5894
 8283SOL     OW36481   1.916   4.250   8.468  0.2221 -0.1571 -0.2967
 8283SOL    HW136482   1.971   4.172   8.461 -1.4156 -1.4183  0.8095
 8283SOL    HW236483   1.987   4.314   8.463  1.4486 -1.5496 -0.5517
 8284SOL     OW36484   0.758   4.675   3.992 -0.5655  0.7009 -0.5254
 8284SOL    HW136485   0.781   4.583   3.985  0.2991  0.9129 -0.5124
 8284SOL    HW236486   0.695   4.689   4.063  1.9197  1.8464  1.4748
 8285SOL     OW36487   0.555   2.295   8.779  0.5268  0.1886  0.2259
 8285SOL    HW136488   0.631   2.281   8.721  0.1006 -0.1597 -0.2448
 8285SOL    HW236489   0.520   2.378   8.745 -2.1649 -0.7847  0.6382
 8286SOL     OW36490   2.627   0.148   8.493 -0.6530  0.2875  0.5801
 8286SOL    HW136491   2.699   0.200   8.456  0.8273 -1.7066  0.6770
 8286SOL    HW236492   2.561   0.192   8.440 -0.0237 -0.6806 -1.0256
 8287SOL     OW36493   3.381   0.180   4.275  0.0217 -0.2845  0.0986
 8287SOL    HW136494   3.406   0.220   4.192 -1.1706  1.5160  0.6235
 8287SOL    HW236495   3.349   0.097   4.237 -1.2206 -0.0926  0.7238
 8288SOL     OW36496   1.588   1.793   5.841 -0.5258 -0.0564 -0.1717
 8288SOL    HW136497   1.640   1.840   5.775  0.0466 -1.2096 -0.5397
 8288SOL    HW236498   1.631   1.708   5.837 -0.2949 -0.1419  3.8524
 8289SOL     OW36499   2.986   2.560   6.658 -0.2372 -0.2397  0.0137
 8289SOL    HW136500   2.933   2.499   6.608 -0.2482  0.4047 -0.7739
 8289SOL    HW236501   3.060   2.577   6.599  0.1199 -1.9861 -0.0443
 8290SOL     OW36502   1.410   4.522   5.420  0.2054  0.0079  0.0228
 8290SOL    HW136503   1.482   4.584   5.424 -0.0542  0.2897  0.3029
 8290SOL    HW236504   1.374   4.543   5.506 -0.6307 -2.3944  0.2546
 8291SOL     OW36505   2.477   3.807   5.189 -0.1748 -0.0370  0.0480
 8291SOL    HW136506   2.542   3.809   5.259  0.2098  1.2291 -0.3423
 8291SOL    HW236507   2.399   3.845   5.231 -0.0863  0.2084 -0.0094
 8292SOL     OW36508   4.179   3.438   8.026 -0.6495 -0.1185  0.1667
 8292SOL    HW136509   4.189   3.370   7.958 -3.5994  1.3753 -1.7625
 8292SOL    HW236510   4.263   3.480   8.007 -1.8154  1.2556 -1.9068
 8293SOL     OW36511   4.581   0.893  15.670  0.4377 -0.1948  0.1568
 8293SOL    HW136512   4.498   0.874  15.713 -0.4006  1.7773 -0.6040
 8293SOL    HW236513   4.544   0.931  15.591  2.3848  3.2208  0.8796
 8294SOL     OW36514   2.035   0.408   7.605 -0.3192  0.3287  0.2897
 8294SOL    HW136515   2.038   0.327   7.655  0.9901  0.3039  0.1741
 8294SOL    HW236516   2.009   0.465   7.677 -0.1676 -1.0128  1.3966
 8295SOL     OW36517   4.519   1.268   1.992  0.1017 -0.1892  0.2241
 8295SOL    HW136518   4.606   1.306   1.986  1.6745 -3.8964 -0.2760
 8295SOL    HW236519   4.519   1.227   1.906 -0.2850 -2.1322  1.1549
 8296SOL     OW36520   4.009   1.055  13.713 -0.4235  0.0123 -0.0381
 8296SOL    HW136521   3.970   1.021  13.633 -1.6778 -2.1107  1.4737
 8296SOL    HW236522   3.984   1.147  13.712 -1.0402 -0.1631 -0.3841
 8297SOL     OW36523   1.494   3.237  10.448  0.6256 -0.8527  0.0030
 8297SOL    HW136524   1.522   3.231  10.357  1.6323 -1.2984  0.3458
 8297SOL    HW236525   1.530   3.324  10.465  2.0264 -0.9546 -2.4395
 8298SOL     OW36526   4.442   1.436   7.705 -0.6704 -0.4161  0.3251
 8298SOL    HW136527   4.515   1.374   7.709  0.2346  0.6119 -0.5845
 8298SOL    HW236528   4.435   1.470   7.794  2.2645  1.7651 -0.2711
 8299SOL     OW36529   2.810   3.170   5.392  0.3986  0.2496  0.1843
 8299SOL    HW136530   2.740   3.229   5.364 -0.2101 -0.1433  0.8570
 8299SOL    HW236531   2.825   3.206   5.479 -2.5008 -0.6712  1.0837
 8300SOL     OW36532   0.897   3.676   5.536 -0.2050 -0.2709 -0.8191
 8300SOL    HW136533   0.912   3.586   5.508  0.0708 -0.3364 -0.4589
 8300SOL    HW236534   0.817   3.662   5.586  1.1951  1.1223  1.8477
 8301SOL     OW36535   1.003   1.908   2.343  0.0299  0.5875 -0.1379
 8301SOL    HW136536   0.973   1.887   2.431  1.0635  0.5244  0.2033
 8301SOL    HW236537   0.925   1.953   2.311 -0.5770 -0.4616 -0.1502
 8302SOL     OW36538   1.817   0.461   2.960  0.4933  0.2409  0.0128
 8302SOL    HW136539   1.835   0.456   3.054  0.1583 -0.0678  0.0597
 8302SOL    HW236540   1.877   0.392   2.932  0.5339  0.3775 -0.2345
 8303SOL     OW36541   3.880   4.569  15.331  0.1124 -0.3623  0.6141
 8303SOL    HW136542   3.928   4.573  15.414  1.4208 -1.0438 -0.1158
 8303SOL    HW236543   3.790   4.549  15.357 -0.3319  0.4849 -0.2927
 8304SOL     OW36544   2.593   3.686  11.447  0.5448  0.0993  0.1511
 8304SOL    HW136545   2.613   3.778  11.465 -2.7138  0.4554  1.9193
 8304SOL    HW236546   2.563   3.701  11.357 -0.2372 -5.2619 -0.4460
 8305SOL     OW36547   2.838   0.726   6.965 -0.0429 -0.6628 -0.2489
 8305SOL    HW136548   2.821   0.820   6.955 -1.2628 -0.6988  1.5002
 8305SOL    HW236549   2.822   0.722   7.059  1.7319  1.7084  0.1427
 8306SOL     OW36550   1.527   1.978  15.898 -0.2503  0.6523 -0.4369
 8306SOL    HW136551   1.560   1.898  15.940 -1.3610 -0.5618 -1.9052
 8306SOL    HW236552   1.462   2.012  15.960 -1.0912  1.2538 -1.6590
 8307SOL     OW36553   0.814   4.353   1.773  0.5658  0.0025 -0.0131
 8307SOL    HW136554   0.722   4.354   1.748 -0.1431 -2.0413  2.4730
 8307SOL    HW236555   0.849   4.440   1.752  0.2025  0.3897  0.9876
 8308SOL     OW36556   3.201   4.580   2.304  0.5149  0.2296  0.3921
 8308SOL    HW136557   3.216   4.570   2.210  0.0762  0.5834  0.2879
 8308SOL    HW236558   3.237   4.669   2.311 -1.4569  1.0085  0.5132
 8309SOL     OW36559   3.090   4.627  17.342 -0.3157  0.0616  0.0323
 8309SOL    HW136560   3.010   4.602  17.296 -1.6554  0.4166  2.1654
 8309SOL    HW236561   3.138   4.546  17.329  2.5838  1.4026  2.2678
 8310SOL     OW36562   2.411   1.913   4.154 -0.5340  0.1724 -0.2913
 8310SOL    HW136563   2.364   1.900   4.236  0.6338 -2.2536  0.0120
 8310SOL    HW236564   2.489   1.861   4.175 -1.0505 -0.9181 -1.1084
 8311SOL     OW36565   2.139   2.968  12.367  0.1948 -0.9992 -0.3334
 8311SOL    HW136566   2.185   3.052  12.374  0.8858 -1.1013 -3.5710
 8311SOL    HW236567   2.183   2.917  12.435 -0.5627 -0.0900  0.8396
 8312SOL     OW36568   2.382   3.491  15.130 -0.3133 -0.5211 -0.0058
 8312SOL    HW136569   2.419   3.407  15.157 -1.4631 -1.2101 -0.6003
 8312SOL    HW236570   2.318   3.468  15.062  1.2277 -2.7636 -0.6775
 8313SOL     OW36571   3.559   3.885   8.155  0.4376  0.3200 -0.6510
 8313SOL    HW136572   3.482   3.828   8.146  0.8111 -0.4245  0.9947
 8313SOL    HW236573   3.589   3.883   8.064  0.7423  1.1019 -0.5677
 8314SOL     OW36574   0.445   1.090   9.364 -0.4016  0.1867 -0.0115
 8314SOL    HW136575   0.359   1.117   9.396 -0.6392  0.1125 -0.5906
 8314SOL    HW236576   0.429   0.998   9.344  0.3684  0.5064 -2.1057
 8315SOL     OW36577   2.204   0.455   6.328  0.0506 -0.0853  0.6561
 8315SOL    HW136578   2.127   0.399   6.329  0.4537 -0.6499 -0.1347
 8315SOL    HW236579   2.225   0.462   6.235 -3.1793 -0.3240 -0.0857
 8316SOL     OW36580   3.536   1.216   6.955 -0.3526  0.1521  0.4787
 8316SOL    HW136581   3.466   1.209   6.889  1.0716 -1.6055 -0.8492
 8316SOL    HW236582   3.564   1.126   6.964 -1.2267  0.0532  2.2260
 8317SOL     OW36583   2.509   3.688  15.210  0.1094  0.2277  0.2280
 8317SOL    HW136584   2.481   3.681  15.301  0.0567 -1.2941  0.0800
 8317SOL    HW236585   2.466   3.612  15.173  0.1415 -0.4671  1.6310
 8318SOL     OW36586   4.629   0.501   7.995 -0.0350 -0.0211  0.1344
 8318SOL    HW136587   4.598   0.441   7.927  0.3831  1.7687 -1.6261
 8318SOL    HW236588   4.680   0.566   7.947  0.3501 -2.1211 -2.2918
 8319SOL     OW36589   0.152   0.430   1.340 -0.4274  0.1911  0.0172
 8319SOL    HW136590   0.219   0.361   1.340 -0.0207  0.5948  2.7751
 8319SOL    HW236591   0.161   0.462   1.250  1.6463 -1.4898 -0.3853
 8320SOL     OW36592   3.329   1.606  11.362 -0.3399  0.2572 -0.2796
 8320SOL    HW136593   3.340   1.677  11.299 -2.6587  2.7190  2.0740
 8320SOL    HW236594   3.327   1.530  11.304  1.8431  1.8285 -2.3928
 8321SOL     OW36595   3.992   3.776   4.454  0.4433 -0.2090  0.2376
 8321SOL    HW136596   3.931   3.726   4.508 -0.0579 -0.2149 -0.3423
 8321SOL    HW236597   3.988   3.728   4.372  1.1916  2.2100 -1.2131
 8322SOL     OW36598   3.183   0.507   5.144 -0.1390 -0.1933 -0.6867
 8322SOL    HW136599   3.170   0.549   5.229  0.7086 -0.9475 -0.1929
 8322SOL    HW236600   3.097   0.500   5.103 -0.0884  1.4648 -1.0926
 8323SOL     OW36601   1.207   0.569   7.302  0.4011  0.1373 -0.2867
 8323SOL    HW136602   1.187   0.487   7.347 -0.3204 -0.5179 -1.8050
 8323SOL    HW236603   1.224   0.531   7.216  0.0178 -0.3267 -0.1608
 8324SOL     OW36604   3.633   4.505  15.352 -0.0236  0.0119 -0.1614
 8324SOL    HW136605   3.544   4.531  15.330  0.0316  1.3148  1.1781
 8324SOL    HW236606   3.623   4.415  15.383 -1.2015 -0.9583 -3.3622
 8325SOL     OW36607   2.872   2.554  10.076 -0.7096 -0.1274 -0.4092
 8325SOL    HW136608   2.811   2.484  10.053  0.2459 -1.0074 -0.2791
 8325SOL    HW236609   2.946   2.533  10.020 -1.1100  0.0169 -0.9851
 8326SOL     OW36610   1.051   0.595   7.622 -0.1349  0.2661 -0.0980
 8326SOL    HW136611   1.050   0.682   7.582  0.8789 -0.0981 -0.8959
 8326SOL    HW236612   1.136   0.560   7.596  0.5459  0.3533  2.0327
 8327SOL     OW36613   4.517   3.612  13.576 -0.1802 -0.0959 -0.3026
 8327SOL    HW136614   4.510   3.705  13.553 -1.6939  0.3300  1.9137
 8327SOL    HW236615   4.533   3.620  13.670  1.2957  1.6407 -0.6858
 8328SOL     OW36616   2.724   2.369   9.956 -0.5160  0.4200 -0.2367
 8328SOL    HW136617   2.735   2.361   9.862  1.6438  1.4499 -0.0579
 8328SOL    HW236618   2.758   2.281   9.971  0.9929  1.4761  2.5690
 8329SOL     OW36619   1.132   2.193   0.518 -0.1766 -0.1257 -0.4075
 8329SOL    HW136620   1.170   2.106   0.508  2.5053  0.9701  0.1458
 8329SOL    HW236621   1.176   2.225   0.597  0.5021  0.3510 -0.9765
 8330SOL     OW36622   0.575   1.862   4.205  0.0619  0.5013  0.2183
 8330SOL    HW136623   0.640   1.899   4.145  0.2030  1.2232  0.8255
 8330SOL    HW236624   0.611   1.775   4.226 -2.5894  0.1537  3.1743
 8331SOL     OW36625   4.111   1.123   5.037  0.5325  0.5285  0.2695
 8331SOL    HW136626   4.076   1.071   4.965 -0.7955 -0.8853  1.9354
 8331SOL    HW236627   4.038   1.136   5.097  0.7100 -2.3922  1.1470
 8332SOL     OW36628   2.058   3.482  11.667 -0.0957  0.2604 -0.5135
 8332SOL    HW136629   2.037   3.473  11.574 -0.6619 -0.6879 -0.2933
 8332SOL    HW236630   1.994   3.428  11.713 -1.2088  0.7365 -1.5085
 8333SOL     OW36631   0.459   1.157  16.929  0.6107  0.6273 -0.4817
 8333SOL    HW136632   0.381   1.187  16.976 -0.2280 -0.2852 -1.2864
 8333SOL    HW236633   0.416   1.089  16.877  0.7202 -0.8009  1.2836
 8334SOL     OW36634   2.173   3.029   9.039 -0.7380  0.2474 -0.0707
 8334SOL    HW136635   2.207   2.959   9.095  0.7592  0.2069 -1.0352
 8334SOL    HW236636   2.257   3.046   8.997 -0.9145  2.7008  0.5254
 8335SOL     OW36637   0.917   1.661   1.816 -0.1263 -0.2943  0.2279
 8335SOL    HW136638   0.948   1.617   1.894 -0.5673 -0.9435  0.0377
 8335SOL    HW236639   0.831   1.690   1.846  0.2264  0.4489  0.5351
 8336SOL     OW36640   2.536   2.448  10.145 -0.1454  0.0385  0.0383
 8336SOL    HW136641   2.609   2.438  10.206 -2.1776  0.0052  2.5054
 8336SOL    HW236642   2.552   2.381  10.079 -0.1988  0.6285 -0.5771
 8337SOL     OW36643   4.469   3.151   2.824  0.0549  0.1200  0.1620
 8337SOL    HW136644   4.385   3.123   2.787  1.0252  1.3940 -3.0087
 8337SOL    HW236645   4.486   3.075   2.881 -0.1675  0.9554  1.3407
 8338SOL     OW36646   0.413   4.042  10.249  0.2752 -0.1240  0.2506
 8338SOL    HW136647   0.319   4.050  10.234  0.7162  2.0919 -1.2432
 8338SOL    HW236648   0.436   4.003  10.165 -0.5221 -1.8569  0.8263
 8339SOL     OW36649   3.139   0.130   7.109  0.3315  0.5693  0.6665
 8339SOL    HW136650   3.108   0.045   7.076  1.1405  0.4505  0.2049
 8339SOL    HW236651   3.229   0.115   7.138  0.3298  0.9638  0.8795
 8340SOL     OW36652   4.405   3.701   3.910 -0.5764 -0.1008  0.0449
 8340SOL    HW136653   4.482   3.752   3.886 -0.6442 -0.4331 -0.8744
 8340SOL    HW236654   4.434   3.618   3.872 -0.9981  0.3469 -1.2517
 8341SOL     OW36655   3.099   3.133   3.796 -0.9032 -0.0499 -0.2863
 8341SOL    HW136656   3.066   3.092   3.716 -1.5684  0.2763 -0.1787
 8341SOL    HW236657   3.017   3.143   3.845 -0.3106  1.3426  0.4234
 8342SOL     OW36658   4.402   4.003  12.424  0.1022 -0.0690  0.0424
 8342SOL    HW136659   4.407   3.915  12.463 -0.7169 -0.6728 -1.2003
 8342SOL    HW236660   4.317   4.039  12.449  0.0629  0.5961 -1.0785
 8343SOL     OW36661   3.345   2.257   0.913 -0.0134  0.0207  0.7767
 8343SOL    HW136662   3.374   2.201   0.842 -1.2172  1.7290 -1.0921
 8343SOL    HW236663   3.420   2.256   0.972 -0.0080 -0.5726  0.7537
 8344SOL     OW36664   1.978   3.860   1.878 -0.0084 -0.1612  0.3295
 8344SOL    HW136665   1.912   3.852   1.947 -1.6558  1.5135 -1.0357
 8344SOL    HW236666   2.012   3.771   1.878  0.7283  0.1229 -1.7672
 8345SOL     OW36667   2.405   2.215   5.872 -0.1932 -0.4676  0.4969
 8345SOL    HW136668   2.469   2.143   5.875  1.2183  0.7728  0.1036
 8345SOL    HW236669   2.387   2.218   5.966 -1.4043  0.6465  0.2248
 8346SOL     OW36670   1.495   0.468  17.352 -0.2154 -0.4666  0.3176
 8346SOL    HW136671   1.460   0.541  17.300 -1.1473  0.0151  1.6299
 8346SOL    HW236672   1.589   0.487  17.350 -0.2781 -0.3199 -1.1123
 8347SOL     OW36673   2.496   1.690   7.898 -0.7741  0.4040  0.4834
 8347SOL    HW136674   2.490   1.626   7.827  1.2461 -1.9281  2.4089
 8347SOL    HW236675   2.575   1.737   7.871 -0.0262  0.1586  2.2324
 8348SOL     OW36676   1.569   0.804   7.300 -0.4646 -0.6125 -0.0054
 8348SOL    HW136677   1.615   0.767   7.375  0.5339 -1.2447 -0.9137
 8348SOL    HW236678   1.481   0.792   7.335 -0.8940  1.0319 -0.5374
 8349SOL     OW36679   0.424   4.368   7.388  0.0030 -0.5488  0.1993
 8349SOL    HW136680   0.487   4.437   7.368 -0.3972  0.3273  1.9415
 8349SOL    HW236681   0.383   4.359   7.302  0.7865 -0.9464 -0.1218
 8350SOL     OW36682   2.208   0.240   1.828  0.0842  0.6474  0.4522
 8350SOL    HW136683   2.212   0.194   1.745 -0.8722 -1.2543  1.4499
 8350SOL    HW236684   2.141   0.306   1.812  1.3869  1.7949 -0.2912
 8351SOL     OW36685   4.654   1.332   4.492 -0.2893  0.0380 -0.3249
 8351SOL    HW136686   4.577   1.388   4.478 -1.2722 -0.7931  1.7585
 8351SOL    HW236687   4.682   1.313   4.402  0.5606  0.8438 -0.2282
 8352SOL     OW36688   3.529   1.801   7.466  0.3464  0.0037  0.6192
 8352SOL    HW136689   3.593   1.780   7.397  2.0625  0.5997  2.0350
 8352SOL    HW236690   3.469   1.726   7.465 -1.1406  1.2053  0.0196
 8353SOL     OW36691   0.131   3.444   5.042 -0.1685  0.2913  0.4128
 8353SOL    HW136692   0.078   3.523   5.045  0.5878  0.8059  0.3082
 8353SOL    HW236693   0.135   3.422   5.135  1.7897 -1.4013 -0.0678
 8354SOL     OW36694   3.822   3.583   7.508  0.3659 -0.3179  0.2284
 8354SOL    HW136695   3.766   3.639   7.561  0.5029 -0.2425  0.2961
 8354SOL    HW236696   3.911   3.604   7.538  0.9039  0.4076 -1.8535
 8355SOL     OW36697   3.502   1.129   5.125  0.2931 -0.2736 -0.2488
 8355SOL    HW136698   3.467   1.154   5.211 -0.4205  1.1020 -0.9373
 8355SOL    HW236699   3.457   1.047   5.105 -2.4717  1.2762 -0.3835
 8356SOL     OW36700   4.045   1.115   6.049  0.0663  0.2161 -0.3466
 8356SOL    HW136701   4.046   1.071   5.964  0.2443  0.2607 -0.3689
 8356SOL    HW236702   4.024   1.045   6.111 -1.5335  1.2072  0.2194
 8357SOL     OW36703   2.002   4.575   7.240  0.6978 -0.2166  0.0443
 8357SOL    HW136704   2.020   4.641   7.173 -2.3652  0.2726 -0.3039
 8357SOL    HW236705   2.083   4.524   7.245  0.1974 -1.0367 -0.2291
 8358SOL     OW36706   2.357   2.060   5.111  0.1820 -0.5865  0.0700
 8358SOL    HW136707   2.291   2.074   5.180  0.4375  0.1510  0.1590
 8358SOL    HW236708   2.397   1.976   5.135  0.2431 -0.1697  1.4269
 8359SOL     OW36709   2.233   1.873   9.513 -0.1380 -0.0779 -0.7535
 8359SOL    HW136710   2.162   1.936   9.503 -0.9441 -1.1281 -1.5228
 8359SOL    HW236711   2.210   1.826   9.593  0.0681 -1.7464 -1.6783
 8360SOL     OW36712   1.926   3.052   7.458 -0.1694  0.5020 -0.4976
 8360SOL    HW136713   1.909   3.132   7.407 -0.6264 -0.1984 -1.4450
 8360SOL    HW236714   2.022   3.053   7.466 -0.3173  0.6210  1.1160
 8361SOL     OW36715   0.849   4.071   0.038  0.0572 -0.0325  0.1008
 8361SOL    HW136716   0.892   4.101  17.711  0.2676 -1.0713 -0.1800
 8361SOL    HW236717   0.899   3.994   0.065 -0.5597 -0.5679 -0.2840
 8362SOL     OW36718   3.750   2.222   0.002 -0.1775  0.1804  0.3039
 8362SOL    HW136719   3.692   2.220   0.077  0.3111 -2.3180  0.6226
 8362SOL    HW236720   3.746   2.315  17.733 -2.2966 -0.1721 -0.7683
 8363SOL     OW36721   2.663   3.940   8.316 -0.1848  0.8729 -0.1108
 8363SOL    HW136722   2.620   3.859   8.340  1.6940 -0.9653 -2.8524
 8363SOL    HW236723   2.597   4.000   8.352 -0.9231 -0.2584  0.3913
 8364SOL     OW36724   2.300   4.280  12.383 -0.1363 -0.1285 -0.0476
 8364SOL    HW136725   2.257   4.281  12.298  1.9204 -0.6017 -1.0714
 8364SOL    HW236726   2.371   4.342  12.374 -0.2975  0.0591 -0.0315
 8365SOL     OW36727   2.822   0.488   6.675 -0.1070 -0.0871  0.4167
 8365SOL    HW136728   2.778   0.428   6.615 -0.6676  0.1044  0.6321
 8365SOL    HW236729   2.864   0.425   6.734 -0.7561  0.0450  1.0261
 8366SOL     OW36730   4.617   1.454   6.551  0.0842  0.0992 -0.5064
 8366SOL    HW136731   4.694   1.477   6.499  0.9642  1.1346  1.2710
 8366SOL    HW236732   4.626   1.508   6.629 -0.5241 -0.5629  0.0209
 8367SOL     OW36733   4.221   4.111   3.704 -0.0887  0.0020  0.1782
 8367SOL    HW136734   4.253   4.191   3.745  0.2332 -1.7838  3.4004
 8367SOL    HW236735   4.167   4.139   3.629  0.8428 -0.4365 -0.6518
 8368SOL     OW36736   2.114   1.012  11.516  0.3294 -0.0163 -0.5893
 8368SOL    HW136737   2.031   0.976  11.548 -0.4988  0.8033 -1.8095
 8368SOL    HW236738   2.142   1.054  11.598 -0.1448 -1.3436  0.2546
 8369SOL     OW36739   4.025   0.239   4.117 -0.7569  0.2526  0.3785
 8369SOL    HW136740   3.969   0.206   4.047 -0.0608 -2.8014  1.2612
 8369SOL    HW236741   3.977   0.198   4.189 -2.2249  1.5965  0.1786
 8370SOL     OW36742   4.171   0.328  13.715  0.2426  0.1862 -0.4357
 8370SOL    HW136743   4.199   0.321  13.807 -2.0951 -0.0608  0.2456
 8370SOL    HW236744   4.122   0.410  13.722  1.2793  0.8034 -0.3470
 8371SOL     OW36745   4.103   3.176   2.766  0.1376  0.0785 -0.0832
 8371SOL    HW136746   4.121   3.098   2.818  1.8332  1.3435  1.2253
 8371SOL    HW236747   4.014   3.156   2.736  0.0429 -0.1665  0.3704
 8372SOL     OW36748   2.986   0.909   2.819  0.5975  0.1830  0.0587
 8372SOL    HW136749   2.912   0.966   2.840  1.2369 -0.0358  2.8752
 8372SOL    HW236750   2.940   0.826   2.825 -1.2691  1.2476  0.2725
 8373SOL     OW36751   2.468   2.801   5.658  0.3213  0.0289  0.1345
 8373SOL    HW136752   2.520   2.739   5.708 -0.0056 -0.6535 -0.3725
 8373SOL    HW236753   2.519   2.882   5.652 -1.3146  1.1159  0.8084
 8374SOL     OW36754   4.246   3.456   5.315 -0.3912  0.1860 -0.1100
 8374SOL    HW136755   4.245   3.494   5.403  2.0482 -0.9943  0.4248
 8374SOL    HW236756   4.235   3.361   5.321  1.1921 -0.0597 -1.0255
 8375SOL     OW36757   2.624   1.904   3.056  0.5374  0.3251 -0.0995
 8375SOL    HW136758   2.694   1.904   2.992  2.9556 -1.4806  2.5024
 8375SOL    HW236759   2.576   1.823   3.036 -0.8594  1.1601 -0.0791
 8376SOL     OW36760   1.699   1.875   9.440 -0.4137 -0.8976  0.0153
 8376SOL    HW136761   1.785   1.856   9.404  1.7452  0.7968  4.3460
 8376SOL    HW236762   1.650   1.808   9.391 -2.2836 -0.5045  1.3771
 8377SOL     OW36763   0.677   4.321   3.733 -0.1748  0.5873  0.1502
 8377SOL    HW136764   0.688   4.416   3.728 -1.8989  0.7264 -1.0047
 8377SOL    HW236765   0.768   4.302   3.710  0.3602  1.8024  1.2380
 8378SOL     OW36766   2.062   0.074   8.951 -0.2142 -0.7862 -0.0723
 8378SOL    HW136767   2.130   0.011   8.927 -1.1548 -1.1964 -1.6662
 8378SOL    HW236768   2.019   0.026   9.021 -0.0948  1.3136  1.4205
 8379SOL     OW36769   3.080   2.907   2.933 -0.0311  0.0436  0.2330
 8379SOL    HW136770   3.095   2.889   3.026 -2.4497 -2.1635  0.1973
 8379SOL    HW236771   3.156   2.893   2.877 -1.6251  0.8190 -2.0947
 8380SOL     OW36772   1.093   4.464  14.870  0.1266  0.2883  0.3717
 8380SOL    HW136773   1.174   4.445  14.823 -2.4112 -3.5939 -2.4340
 8380SOL    HW236774   1.031   4.421  14.812  1.5336 -0.7253 -0.3811
 8381SOL     OW36775   2.079   1.602   4.066 -0.0781  0.5389  0.0225
 8381SOL    HW136776   2.021   1.549   4.122  0.4645  2.2668  2.2167
 8381SOL    HW236777   2.083   1.683   4.117  0.3369  1.6731 -1.8195
 8382SOL     OW36778   1.913   1.987  16.526 -0.1007  0.3352  1.1346
 8382SOL    HW136779   1.830   1.982  16.573 -0.9461 -2.4347 -0.6395
 8382SOL    HW236780   1.874   2.006  16.441 -2.0605 -0.4146  1.8805
 8383SOL     OW36781   2.980   3.163   7.686 -0.6904 -0.3449  0.0352
 8383SOL    HW136782   2.887   3.176   7.668 -0.6674 -0.4298 -0.1492
 8383SOL    HW236783   3.015   3.251   7.676 -1.0607 -0.1325  0.6364
 8384SOL     OW36784   2.473   4.050   7.028 -0.3187  0.4647  0.2874
 8384SOL    HW136785   2.564   4.025   7.018 -1.0321 -1.2054 -1.7472
 8384SOL    HW236786   2.444   4.038   6.938 -1.4414 -1.2909  0.8740
 8385SOL     OW36787   1.920   2.382   1.584 -0.2509 -0.0859  0.2433
 8385SOL    HW136788   1.947   2.474   1.582  1.8532 -0.6829  0.5537
 8385SOL    HW236789   1.903   2.362   1.492 -0.7406 -0.9990  0.5401
 8386SOL     OW36790   4.481   0.835   9.735  0.2188  0.6889  0.3390
 8386SOL    HW136791   4.451   0.918   9.699 -0.3732  0.0903 -0.5234
 8386SOL    HW236792   4.410   0.811   9.794 -0.5570 -0.1206 -0.9286
 8387SOL     OW36793   4.148   3.596  17.344  0.1690 -0.3831  0.0064
 8387SOL    HW136794   4.107   3.513  17.316  0.0450 -0.5997  0.8467
 8387SOL    HW236795   4.107   3.605  17.430 -0.0535  0.3987 -0.1832
 8388SOL     OW36796   2.737   3.307   8.895 -0.5366  0.1578 -0.2041
 8388SOL    HW136797   2.722   3.233   8.836  0.1094  0.2684 -0.5006
 8388SOL    HW236798   2.832   3.306   8.904 -0.5599  1.2599  0.0942
 8389SOL     OW36799   3.976   2.239  12.893 -0.0016  0.9407 -0.0462
 8389SOL    HW136800   3.932   2.174  12.839  2.7250  0.1975 -1.3868
 8389SOL    HW236801   3.956   2.323  12.851 -0.8238 -0.0392 -1.6055
 8390SOL     OW36802   3.616   2.538   4.086  0.3122  0.3567  0.1494
 8390SOL    HW136803   3.634   2.503   4.173 -2.1531 -2.3789 -0.4642
 8390SOL    HW236804   3.529   2.503   4.068  0.4185  0.0318  0.2684
 8391SOL     OW36805   2.681   3.828   5.375 -0.0416 -0.5189  0.1774
 8391SOL    HW136806   2.682   3.862   5.464  3.5585  0.1285 -0.0892
 8391SOL    HW236807   2.742   3.754   5.379 -1.0066 -1.1596  3.0983
 8392SOL     OW36808   0.337   4.132  17.269  0.0204 -0.0977  0.1287
 8392SOL    HW136809   0.253   4.177  17.280  2.2052  3.4178  2.1338
 8392SOL    HW236810   0.342   4.114  17.175  0.0514 -0.0126  0.1142
 8393SOL     OW36811   4.404   4.576  14.755 -0.3673  0.8943 -0.0980
 8393SOL    HW136812   4.415   4.514  14.683 -0.4134  1.9548 -1.0079
 8393SOL    HW236813   4.372   4.647  14.699 -2.0359 -0.3540 -0.7444
 8394SOL     OW36814   4.264   2.720   9.381 -0.8671  0.0955  0.6025
 8394SOL    HW136815   4.280   2.765   9.298 -0.6051 -0.1064  0.5414
 8394SOL    HW236816   4.309   2.637   9.363  0.5432  0.8364  0.7089
 8395SOL     OW36817   0.118   1.407   4.657  0.4151  0.2150 -0.4938
 8395SOL    HW136818   0.034   1.387   4.616  0.3003  0.0091 -0.1584
 8395SOL    HW236819   0.138   1.325   4.702  0.8907  0.0552 -0.9966
 8396SOL     OW36820   1.576   1.404   1.374 -0.6104 -1.2767 -0.3456
 8396SOL    HW136821   1.536   1.362   1.298 -1.5996  1.1057 -1.1525
 8396SOL    HW236822   1.497   1.427   1.421 -2.4387  0.2719 -4.1544
 8397SOL     OW36823   1.242   1.538   2.356  0.0021 -0.4802  0.2737
 8397SOL    HW136824   1.271   1.574   2.272  0.4203 -3.1571 -0.7113
 8397SOL    HW236825   1.193   1.460   2.330 -1.3836  0.8347 -1.0841
 8398SOL     OW36826   0.316   0.281   3.377  0.4567 -0.2481  0.3019
 8398SOL    HW136827   0.366   0.226   3.317 -0.1466  0.0123 -0.4442
 8398SOL    HW236828   0.387   0.292   3.441  0.8772  0.6902 -0.3258
 8399SOL     OW36829   1.719   1.594  16.857 -0.0602 -0.0893 -0.2004
 8399SOL    HW136830   1.627   1.606  16.833 -0.4016  0.2988  1.2534
 8399SOL    HW236831   1.746   1.540  16.784  2.6905  1.6246 -0.4391
 8400SOL     OW36832   2.818   3.075  17.568  0.1021 -0.0992 -0.1814
 8400SOL    HW136833   2.746   3.126  17.532 -1.1930 -1.3961  0.5921
 8400SOL    HW236834   2.789   3.065  17.659 -2.2406 -3.3663 -1.3073
 8401SOL     OW36835   3.150   0.651   5.385 -0.3344 -0.4698 -0.6615
 8401SOL    HW136836   3.067   0.616   5.417  0.5816 -1.3760  0.6872
 8401SOL    HW236837   3.115   0.739   5.372  0.6480 -0.1095 -0.9203
 8402SOL     OW36838   2.188   0.118  14.376  0.4234 -0.4001 -0.0457
 8402SOL    HW136839   2.125   0.048  14.356 -1.4760  0.9093  1.3220
 8402SOL    HW236840   2.242   0.113  14.297  1.3483  1.7669  0.4521
 8403SOL     OW36841   1.751   1.085   6.351 -0.4210 -0.0628 -0.4401
 8403SOL    HW136842   1.748   1.073   6.256  0.0080  0.8557 -0.5696
 8403SOL    HW236843   1.820   1.150   6.362  0.2178 -0.7495 -0.3500
 8404SOL     OW36844   0.947   4.684  14.933 -0.1223 -0.2266  0.0223
 8404SOL    HW136845   1.014   4.616  14.942  1.0326  0.9163  0.1349
 8404SOL    HW236846   0.928   4.669  14.840 -1.5912 -2.2870  0.6496
 8405SOL     OW36847   0.966   3.530   1.187 -0.3801 -0.0837 -0.3063
 8405SOL    HW136848   1.045   3.495   1.147 -0.5089  1.6173 -2.0613
 8405SOL    HW236849   0.966   3.622   1.157 -2.0577 -0.5286 -1.7140
 8406SOL     OW36850   4.518   3.965   7.787 -0.3294 -0.3038 -0.7866
 8406SOL    HW136851   4.577   4.012   7.727  1.3540  0.2623  1.3408
 8406SOL    HW236852   4.566   3.883   7.786 -0.4855 -0.4110  1.5526
 8407SOL     OW36853   4.242   3.461  15.318 -0.3782  0.4444  0.3720
 8407SOL    HW136854   4.337   3.453  15.325 -0.2365  2.2865  0.5342
 8407SOL    HW236855   4.240   3.528  15.249 -2.1724  1.8163  1.7650
 8408SOL     OW36856   0.907   0.800   5.479  0.5532 -0.1437  0.1896
 8408SOL    HW136857   0.960   0.879   5.497  1.8737 -1.2119  0.9740
 8408SOL    HW236858   0.928   0.752   5.559  1.3530  1.4732  0.9577
 8409SOL     OW36859   3.110   3.730  17.139 -0.4367  0.1660 -0.7539
 8409SOL    HW136860   3.091   3.637  17.123 -1.0500  0.2845 -0.7476
 8409SOL    HW236861   3.021   3.765  17.150 -0.5278  0.7097 -3.3398
 8410SOL     OW36862   1.233   1.181   3.762 -0.5099 -0.0461  0.1210
 8410SOL    HW136863   1.262   1.092   3.780  1.1574  0.9281  2.3165
 8410SOL    HW236864   1.247   1.193   3.668 -0.4168  1.9350  0.3824
 8411SOL     OW36865   2.208   2.688   9.389 -0.2293 -0.0363 -0.7083
 8411SOL    HW136866   2.266   2.612   9.396 -1.1590 -0.5628  1.2321
 8411SOL    HW236867   2.224   2.724   9.477  0.1006  0.5191 -0.9931
 8412SOL     OW36868   2.791   2.050   6.084  0.0774  0.3418 -0.2315
 8412SOL    HW136869   2.790   2.053   6.180  0.0450 -1.2796 -0.1735
 8412SOL    HW236870   2.873   2.094   6.063 -0.1136  0.4295 -0.7872
 8413SOL     OW36871   0.218   3.350   2.577 -0.5797 -0.1660  0.5005
 8413SOL    HW136872   0.138   3.403   2.581 -0.6535  0.0747 -4.1424
 8413SOL    HW236873   0.190   3.266   2.613  0.4686 -0.0184  1.6751
 8414SOL     OW36874   4.319   4.497   2.785  0.0339 -0.8337  0.2914
 8414SOL    HW136875   4.303   4.404   2.805 -1.3671 -0.2224  2.0311
 8414SOL    HW236876   4.364   4.517   2.867 -1.0813 -0.2086  0.7542
 8415SOL     OW36877   2.789   2.072   9.978  0.2600  1.0005 -0.0121
 8415SOL    HW136878   2.694   2.073   9.992  0.4628 -0.5566  1.4982
 8415SOL    HW236879   2.808   1.982   9.951 -0.9042  0.7247  0.0624
 8416SOL     OW36880   1.289   1.339   9.286 -0.9565 -0.0080 -0.1991
 8416SOL    HW136881   1.374   1.361   9.323 -1.0193  1.1620 -0.7780
 8416SOL    HW236882   1.237   1.324   9.365 -0.2873  1.7940  0.5578
 8417SOL     OW36883   2.440   1.082   8.523  0.3505  0.5960  0.1900
 8417SOL    HW136884   2.487   1.041   8.450  1.3018  1.3950  0.3543
 8417SOL    HW236885   2.475   1.170   8.533  0.4437  0.3965  1.5565
 8418SOL     OW36886   2.981   0.966   5.020 -0.1555 -0.3372 -0.6292
 8418SOL    HW136887   3.022   0.933   4.940  3.6114  0.6993  0.9180
 8418SOL    HW236888   2.997   1.056   4.995 -1.3758 -0.2910 -1.2763
 8419SOL     OW36889   1.898   2.308   2.883  0.0203 -0.3655  0.2708
 8419SOL    HW136890   1.946   2.225   2.876  0.2243 -0.2720  0.5438
 8419SOL    HW236891   1.912   2.323   2.977  1.4314  0.7143 -0.1188
 8420SOL     OW36892   2.976   1.943   8.967  0.5159  0.0052 -0.1310
 8420SOL    HW136893   2.954   1.850   8.979  2.6710 -0.4889 -0.0896
 8420SOL    HW236894   2.901   1.974   9.018  0.6297 -0.2483  0.1920
 8421SOL     OW36895   4.168   3.597   5.047  0.4003 -0.3643 -0.3721
 8421SOL    HW136896   4.181   3.545   5.126 -3.2199  2.0626  1.8406
 8421SOL    HW236897   4.249   3.647   5.040 -0.4366  1.1789  0.8893
 8422SOL     OW36898   4.448   1.608   6.960  0.2310 -0.7838 -0.3782
 8422SOL    HW136899   4.379   1.667   6.992  0.4189 -0.4977 -0.5020
 8422SOL    HW236900   4.517   1.640   7.018  1.3427 -0.0140 -2.1511
 8423SOL     OW36901   1.872   2.697   6.624 -0.4651  0.2284  0.2297
 8423SOL    HW136902   1.884   2.756   6.698 -1.0038  0.2285  0.3140
 8423SOL    HW236903   1.851   2.761   6.555 -3.5269 -1.3631 -0.3508
 8424SOL     OW36904   3.128   0.051   2.964 -0.4007  0.4413 -0.4676
 8424SOL    HW136905   3.069   4.722   2.933  1.1377 -1.0057 -0.2751
 8424SOL    HW236906   3.188   0.057   2.890  1.3191 -0.8692  0.8063
 8425SOL     OW36907   0.346   3.821   6.356  0.0201  0.1858 -0.4214
 8425SOL    HW136908   0.277   3.756   6.369  1.1129 -0.5473  1.7893
 8425SOL    HW236909   0.391   3.810   6.440 -1.5496  0.1945  0.4270
 8426SOL     OW36910   3.363   0.579   5.755  0.3073 -0.0991  0.4819
 8426SOL    HW136911   3.372   0.674   5.760  1.9663 -0.2983  1.2438
 8426SOL    HW236912   3.433   0.559   5.817  0.3600 -1.4646 -0.0079
 8427SOL     OW36913   1.922   0.536  13.402  0.3523 -0.7106  0.2072
 8427SOL    HW136914   2.005   0.489  13.409  1.0575  0.4640 -0.3019
 8427SOL    HW236915   1.858   0.480  13.358  0.7463  0.8865 -2.4238
 8428SOL     OW36916   2.583   3.740   3.150  0.3114  0.1607 -0.0540
 8428SOL    HW136917   2.590   3.686   3.229  1.2008  3.3834  2.0824
 8428SOL    HW236918   2.664   3.700   3.116 -0.7033  0.6660 -3.0113
 8429SOL     OW36919   0.874   4.268   2.965  0.0111  0.0746  0.0965
 8429SOL    HW136920   0.828   4.226   2.892 -1.2256 -1.4546  1.7628
 8429SOL    HW236921   0.966   4.256   2.940 -0.2917 -1.4467 -0.2741
 8430SOL     OW36922   3.346   2.938   3.226  0.0274 -0.0118 -0.5448
 8430SOL    HW136923   3.276   2.976   3.279 -0.5896  1.7644 -2.6028
 8430SOL    HW236924   3.330   2.845   3.240  0.5852  0.0796  0.6444
 8431SOL     OW36925   2.446   2.198   6.774  0.2389 -0.1160 -0.1390
 8431SOL    HW136926   2.377   2.243   6.822  0.7828 -0.1703  0.6961
 8431SOL    HW236927   2.402   2.206   6.689 -0.6622 -3.9228 -0.0437
 8432SOL     OW36928   1.447   3.827   2.257 -0.2021 -0.0567 -0.0422
 8432SOL    HW136929   1.520   3.861   2.309 -0.4868  1.4814 -0.6441
 8432SOL    HW236930   1.398   3.907   2.235 -3.1576 -0.9833  3.2698
 8433SOL     OW36931   0.693   4.575   8.332 -0.3207  0.4941  0.0565
 8433SOL    HW136932   0.759   4.506   8.339 -0.5933  0.1418 -0.8529
 8433SOL    HW236933   0.613   4.525   8.315  0.7060  0.1095 -3.5288
 8434SOL     OW36934   4.269   1.980  13.191  0.6077  0.0550  0.0475
 8434SOL    HW136935   4.231   2.052  13.141 -2.2529 -0.3382  1.6440
 8434SOL    HW236936   4.361   1.984  13.164  0.7418  1.3352  0.7086
 8435SOL     OW36937   3.815   3.486   3.456 -0.2315  0.0657 -0.8240
 8435SOL    HW136938   3.806   3.581   3.470  2.6131  0.0505  1.2247
 8435SOL    HW236939   3.755   3.452   3.522 -0.9737  1.2403 -0.9006
 8436SOL     OW36940   0.686   3.628  11.958 -0.4819 -0.1549  0.0909
 8436SOL    HW136941   0.648   3.542  11.974  0.0533 -0.8551 -2.3140
 8436SOL    HW236942   0.715   3.649  12.046  1.1433  0.2884 -0.5481
 8437SOL     OW36943   0.266   2.053  15.654 -0.2625 -0.4293  0.4581
 8437SOL    HW136944   0.327   2.099  15.713 -0.9503  1.2193 -0.1160
 8437SOL    HW236945   0.276   2.100  15.572  1.3936 -0.1174  0.8380
 8438SOL     OW36946   1.997   1.012   2.028 -0.2064  0.3241  0.3703
 8438SOL    HW136947   1.902   1.021   2.017  0.0848  0.7058 -1.7392
 8438SOL    HW236948   2.003   1.085   2.090  0.9602 -1.1456  1.9761
 8439SOL     OW36949   0.521   3.523   4.643 -0.6154 -0.0294 -0.6272
 8439SOL    HW136950   0.507   3.544   4.736  0.7856 -0.3088 -0.3390
 8439SOL    HW236951   0.542   3.611   4.613 -0.0815 -0.1603 -0.6498
 8440SOL     OW36952   0.460   2.890   6.464  0.3603  0.1502  0.0041
 8440SOL    HW136953   0.461   2.984   6.479  0.4072 -0.3164  2.9026
 8440SOL    HW236954   0.366   2.881   6.481  0.5235 -1.0488  0.2991
 8441SOL     OW36955   2.356   3.504   7.364 -0.3396  0.2322 -0.3826
 8441SOL    HW136956   2.320   3.423   7.327  1.5678 -0.5490 -0.5339
 8441SOL    HW236957   2.422   3.531   7.301 -0.1766 -1.9183 -1.1460
 8442SOL     OW36958   4.389   2.620  12.995  0.0098 -0.6446  0.8080
 8442SOL    HW136959   4.415   2.683  12.928 -0.4815  1.7958  2.9226
 8442SOL    HW236960   4.323   2.572  12.946  0.8077 -1.3639  0.4299
 8443SOL     OW36961   3.519   2.126   9.617  0.2257  0.5331 -0.4936
 8443SOL    HW136962   3.427   2.151   9.606  1.1729  4.0392 -0.4709
 8443SOL    HW236963   3.556   2.187   9.554  3.0112  1.8274  2.3691
 8444SOL     OW36964   0.346   1.471   8.684  0.0828 -0.1392 -0.0105
 8444SOL    HW136965   0.419   1.474   8.622 -0.3793 -1.3877 -0.6340
 8444SOL    HW236966   0.386   1.439   8.765  0.1544 -0.9910 -0.3815
 8445SOL     OW36967   2.157   2.891  17.425  1.0203  0.2819 -0.3854
 8445SOL    HW136968   2.213   2.927  17.494  3.4361 -0.6252 -1.8767
 8445SOL    HW236969   2.175   2.798  17.440 -0.4768 -0.0934 -1.0096
 8446SOL     OW36970   2.192   3.122   7.446  0.0416  0.0782 -0.3643
 8446SOL    HW136971   2.240   3.162   7.374  0.5726 -3.2817 -1.8720
 8446SOL    HW236972   2.261   3.080   7.498  0.4678  1.8516  0.5359
 8447SOL     OW36973   1.009   0.971   8.049 -0.4954  0.0274 -0.7401
 8447SOL    HW136974   0.921   0.996   8.021  1.0319  2.0067 -3.7779
 8447SOL    HW236975   1.040   0.925   7.971  0.0889 -0.2402 -0.3491
 8448SOL     OW36976   0.065   1.352   3.049 -0.2013 -0.1744  0.2193
 8448SOL    HW136977   0.061   1.427   3.107 -0.1990  0.4381 -0.5644
 8448SOL    HW236978   0.072   1.384   2.959  1.9705  0.1920  0.5058
 8449SOL     OW36979   4.526   1.270   5.537  0.6706 -0.3732 -0.2809
 8449SOL    HW136980   4.513   1.289   5.444  0.5448 -0.3016 -0.2486
 8449SOL    HW236981   4.494   1.358   5.557 -0.3284 -0.9263  0.5767
 8450SOL     OW36982   0.786   4.370   7.985 -0.2942  0.8870  0.2022
 8450SOL    HW136983   0.874   4.337   8.000 -0.5084  0.5101  0.6232
 8450SOL    HW236984   0.734   4.311   8.040  1.9050 -0.1666  1.1387
 8451SOL     OW36985   0.188   3.435   7.324 -0.0764  0.2270  0.2107
 8451SOL    HW136986   0.190   3.342   7.304  0.9672  0.2282  0.3284
 8451SOL    HW236987   0.203   3.476   7.239 -0.8544 -2.5774 -1.2660
 8452SOL     OW36988   4.431   3.559   2.748 -0.0035  0.1224 -0.0016
 8452SOL    HW136989   4.459   3.605   2.827  1.5853 -1.4731  0.3770
 8452SOL    HW236990   4.374   3.494   2.787 -1.5476  0.9448 -0.8922
 8453SOL     OW36991   3.132   0.367   3.421 -0.1203 -0.3909  0.7460
 8453SOL    HW136992   3.119   0.362   3.516 -1.4376  2.9900  0.7314
 8453SOL    HW236993   3.140   0.462   3.408  0.4972 -0.3204  1.6270
 8454SOL     OW36994   0.046   0.746   6.398 -0.0804 -0.1519  0.5763
 8454SOL    HW136995   0.115   0.758   6.464 -0.2425  1.0942  0.5232
 8454SOL    HW236996   0.053   0.651   6.395 -0.6557 -0.2239  1.5917
 8455SOL     OW36997   4.560   4.060   4.838 -0.1269 -0.2131 -0.4990
 8455SOL    HW136998   4.466   4.066   4.820 -0.4951 -1.1018  1.1108
 8455SOL    HW236999   4.589   4.093   4.753 -1.2353  0.5419 -0.5967
 8456SOL     OW37000   0.774   3.694   8.121 -0.2263  0.4457 -0.0460
 8456SOL    HW137001   0.744   3.777   8.157  0.7318  1.1025 -0.7530
 8456SOL    HW237002   0.869   3.703   8.121 -0.0727 -1.1823  1.4584
 8457SOL     OW37003   0.533   0.151   8.221  0.4498  0.3015  0.1294
 8457SOL    HW137004   0.556   0.244   8.224 -1.4112  0.7328  0.8918
 8457SOL    HW237005   0.577   0.133   8.304 -3.0345 -2.1418  1.4194
 8458SOL     OW37006   0.619   3.027  15.410  0.2583  0.0243 -0.0166
 8458SOL    HW137007   0.607   2.993  15.321  0.0403  1.6544 -0.6046
 8458SOL    HW237008   0.649   3.114  15.384 -0.2307  0.2345  0.1173
 8459SOL     OW37009   1.092   1.304   5.339  0.4570 -0.1461  0.3691
 8459SOL    HW137010   1.156   1.358   5.293 -2.1796  1.0820 -1.8972
 8459SOL    HW237011   1.130   1.218   5.320 -0.6012 -1.0490  2.3223
 8460SOL     OW37012   0.879   2.833   7.183  0.3984 -0.3821 -0.3815
 8460SOL    HW137013   0.844   2.767   7.243 -2.5121 -1.4699 -3.2409
 8460SOL    HW237014   0.829   2.911   7.207 -1.7855 -1.9775  0.2628
 8461SOL     OW37015   2.323   0.824   5.960 -0.0380  0.0227  0.0205
 8461SOL    HW137016   2.331   0.896   5.898  1.9299 -1.0022 -0.9325
 8461SOL    HW237017   2.305   0.753   5.898 -1.2121  2.9811 -2.9777
 8462SOL     OW37018   3.063   1.836   5.224 -0.7585  0.0532 -0.2817
 8462SOL    HW137019   3.063   1.756   5.171 -0.2823 -0.0086 -0.1958
 8462SOL    HW237020   2.970   1.855   5.226 -0.9330 -0.6971 -1.0126
 8463SOL     OW37021   3.346   2.240   6.452  0.7004 -0.2068 -0.3958
 8463SOL    HW137022   3.357   2.331   6.479  2.7276 -0.8736  0.9589
 8463SOL    HW237023   3.433   2.204   6.467  0.0879 -1.0935  0.9913
 8464SOL     OW37024   3.155   1.736   2.995 -0.1162  0.0300 -0.0170
 8464SOL    HW137025   3.171   1.794   2.921  2.7252 -0.8653 -0.1119
 8464SOL    HW237026   3.227   1.769   3.048 -0.1133 -2.6603  1.6782
 8465SOL     OW37027   3.780   1.956   4.435  0.2852 -0.6035  0.1146
 8465SOL    HW137028   3.757   1.948   4.342 -1.1287 -1.8164  0.5617
 8465SOL    HW237029   3.861   1.906   4.422  1.7648  1.5622  1.0321
 8466SOL     OW37030   3.811   3.432   2.115  0.2300 -0.3091 -0.5593
 8466SOL    HW137031   3.887   3.489   2.110  1.1956 -1.4776  1.0625
 8466SOL    HW237032   3.855   3.372   2.175 -0.9047 -0.9678 -0.3786
 8467SOL     OW37033   1.088   3.864   3.854  0.0718  0.3283  0.2874
 8467SOL    HW137034   1.170   3.891   3.813  0.9365 -0.2611  1.6203
 8467SOL    HW237035   1.108   3.774   3.828 -2.5267  0.1280 -1.0073
 8468SOL     OW37036   1.064   2.651   8.947 -0.1588 -0.2913  0.0377
 8468SOL    HW137037   1.141   2.611   8.907 -0.1327 -0.1941 -0.0114
 8468SOL    HW237038   1.096   2.740   8.962  1.9765 -1.2657  1.2290
 8469SOL     OW37039   4.648   0.806   8.689 -0.2291  0.5067  0.5030
 8469SOL    HW137040   4.662   0.725   8.641  1.2679  1.2400 -0.3172
 8469SOL    HW237041   4.689   0.782   8.772 -1.6929 -0.7052  0.8776
 8470SOL     OW37042   3.418   0.558   3.735  0.1689  0.0072  0.2912
 8470SOL    HW137043   3.454   0.647   3.726  2.0285 -0.5877  1.9366
 8470SOL    HW237044   3.406   0.540   3.642 -0.0712  2.1192 -0.1087
 8471SOL     OW37045   1.484   3.187  13.433  0.0651  0.2954  0.3855
 8471SOL    HW137046   1.513   3.165  13.345 -0.3883  0.0148  0.3088
 8471SOL    HW237047   1.389   3.192  13.424  0.3856  0.8784 -2.5960
 8472SOL     OW37048   0.287   4.147  12.123 -0.1173  0.3035  0.0946
 8472SOL    HW137049   0.361   4.141  12.184 -0.7143 -0.7966  0.7070
 8472SOL    HW237050   0.327   4.182  12.043  0.3162 -0.7895 -0.1563
 8473SOL     OW37051   4.642   1.014  10.903 -0.6380 -0.0007  0.4004
 8473SOL    HW137052   4.728   0.978  10.883 -1.1331 -1.1651  0.3883
 8473SOL    HW237053   4.686   1.070  10.967  1.8905 -3.8155  1.9422
 8474SOL     OW37054   1.795   3.302  17.719  0.5377  0.0852  0.2458
 8474SOL    HW137055   1.816   3.332   0.055  0.3824 -1.1777  0.7037
 8474SOL    HW237056   1.763   3.380  17.673 -0.2976 -0.4757 -0.1233
 8475SOL     OW37057   3.820   2.726   5.793  0.3478 -0.3581 -0.0243
 8475SOL    HW137058   3.757   2.706   5.723 -0.8491  0.9221  0.6732
 8475SOL    HW237059   3.777   2.805   5.826 -0.3499 -1.4181  1.5482
 8476SOL     OW37060   3.157   1.317  14.835  0.1389  0.1337  0.2657
 8476SOL    HW137061   3.133   1.224  14.837 -1.0009  0.4663  2.7413
 8476SOL    HW237062   3.242   1.314  14.793 -0.2378 -0.9100 -0.4294
 8477SOL     OW37063   3.349   2.273   3.681 -0.3083  0.0123  0.1026
 8477SOL    HW137064   3.263   2.232   3.689  0.3002 -1.2393  0.2812
 8477SOL    HW237065   3.327   2.360   3.714 -0.8450 -0.6415  1.4389
 8478SOL     OW37066   1.829   3.103   9.375  0.5526  0.1403 -0.0144
 8478SOL    HW137067   1.830   3.037   9.306 -0.9711  0.5116 -0.4001
 8478SOL    HW237068   1.923   3.112   9.390  1.0050 -3.0573 -0.8930
 8479SOL     OW37069   2.135   4.318  15.315 -0.6144  0.5531  0.6819
 8479SOL    HW137070   2.120   4.296  15.407 -0.1506  1.2939  0.9332
 8479SOL    HW237071   2.087   4.248  15.271  0.4529  0.5593 -0.4659
 8480SOL     OW37072   0.169   0.687   5.518 -0.2009  0.1513 -0.2707
 8480SOL    HW137073   0.264   0.671   5.517  0.1361  2.1726 -0.8560
 8480SOL    HW237074   0.143   0.634   5.442  0.1298  2.0384 -1.7004
 8481SOL     OW37075   2.401   1.973  16.348 -0.0114 -0.3028  0.2585
 8481SOL    HW137076   2.322   1.960  16.401 -0.6511 -0.0495 -0.6456
 8481SOL    HW237077   2.441   2.054  16.381  0.4228  0.9152 -3.3032
 8482SOL     OW37078   0.540   3.777  11.077  0.7646 -0.2580 -0.4535
 8482SOL    HW137079   0.537   3.859  11.028  0.8940  0.1879  0.2800
 8482SOL    HW237080   0.574   3.713  11.015  1.4245 -0.0888 -0.2688
 8483SOL     OW37081   3.100   1.545   5.217  0.2940  0.3042  0.4188
 8483SOL    HW137082   3.194   1.551   5.230  0.2264  2.1877  0.0784
 8483SOL    HW237083   3.071   1.561   5.307  0.2435 -1.9314  0.7902
 8484SOL     OW37084   1.117   1.754   2.165  0.2298  0.4099 -0.5240
 8484SOL    HW137085   1.200   1.757   2.213 -0.4572  0.7525  0.6258
 8484SOL    HW237086   1.077   1.820   2.220 -1.3777 -0.1433 -1.0436
 8485SOL     OW37087   1.646   1.722   0.888 -0.2376  0.5138  0.0172
 8485SOL    HW137088   1.586   1.650   0.909 -1.0945  0.9604 -0.9139
 8485SOL    HW237089   1.715   1.707   0.952  0.3551  3.5151  0.0749
 8486SOL     OW37090   3.284   4.486  11.863  0.3501  0.5415 -0.5148
 8486SOL    HW137091   3.271   4.460  11.772  2.2161  0.0036 -0.6220
 8486SOL    HW237092   3.361   4.437  11.890 -1.4670 -1.3397  1.2441
 8487SOL     OW37093   2.194   2.401   7.275 -0.1445 -0.5267  0.2740
 8487SOL    HW137094   2.100   2.408   7.291 -0.3906  1.0427 -1.7763
 8487SOL    HW237095   2.218   2.407   7.367 -2.4661 -2.4123  0.9962
 8488SOL     OW37096   1.907   2.326   7.844 -0.6821 -0.2948 -0.2746
 8488SOL    HW137097   1.968   2.314   7.771 -0.1385 -1.6089  0.4049
 8488SOL    HW237098   1.829   2.369   7.807 -0.5837  2.2824  2.4925
 8489SOL     OW37099   4.153   0.763   6.906 -0.1063  0.3626  0.2470
 8489SOL    HW137100   4.230   0.820   6.898  1.8630 -2.5093 -1.2200
 8489SOL    HW237101   4.092   0.836   6.917 -1.7516 -1.1653  1.1477
 8490SOL     OW37102   4.224   4.273   2.952 -0.1320 -0.3480  0.0030
 8490SOL    HW137103   4.241   4.299   3.042  1.5135 -0.1741 -0.3643
 8490SOL    HW237104   4.297   4.212   2.942 -0.0752 -0.1086 -1.0600
 8491SOL     OW37105   3.828   0.185   3.010  0.2345 -0.1880 -0.0156
 8491SOL    HW137106   3.866   0.272   3.023  0.2969 -0.4624  1.7253
 8491SOL    HW237107   3.862   0.146   3.090  2.0660  3.3607  0.9340
 8492SOL     OW37108   4.436   2.647   5.870  0.1227  0.0619 -0.2870
 8492SOL    HW137109   4.473   2.710   5.933  1.4246 -1.2983  0.2931
 8492SOL    HW237110   4.449   2.692   5.787  1.2600 -0.3864 -0.3454
 8493SOL     OW37111   3.707   0.276  17.263 -0.7032 -0.1563 -0.1994
 8493SOL    HW137112   3.759   0.347  17.225 -1.5843 -0.0298 -1.1816
 8493SOL    HW237113   3.625   0.322  17.277 -0.5181  0.7974 -2.1798
 8494SOL     OW37114   0.566   0.111   7.524 -0.4660 -0.3444  0.7459
 8494SOL    HW137115   0.516   0.076   7.450  3.2490 -2.4352 -0.7989
 8494SOL    HW237116   0.492   0.106   7.584 -0.9324 -1.4535  0.0763
 8495SOL     OW37117   0.069   4.506   5.743 -0.4162  0.4162  0.6326
 8495SOL    HW137118   0.030   4.508   5.656  1.0525  0.4730 -0.0247
 8495SOL    HW237119   4.732   4.513   5.802  1.1611  1.0652  2.5794
 8496SOL     OW37120   1.906   1.051   4.731 -0.0886  0.0881  0.0030
 8496SOL    HW137121   1.996   1.047   4.697  0.2725  1.0166  0.8540
 8496SOL    HW237122   1.840   1.065   4.664 -0.3989 -4.1044 -0.5889
 8497SOL     OW37123   0.331   1.455   5.987 -0.5107 -0.2792 -0.2719
 8497SOL    HW137124   0.354   1.446   5.894 -0.0685 -0.4031 -0.1498
 8497SOL    HW237125   0.420   1.478   6.015 -1.2184  2.1724 -0.0693
 8498SOL     OW37126   3.447   1.657  15.427  0.2319 -0.3224 -0.2058
 8498SOL    HW137127   3.425   1.720  15.359  0.5309 -1.3825 -1.2914
 8498SOL    HW237128   3.542   1.672  15.430  0.3886 -1.2034 -0.6532
 8499SOL     OW37129   3.108   3.971   6.718 -0.3189 -0.2579 -0.7996
 8499SOL    HW137130   3.152   4.051   6.747  1.1383 -1.7930  1.2167
 8499SOL    HW237131   3.176   3.931   6.662 -0.9387 -1.3622 -0.7557
 8500SOL     OW37132   3.047   0.794   9.120 -0.3223 -0.5723 -0.3804
 8500SOL    HW137133   2.984   0.755   9.180 -1.9498  2.4876 -0.0997
 8500SOL    HW237134   3.010   0.877   9.090 -1.9049 -0.8474  0.8181
 8501SOL     OW37135   1.571   4.100  17.583 -0.0365 -0.3214 -0.4086
 8501SOL    HW137136   1.477   4.120  17.588  0.0166  0.4687 -2.5818
 8501SOL    HW237137   1.603   4.187  17.559 -0.3006 -0.3390 -0.8328
 8502SOL     OW37138   3.655   4.613  12.828  0.4106 -0.2061 -0.1797
 8502SOL    HW137139   3.593   4.560  12.879  2.4962 -0.5026  2.0176
 8502SOL    HW237140   3.632   4.602  12.736 -0.3116  2.1873 -0.2994
 8503SOL     OW37141   3.506   0.036   6.168 -0.0776  0.1515 -0.3406
 8503SOL    HW137142   3.452   4.725   6.229 -0.6277  0.5079 -0.5391
 8503SOL    HW237143   3.512   4.708   6.099 -1.1453  0.4686 -0.7309
 8504SOL     OW37144   4.710   0.068   4.299  0.4977 -0.4573 -0.1118
 8504SOL    HW137145   4.731   0.161   4.294  0.7639 -0.4684  0.8235
 8504SOL    HW237146   0.014   0.039   4.379 -1.6370 -3.7320 -0.1426
 8505SOL     OW37147   0.348   4.716   2.068  0.4568 -0.1346 -0.7563
 8505SOL    HW137148   0.308   4.654   2.008 -0.0443  0.5352 -1.1262
 8505SOL    HW237149   0.270   0.023   2.099 -2.3397 -3.6759 -2.6654
 8506SOL     OW37150   1.536   4.147   6.744  0.3967 -0.5358 -0.3245
 8506SOL    HW137151   1.587   4.228   6.747  0.6850 -0.7406  0.3313
 8506SOL    HW237152   1.459   4.176   6.793  2.5088  1.6060  1.7060
 8507SOL     OW37153   1.652   2.029   4.275 -0.7892  1.0472  0.4892
 8507SOL    HW137154   1.594   2.085   4.325 -2.3139  0.0353 -0.1369
 8507SOL    HW237155   1.580   1.986   4.228  1.9128 -2.4497 -0.4504
 8508SOL     OW37156   2.585   3.528  17.299 -0.3434 -0.4489 -0.0997
 8508SOL    HW137157   2.556   3.475  17.225  0.6237 -1.4060  0.2003
 8508SOL    HW237158   2.521   3.510  17.368 -0.7923 -0.2686 -0.4719
 8509SOL     OW37159   3.740   2.273   4.369  0.2806 -0.4531 -0.0393
 8509SOL    HW137160   3.817   2.294   4.422 -0.2493 -2.0355  1.3675
 8509SOL    HW237161   3.694   2.204   4.417 -0.3085 -0.4204 -0.5665
 8510SOL     OW37162   3.585   4.738   7.364  0.2050 -0.1778 -0.5380
 8510SOL    HW137163   3.574   0.080   7.414 -1.0578 -0.7793  0.1570
 8510SOL    HW237164   3.547   4.682   7.432 -0.5767  0.4299 -0.4741
 8511SOL     OW37165   1.783   1.208   7.829  0.1547  0.1724  0.1347
 8511SOL    HW137166   1.751   1.224   7.740 -1.0985  1.0824  0.7423
 8511SOL    HW237167   1.768   1.289   7.878  0.1756 -0.4814  1.2294
 8512SOL     OW37168   1.245   3.793   8.596 -0.1121 -0.0603  0.3708
 8512SOL    HW137169   1.237   3.767   8.688  2.2115  1.5835  1.0229
 8512SOL    HW237170   1.201   3.719   8.554  0.2959  0.5481 -1.1304
 8513SOL     OW37171   4.661   4.365   6.706 -0.3386 -0.4344  0.2485
 8513SOL    HW137172   4.702   4.405   6.783 -0.3396  0.0268  0.0055
 8513SOL    HW237173   4.572   4.368   6.743  0.0253 -0.2216  1.1049
 8514SOL     OW37174   1.908   0.049   5.464  0.6187  0.5192 -0.6405
 8514SOL    HW137175   1.936   0.007   5.382  1.7080  0.2259 -0.1165
 8514SOL    HW237176   1.815   0.067   5.452  0.3382 -0.3202  0.3223
 8515SOL     OW37177   3.416   0.232   8.747 -1.0929 -0.4213 -0.1750
 8515SOL    HW137178   3.410   0.173   8.822  1.6147 -0.4184  0.0436
 8515SOL    HW237179   3.451   0.163   8.691  0.0050 -0.2076  0.2601
 8516SOL     OW37180   0.942   4.214  13.220 -0.0983  0.1290  1.0967
 8516SOL    HW137181   0.869   4.153  13.211  0.3165 -0.3104  0.6933
 8516SOL    HW237182   1.012   4.150  13.203  2.2619  2.9671  0.0480
 8517SOL     OW37183   3.429   3.026  16.993 -0.7705 -0.6181 -0.1669
 8517SOL    HW137184   3.410   3.088  17.063 -0.4632 -0.5872 -0.1129
 8517SOL    HW237185   3.507   2.973  17.011 -0.7230 -0.2291  0.7279
 8518SOL     OW37186   2.118   4.268   4.000  0.2161 -0.5957  0.2169
 8518SOL    HW137187   2.153   4.346   3.957  0.8325 -1.1796 -0.3556
 8518SOL    HW237188   2.029   4.273   3.964 -1.9993 -2.0228  5.4709
 8519SOL     OW37189   1.335   4.444  14.739 -0.1179 -0.6347 -0.8202
 8519SOL    HW137190   1.277   4.402  14.676 -1.3840  0.6054 -0.4845
 8519SOL    HW237191   1.392   4.491  14.678  1.6524 -1.0402  0.5214
 8520SOL     OW37192   2.955   1.188   2.375 -0.2434  0.3778  0.4638
 8520SOL    HW137193   2.951   1.190   2.471  1.3287 -0.1809  0.5444
 8520SOL    HW237194   3.035   1.236   2.351  0.2912 -1.0168 -0.5160
 8521SOL     OW37195   0.153   2.022  14.130  0.3949  0.2477 -0.0853
 8521SOL    HW137196   0.190   2.003  14.043 -0.2423  1.7863 -0.7057
 8521SOL    HW237197   0.059   2.019  14.115  0.5139 -1.3281 -0.5106
 8522SOL     OW37198   2.663   2.038   5.619 -0.0209 -0.1172  0.2023
 8522SOL    HW137199   2.758   2.034   5.617 -0.0911 -0.7339 -1.9492
 8522SOL    HW237200   2.634   1.994   5.539  0.8482  0.4353 -0.4132
 8523SOL     OW37201   1.164   4.662   3.991 -0.0483  0.1272  0.1669
 8523SOL    HW137202   1.216   4.674   3.912 -1.1101 -2.6762 -1.0002
 8523SOL    HW237203   1.132   4.573   3.974  1.3190 -0.3494  0.0537
 8524SOL     OW37204   4.557   4.733   9.866 -0.2107 -0.1433 -0.0836
 8524SOL    HW137205   4.541   0.086   9.884 -0.5594  0.3482 -2.8632
 8524SOL    HW237206   4.519   4.687   9.941  1.5000  0.4492  1.1252
 8525SOL     OW37207   2.525   1.583  14.033 -0.4212  0.5915  0.2539
 8525SOL    HW137208   2.459   1.532  13.985  0.6768 -3.1535  2.7314
 8525SOL    HW237209   2.472   1.633  14.094  0.3176  0.3510  1.0861
 8526SOL     OW37210   3.006   1.901  15.918  0.3796 -0.1528 -0.1515
 8526SOL    HW137211   2.991   1.918  16.011 -2.1655 -0.9199 -0.4133
 8526SOL    HW237212   2.992   1.982  15.868  0.8903  0.0305  0.0066
 8527SOL     OW37213   2.058   2.099   2.783  0.6413 -0.3140  0.3426
 8527SOL    HW137214   2.098   2.064   2.704  1.0353 -0.3274  0.5503
 8527SOL    HW237215   2.047   2.017   2.831 -1.7557 -0.3815 -0.3334
 8528SOL     OW37216   0.152   4.399   6.534  0.1859  0.0650 -0.4587
 8528SOL    HW137217   0.233   4.394   6.585  0.2298 -2.0358 -0.7408
 8528SOL    HW237218   0.118   4.473   6.584 -1.9626 -1.2876  0.0917
 8529SOL     OW37219   4.718   4.364   5.330 -0.1197  0.6677  0.2349
 8529SOL    HW137220   0.004   4.424   5.401 -2.3818 -1.0700  2.5226
 8529SOL    HW237221   4.712   4.428   5.259 -0.7788 -1.9393 -2.0413
 8530SOL     OW37222   2.621   1.441   6.993 -0.5701  0.2830 -0.8484
 8530SOL    HW137223   2.706   1.469   6.961  0.7466  0.2746  2.6128
 8530SOL    HW237224   2.561   1.415   6.923 -1.0370 -0.5013 -0.1561
 8531SOL     OW37225   1.003   4.373  17.643 -0.2839  0.1095 -0.1965
 8531SOL    HW137226   1.028   4.282  17.625 -1.8336 -0.5167  0.8231
 8531SOL    HW237227   0.976   4.389  17.552 -1.6123  1.7609  0.4930
 8532SOL     OW37228   3.481   2.173  14.963 -0.2916 -0.2849 -0.3277
 8532SOL    HW137229   3.423   2.197  15.035  1.3721 -1.4029  1.3740
 8532SOL    HW237230   3.415   2.146  14.900 -0.6969  3.6158 -1.5535
 8533SOL     OW37231   4.399   0.306   9.047  0.3975  0.1121 -0.4606
 8533SOL    HW137232   4.452   0.287   9.124 -0.7260  0.5111  0.4113
 8533SOL    HW237233   4.368   0.217   9.027  3.8888 -1.9688  3.4800
 8534SOL     OW37234   1.450   2.488   3.043 -0.3884 -0.0965  0.5156
 8534SOL    HW137235   1.508   2.532   3.106 -1.2913  0.9750  0.6057
 8534SOL    HW237236   1.499   2.408   3.024  0.3472  0.9673 -1.9959
 8535SOL     OW37237   4.505   4.539   2.967 -0.2153  0.0817 -0.5211
 8535SOL    HW137238   4.529   4.452   2.935  1.2389 -0.6319  2.4830
 8535SOL    HW237239   4.468   4.515   3.052  2.1163 -1.4801  0.0515
 8536SOL     OW37240   4.722   4.416   4.096  0.2053  0.5698  0.3424
 8536SOL    HW137241   0.020   4.431   4.009  0.8491 -0.4435  0.4527
 8536SOL    HW237242   0.050   4.450   4.155 -0.5906  4.3108 -0.8886
 8537SOL     OW37243   2.602   3.531   3.356  0.2711  0.2975  0.4139
 8537SOL    HW137244   2.657   3.555   3.431  0.0703  1.2497  0.2568
 8537SOL    HW237245   2.651   3.450   3.343 -0.7910 -0.1273 -0.8426
 8538SOL     OW37246   1.420   2.176  17.035 -0.2832  0.1659 -0.2759
 8538SOL    HW137247   1.367   2.096  17.039  0.9157 -0.6451 -0.4188
 8538SOL    HW237248   1.414   2.216  17.121  0.5650 -2.7097  1.1175
 8539SOL     OW37249   1.799   4.150   8.697 -0.1411 -0.3345 -0.3983
 8539SOL    HW137250   1.857   4.166   8.621 -0.3051  1.2367 -0.2021
 8539SOL    HW237251   1.811   4.056   8.708 -1.8604 -0.4815  0.1489
 8540SOL     OW37252   3.954   2.488  15.123  0.3981 -0.1066  0.2532
 8540SOL    HW137253   4.022   2.552  15.145 -1.0928  0.9702  1.7579
 8540SOL    HW237254   4.002   2.406  15.117  1.9995  0.8893 -0.3266
 8541SOL     OW37255   0.236   2.470   4.365  0.0889  0.4295  0.4968
 8541SOL    HW137256   0.254   2.394   4.419 -1.1278  0.2303  0.6023
 8541SOL    HW237257   0.170   2.513   4.420 -0.6468 -0.3594  0.2212
 8542SOL     OW37258   0.102   0.074   9.805 -0.1968  0.1563 -0.0013
 8542SOL    HW137259   0.175   0.097   9.862  0.4756  1.9839 -1.6270
 8542SOL    HW237260   0.023   0.074   9.860  0.6610  0.4909  1.2244
 8543SOL     OW37261   3.998   2.860   9.521  0.3925 -0.3939 -0.3796
 8543SOL    HW137262   4.070   2.798   9.535 -1.4203 -2.5712 -0.7172
 8543SOL    HW237263   3.972   2.846   9.430 -0.7989  0.0513 -0.1020
 8544SOL     OW37264   0.355   3.047  13.407  0.2874 -0.3578  0.3661
 8544SOL    HW137265   0.446   3.078  13.404 -0.3263  1.2579 -2.0655
 8544SOL    HW237266   0.348   2.987  13.333  0.2716 -0.6482  0.6038
 8545SOL     OW37267   2.521   3.397   4.771  0.4999 -0.8199  0.2982
 8545SOL    HW137268   2.576   3.342   4.827  0.8584 -0.2501  0.4968
 8545SOL    HW237269   2.449   3.428   4.826  2.5978  2.5422  1.1268
 8546SOL     OW37270   3.268   1.209   1.228 -0.3822 -0.1822  0.1428
 8546SOL    HW137271   3.222   1.263   1.293 -0.4523 -1.4778  1.1696
 8546SOL    HW237272   3.274   1.129   1.280  0.6669 -0.0662  0.1909
 8547SOL     OW37273   2.752   0.318   7.979  0.0436  0.5916 -1.0604
 8547SOL    HW137274   2.784   0.408   7.984 -0.7323  0.8038  0.0495
 8547SOL    HW237275   2.832   0.269   7.958 -1.6698 -3.2979  1.5429
 8548SOL     OW37276   3.284   1.417   5.559  0.7545  0.1900  0.1696
 8548SOL    HW137277   3.217   1.479   5.533  0.5062  0.4947  1.5341
 8548SOL    HW237278   3.278   1.418   5.655  1.4572 -2.1401  0.2391
 8549SOL     OW37279   1.227   0.409   5.046 -0.2522 -0.4836  0.1836
 8549SOL    HW137280   1.275   0.397   4.965  1.2459 -0.0059  0.9872
 8549SOL    HW237281   1.140   0.384   5.015 -0.9437  3.5615 -1.1874
 8550SOL     OW37282   0.539   1.226   8.582  0.1984 -0.0413 -0.0322
 8550SOL    HW137283   0.568   1.257   8.668 -3.0358 -2.1727  1.8297
 8550SOL    HW237284   0.508   1.139   8.608  1.3693 -0.2447  0.7232
 8551SOL     OW37285   0.853   0.349   3.760  0.2001  0.4280  0.0418
 8551SOL    HW137286   0.940   0.309   3.766 -0.7492 -1.2984  2.1008
 8551SOL    HW237287   0.800   0.283   3.804 -0.8604 -0.3318 -2.3413
 8552SOL     OW37288   0.558   3.285   4.022 -0.0612 -0.3244 -0.1162
 8552SOL    HW137289   0.512   3.326   3.949 -1.7588 -0.2813  0.9769
 8552SOL    HW237290   0.589   3.362   4.070 -0.2312 -0.3813  0.0835
 8553SOL     OW37291   0.551   2.248   7.045 -0.1339 -0.3324  0.4325
 8553SOL    HW137292   0.464   2.216   7.068 -1.3746  3.0869  0.3576
 8553SOL    HW237293   0.573   2.184   6.977  0.6061  0.6760 -0.2867
 8554SOL     OW37294   1.591   3.929  15.099 -0.4153  0.0115  0.2334
 8554SOL    HW137295   1.604   4.002  15.160  0.0888  2.3385 -2.6337
 8554SOL    HW237296   1.654   3.876  15.148  0.2261  0.6612  0.1162
 8555SOL     OW37297   0.750   1.200   5.980  0.0823  0.1373 -0.5033
 8555SOL    HW137298   0.679   1.191   6.044 -1.2160  0.5579 -1.8679
 8555SOL    HW237299   0.690   1.230   5.912  0.6017 -1.2827 -1.5903
 8556SOL     OW37300   0.142   4.390   9.251 -0.3063  0.0690 -0.3624
 8556SOL    HW137301   0.192   4.449   9.306  0.5691 -0.3157 -0.7499
 8556SOL    HW237302   0.167   4.305   9.287 -2.8114 -0.2084  0.7402
 8557SOL     OW37303   1.746   0.700   1.977 -0.1846  0.0081  0.0457
 8557SOL    HW137304   1.798   0.681   1.899  0.2617  1.9306 -0.1205
 8557SOL    HW237305   1.820   0.705   2.039 -0.3851  1.8466  0.1377
 8558SOL     OW37306   2.536   2.199  16.408  0.2570  0.5357 -0.4560
 8558SOL    HW137307   2.463   2.259  16.422  1.2990  2.3659 -2.7615
 8558SOL    HW237308   2.594   2.259  16.361  2.4307  0.2598  1.8578
 8559SOL     OW37309   0.891   1.542   2.450 -0.0823  0.3479 -0.0439
 8559SOL    HW137310   0.891   1.460   2.499 -0.9844  0.9435  0.9392
 8559SOL    HW237311   0.984   1.564   2.446 -0.0543  0.2135 -0.1668
 8560SOL     OW37312   0.058   1.393   8.598  0.4291 -0.1320 -0.0566
 8560SOL    HW137313   0.105   1.361   8.521 -1.3139  1.9878 -1.9942
 8560SOL    HW237314   0.136   1.418   8.648 -1.8435  2.8547  2.0358
 8561SOL     OW37315   2.802   3.594   3.150  0.4979  0.3635 -0.2297
 8561SOL    HW137316   2.759   3.534   3.211  1.7054  0.6118  0.8800
 8561SOL    HW237317   2.886   3.595   3.196  0.0578 -0.3554  0.5862
 8562SOL     OW37318   1.381   4.656   3.009  0.4408  0.4078 -0.4736
 8562SOL    HW137319   1.363   4.594   2.939  0.3652  0.6197 -0.6416
 8562SOL    HW237320   1.290   4.682   3.023  0.3092 -0.4278  0.2075
 8563SOL     OW37321   4.221   3.850   2.704  0.6131 -0.6692 -0.3736
 8563SOL    HW137322   4.133   3.883   2.686 -0.0926 -2.4412 -0.1333
 8563SOL    HW237323   4.243   3.832   2.613 -0.6192  1.0132 -1.0138
 8564SOL     OW37324   3.367   1.541   5.222 -0.0516  0.1220 -0.2569
 8564SOL    HW137325   3.372   1.468   5.161  1.7427  0.3708 -0.4043
 8564SOL    HW237326   3.461   1.556   5.236 -0.1978  0.2638  0.6075
 8565SOL     OW37327   2.011   1.326  14.834 -0.0023 -0.2173  0.1042
 8565SOL    HW137328   2.086   1.279  14.797 -0.0923  0.9798 -1.6058
 8565SOL    HW237329   2.023   1.306  14.926 -1.0256 -1.0593  0.0582
 8566SOL     OW37330   3.179   4.121   9.097 -0.1580 -0.4519 -0.2483
 8566SOL    HW137331   3.177   4.034   9.137  0.1299 -0.5027 -0.3392
 8566SOL    HW237332   3.084   4.120   9.084 -0.3585  0.6211  1.2634
 8567SOL     OW37333   1.433   3.470   8.495  0.3834  0.2093 -0.0462
 8567SOL    HW137334   1.350   3.469   8.543  1.0861  1.7669  1.1932
 8567SOL    HW237335   1.420   3.388   8.446  1.9678 -0.1377  0.1012
 8568SOL     OW37336   2.907   3.926   8.567  0.2710 -0.0248  0.3792
 8568SOL    HW137337   2.877   3.843   8.605  1.8920 -1.2732 -1.0810
 8568SOL    HW237338   2.956   3.898   8.490 -3.2352  0.1249 -1.9073
 8569SOL     OW37339   3.249   2.763   7.374  0.3865 -0.6481 -0.4393
 8569SOL    HW137340   3.208   2.849   7.380  3.2148  0.6973 -0.6999
 8569SOL    HW237341   3.338   2.789   7.396 -0.2396  1.0654  0.0720
 8570SOL     OW37342   2.498   1.191   9.971 -0.1088  0.2386  0.6619
 8570SOL    HW137343   2.489   1.235   9.887  1.8034  3.1394  1.9640
 8570SOL    HW237344   2.593   1.193   9.982 -0.1566 -2.4718  1.5629
 8571SOL     OW37345   4.018   0.638   6.162  0.0093 -0.4032 -0.2168
 8571SOL    HW137346   3.999   0.730   6.179  1.0993  0.1158 -1.7940
 8571SOL    HW237347   3.954   0.621   6.093 -1.1535  1.3751  0.4246
 8572SOL     OW37348   1.771   1.739   1.304 -0.2163 -0.3300 -0.2041
 8572SOL    HW137349   1.678   1.715   1.301 -0.2785  0.2509 -3.3573
 8572SOL    HW237350   1.803   1.682   1.373 -0.8823 -1.6334 -0.9594
 8573SOL     OW37351   1.866   3.046   4.130 -0.3458  0.2385  0.4488
 8573SOL    HW137352   1.792   2.990   4.151 -1.8130  1.5971 -1.1650
 8573SOL    HW237353   1.829   3.133   4.143  0.8171  0.5692  1.6669
 8574SOL     OW37354   0.521   2.578   6.381 -0.2653  0.4838 -0.0756
 8574SOL    HW137355   0.468   2.540   6.450 -0.7697 -0.4532 -0.9783
 8574SOL    HW237356   0.486   2.666   6.366 -0.0956  0.5591 -0.0346
 8575SOL     OW37357   1.107   1.503   5.686  0.0149 -0.0003 -0.4158
 8575SOL    HW137358   1.143   1.570   5.628  0.6365 -0.2289 -0.2899
 8575SOL    HW237359   1.128   1.545   5.770 -3.4195 -1.4099  1.1235
 8576SOL     OW37360   2.580   3.180  14.137  0.7300 -0.0150  0.6312
 8576SOL    HW137361   2.628   3.263  14.140 -0.3891  0.6560  0.0760
 8576SOL    HW237362   2.641   3.126  14.187 -0.0996  0.0672  1.7634
 8577SOL     OW37363   4.592   2.018   8.464  0.1070  0.0375  1.1114
 8577SOL    HW137364   4.571   2.107   8.493  0.6224  1.0617 -1.5583
 8577SOL    HW237365   4.678   2.000   8.502  0.7399  2.7199  0.9833
 8578SOL     OW37366   0.885   2.953   6.429  0.0163 -0.6747 -0.2506
 8578SOL    HW137367   0.835   2.891   6.376 -0.4297 -0.9721  0.5160
 8578SOL    HW237368   0.957   2.896   6.456  0.6192  0.0155 -0.4071
 8579SOL     OW37369   1.863   3.852  12.704 -0.1585 -0.0135  0.0538
 8579SOL    HW137370   1.905   3.778  12.659  0.4242  0.1876  0.2691
 8579SOL    HW237371   1.936   3.913  12.713  0.7269 -1.2606  1.3100
 8580SOL     OW37372   0.629   4.605   8.014  0.0754 -0.1964 -0.0156
 8580SOL    HW137373   0.706   4.635   8.063  0.2419  0.7604 -0.8722
 8580SOL    HW237374   0.663   4.521   7.983 -1.2848 -0.5112 -0.6493
 8581SOL     OW37375   1.990   1.561   2.787  0.0980  0.5444 -0.3406
 8581SOL    HW137376   1.993   1.581   2.694  0.5552 -0.9510 -0.6434
 8581SOL    HW237377   1.906   1.514   2.789 -0.3547  1.3567 -0.4156
 8582SOL     OW37378   2.213   1.778   9.258  0.3661  0.3313  0.1601
 8582SOL    HW137379   2.259   1.697   9.275  0.0686  0.3932  1.2414
 8582SOL    HW237380   2.216   1.807   9.349  2.1439  0.3498  0.0855
 8583SOL     OW37381   2.413   1.808   6.221  0.3807 -0.4718  0.7712
 8583SOL    HW137382   2.339   1.752   6.200  0.4365  0.2924 -1.4620
 8583SOL    HW237383   2.460   1.808   6.138  0.5682 -0.8943  0.8812
 8584SOL     OW37384   4.261   3.625   6.212  0.8038  0.0966  0.4828
 8584SOL    HW137385   4.192   3.672   6.165 -1.7636 -2.4315  1.7350
 8584SOL    HW237386   4.335   3.664   6.166  1.0832  1.4099  2.0487
 8585SOL     OW37387   1.864   3.863   3.142  0.1419  0.2984  0.0631
 8585SOL    HW137388   1.942   3.823   3.180 -0.3774  1.6902  2.5817
 8585SOL    HW237389   1.863   3.809   3.063  0.5544  1.0698 -0.4714
 8586SOL     OW37390   1.814   2.768   7.815  0.1455 -0.4700 -0.3749
 8586SOL    HW137391   1.817   2.702   7.883 -0.1180  0.3474  0.4394
 8586SOL    HW237392   1.787   2.847   7.862  1.0642 -0.1028 -0.4714
 8587SOL     OW37393   3.664   1.562   8.912  0.5675  0.0987  0.1581
 8587SOL    HW137394   3.589   1.620   8.926 -0.8622 -1.4648 -0.9182
 8587SOL    HW237395   3.732   1.627   8.896 -0.3812  0.7337 -1.2481
 8588SOL     OW37396   4.332   0.123   1.394 -0.0471 -0.5508  0.2040
 8588SOL    HW137397   4.358   0.031   1.386  2.8728  0.3019 -0.1978
 8588SOL    HW237398   4.416   0.169   1.384  0.1321 -0.8149  0.5076
 8589SOL     OW37399   2.520   2.153   3.504 -0.1904  0.6394  0.1257
 8589SOL    HW137400   2.610   2.134   3.478  0.5186  2.1668  1.4418
 8589SOL    HW237401   2.538   2.226   3.564 -1.0123  0.4819  0.5605
 8590SOL     OW37402   2.715   3.687  17.056  0.1853 -0.3624  0.0644
 8590SOL    HW137403   2.653   3.709  16.987 -1.0118  0.8847  1.5656
 8590SOL    HW237404   2.695   3.593  17.063 -3.8483  0.6271  1.6114
 8591SOL     OW37405   1.648   0.041   8.780 -0.3599  0.5062  0.3280
 8591SOL    HW137406   1.562   0.058   8.818 -1.0685  1.3733 -1.6221
 8591SOL    HW237407   1.699   0.104   8.830 -0.8917 -1.7902  3.7413
 8592SOL     OW37408   0.974   3.731  15.424 -0.3439  0.2961 -0.4859
 8592SOL    HW137409   1.044   3.794  15.404  0.4674 -0.5591 -0.3488
 8592SOL    HW237410   1.031   3.669  15.469 -0.4823 -1.3929 -2.6411
 8593SOL     OW37411   0.466   2.891   5.720  0.1332  0.1605 -0.3511
 8593SOL    HW137412   0.399   2.925   5.660 -1.5189 -2.5100 -0.0020
 8593SOL    HW237413   0.541   2.943   5.692 -1.8360  1.9721 -2.2940
 8594SOL     OW37414   1.146   1.082  12.188  0.2273 -0.2001 -0.1893
 8594SOL    HW137415   1.211   1.014  12.168  0.9059  0.7390 -1.1686
 8594SOL    HW237416   1.137   1.079  12.283 -0.0623  0.6823 -0.1928
 8595SOL     OW37417   0.839   2.133  11.807 -0.0177 -0.1895 -0.1864
 8595SOL    HW137418   0.933   2.118  11.817  0.0667  1.0019  0.9407
 8595SOL    HW237419   0.817   2.103  11.895 -1.2913  0.4021 -0.3071
 8596SOL     OW37420   1.895   3.144   7.734  0.2839  0.4160 -0.2407
 8596SOL    HW137421   1.808   3.132   7.771  0.2821  0.0551 -0.3594
 8596SOL    HW237422   1.881   3.134   7.640  1.2949  0.6041 -0.4151
 8597SOL     OW37423   4.289   1.530   4.738 -0.5822  0.4900 -0.3857
 8597SOL    HW137424   4.224   1.598   4.758 -0.1698  0.3070  1.6396
 8597SOL    HW237425   4.266   1.459   4.799 -1.3686 -0.2959 -1.5739
 8598SOL     OW37426   3.179   4.279   5.124  0.5161 -0.3791  0.7694
 8598SOL    HW137427   3.234   4.331   5.183  0.4893 -0.3153  0.7377
 8598SOL    HW237428   3.161   4.346   5.058 -0.3354 -0.8721  0.4932
 8599SOL     OW37429   1.865   2.229   7.510 -0.6916 -0.4011 -0.2515
 8599SOL    HW137430   1.817   2.288   7.451  1.1950 -0.7232 -2.1006
 8599SOL    HW237431   1.835   2.145   7.474  1.9038 -1.2178 -0.4611
 8600SOL     OW37432   1.354   0.341   3.820 -0.1737  0.5645  0.2026
 8600SOL    HW137433   1.431   0.359   3.765  0.2663 -0.2948  0.5452
 8600SOL    HW237434   1.329   0.433   3.833  0.7081  0.8511 -0.0849
 8601SOL     OW37435   1.325   4.196   4.406  0.4008 -0.3063  1.0034
 8601SOL    HW137436   1.298   4.214   4.496  2.8488  1.5415  1.3809
 8601SOL    HW237437   1.259   4.245   4.358  1.5110 -0.1562 -0.3775
 8602SOL     OW37438   1.970   3.748   7.413 -0.0535 -0.6220 -0.1026
 8602SOL    HW137439   2.016   3.764   7.331  1.1475  1.3957  0.9515
 8602SOL    HW237440   1.897   3.807   7.397  0.5504  0.2992  0.5032
 8603SOL     OW37441   2.710   0.897   5.112  0.3253 -0.5384  0.3698
 8603SOL    HW137442   2.802   0.906   5.088  0.0862  1.8602  0.3763
 8603SOL    HW237443   2.680   0.900   5.021  0.1474 -2.0003  0.3673
 8604SOL     OW37444   0.024   2.871  10.308 -0.5105 -0.0393 -0.2385
 8604SOL    HW137445   0.099   2.929  10.294 -0.7397  0.6513  1.3903
 8604SOL    HW237446   0.055   2.799  10.362 -1.1466 -0.5610 -0.5678
 8605SOL     OW37447   0.957   4.016   1.688  0.2356 -0.5330  0.2608
 8605SOL    HW137448   0.962   3.976   1.601 -1.3002  1.5163 -0.7557
 8605SOL    HW237449   0.870   3.996   1.721  0.5088 -1.4545  0.4410
 8606SOL     OW37450   1.468   2.013   6.925 -0.1288 -0.2217  0.1843
 8606SOL    HW137451   1.432   1.998   7.013  1.5666 -0.1862  0.8749
 8606SOL    HW237452   1.547   2.058   6.954 -0.9294  1.1156  0.3145
 8607SOL     OW37453   0.355   3.334   8.042  0.4200  0.3880 -0.6174
 8607SOL    HW137454   0.421   3.378   8.096 -0.0396 -1.1417  1.2002
 8607SOL    HW237455   0.411   3.326   7.965  0.8002  0.2067 -0.3230
 8608SOL     OW37456   1.333   4.153  11.735  0.3497 -0.3824  0.2685
 8608SOL    HW137457   1.348   4.237  11.692 -2.0880 -2.3537 -4.3943
 8608SOL    HW237458   1.383   4.086  11.689  0.5054 -0.7810  1.0126
 8609SOL     OW37459   3.369   4.051  14.467  0.0338  0.1807  0.1963
 8609SOL    HW137460   3.422   3.987  14.417  0.1205  0.0040  0.5133
 8609SOL    HW237461   3.393   4.031  14.558 -2.1712 -0.7632  0.5606
 8610SOL     OW37462   0.328   3.541  17.187  0.2723  0.1766  0.1024
 8610SOL    HW137463   0.411   3.588  17.183 -0.2470  1.1352  0.6312
 8610SOL    HW237464   0.266   3.613  17.201 -0.4030 -0.3775 -0.0707
 8611SOL     OW37465   1.653   0.627   7.681  0.0231  0.2433 -0.4293
 8611SOL    HW137466   1.618   0.552   7.729 -2.7024  0.1643 -2.5347
 8611SOL    HW237467   1.603   0.686   7.738 -1.3363 -1.9006  0.6333
 8612SOL     OW37468   1.049   3.774   8.217 -0.2536  0.2724 -0.1236
 8612SOL    HW137469   1.051   3.870   8.214  3.4180  0.1153 -2.4274
 8612SOL    HW237470   1.106   3.756   8.142 -0.9412  1.3326 -0.9008
 8613SOL     OW37471   2.079   4.377  13.349 -0.5696 -0.4759 -0.2192
 8613SOL    HW137472   2.141   4.426  13.295 -1.1152  0.5172  0.0720
 8613SOL    HW237473   2.081   4.288  13.312  1.0909 -0.4601 -0.1500
 8614SOL     OW37474   2.830   3.259   5.663 -0.2570  0.3447  0.1693
 8614SOL    HW137475   2.799   3.173   5.690 -0.6945 -0.1848 -2.0826
 8614SOL    HW237476   2.758   3.316   5.689 -0.6802  0.0535 -0.3821
 8615SOL     OW37477   3.080   1.450   0.683  0.6622  0.0395 -0.5730
 8615SOL    HW137478   3.087   1.443   0.588 -2.0938  1.9668 -0.9215
 8615SOL    HW237479   3.095   1.359   0.707 -0.9932  0.1325  0.9106
 8616SOL     OW37480   3.070   2.640   6.392  0.1796  0.2478 -0.0463
 8616SOL    HW137481   2.979   2.663   6.373 -0.2560 -1.5092 -0.0925
 8616SOL    HW237482   3.099   2.583   6.321 -0.0187 -0.4946  0.4572
 8617SOL     OW37483   1.720   1.883  11.258  0.4466  0.3767  0.2959
 8617SOL    HW137484   1.698   1.798  11.294  0.9052 -0.7722 -2.1115
 8617SOL    HW237485   1.809   1.866  11.225 -0.4480 -1.3877 -1.1782
 8618SOL     OW37486   1.378   3.040   2.079  0.2375 -0.1496  0.0986
 8618SOL    HW137487   1.316   2.981   2.121  2.4804 -2.0986  0.7015
 8618SOL    HW237488   1.460   3.019   2.126  0.5127 -0.4859 -0.5269
 8619SOL     OW37489   0.328   2.733  15.245  0.6487  0.0111  0.3010
 8619SOL    HW137490   0.395   2.732  15.313  0.0874  0.5059  0.8600
 8619SOL    HW237491   0.349   2.654  15.195 -0.6404 -1.2320  1.7275
 8620SOL     OW37492   2.058   3.823   8.708 -0.0288 -0.1757  0.2957
 8620SOL    HW137493   2.016   3.754   8.758 -0.2220  0.3685  0.8866
 8620SOL    HW237494   2.109   3.874   8.771 -0.3750  1.1213 -0.4643
 8621SOL     OW37495   3.994   3.831  13.690 -0.1723 -0.3632 -0.1927
 8621SOL    HW137496   3.946   3.914  13.691  1.8107  0.8030 -1.4659
 8621SOL    HW237497   4.071   3.860  13.642 -0.7264  1.8419  0.2643
 8622SOL     OW37498   2.623   4.269   0.097 -0.0964 -0.4143  0.6225
 8622SOL    HW137499   2.607   4.342   0.156 -0.1881 -1.5684  2.0223
 8622SOL    HW237500   2.559   4.301   0.033  0.2230 -2.4644 -0.7157
 8623SOL     OW37501   3.048   1.383   4.032  0.4239 -0.3941 -0.0811
 8623SOL    HW137502   3.046   1.290   4.010  3.4454 -0.6403  0.5900
 8623SOL    HW237503   2.981   1.402   3.967 -1.1060 -0.4060  1.4901
 8624SOL     OW37504   1.977   1.551  15.975 -0.6583  0.1564 -0.3502
 8624SOL    HW137505   1.917   1.598  15.917  1.2551 -0.5630 -2.9521
 8624SOL    HW237506   2.031   1.625  16.005 -0.1397  0.6853 -2.5590
 8625SOL     OW37507   1.614   0.655  13.660  0.0269 -0.1529  0.4137
 8625SOL    HW137508   1.585   0.738  13.620 -0.9717  0.4175  2.3591
 8625SOL    HW237509   1.647   0.693  13.741  1.1233  1.9681 -1.0148
 8626SOL     OW37510   4.012   2.121   3.581 -0.2189 -0.1135  0.3727
 8626SOL    HW137511   4.067   2.171   3.641 -1.8595  2.8189 -0.5610
 8626SOL    HW237512   3.961   2.088   3.655 -1.4556 -3.0002 -1.7457
 8627SOL     OW37513   1.530   1.462  15.251 -0.1398 -0.7199  0.2132
 8627SOL    HW137514   1.531   1.540  15.306  2.4068 -1.1871  0.8017
 8627SOL    HW237515   1.621   1.434  15.258 -0.0579 -0.0011  1.9823
 8628SOL     OW37516   1.930   4.471  16.496  0.3679 -0.2601 -0.0276
 8628SOL    HW137517   1.841   4.473  16.532  1.1785 -0.9722  1.9430
 8628SOL    HW237518   1.928   4.447  16.403  0.8580 -1.8714  0.3947
 8629SOL     OW37519   0.796   0.091   5.457 -0.0602  0.2535  0.2815
 8629SOL    HW137520   0.859   0.026   5.488  0.4223  1.2266  1.3593
 8629SOL    HW237521   0.738   0.113   5.529 -0.8511  0.0161 -0.2839
 8630SOL     OW37522   1.907   0.500   6.484  0.0120 -0.1676  0.0776
 8630SOL    HW137523   1.937   0.416   6.450  1.0126  0.2802 -0.1397
 8630SOL    HW237524   1.931   0.563   6.416  1.2867  0.5237  1.1508
 8631SOL     OW37525   0.488   1.096   7.135  0.1301  0.2170  0.0435
 8631SOL    HW137526   0.516   1.135   7.218  3.0529 -1.5322 -0.1154
 8631SOL    HW237527   0.393   1.092   7.146 -0.0403 -0.6486 -1.8238
 8632SOL     OW37528   1.439   4.300  15.480 -0.4584 -0.0590 -0.0368
 8632SOL    HW137529   1.413   4.355  15.407 -0.4601  1.0957  0.8227
 8632SOL    HW237530   1.352   4.278  15.514 -1.4685 -0.4580 -2.9629
 8633SOL     OW37531   0.808   3.925  10.210 -0.3094 -0.9802 -0.1069
 8633SOL    HW137532   0.803   4.005  10.158 -0.0177 -0.9206 -0.0435
 8633SOL    HW237533   0.902   3.911  10.200 -0.2889 -0.2688 -0.8911
 8634SOL     OW37534   1.289   1.280   7.946 -0.4450 -0.4064 -0.2112
 8634SOL    HW137535   1.301   1.217   8.016 -1.2747  0.8925  1.1047
 8634SOL    HW237536   1.369   1.332   7.937  0.4347 -1.7475 -0.1045
 8635SOL     OW37537   2.498   0.669   5.143 -0.2170  0.0804  0.0027
 8635SOL    HW137538   2.436   0.660   5.070  0.4100  0.3225 -0.5684
 8635SOL    HW237539   2.518   0.761   5.163  0.7242 -0.2047  0.3789
 8636SOL     OW37540   2.467   3.984   6.302 -0.1436  0.5132  0.5552
 8636SOL    HW137541   2.466   3.999   6.396  2.2637  1.9521  0.3567
 8636SOL    HW237542   2.400   3.917   6.288 -1.7763  2.1792  0.3616
 8637SOL     OW37543   4.082   1.544   2.414 -0.0139  0.0072  0.3851
 8637SOL    HW137544   4.113   1.625   2.455  1.5132 -1.1100  1.4146
 8637SOL    HW237545   3.990   1.550   2.439 -0.1782 -0.3100 -0.1489
 8638SOL     OW37546   1.094   0.051   7.386 -0.3063 -0.2350 -0.6481
 8638SOL    HW137547   1.145   0.016   7.313  0.9569 -1.7640  0.9806
 8638SOL    HW237548   1.106   4.733   7.462  1.2428 -0.6772 -1.2200
 8639SOL     OW37549   3.057   2.371   5.792 -0.2004  0.4072  0.1359
 8639SOL    HW137550   3.039   2.342   5.703  0.5419 -1.1809  0.4960
 8639SOL    HW237551   3.043   2.464   5.779  1.0142  0.2656 -2.0424
 8640SOL     OW37552   4.412   3.891   3.100 -0.2774  0.5286  0.3499
 8640SOL    HW137553   4.399   3.806   3.141 -1.9712  1.2244  1.2350
 8640SOL    HW237554   4.493   3.915   3.145 -0.1474 -1.1110  0.9956
 8641SOL     OW37555   4.545   1.786   3.923  0.0673  0.0958  0.8046
 8641SOL    HW137556   4.591   1.865   3.951  2.1237 -1.2635  1.2476
 8641SOL    HW237557   4.473   1.783   3.985  1.3264 -1.5012  2.1815
 8642SOL     OW37558   0.374   1.173  10.758  0.4850  0.0801  0.4749
 8642SOL    HW137559   0.343   1.083  10.768  0.5319 -0.0664 -0.7564
 8642SOL    HW237560   0.469   1.172  10.767  0.5460 -1.8666 -0.3251
 8643SOL     OW37561   1.372   0.660  17.202 -0.1448 -0.0371  0.0274
 8643SOL    HW137562   1.348   0.748  17.174  1.8810  1.4239  2.8212
 8643SOL    HW237563   1.325   0.603  17.142 -0.0406 -0.1391  0.0425
 8644SOL     OW37564   0.813   3.431   5.924 -0.2656 -0.0617  0.5727
 8644SOL    HW137565   0.746   3.492   5.954  0.2207  0.7774 -0.0316
 8644SOL    HW237566   0.757   3.362   5.890  0.2962 -1.4945  2.5300
 8645SOL     OW37567   1.363   0.804   4.369 -0.1797  0.1701 -0.0691
 8645SOL    HW137568   1.416   0.733   4.332 -0.0630  1.2562 -2.0020
 8645SOL    HW237569   1.370   0.856   4.289 -0.9634  2.3847  1.3056
 8646SOL     OW37570   0.321   3.273   4.233  0.5924  0.6707  0.7000
 8646SOL    HW137571   0.361   3.289   4.319 -1.6808  3.2953  1.2996
 8646SOL    HW237572   0.381   3.208   4.197  1.5818  1.4052  1.0216
 8647SOL     OW37573   4.407   4.162  11.375  1.2719 -0.2254 -0.0736
 8647SOL    HW137574   4.475   4.189  11.314  1.6104 -1.1128 -0.0857
 8647SOL    HW237575   4.347   4.141  11.303 -2.2854  2.3631  2.1348
 8648SOL     OW37576   3.488   2.028   7.140 -0.1390  0.0235 -0.2382
 8648SOL    HW137577   3.405   2.071   7.161 -0.0743 -1.7656  3.7923
 8648SOL    HW237578   3.546   2.102   7.162  0.7915 -0.1242 -2.1997
 8649SOL     OW37579   2.061   2.903   4.246  0.1021  0.2125 -0.2768
 8649SOL    HW137580   2.008   2.969   4.203  1.5054  1.0832 -0.6568
 8649SOL    HW237581   1.994   2.856   4.296  0.0379 -0.9741 -1.4726
 8650SOL     OW37582   0.790   0.772   6.819 -0.3270  0.0437 -0.3213
 8650SOL    HW137583   0.739   0.691   6.818  0.7854 -0.6731  1.0037
 8650SOL    HW237584   0.732   0.815   6.882 -0.5578 -0.8663  0.0835
 8651SOL     OW37585   0.133   2.965  15.735 -0.2630  0.8008 -0.0577
 8651SOL    HW137586   0.225   2.950  15.758 -0.1041  0.3654 -0.9864
 8651SOL    HW237587   0.085   2.882  15.741 -0.9616  1.1523 -0.8840
 8652SOL     OW37588   1.943   1.603  17.675 -0.2552 -0.2277  0.7424
 8652SOL    HW137589   1.969   1.692  17.652 -1.1671 -0.8143 -2.6165
 8652SOL    HW237590   1.879   1.587  17.606 -0.7850 -0.1221  1.2146
 8653SOL     OW37591   3.400   0.458   7.067 -0.3083  0.2466 -0.1553
 8653SOL    HW137592   3.487   0.483   7.034  0.4709 -1.3655  0.6770
 8653SOL    HW237593   3.382   0.382   7.012  0.6697 -2.1263  2.8122
 8654SOL     OW37594   1.411   3.601   2.090  0.1179  0.2417  0.1752
 8654SOL    HW137595   1.499   3.572   2.112  0.7872  1.9601 -0.2558
 8654SOL    HW237596   1.406   3.694   2.113  2.0388  0.4742 -0.4083
 8655SOL     OW37597   0.058   2.255   3.657 -0.6058  0.1487 -0.3351
 8655SOL    HW137598   0.000   2.328   3.633  1.1589  2.7607  3.4685
 8655SOL    HW237599   0.019   2.192   3.596 -2.8661  3.5734 -2.5011
 8656SOL     OW37600   3.869   0.336   2.345  0.2816 -0.1250 -0.0035
 8656SOL    HW137601   3.821   0.296   2.273 -1.2616  1.1500  0.3112
 8656SOL    HW237602   3.806   0.331   2.417  0.0476 -0.9931 -0.2647
 8657SOL     OW37603   0.162   2.844   4.513  0.6708 -0.5638  0.9777
 8657SOL    HW137604   0.247   2.862   4.471 -0.6392  1.2777 -0.9022
 8657SOL    HW237605   0.144   2.753   4.490  0.6841 -0.2951 -0.1046
 8658SOL     OW37606   4.710   1.714   8.041 -0.3233  0.0320  0.3518
 8658SOL    HW137607   0.029   1.658   7.988  0.9843  0.6507  1.1125
 8658SOL    HW237608   4.628   1.664   8.042  0.8724 -1.9805 -2.0773
 8659SOL     OW37609   3.711   4.157   2.329  0.4362 -0.1557  0.0852
 8659SOL    HW137610   3.803   4.173   2.305  0.6187  0.1092  0.9425
 8659SOL    HW237611   3.712   4.163   2.424  0.9012  0.2956  0.0571
 8660SOL     OW37612   0.009   1.707   7.416 -0.3024  0.1645  0.7628
 8660SOL    HW137613   4.709   1.659   7.489 -0.0607  1.9834  2.0722
 8660SOL    HW237614   0.018   1.790   7.463 -2.7140  1.6277 -1.3217
 8661SOL     OW37615   4.573   0.110   8.734 -0.8354 -0.0073 -0.0297
 8661SOL    HW137616   4.664   0.122   8.763 -0.6435 -1.9205  0.1708
 8661SOL    HW237617   4.550   0.035   8.789 -0.2297 -1.1554 -1.3479
 8662SOL     OW37618   2.481   2.262   8.231 -0.2240 -0.4777 -0.1616
 8662SOL    HW137619   2.490   2.186   8.174 -1.2558 -0.9076  0.2521
 8662SOL    HW237620   2.387   2.276   8.220 -0.2366 -0.6279 -0.2450
 8663SOL     OW37621   4.046   4.149   3.150 -0.0794  0.0621 -0.4215
 8663SOL    HW137622   4.057   4.158   3.055  0.5409  1.7140 -0.1851
 8663SOL    HW237623   4.075   4.057   3.150 -1.7231 -0.4615  1.4677
 8664SOL     OW37624   3.242   0.015   3.186  0.1125  0.2460 -0.4969
 8664SOL    HW137625   3.304   0.072   3.141 -0.7985  1.6816  0.0850
 8664SOL    HW237626   3.167   0.005   3.127  0.7957 -0.7239 -1.2118
 8665SOL     OW37627   1.118   0.116  16.742 -0.0195  0.4290  0.3419
 8665SOL    HW137628   1.050   0.102  16.808  0.7457 -2.0371  0.6063
 8665SOL    HW237629   1.076   0.171  16.675  0.2995 -1.2988 -1.2700
 8666SOL     OW37630   0.897   3.978   3.634  0.6678 -0.2575 -0.5186
 8666SOL    HW137631   0.849   3.896   3.650 -1.6044  1.3795  1.2030
 8666SOL    HW237632   0.985   3.955   3.662  1.2221  1.4852 -0.8449
 8667SOL     OW37633   1.405   1.951   3.012  0.4183  0.4191 -0.1523
 8667SOL    HW137634   1.374   2.008   3.082  2.0636  0.1767  0.7779
 8667SOL    HW237635   1.327   1.899   2.994  0.3844  0.8016 -1.0804
 8668SOL     OW37636   3.884   1.621   3.307 -0.1405 -0.6423  0.0193
 8668SOL    HW137637   3.816   1.630   3.373  0.6587  0.0721  0.7546
 8668SOL    HW237638   3.904   1.713   3.292  1.1813 -0.8209  0.6704
 8669SOL     OW37639   1.136   0.456   4.173 -0.0329  0.7391 -0.0514
 8669SOL    HW137640   1.107   0.365   4.182  0.4170  0.5087 -0.8406
 8669SOL    HW237641   1.086   0.491   4.099  0.3899 -1.1171 -1.2358
 8670SOL     OW37642   0.925   0.351   6.748 -0.4685  0.1714 -0.1257
 8670SOL    HW137643   0.937   0.446   6.747  1.0529 -0.0263 -0.8108
 8670SOL    HW237644   0.875   0.342   6.667  2.0730 -0.2964 -1.6390
 8671SOL     OW37645   0.841   0.758   2.565  0.5267 -0.6624  0.2229
 8671SOL    HW137646   0.805   0.832   2.614 -0.1258 -1.0185  0.2768
 8671SOL    HW237647   0.763   0.706   2.547  1.3865 -1.4568 -1.1887
 8672SOL     OW37648   4.090   3.183   8.891  0.6080  0.0414 -0.6239
 8672SOL    HW137649   4.092   3.135   8.974  0.4014 -0.6625 -1.0252
 8672SOL    HW237650   4.109   3.267   8.933 -0.6673 -0.6265  1.3396
 8673SOL     OW37651   3.816   1.457   7.158 -0.4269 -0.0361  0.1893
 8673SOL    HW137652   3.870   1.535   7.153 -2.2090  1.2375  0.6525
 8673SOL    HW237653   3.788   1.465   7.249  0.5808 -0.7324  0.5544
 8674SOL     OW37654   1.272   3.226   5.746 -0.1392  0.1754 -0.1055
 8674SOL    HW137655   1.348   3.277   5.718  0.0369 -0.3328 -0.5628
 8674SOL    HW237656   1.203   3.291   5.739 -2.8819 -2.9531 -2.0865
 8675SOL     OW37657   2.431   3.474  11.525 -0.3479  0.2881 -0.3655
 8675SOL    HW137658   2.349   3.521  11.539 -0.6666  0.6933 -3.6021
 8675SOL    HW237659   2.497   3.542  11.512 -1.2956  1.7295  2.5398
 8676SOL     OW37660   4.162   0.957   3.541 -0.2126  0.0440 -0.0750
 8676SOL    HW137661   4.206   0.925   3.620 -0.4899  1.5012  0.6812
 8676SOL    HW237662   4.233   0.978   3.480  0.1095  0.3347  0.3980
 8677SOL     OW37663   4.045   4.492   4.518 -0.2537 -0.5270 -0.4746
 8677SOL    HW137664   3.951   4.472   4.513 -1.0501  4.1189 -3.5457
 8677SOL    HW237665   4.063   4.482   4.425  1.1375  1.9192 -0.4660
 8678SOL     OW37666   2.869   3.424   7.262 -0.0144  0.2047 -0.3741
 8678SOL    HW137667   2.887   3.366   7.188  2.0435 -1.1319  1.1660
 8678SOL    HW237668   2.925   3.500   7.244  1.0554 -1.0370 -2.3296
 8679SOL     OW37669   2.623   1.834   3.858 -0.5811 -0.6467  0.0496
 8679SOL    HW137670   2.695   1.817   3.918  0.9387  0.8046 -1.3671
 8679SOL    HW237671   2.599   1.745   3.832 -0.8614 -0.7063  0.5019
 8680SOL     OW37672   2.637   3.437  15.405  0.2647  0.0304  0.0108
 8680SOL    HW137673   2.601   3.518  15.439  1.6085 -0.1087  1.7360
 8680SOL    HW237674   2.613   3.384  15.481  1.0091 -0.7130 -0.2708
 8681SOL     OW37675   0.147   4.524  13.648 -0.6789  0.0615  0.0224
 8681SOL    HW137676   0.241   4.509  13.636 -0.4551  2.3950 -1.1345
 8681SOL    HW237677   0.158   4.523  13.743  1.9692 -0.6879 -0.2866
 8682SOL     OW37678   2.798   1.937   1.316  0.3635 -0.2789  0.3632
 8682SOL    HW137679   2.871   1.875   1.319 -0.3090 -0.8823  3.8067
 8682SOL    HW237680   2.763   1.942   1.227  0.3730  0.3374  0.3954
 8683SOL     OW37681   4.488   4.735   0.534  0.5645  0.1480  0.1371
 8683SOL    HW137682   4.417   0.011   0.472  0.0911 -2.6511  0.0317
 8683SOL    HW237683   4.449   0.033   0.614 -2.7069 -1.6228 -0.6569
 8684SOL     OW37684   1.201   1.701   4.190  0.3789  0.6337 -0.5739
 8684SOL    HW137685   1.168   1.663   4.272  1.8375 -0.6973 -0.6133
 8684SOL    HW237686   1.119   1.726   4.147 -1.9727 -1.1047  2.8287
 8685SOL     OW37687   4.020   1.240  11.411 -0.0552  0.5936 -0.1732
 8685SOL    HW137688   4.070   1.168  11.450  0.9214  2.0038  1.1528
 8685SOL    HW237689   4.074   1.317  11.395  1.5834 -1.4061 -4.4034
 8686SOL     OW37690   1.095   4.474   3.102  0.7157 -0.5084 -0.4153
 8686SOL    HW137691   1.172   4.442   3.150  0.4308  1.1322  1.0908
 8686SOL    HW237692   1.078   4.399   3.045 -1.0540 -0.7840  0.4980
 8687SOL     OW37693   1.595   1.026   4.225  0.6457  0.6024 -0.2596
 8687SOL    HW137694   1.684   0.993   4.234  1.0325  1.6520 -0.3316
 8687SOL    HW237695   1.609   1.081   4.148  0.5479  0.2297 -0.5440
 8688SOL     OW37696   1.456   3.950   4.458 -0.5045  0.0946  0.2520
 8688SOL    HW137697   1.435   3.955   4.551 -0.3623  0.0628  0.2847
 8688SOL    HW237698   1.415   4.035   4.439  0.2923  1.0285  2.7894
 8689SOL     OW37699   4.308   4.256   3.368 -0.5060  0.7133 -0.1732
 8689SOL    HW137700   4.274   4.167   3.375 -0.4723  0.7454  0.4315
 8689SOL    HW237701   4.241   4.310   3.409 -1.4305 -1.2907  0.9667
 8690SOL     OW37702   2.221   1.894   3.001 -0.2798 -0.3976 -0.0507
 8690SOL    HW137703   2.173   1.874   2.921  1.1110 -0.1187 -0.9441
 8690SOL    HW237704   2.151   1.866   3.060 -0.6456  2.9917  1.1668
 8691SOL     OW37705   3.521   1.625   9.858  0.0117 -0.2759  0.2667
 8691SOL    HW137706   3.581   1.699   9.849  0.3211 -0.4146  1.2082
 8691SOL    HW237707   3.518   1.601   9.765  0.9521  2.2795 -0.4119
 8692SOL     OW37708   3.455   4.264   3.541 -1.0254 -0.1068  0.1502
 8692SOL    HW137709   3.548   4.272   3.521 -1.9649 -0.3969 -4.1628
 8692SOL    HW237710   3.421   4.295   3.457  1.8934 -0.5951 -1.2107
 8693SOL     OW37711   4.311   1.029   9.018 -0.4980  0.1196  0.3073
 8693SOL    HW137712   4.380   1.001   9.078 -2.0613  2.5022  3.2233
 8693SOL    HW237713   4.354   1.035   8.933 -0.3301 -0.5206  0.3479
 8694SOL     OW37714   4.565   1.140  13.354  0.2166  0.6541 -0.4530
 8694SOL    HW137715   4.588   1.208  13.290  1.6244 -0.4193 -1.0826
 8694SOL    HW237716   4.528   1.188  13.429  2.7554  2.9649 -0.6876
 8695SOL     OW37717   2.312   3.050   3.619 -0.2038  0.1217 -0.3615
 8695SOL    HW137718   2.351   3.125   3.663  1.8315 -1.7390  1.0182
 8695SOL    HW237719   2.370   2.985   3.657  0.1753  0.1825 -0.8384
 8696SOL     OW37720   4.559   0.355  15.996 -0.0166  0.6218  0.0572
 8696SOL    HW137721   4.590   0.276  15.951 -0.2406  0.4709  0.1700
 8696SOL    HW237722   4.467   0.353  15.970  0.4997 -0.6950 -1.6855
 8697SOL     OW37723   3.046   3.233   1.453 -0.4513  0.2466 -1.2695
 8697SOL    HW137724   3.071   3.163   1.392  0.1701 -0.0876 -0.6327
 8697SOL    HW237725   2.975   3.284   1.415 -1.1121  0.2198 -0.0755
 8698SOL     OW37726   3.531   4.711   8.686 -0.1152 -0.3245  0.3234
 8698SOL    HW137727   3.522   4.723   8.780  0.3864 -2.2861  0.6316
 8698SOL    HW237728   3.615   4.666   8.677 -0.0627 -0.3272  0.8332
 8699SOL     OW37729   1.440   2.425   1.386 -0.7912 -0.5200  0.3057
 8699SOL    HW137730   1.505   2.363   1.350  0.1649  1.1430 -0.8381
 8699SOL    HW237731   1.377   2.446   1.317 -1.6858 -1.2427  0.9000
 8700SOL     OW37732   2.012   1.469   6.381  0.2153  0.4095 -0.3508
 8700SOL    HW137733   1.929   1.459   6.333  0.3473 -0.5440 -0.3730
 8700SOL    HW237734   2.030   1.383   6.419 -2.4889  0.2597  0.5970
 8701SOL     OW37735   0.449   0.093   6.036 -0.3040  0.1392  0.1641
 8701SOL    HW137736   0.463   0.013   5.986  0.9609  0.0882  0.5978
 8701SOL    HW237737   0.537   0.127   6.017  0.0328 -0.2305  1.0908
 8702SOL     OW37738   1.560   4.198   5.980  0.6852 -0.3445 -0.4098
 8702SOL    HW137739   1.576   4.125   5.920 -1.3430 -1.0155 -0.1347
 8702SOL    HW237740   1.521   4.165   6.061 -0.9798  1.9391 -0.2986
 8703SOL     OW37741   3.556   4.706   9.708 -0.1809  0.1799 -0.1892
 8703SOL    HW137742   3.510   4.633   9.748  1.3894  0.3844  2.0077
 8703SOL    HW237743   3.490   0.031   9.680  0.5393  1.4892  1.0978
 8704SOL     OW37744   3.556   4.596   5.756  0.1431 -0.1627  0.4941
 8704SOL    HW137745   3.529   4.530   5.819  2.0413 -1.9750 -0.5769
 8704SOL    HW237746   3.614   4.547   5.697 -1.2868 -1.5676  0.2397
 8705SOL     OW37747   1.417   2.074   5.591  0.9017  0.0220  0.1240
 8705SOL    HW137748   1.466   2.099   5.669 -1.8049 -1.9542  2.4547
 8705SOL    HW237749   1.479   2.116   5.531  1.0080 -1.2912 -0.6791
 8706SOL     OW37750   4.181   2.160   4.921  0.0919  0.1566  0.3372
 8706SOL    HW137751   4.165   2.097   4.850  0.9422  1.9073 -1.3922
 8706SOL    HW237752   4.174   2.240   4.870  1.1130  0.4163  0.6108
 8707SOL     OW37753   3.026   0.876   5.275 -0.2479  0.1959  0.2343
 8707SOL    HW137754   3.022   0.966   5.308  1.4557 -0.8069  3.1359
 8707SOL    HW237755   3.014   0.884   5.180  0.3942  0.7173  0.2043
 8708SOL     OW37756   1.337   1.159   5.525  0.0372 -0.1941 -0.3224
 8708SOL    HW137757   1.268   1.142   5.461  0.7901  1.0490 -1.4706
 8708SOL    HW237758   1.365   1.244   5.493  2.8809 -0.8870  0.3312
 8709SOL     OW37759   3.964   4.700   2.167  0.2708 -0.2743 -0.4141
 8709SOL    HW137760   3.977   4.608   2.187 -1.3395 -0.3069  0.5144
 8709SOL    HW237761   3.956   4.708   2.071  1.7689 -0.2107 -0.5218
 8710SOL     OW37762   0.669   0.875   6.340  0.5209 -0.3353 -0.2578
 8710SOL    HW137763   0.724   0.914   6.408  1.8110 -2.2805 -0.1913
 8710SOL    HW237764   0.647   0.791   6.380  0.8548  0.9247  2.5903
 8711SOL     OW37765   4.428   4.639   1.773  0.3399 -0.0180  0.4606
 8711SOL    HW137766   4.383   4.610   1.693 -0.6255  0.4317  0.8328
 8711SOL    HW237767   4.352   4.628   1.831  2.1190 -1.6595  2.4609
 8712SOL     OW37768   2.426   0.414   4.540 -0.3446 -0.1824 -0.7102
 8712SOL    HW137769   2.450   0.327   4.507  0.4505 -0.1115 -0.3389
 8712SOL    HW237770   2.353   0.439   4.484 -1.0935  1.0324  0.8261
 8713SOL     OW37771   4.475   2.826   7.646  0.3873  0.1098  0.0840
 8713SOL    HW137772   4.515   2.876   7.575  1.3202 -0.2455  0.3636
 8713SOL    HW237773   4.535   2.759   7.677  2.0182  1.0952 -0.9232
 8714SOL     OW37774   0.516   2.877  11.671 -0.1095  0.3847  0.1282
 8714SOL    HW137775   0.591   2.937  11.674  2.0709 -2.4096  0.8240
 8714SOL    HW237776   0.453   2.925  11.725 -0.5391 -2.6951  2.3170
 8715SOL     OW37777   3.453   0.305   1.867  0.3432  0.2470  0.3635
 8715SOL    HW137778   3.540   0.300   1.908  0.0269 -2.8984  0.6621
 8715SOL    HW237779   3.475   0.263   1.783 -2.4937 -0.9923  0.2438
 8716SOL     OW37780   3.244   0.624   9.709  0.7139 -0.8580  0.0781
 8716SOL    HW137781   3.228   0.699   9.767  3.0842  0.2258 -0.6825
 8716SOL    HW237782   3.184   0.632   9.635  0.4807 -1.6620  0.1871
 8717SOL     OW37783   3.872   1.248   2.354 -0.3367  0.5618  0.2947
 8717SOL    HW137784   3.966   1.228   2.346 -0.6150 -0.9595  0.7528
 8717SOL    HW237785   3.838   1.169   2.395  0.9119 -1.1222 -1.8933
 8718SOL     OW37786   2.805   2.381   3.825 -0.5989 -0.2779 -0.0127
 8718SOL    HW137787   2.722   2.428   3.814 -1.3335 -1.1449  1.7416
 8718SOL    HW237788   2.779   2.292   3.801  0.9067 -1.3144  2.1693
 8719SOL     OW37789   3.359   0.864   6.101  0.3762 -0.4780 -0.3218
 8719SOL    HW137790   3.317   0.823   6.026 -0.7105  2.9570 -1.5767
 8719SOL    HW237791   3.431   0.801   6.108  0.4696 -0.3144  0.2274
 8720SOL     OW37792   3.702   0.553   2.181  0.3189  0.6157  0.0921
 8720SOL    HW137793   3.754   0.600   2.246  0.4885  0.4146  0.1015
 8720SOL    HW237794   3.616   0.577   2.215 -0.4891 -2.0803 -0.0184
 8721SOL     OW37795   0.070   0.555  15.797 -0.9781 -0.2208  0.3029
 8721SOL    HW137796   0.013   0.601  15.859 -0.0037 -1.6867  2.2749
 8721SOL    HW237797   0.023   0.478  15.766 -1.3978 -0.0283  0.4559
 8722SOL     OW37798   3.344   1.926  15.924  0.6902  0.0978  0.0448
 8722SOL    HW137799   3.293   2.005  15.909  0.7992  0.0957 -0.3437
 8722SOL    HW237800   3.305   1.861  15.865 -0.1614 -0.7114  1.4794
 8723SOL     OW37801   2.358   0.515  13.773  0.0438 -0.0325 -0.0574
 8723SOL    HW137802   2.316   0.473  13.848 -0.8653 -0.6088 -0.8693
 8723SOL    HW237803   2.419   0.575  13.814  0.9451 -1.0214  0.0590
 8724SOL     OW37804   3.393   3.471   3.606 -0.1393 -0.4346 -0.4380
 8724SOL    HW137805   3.427   3.523   3.678 -0.7233 -0.8985  0.1765
 8724SOL    HW237806   3.442   3.508   3.533  1.9221 -2.5341 -0.1218
 8725SOL     OW37807   1.592   4.116   5.690 -0.3574 -0.5157  0.0687
 8725SOL    HW137808   1.668   4.121   5.749 -0.2354 -0.3158 -0.1041
 8725SOL    HW237809   1.589   4.020   5.688  1.6146 -0.5824  0.5098
 8726SOL     OW37810   0.163   0.725   8.124  0.4134 -0.0089 -0.4269
 8726SOL    HW137811   0.201   0.708   8.211  1.0065 -1.2685 -0.9272
 8726SOL    HW237812   0.126   0.811   8.146  0.5923  0.0604 -0.3930
 8727SOL     OW37813   4.281   1.307   9.826  0.0841  0.4606  0.2338
 8727SOL    HW137814   4.360   1.343   9.866 -2.0075  1.9906  2.9564
 8727SOL    HW237815   4.216   1.373   9.849  0.6676  0.5505  1.6535
 8728SOL     OW37816   1.599   1.699   6.233 -0.3815 -0.1062 -0.3138
 8728SOL    HW137817   1.542   1.662   6.166 -1.5838  0.9779  0.1035
 8728SOL    HW237818   1.680   1.715   6.184  1.3857 -0.0329  2.6161
 8729SOL     OW37819   0.099   2.798   6.836  0.5204 -0.0507  0.2167
 8729SOL    HW137820   0.064   2.852   6.907  2.8945  0.8453  0.7174
 8729SOL    HW237821   0.193   2.812   6.852  0.2610 -0.7760  2.3851
 8730SOL     OW37822   1.080   4.730   3.054  0.0895  0.0194  0.2507
 8730SOL    HW137823   1.041   4.728   2.967  3.4800 -2.0059 -1.2081
 8730SOL    HW237824   1.070   4.637   3.072  0.7188 -0.0511  0.2549
 8731SOL     OW37825   2.376   2.851   3.198  0.0733  0.6059  0.5812
 8731SOL    HW137826   2.395   2.764   3.235 -3.7199 -1.3207 -1.9525
 8731SOL    HW237827   2.445   2.863   3.132 -2.2202  1.0107 -1.7301
 8732SOL     OW37828   2.826   2.954   8.548  0.0040 -0.2901  0.9536
 8732SOL    HW137829   2.786   2.877   8.507 -0.1601  0.1537  0.2742
 8732SOL    HW237830   2.835   3.012   8.473  0.6228  0.7955  1.8704
 8733SOL     OW37831   2.588   0.608   5.449  0.0475  0.0661 -0.2239
 8733SOL    HW137832   2.519   0.673   5.459  0.0244  0.1533 -0.9389
 8733SOL    HW237833   2.669   0.658   5.438  0.1044  0.3891  1.7639
 8734SOL     OW37834   3.538   1.064   3.135  0.5707 -0.1440 -0.1358
 8734SOL    HW137835   3.493   1.087   3.054  1.8124 -0.7974 -1.0112
 8734SOL    HW237836   3.632   1.071   3.117  0.6690  0.9489  0.8066
 8735SOL     OW37837   1.727   3.623  11.779 -0.1571 -0.3297  0.0123
 8735SOL    HW137838   1.702   3.548  11.833  0.9685  0.0021  0.9859
 8735SOL    HW237839   1.680   3.688  11.832  1.5394  2.9040 -2.4223
 8736SOL     OW37840   2.943   0.217  11.129 -0.4578 -0.1476  0.5663
 8736SOL    HW137841   2.933   0.174  11.044  0.6775 -0.3264  0.5247
 8736SOL    HW237842   2.896   0.159  11.189  0.8172 -0.4684  1.2673
 8737SOL     OW37843   2.315   0.562   1.067 -0.0379  0.2079  0.1786
 8737SOL    HW137844   2.394   0.607   1.036  1.7392  0.0967  4.5123
 8737SOL    HW237845   2.311   0.487   1.008 -2.3372  0.2376  0.2934
 8738SOL     OW37846   0.995   0.405   4.506 -0.0589 -0.1323  0.3879
 8738SOL    HW137847   0.962   0.355   4.431 -2.2134 -0.0765  1.2837
 8738SOL    HW237848   0.931   0.388   4.575 -1.3181  3.0141  0.0492
 8739SOL     OW37849   2.887   0.545  14.590 -0.0452 -0.2955  0.4672
 8739SOL    HW137850   2.881   0.556  14.684  0.4345 -0.1198  0.4738
 8739SOL    HW237851   2.823   0.481  14.557  1.9951 -2.0485 -0.0809
 8740SOL     OW37852   2.902   1.032  12.868 -0.4045 -0.3011 -0.2303
 8740SOL    HW137853   2.901   0.980  12.948 -0.2106  0.8138  0.4940
 8740SOL    HW237854   2.834   1.096  12.893 -1.6236 -1.4439 -0.6337
 8741SOL     OW37855   0.780   2.951  15.607  0.7994  0.2692  0.5018
 8741SOL    HW137856   0.736   2.882  15.658  0.6072  1.2704  1.7033
 8741SOL    HW237857   0.717   2.962  15.536  0.4609 -1.1051  0.5924
 8742SOL     OW37858   3.619   3.989   6.787 -0.4427 -0.1937 -0.2446
 8742SOL    HW137859   3.667   3.937   6.723 -0.2944 -1.1860  0.6738
 8742SOL    HW237860   3.630   4.077   6.751 -1.7117 -0.2423 -0.7286
 8743SOL     OW37861   1.812   4.700   4.571  0.2883 -0.2328 -0.7867
 8743SOL    HW137862   1.888   0.020   4.570  1.0593 -1.2410 -1.0155
 8743SOL    HW237863   1.849   4.637   4.632 -0.2997  0.9138  0.7426
 8744SOL     OW37864   0.638   2.400   8.022 -1.0695 -0.0727 -0.1243
 8744SOL    HW137865   0.662   2.307   8.015  1.0068  0.4508  0.0227
 8744SOL    HW237866   0.726   2.437   8.010 -0.3091 -1.7735  0.1485
 8745SOL     OW37867   2.646   2.254   9.286 -0.0060  0.4406 -0.3100
 8745SOL    HW137868   2.558   2.217   9.287 -0.0832  0.5836 -2.1121
 8745SOL    HW237869   2.646   2.296   9.200  2.9455  3.5060  1.1800
 8746SOL     OW37870   1.714   3.284   3.040  0.1359 -0.1988 -0.0759
 8746SOL    HW137871   1.794   3.257   3.085 -0.2802  3.1609  2.7112
 8746SOL    HW237872   1.750   3.341   2.973  1.2895 -1.9060 -0.8844
 8747SOL     OW37873   0.059   0.466  14.978 -0.0436  0.0518 -0.0025
 8747SOL    HW137874   0.005   0.390  14.956  1.1868 -1.5040  2.2870
 8747SOL    HW237875   0.086   0.435  15.065  0.0954  3.0181  0.9964
 8748SOL     OW37876   1.375   0.788  11.185 -0.0588  0.0247 -0.5519
 8748SOL    HW137877   1.463   0.773  11.150 -0.1094  0.2270 -0.7667
 8748SOL    HW237878   1.388   0.846  11.260  2.2897 -1.7471  0.4103
 8749SOL     OW37879   1.291   2.616   2.188 -0.4083  0.1630 -0.2521
 8749SOL    HW137880   1.369   2.561   2.190 -1.1054 -0.7925  0.6181
 8749SOL    HW237881   1.304   2.663   2.270  0.9862 -1.6910  0.5823
 8750SOL     OW37882   0.504   3.790   1.787  0.5028  0.2341 -0.0047
 8750SOL    HW137883   0.521   3.710   1.837 -0.4507 -0.7635 -1.2603
 8750SOL    HW237884   0.421   3.822   1.825 -0.4395 -1.6862 -0.4409
 8751SOL     OW37885   2.352   1.436  16.281 -0.3661  0.1407 -0.4687
 8751SOL    HW137886   2.385   1.524  16.302  1.5690 -0.8830  0.7363
 8751SOL    HW237887   2.438   1.394  16.272 -0.2154  0.0090  1.6402
 8752SOL     OW37888   1.198   1.183   9.082  0.0554 -0.1149 -0.4723
 8752SOL    HW137889   1.232   1.111   9.136 -0.4598 -0.7093 -0.9464
 8752SOL    HW237890   1.226   1.258   9.135  1.6181  0.1623 -1.7056
 8753SOL     OW37891   2.869   2.739   0.912 -0.7672  0.3540  0.1391
 8753SOL    HW137892   2.893   2.647   0.925 -1.1504  0.3228  0.5937
 8753SOL    HW237893   2.887   2.769   1.001 -0.0104  0.1805  0.0444
 8754SOL     OW37894   0.259   0.973   5.989 -0.3760 -0.2824  0.3067
 8754SOL    HW137895   0.174   0.930   5.980  0.5645 -2.3684  1.4052
 8754SOL    HW237896   0.288   0.954   6.079  2.4090  0.7654 -0.3640
 8755SOL     OW37897   0.300   2.510   2.577  0.1612 -0.0003 -0.6645
 8755SOL    HW137898   0.322   2.530   2.668 -1.4677  0.4772 -0.3866
 8755SOL    HW237899   0.356   2.432   2.570 -1.2042 -1.0363 -0.0751
 8756SOL     OW37900   3.987   3.774   9.038 -0.0885 -0.1144  0.4263
 8756SOL    HW137901   3.985   3.771   9.134 -0.2958  0.7295  0.4483
 8756SOL    HW237902   3.926   3.704   9.015 -1.7119  1.4334  0.0648
 8757SOL     OW37903   4.595   3.993   2.250  0.3467 -0.4636 -0.0948
 8757SOL    HW137904   4.644   3.925   2.296  0.9076 -0.1619 -0.2329
 8757SOL    HW237905   4.589   4.060   2.318 -0.0163 -1.9698  1.3621
 8758SOL     OW37906   0.316   4.586   0.267 -0.3423  0.7035  0.8715
 8758SOL    HW137907   0.223   4.606   0.253 -0.4697  0.3197  1.1446
 8758SOL    HW237908   0.315   4.495   0.237  3.4935  0.2772  1.9927
 8759SOL     OW37909   3.764   3.490   8.575 -0.4140 -0.2288 -0.4241
 8759SOL    HW137910   3.718   3.419   8.528  0.6382 -1.4880  0.4427
 8759SOL    HW237911   3.833   3.446   8.623 -0.5576 -0.2031 -0.1946
 8760SOL     OW37912   4.628   2.711   8.085  0.3933  0.1562 -0.7267
 8760SOL    HW137913   4.723   2.719   8.069  0.3733  0.3879 -0.7405
 8760SOL    HW237914   4.600   2.752   8.003 -0.8380  1.7399  0.4927
 8761SOL     OW37915   3.963   4.048   4.505  0.1462 -0.5373  0.4293
 8761SOL    HW137916   3.985   3.959   4.533  0.8692 -0.5039 -0.0128
 8761SOL    HW237917   4.050   4.080   4.481 -1.2893  0.6033 -3.2585
 8762SOL     OW37918   1.748   4.676  16.579  0.0204  0.5943  0.1762
 8762SOL    HW137919   1.696   4.653  16.502  1.7925 -1.0828 -0.5110
 8762SOL    HW237920   1.827   4.718  16.546  0.1307 -0.8196 -1.3394
 8763SOL     OW37921   0.818   2.395   3.690 -0.9298  0.1676 -0.2187
 8763SOL    HW137922   0.855   2.482   3.676 -1.9783  0.5348 -0.6881
 8763SOL    HW237923   0.803   2.365   3.601 -1.3957 -0.9834  0.2444
 8764SOL     OW37924   3.112   3.197   1.726 -0.9715 -0.4488  0.7358
 8764SOL    HW137925   3.168   3.271   1.701 -1.7377  0.6526  2.2691
 8764SOL    HW237926   3.086   3.173   1.637 -0.4624  0.9570  0.1924
 8765SOL     OW37927   3.141   3.786   8.868 -0.1360  0.4787 -0.2988
 8765SOL    HW137928   3.212   3.741   8.823 -1.9392 -2.0382 -0.6494
 8765SOL    HW237929   3.065   3.745   8.826 -0.6762  0.8923  0.2733
 8766SOL     OW37930   0.414   3.799   4.107 -0.3216  0.4109 -0.3169
 8766SOL    HW137931   0.363   3.722   4.082  2.2761 -1.0064 -1.3045
 8766SOL    HW237932   0.353   3.866   4.078 -0.3630 -0.2352 -1.6896
 8767SOL     OW37933   3.720   2.539  10.417  0.2947 -0.0735  0.4338
 8767SOL    HW137934   3.799   2.494  10.447  0.9141  0.5109 -0.3186
 8767SOL    HW237935   3.669   2.471  10.372 -1.9063  1.5377  0.5036
 8768SOL     OW37936   1.612   3.687  13.867  0.0675  0.2236  0.1835
 8768SOL    HW137937   1.635   3.645  13.950 -0.7829 -0.9756 -0.1841
 8768SOL    HW237938   1.667   3.765  13.871 -0.8325  0.9555 -1.5886
 8769SOL     OW37939   2.970   1.498   8.909  0.0340  0.0926 -0.5134
 8769SOL    HW137940   2.928   1.578   8.940  1.3298  0.3354  0.6010
 8769SOL    HW237941   3.063   1.510   8.924  0.2747 -0.7153 -1.3236
 8770SOL     OW37942   2.983   0.221  16.743 -0.0028 -0.0291  0.0426
 8770SOL    HW137943   2.895   0.189  16.762  1.3880 -0.8894  5.0478
 8770SOL    HW237944   3.029   0.171  16.811 -0.4579 -0.8974 -0.2904
 8771SOL     OW37945   1.134   4.546   6.584 -0.1184 -0.3236  0.1074
 8771SOL    HW137946   1.157   4.462   6.542  1.9631  0.4293 -0.2722
 8771SOL    HW237947   1.113   4.504   6.667 -0.6199  0.7995  0.5442
 8772SOL     OW37948   0.535   4.263   9.983 -0.2776  0.2850  0.1371
 8772SOL    HW137949   0.541   4.261   9.887 -1.6351 -1.1845  0.0808
 8772SOL    HW237950   0.620   4.228  10.010 -1.5839 -2.3634  0.8295
 8773SOL     OW37951   2.267   1.721  10.540  0.2194  0.6151  0.5535
 8773SOL    HW137952   2.315   1.693  10.619  0.6666  1.9377  0.7501
 8773SOL    HW237953   2.180   1.682  10.549  1.1754 -1.5047  0.6032
 8774SOL     OW37954   3.911   2.601  14.883  0.0345 -0.3426  0.1521
 8774SOL    HW137955   3.943   2.521  14.841  0.0752 -0.7853  1.0361
 8774SOL    HW237956   3.911   2.571  14.973  1.2957  1.6676  0.8239
 8775SOL     OW37957   4.480   1.215  13.722 -0.0992 -0.2119  0.2646
 8775SOL    HW137958   4.408   1.275  13.741 -0.3035 -0.2966 -0.2423
 8775SOL    HW237959   4.521   1.228  13.807 -0.8299 -0.8991  0.7226
 8776SOL     OW37960   1.032   3.135   0.542  0.4277  0.0483  1.0519
 8776SOL    HW137961   1.101   3.196   0.567 -0.4502  1.4985 -0.0750
 8776SOL    HW237962   1.074   3.089   0.468  0.0660  1.0989  0.1921
 8777SOL     OW37963   0.512   2.664   4.159  0.3411  0.4731 -0.0800
 8777SOL    HW137964   0.542   2.708   4.239  2.0182  0.6847 -0.8360
 8777SOL    HW237965   0.592   2.637   4.115 -0.1683  0.4366 -0.9770
 8778SOL     OW37966   0.637   1.096   3.795  0.1943  0.2075 -0.2732
 8778SOL    HW137967   0.732   1.106   3.788  0.1574  0.4278 -0.4784
 8778SOL    HW237968   0.584   1.104   3.716  0.2828  1.0648 -0.2533
 8779SOL     OW37969   4.367   4.646  17.488 -0.2693 -0.1841 -0.2348
 8779SOL    HW137970   4.407   4.652  17.574  1.2690 -0.5838 -0.9132
 8779SOL    HW237971   4.281   4.680  17.511 -0.1113 -0.3861  0.6641
 8780SOL     OW37972   2.868   1.469   3.848  0.5584 -0.1557 -0.1662
 8780SOL    HW137973   2.920   1.535   3.803 -3.3520  2.2702 -1.2160
 8780SOL    HW237974   2.793   1.521   3.878  0.0999  0.4553 -2.3520
 8781SOL     OW37975   2.990   4.264   2.286 -0.0429 -0.1679  0.0567
 8781SOL    HW137976   3.002   4.348   2.330  0.7048 -1.1518  1.7442
 8781SOL    HW237977   3.082   4.240   2.274  0.1079  0.3960  0.0964
 8782SOL     OW37978   3.844   3.657   4.647 -0.1379 -0.0689 -0.0195
 8782SOL    HW137979   3.843   3.623   4.736  0.0427  3.4365  1.3426
 8782SOL    HW237980   3.751   3.670   4.627 -0.3647  0.9924  1.7695
 8783SOL     OW37981   2.521   1.934   0.141 -0.2803 -0.5060 -0.1659
 8783SOL    HW137982   2.610   1.969   0.137 -0.8081  0.7324 -1.2009
 8783SOL    HW237983   2.481   1.982   0.214 -0.9032 -0.6663 -0.3967
 8784SOL     OW37984   4.398   2.562  14.269  0.1697  0.2360  0.8516
 8784SOL    HW137985   4.433   2.651  14.262 -0.0055  0.4354  2.3174
 8784SOL    HW237986   4.478   2.517  14.245  0.5713  2.3652 -1.8524
 8785SOL     OW37987   3.462   2.821   6.304  0.8923 -0.2228  0.1491
 8785SOL    HW137988   3.513   2.848   6.380  1.4903  0.1455 -0.3888
 8785SOL    HW237989   3.524   2.840   6.234 -2.0259 -0.9800 -2.6386
 8786SOL     OW37990   0.551   3.115   1.768  0.4795  0.0806 -0.3779
 8786SOL    HW137991   0.516   3.193   1.725 -0.2876  0.1397  0.3675
 8786SOL    HW237992   0.576   3.064   1.691  0.3835 -1.2714  0.4790
 8787SOL     OW37993   1.324   1.355   7.656  0.0630 -0.0399  0.5443
 8787SOL    HW137994   1.399   1.387   7.607  0.1392  0.3013  0.8834
 8787SOL    HW237995   1.361   1.281   7.704 -0.7270 -1.2338 -0.6798
 8788SOL     OW37996   2.485   4.128  15.058  0.3666 -0.5006 -0.4512
 8788SOL    HW137997   2.420   4.162  15.120 -1.4585 -3.3057 -0.8468
 8788SOL    HW237998   2.454   4.179  14.983  2.8568  2.2319  0.3617
 8789SOL     OW37999   4.309   1.082   5.555  0.0532  0.5591 -0.2430
 8789SOL    HW138000   4.379   1.148   5.556  1.3730 -0.8609 -0.1802
 8789SOL    HW238001   4.312   1.052   5.464  0.6576  0.5763 -0.2257
 8790SOL     OW38002   0.099   2.255   0.927  0.1386 -0.2351 -0.1352
 8790SOL    HW138003   0.149   2.179   0.958  1.3300  1.3387  1.8360
 8790SOL    HW238004   0.158   2.328   0.946 -1.0324  0.6214  0.1739
 8791SOL     OW38005   3.223   2.283   5.236  0.1600  0.0999 -0.5090
 8791SOL    HW138006   3.225   2.193   5.204 -2.1251 -0.1744  0.1285
 8791SOL    HW238007   3.208   2.271   5.330 -0.6850 -0.4419 -0.7188
 8792SOL     OW38008   1.881   4.172  16.564 -0.1883 -0.0724 -0.0152
 8792SOL    HW138009   1.906   4.116  16.637  1.6888 -0.4073 -0.9294
 8792SOL    HW238010   1.960   4.187  16.513 -1.4870  3.2833 -1.0461
 8793SOL     OW38011   1.970   2.795  12.545  0.2341 -0.7350 -0.0939
 8793SOL    HW138012   2.054   2.837  12.564  0.2809 -1.3109  0.9745
 8793SOL    HW238013   1.988   2.753  12.460 -0.1518 -1.6312  0.2681
 8794SOL     OW38014   2.118   1.496   1.740 -0.5591  0.2265  0.4893
 8794SOL    HW138015   2.131   1.408   1.777 -2.3558 -0.0201  0.5190
 8794SOL    HW238016   2.062   1.472   1.666  0.2599  1.0155 -0.3853
 8795SOL     OW38017   1.700   2.874   7.504 -0.1456 -0.0574 -0.0328
 8795SOL    HW138018   1.765   2.944   7.500  1.0038 -1.1319 -0.2415
 8795SOL    HW238019   1.616   2.918   7.511 -1.9588 -3.3536 -1.0047
 8796SOL     OW38020   4.464   1.626   8.739  0.3032 -0.6865 -0.3354
 8796SOL    HW138021   4.538   1.601   8.796 -0.4632  0.5635  1.1928
 8796SOL    HW238022   4.459   1.721   8.751 -1.4951 -0.6910 -1.0596
 8797SOL     OW38023   0.514   3.014   0.564 -0.9451  0.1892 -0.0838
 8797SOL    HW138024   0.471   2.957   0.627 -2.5966  1.7859  0.2525
 8797SOL    HW238025   0.567   3.072   0.620  0.1653 -0.2205 -0.7019
 8798SOL     OW38026   1.648   3.285   0.563 -0.0546  0.3788 -0.7076
 8798SOL    HW138027   1.673   3.249   0.478 -0.7715  1.9621 -1.5907
 8798SOL    HW238028   1.585   3.354   0.544 -0.4838  0.3273  0.5075
 8799SOL     OW38029   3.839   3.122   2.982 -0.1893 -0.1654 -0.5125
 8799SOL    HW138030   3.803   3.049   2.931 -0.3868 -0.0181 -0.5812
 8799SOL    HW238031   3.799   3.113   3.069  1.5708 -0.2523  0.2995
 8800SOL     OW38032   3.839   2.213   4.837  0.2238 -0.0228  0.5865
 8800SOL    HW138033   3.773   2.171   4.782  0.8037 -0.4772  0.2467
 8800SOL    HW238034   3.800   2.299   4.851 -0.3117 -0.0756 -0.6091
 8801SOL     OW38035   1.645   3.584  14.548 -0.1181  0.1506  0.3122
 8801SOL    HW138036   1.567   3.624  14.512  1.4666  0.7788 -2.3961
 8801SOL    HW238037   1.671   3.526  14.477  1.1162 -0.3740  1.1841
 8802SOL     OW38038   1.833   1.891   8.883 -0.1232  0.0851  0.2641
 8802SOL    HW138039   1.854   1.808   8.925  2.1805  1.2272  1.3177
 8802SOL    HW238040   1.739   1.895   8.902  0.0789  1.2645  0.9687
 8803SOL     OW38041   2.173   3.646  13.353 -0.4812  0.3066 -0.2060
 8803SOL    HW138042   2.237   3.582  13.385 -0.4628 -0.1910 -1.2358
 8803SOL    HW238043   2.098   3.588  13.342 -0.3469  0.2226 -0.6666
 8804SOL     OW38044   1.660   1.718   0.421  0.2468  0.4174 -0.1010
 8804SOL    HW138045   1.686   1.676   0.339  0.1278  0.2832 -0.0679
 8804SOL    HW238046   1.728   1.675   0.473  0.2603  0.6187  0.0512
 8805SOL     OW38047   2.055   0.926   8.234  0.2132  0.3740  0.1588
 8805SOL    HW138048   1.984   0.988   8.215 -0.7908 -0.7831  0.2006
 8805SOL    HW238049   2.036   0.909   8.326 -1.5265 -0.9928 -0.4570
 8806SOL     OW38050   0.796   0.086  12.649 -0.8259  0.3392 -0.0558
 8806SOL    HW138051   0.785   4.730  12.643  1.1187 -0.0286  2.0409
 8806SOL    HW238052   0.865   0.095  12.715 -1.5181  2.4696  0.3886
 8807SOL     OW38053   3.691   0.568  11.545  0.2279 -0.0910  0.2077
 8807SOL    HW138054   3.709   0.474  11.535 -2.0763 -0.5923  0.7875
 8807SOL    HW238055   3.611   0.556  11.596 -0.8904 -0.1213 -1.5443
 8808SOL     OW38056   1.212   3.611   1.603  0.1189 -0.3262 -0.2397
 8808SOL    HW138057   1.300   3.574   1.596  0.6739  0.5157  2.5615
 8808SOL    HW238058   1.165   3.529   1.620 -2.2651  1.0534 -0.1919
 8809SOL     OW38059   1.973   2.459  17.195  0.4387 -0.5504  0.0979
 8809SOL    HW138060   2.036   2.390  17.215  0.1663 -0.4566  1.2689
 8809SOL    HW238061   1.897   2.413  17.161 -0.4137  0.2733  0.8959
 8810SOL     OW38062   1.537   3.144   2.776 -0.0857 -0.7169 -0.4421
 8810SOL    HW138063   1.465   3.096   2.816 -1.0936  2.7496  1.8781
 8810SOL    HW238064   1.509   3.235   2.782  0.2214 -0.4686 -2.6156
 8811SOL     OW38065   2.644   4.161  12.510  0.6970  0.4502 -0.3162
 8811SOL    HW138066   2.687   4.102  12.448  1.5612 -1.1333  1.7838
 8811SOL    HW238067   2.634   4.091  12.575 -2.4574  0.5454 -0.6789
 8812SOL     OW38068   2.153   2.287   6.835 -0.1780  0.5820 -0.0110
 8812SOL    HW138069   2.134   2.194   6.823  0.9603  0.6020 -1.9073
 8812SOL    HW238070   2.185   2.291   6.926  0.4594  0.6283 -0.2376
 8813SOL     OW38071   4.007   3.427  12.973  0.5035  0.0044 -0.2071
 8813SOL    HW138072   3.986   3.346  13.018 -0.9295  0.2818 -0.3935
 8813SOL    HW238073   4.071   3.400  12.907  2.5493 -0.0811  1.8179
 8814SOL     OW38074   2.340   0.711   7.300 -0.4186 -0.4567 -0.3606
 8814SOL    HW138075   2.325   0.724   7.206  1.2660  0.4392 -0.5145
 8814SOL    HW238076   2.279   0.640   7.315  0.3557 -0.8706  0.8227
 8815SOL     OW38077   3.230   3.295  10.363 -0.2975  0.0004 -0.4912
 8815SOL    HW138078   3.140   3.327  10.375 -0.2290  1.0803 -2.8734
 8815SOL    HW238079   3.242   3.220  10.421 -0.6023  1.6882  1.7837
 8816SOL     OW38080   3.479   1.570   7.763  0.1172 -0.5075  0.6546
 8816SOL    HW138081   3.476   1.487   7.812 -2.7886 -1.3078 -0.8438
 8816SOL    HW238082   3.445   1.609   7.844 -1.9868  1.4520 -1.1914
 8817SOL     OW38083   1.589   1.997   2.567  0.1949 -0.3347 -0.2153
 8817SOL    HW138084   1.548   1.917   2.599  1.1194 -1.1070 -0.9734
 8817SOL    HW238085   1.676   1.958   2.564  0.0140 -0.5072 -2.9833
 8818SOL     OW38086   3.065   1.566   5.492 -0.1167 -0.4892  0.5856
 8818SOL    HW138087   2.994   1.502   5.497  0.8648 -1.7324 -1.2321
 8818SOL    HW238088   3.014   1.633   5.538 -0.3414 -0.2125 -0.0711
 8819SOL     OW38089   4.104   4.211   9.174 -0.3326 -0.0314 -0.2180
 8819SOL    HW138090   4.189   4.254   9.168 -0.3564  0.0482 -0.0041
 8819SOL    HW238091   4.104   4.143   9.107 -2.0555  0.7993 -1.0764
 8820SOL     OW38092   4.549   4.338   8.093  0.1701  0.0069 -0.4051
 8820SOL    HW138093   4.532   4.412   8.151 -0.1692 -1.8000  1.7736
 8820SOL    HW238094   4.459   4.307   8.090 -0.2370  1.2430 -1.0432
 8821SOL     OW38095   0.502   0.445  10.584  0.2645  0.2252 -0.0828
 8821SOL    HW138096   0.413   0.477  10.569  0.6977  1.4869 -0.0031
 8821SOL    HW238097   0.485   0.401  10.667 -1.5423  1.1748  0.0588
 8822SOL     OW38098   2.529   3.734   1.773  0.0674  0.2002  0.3155
 8822SOL    HW138099   2.566   3.662   1.722  0.7496  1.0269 -0.3470
 8822SOL    HW238100   2.478   3.682   1.836  0.0961 -0.2000  0.0087
 8823SOL     OW38101   1.642   2.631   7.640  0.4475  0.0301  0.4577
 8823SOL    HW138102   1.698   2.666   7.709  1.5450  0.7993 -0.8283
 8823SOL    HW238103   1.665   2.686   7.566  0.7063 -1.9606 -0.9267
 8824SOL     OW38104   1.182   4.063   8.547  0.5189 -0.1634  0.1835
 8824SOL    HW138105   1.237   4.088   8.473  0.8948  0.2337  0.5894
 8824SOL    HW238106   1.198   3.969   8.557 -1.6349 -0.4678  0.7132
 8825SOL     OW38107   1.568   2.203   9.228  0.1668 -0.1129 -0.4260
 8825SOL    HW138108   1.574   2.144   9.304  0.3984 -0.7729 -0.9546
 8825SOL    HW238109   1.482   2.177   9.193  0.5173 -0.4514 -1.0334
 8826SOL     OW38110   2.632   2.112   3.239  0.3378 -0.0051 -0.6489
 8826SOL    HW138111   2.635   2.042   3.173  2.1238  0.4561 -1.0488
 8826SOL    HW238112   2.542   2.104   3.271  0.3895 -0.8936 -0.7270
 8827SOL     OW38113   4.616   3.586   1.408 -0.2327 -0.4876 -0.0158
 8827SOL    HW138114   4.653   3.515   1.460  0.0698 -0.0369  0.3900
 8827SOL    HW238115   4.635   3.554   1.320 -3.0400  0.2964 -0.9167
 8828SOL     OW38116   0.774   2.251   3.079 -0.0728  0.2208 -0.7030
 8828SOL    HW138117   0.689   2.239   3.121 -0.6102  2.4194 -1.1775
 8828SOL    HW238118   0.809   2.333   3.114 -0.6456  0.4592 -0.6869
 8829SOL     OW38119   0.360   0.709   2.209  0.4359  0.2946 -0.9189
 8829SOL    HW138120   0.363   0.614   2.221 -0.0818  0.8529  3.4878
 8829SOL    HW238121   0.268   0.731   2.224  0.4044 -0.2819 -0.2310
 8830SOL     OW38122   1.227   3.692   5.017  0.1706  0.2023  0.4199
 8830SOL    HW138123   1.186   3.636   4.952  1.4263  2.0634 -1.9740
 8830SOL    HW238124   1.162   3.675   5.086  1.3925  1.4877  1.8902
 8831SOL     OW38125   1.178   1.969   9.247 -0.0306 -0.3815 -0.6907
 8831SOL    HW138126   1.085   1.945   9.245 -0.1159 -0.1325  0.3635
 8831SOL    HW238127   1.205   1.936   9.333  0.1309 -2.3376 -1.4961
 8832SOL     OW38128   3.379   0.270  17.749  0.1566 -0.1019 -0.0516
 8832SOL    HW138129   3.346   0.349  17.705 -0.5305 -0.3722 -0.0292
 8832SOL    HW238130   3.301   0.214  17.738  0.8233 -1.5208  2.4764
 8833SOL     OW38131   1.832   4.243   4.568 -0.2319 -0.5156  0.2496
 8833SOL    HW138132   1.767   4.198   4.515 -0.2750  0.5112 -0.5453
 8833SOL    HW238133   1.834   4.326   4.521  0.4450 -0.9104 -0.4197
 8834SOL     OW38134   2.651   2.028   1.848  0.2429 -0.0983 -0.1121
 8834SOL    HW138135   2.742   2.059   1.857  0.3246 -0.3471 -0.0923
 8834SOL    HW238136   2.641   2.003   1.756  0.7942  1.5490 -0.6367
 8835SOL     OW38137   0.747   1.826   5.866  0.1746 -0.1549 -0.2491
 8835SOL    HW138138   0.766   1.739   5.833 -0.8974 -1.1380  1.7199
 8835SOL    HW238139   0.776   1.835   5.957 -1.3949  0.6465  0.1771
 8836SOL     OW38140   2.149   4.287   5.159  0.2890  0.1907 -0.2994
 8836SOL    HW138141   2.221   4.347   5.144  1.3242 -1.4500 -1.9178
 8836SOL    HW238142   2.161   4.259   5.250  3.0314  0.2378 -0.6577
 8837SOL     OW38143   4.376   0.130  16.716  0.6691 -0.1976  0.5843
 8837SOL    HW138144   4.295   0.116  16.668  0.1565  2.4204  0.6981
 8837SOL    HW238145   4.430   0.052  16.699  0.8303 -0.0924  0.6119
 8838SOL     OW38146   3.036   3.062  16.817 -0.4219 -0.0450  0.5580
 8838SOL    HW138147   3.124   3.099  16.807 -0.7253  0.9330  1.5257
 8838SOL    HW238148   3.023   3.017  16.734  0.0294 -0.1720  0.5528
 8839SOL     OW38149   0.620   3.045   4.521 -0.6889  0.4767  0.5203
 8839SOL    HW138150   0.594   3.015   4.608 -0.3579 -0.8989  0.1387
 8839SOL    HW238151   0.707   3.005   4.518 -1.8155 -1.8602 -0.4056
 8840SOL     OW38152   1.052   2.634   7.766  0.6411  0.1641 -0.2494
 8840SOL    HW138153   1.077   2.670   7.851 -0.8708 -0.4216  0.4411
 8840SOL    HW238154   1.071   2.704   7.703 -1.5383  0.5541 -0.4701
 8841SOL     OW38155   3.515   1.560   9.573  0.4031 -0.5623 -0.0992
 8841SOL    HW138156   3.422   1.582   9.588  0.7362 -0.5925  2.0054
 8841SOL    HW238157   3.527   1.556   9.478  0.0567  2.1662 -0.2582
 8842SOL     OW38158   3.129   0.149   5.003  0.0053  0.0079 -0.2548
 8842SOL    HW138159   3.180   0.150   5.084 -2.4350 -0.5144  1.3165
 8842SOL    HW238160   3.084   0.233   5.013  0.6608  0.1258  1.7507
 8843SOL     OW38161   0.034   3.001   3.138 -0.0963  0.1630 -0.1208
 8843SOL    HW138162   0.014   3.095   3.141  0.0780  0.2264 -0.9683
 8843SOL    HW238163   4.716   2.958   3.202 -0.0631 -0.8302 -0.7657
 8844SOL     OW38164   3.100   0.004   1.805  0.1960 -1.0759  0.6098
 8844SOL    HW138165   3.049   0.024   1.883 -0.1576  0.8648 -0.1194
 8844SOL    HW238166   3.131   0.088   1.771  0.3703 -1.0150  0.9228
 8845SOL     OW38167   1.403   2.656  10.438  0.1158  0.0866 -0.3041
 8845SOL    HW138168   1.381   2.602  10.514 -0.5226 -0.6780 -1.0263
 8845SOL    HW238169   1.315   2.676  10.404  0.2787 -0.2574 -0.9437
 8846SOL     OW38170   4.482   1.050   6.629 -0.0183 -0.0434  0.1134
 8846SOL    HW138171   4.436   1.114   6.575  1.9006 -1.0970 -2.7682
 8846SOL    HW238172   4.456   1.074   6.718 -1.9967  0.4926 -0.6053
 8847SOL     OW38173   2.885   4.314   7.389  0.6168 -0.2223 -0.0250
 8847SOL    HW138174   2.901   4.219   7.389  1.5305 -0.0640 -0.2015
 8847SOL    HW238175   2.970   4.343   7.420  0.5859  1.7959 -1.8765
 8848SOL     OW38176   2.506   2.506   8.982 -0.1421 -0.5997 -0.8253
 8848SOL    HW138177   2.412   2.486   8.977  0.0445 -1.6438 -0.1782
 8848SOL    HW238178   2.494   2.580   9.042  2.0917 -1.4699  0.6607
 8849SOL     OW38179   1.285   1.476   3.666  0.2308  0.3846 -0.4672
 8849SOL    HW138180   1.305   1.553   3.613 -2.1326  0.7481 -0.8336
 8849SOL    HW238181   1.242   1.426   3.596  2.4620  0.5618 -1.9471
 8850SOL     OW38182   3.354   3.651   4.818  0.0286  0.0439  0.5568
 8850SOL    HW138183   3.390   3.718   4.875  0.5830  0.8452 -0.7469
 8850SOL    HW238184   3.261   3.675   4.810 -0.1093  0.0563  2.2626
 8851SOL     OW38185   2.745   1.217   8.860  0.3164 -0.4868  0.4806
 8851SOL    HW138186   2.741   1.203   8.765  1.4950 -2.6335  0.7459
 8851SOL    HW238187   2.665   1.270   8.863  1.5012  1.3186  0.3186
 8852SOL     OW38188   1.504   2.432   8.494 -0.5424 -0.2044  0.4649
 8852SOL    HW138189   1.478   2.369   8.560  2.6887 -1.0573  0.9091
 8852SOL    HW238190   1.426   2.485   8.475 -1.6126 -2.0095 -0.1375
 8853SOL     OW38191   1.145   3.283  10.904  0.1211 -0.2956  0.3508
 8853SOL    HW138192   1.224   3.307  10.856  0.6552 -0.7858  0.9799
 8853SOL    HW238193   1.120   3.369  10.939  1.3646 -0.2641  1.1874
 8854SOL     OW38194   0.859   1.960   5.279 -0.3351  0.1883 -0.2336
 8854SOL    HW138195   0.866   1.866   5.298 -2.4059 -0.4539 -2.6129
 8854SOL    HW238196   0.801   1.987   5.349 -1.6732 -1.3264 -0.7611
 8855SOL     OW38197   3.481   3.635   4.059 -0.0336 -0.1531  0.1423
 8855SOL    HW138198   3.411   3.603   4.114 -1.7186  1.7678 -0.8578
 8855SOL    HW238199   3.531   3.660   4.137 -1.5051 -1.6123  1.5276
 8856SOL     OW38200   1.612   1.877  16.860  0.4066 -0.0147  0.2085
 8856SOL    HW138201   1.692   1.855  16.811 -0.7908  1.1197 -2.2884
 8856SOL    HW238202   1.560   1.800  16.836 -0.9426  0.6735  0.9581
 8857SOL     OW38203   2.642   2.051  17.205 -0.4725  0.0081 -0.3407
 8857SOL    HW138204   2.716   1.997  17.231  0.7925  1.3570 -1.1170
 8857SOL    HW238205   2.618   2.018  17.118  4.0227 -0.4826 -1.3626
 8858SOL     OW38206   3.646   4.670   5.406 -0.2360  0.0732 -0.3881
 8858SOL    HW138207   3.719   4.723   5.377 -0.8436  1.9718  1.5415
 8858SOL    HW238208   3.567   4.724   5.401  0.3020  1.0633  1.7676
 8859SOL     OW38209   4.020   4.394   2.757  0.1643 -0.4223  0.0423
 8859SOL    HW138210   4.021   4.445   2.838  1.5843  0.3490 -0.4651
 8859SOL    HW238211   4.019   4.462   2.690  1.4638  1.4630  1.9468
 8860SOL     OW38212   3.300   4.340   5.745 -0.0535  0.2646  0.3980
 8860SOL    HW138213   3.349   4.304   5.670 -0.9315 -1.6287  0.7299
 8860SOL    HW238214   3.310   4.277   5.817 -0.2774 -0.4653 -0.2091
 8861SOL     OW38215   0.647   0.056  15.333  0.3126  0.1514 -0.2068
 8861SOL    HW138216   0.669   0.038  15.241  0.2490  0.8901 -0.3656
 8861SOL    HW238217   0.566   0.006  15.344 -1.0660  2.6537  0.9493
 8862SOL     OW38218   2.018   1.637   7.061 -0.3670  0.3252 -0.0735
 8862SOL    HW138219   2.006   1.637   6.966  0.7743 -0.6031 -0.2162
 8862SOL    HW238220   1.931   1.615   7.096  0.3967 -1.5105  0.6859
 8863SOL     OW38221   4.172   4.519  10.087 -0.4561 -0.3040  0.1657
 8863SOL    HW138222   4.165   4.598  10.140  0.7991 -0.0116 -0.1005
 8863SOL    HW238223   4.095   4.530  10.030  0.2209  1.3945 -0.4442
 8864SOL     OW38224   1.322   0.041  14.325 -0.3359  0.2653 -0.0752
 8864SOL    HW138225   1.270   0.049  14.245  0.0581  0.1049 -0.3466
 8864SOL    HW238226   1.254   0.067  14.387 -1.4160  0.6021 -1.3915
 8865SOL     OW38227   3.889   0.128   4.357  0.5263  0.2751  0.3584
 8865SOL    HW138228   3.822   0.162   4.416 -0.1652 -0.3918 -0.0420
 8865SOL    HW238229   3.957   0.186   4.391  1.2201 -1.6426  2.1759
 8866SOL     OW38230   2.606   4.304   7.782 -0.6830  0.7050 -0.9464
 8866SOL    HW138231   2.628   4.396   7.797  1.0403  0.1934 -0.3689
 8866SOL    HW238232   2.685   4.261   7.815 -0.8267  0.4900 -0.8840
 8867SOL     OW38233   4.047   2.067   8.539  0.1208 -0.1387  0.7064
 8867SOL    HW138234   4.131   2.035   8.571  0.4195 -0.6590 -0.5731
 8867SOL    HW238235   4.080   2.145   8.494  1.4866 -0.3141  1.3919
 8868SOL     OW38236   3.600   2.802   3.130  0.0291  0.3062 -0.2902
 8868SOL    HW138237   3.669   2.848   3.178  2.1183 -1.7713 -1.2702
 8868SOL    HW238238   3.528   2.863   3.146  1.1136  1.4438  0.3380
 8869SOL     OW38239   1.606   0.148  14.408  0.0027  0.2412  0.0547
 8869SOL    HW138240   1.654   0.220  14.449 -0.4776 -0.0954  1.2115
 8869SOL    HW238241   1.528   0.196  14.381  1.1230  1.0455 -1.7629
 8870SOL     OW38242   2.566   1.486   9.137  0.0589 -0.7659 -0.7373
 8870SOL    HW138243   2.613   1.495   9.053 -1.6423 -1.9345 -1.8120
 8870SOL    HW238244   2.643   1.457   9.187  0.8791  0.9404 -1.0033
 8871SOL     OW38245   4.415   1.537   2.020  0.0689  0.2857  0.1518
 8871SOL    HW138246   4.430   1.443   2.026  1.9484  0.4705 -1.6844
 8871SOL    HW238247   4.431   1.558   1.928  1.4120 -1.2672  0.0160
 8872SOL     OW38248   4.531   4.088   6.212  0.0682 -0.0910  0.4935
 8872SOL    HW138249   4.453   4.110   6.262  0.5929  0.9932  0.8467
 8872SOL    HW238250   4.601   4.131   6.262  2.0561 -0.1356 -2.2244
 8873SOL     OW38251   0.621   0.204   5.617  0.0435  0.1184 -0.4108
 8873SOL    HW138252   0.669   0.279   5.651  1.7357 -1.2717  0.2812
 8873SOL    HW238253   0.530   0.233   5.613 -0.0261 -0.0332  0.0350
 8874SOL     OW38254   3.871   2.181  15.680  0.1807 -0.1864 -0.0654
 8874SOL    HW138255   3.840   2.265  15.647  0.8238 -0.7832 -2.1719
 8874SOL    HW238256   3.854   2.127  15.602  0.5841 -0.7830  0.2622
 8875SOL     OW38257   0.430   4.431  13.714 -0.0358 -0.2622  0.1979
 8875SOL    HW138258   0.506   4.390  13.755  0.8023  0.9524 -0.1451
 8875SOL    HW238259   0.444   4.522  13.740 -0.1119 -0.1484 -0.1568
 8876SOL     OW38260   1.623   3.611   3.638 -0.3662  0.3409 -0.2976
 8876SOL    HW138261   1.633   3.645   3.727 -0.8847  0.5189 -0.3091
 8876SOL    HW238262   1.607   3.518   3.652 -0.8035 -0.0404 -3.4247
 8877SOL     OW38263   2.504   3.332   1.494  0.1798  0.1117  0.0290
 8877SOL    HW138264   2.516   3.406   1.433  0.5224  0.0912  0.0725
 8877SOL    HW238265   2.409   3.335   1.498  0.1168  0.9586 -1.9683
 8878SOL     OW38266   1.593   2.263   3.043 -0.1035  0.6760  0.3236
 8878SOL    HW138267   1.571   2.182   2.997 -0.1447  0.5656  0.5405
 8878SOL    HW238268   1.686   2.243   3.056  0.8728  2.9136 -3.2506
 8879SOL     OW38269   0.757   2.418   6.541 -0.1538 -0.0572 -0.9870
 8879SOL    HW138270   0.761   2.394   6.634  2.3294  0.3875 -0.9640
 8879SOL    HW238271   0.686   2.367   6.504 -0.2878 -0.6525  0.0765
 8880SOL     OW38272   1.883   3.163  13.593 -0.1235 -0.2716 -0.1299
 8880SOL    HW138273   1.788   3.169  13.601  0.0318  1.0197  0.6477
 8880SOL    HW238274   1.899   3.093  13.657  3.3380 -1.2360 -2.0067
 8881SOL     OW38275   0.123   1.534   6.426  1.0730  0.1641  0.2978
 8881SOL    HW138276   0.214   1.555   6.403  0.9746 -0.5513 -0.7232
 8881SOL    HW238277   0.114   1.463   6.363 -3.0597  2.0888 -1.2377
 8882SOL     OW38278   0.105   0.981   6.808  0.6024  0.4404 -0.9285
 8882SOL    HW138279   0.056   1.015   6.883  1.9568 -0.0707  0.1888
 8882SOL    HW238280   0.066   1.044   6.747 -3.0139  0.9807  1.9062
 8883SOL     OW38281   0.688   2.912  17.447 -0.1881 -0.0522  0.2401
 8883SOL    HW138282   0.737   2.978  17.397  1.0398 -1.4220 -0.3896
 8883SOL    HW238283   0.745   2.911  17.523 -0.5061 -0.4972  0.4703
 8884SOL     OW38284   1.513   1.745   9.241 -0.0041  0.2732 -0.1779
 8884SOL    HW138285   1.422   1.745   9.212 -0.1053  2.7599  0.1622
 8884SOL    HW238286   1.518   1.660   9.286  0.6813  0.5863  0.3425
 8885SOL     OW38287   0.143   4.165  16.888  0.0879 -0.4376 -0.5899
 8885SOL    HW138288   0.063   4.136  16.932  0.6405  0.6997  1.1622
 8885SOL    HW238289   0.112   4.229  16.823 -1.7532 -0.7625 -0.0303
 8886SOL     OW38290   1.355   3.687  12.807  0.2257 -0.2661  0.5612
 8886SOL    HW138291   1.445   3.697  12.776 -0.0105 -0.5663 -0.2067
 8886SOL    HW238292   1.366   3.640  12.890  1.9082  1.7294  1.4846
 8887SOL     OW38293   3.166   0.308   3.927 -0.7442  0.0623  0.2121
 8887SOL    HW138294   3.129   0.220   3.916  2.3815 -1.4590  1.8595
 8887SOL    HW238295   3.249   0.268   3.952 -1.4399 -1.2668  0.3944
 8888SOL     OW38296   3.280   1.908  11.722 -0.0382  0.5352 -0.1932
 8888SOL    HW138297   3.209   1.848  11.740  1.0018 -0.1055  1.7795
 8888SOL    HW238298   3.320   1.923  11.808 -2.5350 -0.0780  1.0705
 8889SOL     OW38299   3.762   0.605   8.308  0.4359 -0.1073  0.1526
 8889SOL    HW138300   3.744   0.674   8.372 -2.5567 -1.2159  0.5274
 8889SOL    HW238301   3.835   0.566   8.355 -0.5545 -1.6648  0.3953
 8890SOL     OW38302   0.260   2.662  12.944  0.2679 -0.5281 -0.4194
 8890SOL    HW138303   0.303   2.739  12.907  1.2615  0.1766  2.1625
 8890SOL    HW238304   0.322   2.609  12.993  1.9450  2.7023  1.0157
 8891SOL     OW38305   0.144   0.009   0.646  1.0718 -0.3660 -0.4266
 8891SOL    HW138306   0.172   4.713   0.731  2.2145  1.3936 -0.0835
 8891SOL    HW238307   0.221   0.039   0.598 -0.3212  1.4506 -1.5178
 8892SOL     OW38308   3.869   4.394  11.487  0.4034  0.0116 -0.2380
 8892SOL    HW138309   3.945   4.336  11.481  0.3858 -0.1284  0.8632
 8892SOL    HW238310   3.806   4.350  11.543  0.4622 -1.0305 -0.9856
 8893SOL     OW38311   4.733   1.036   6.529  0.3183 -0.2477  0.1866
 8893SOL    HW138312   0.008   0.947   6.496  0.5475 -0.2331  0.2391
 8893SOL    HW238313   4.641   1.049   6.549  0.0794  1.5129 -2.0290
 8894SOL     OW38314   2.492   0.481   7.373  0.3157  0.1986  0.5648
 8894SOL    HW138315   2.419   0.438   7.418  1.2509 -2.5591 -0.5603
 8894SOL    HW238316   2.449   0.550   7.322 -0.8635  0.6822  2.2043
 8895SOL     OW38317   2.133   4.201   3.106 -0.1199  0.0297  0.1497
 8895SOL    HW138318   2.051   4.157   3.085  0.1643  0.5936 -2.1872
 8895SOL    HW238319   2.189   4.151   3.046  1.1228  0.4885  0.9294
 8896SOL     OW38320   0.150   4.325  17.278  0.6121  0.8849  0.3062
 8896SOL    HW138321   0.168   4.403  17.227  1.5691 -0.2671 -1.1129
 8896SOL    HW238322   0.072   4.287  17.238  1.3201 -0.1174 -0.1358
 8897SOL     OW38323   2.370   2.778  16.760  0.3296 -0.3131  0.7237
 8897SOL    HW138324   2.464   2.779  16.775  0.4475 -0.9216 -0.0218
 8897SOL    HW238325   2.345   2.686  16.752 -2.2058  0.3420  0.9403
 8898SOL     OW38326   0.437   0.984   2.195  0.0455  0.1604  0.2367
 8898SOL    HW138327   0.400   0.898   2.178 -3.0646  1.6935 -0.7560
 8898SOL    HW238328   0.421   1.033   2.114  1.5035 -2.2298 -1.4952
 8899SOL     OW38329   0.906   0.493   8.325  0.1962 -0.0644  0.0035
 8899SOL    HW138330   0.939   0.570   8.279 -0.5745  0.8461  0.9487
 8899SOL    HW238331   0.982   0.438   8.308 -0.6592 -1.3694  0.4158
 8900SOL     OW38332   3.161   4.673   8.924  0.5286  0.1161  0.0781
 8900SOL    HW138333   3.231   4.735   8.943  0.5335  0.3421 -0.6931
 8900SOL    HW238334   3.140   4.643   9.013  2.1938 -0.0429  0.4173
 8901SOL     OW38335   3.606   2.136   6.427  0.3022  0.2581  0.4646
 8901SOL    HW138336   3.681   2.132   6.486 -0.5817 -1.4658  1.4709
 8901SOL    HW238337   3.650   2.161   6.346  0.7546 -0.4933  0.4822
 8902SOL     OW38338   0.752   4.122  11.043 -0.3274 -0.4289  0.1883
 8902SOL    HW138339   0.663   4.104  11.012 -0.2651 -0.7321  0.1776
 8902SOL    HW238340   0.796   4.135  10.959  0.7795  1.0060  0.9934
 8903SOL     OW38341   2.253   1.757   6.953  0.7781 -0.1126  0.2363
 8903SOL    HW138342   2.330   1.773   7.008  0.5199  1.1113  0.2371
 8903SOL    HW238343   2.202   1.695   7.007 -0.2922 -0.1714 -0.8378
 8904SOL     OW38344   3.999   0.950   5.373 -0.3635 -0.4799 -0.0111
 8904SOL    HW138345   3.905   0.934   5.377 -0.5099  0.1841 -0.7567
 8904SOL    HW238346   4.000   1.044   5.353 -1.3550 -0.4953 -0.1597
 8905SOL     OW38347   1.573   2.557  10.113 -0.4051 -0.1123  0.1378
 8905SOL    HW138348   1.497   2.498  10.107 -0.8497  0.4937 -0.1381
 8905SOL    HW238349   1.613   2.554  10.026  0.7827  2.5948  0.6017
 8906SOL     OW38350   2.950   0.339   7.131 -0.4498  0.6454 -0.1853
 8906SOL    HW138351   3.035   0.301   7.155 -0.5809 -0.2398 -1.1351
 8906SOL    HW238352   2.984   0.406   7.072 -1.4581  1.8051  0.5540
 8907SOL     OW38353   0.695   3.650  16.857 -0.9566 -0.1077 -0.0795
 8907SOL    HW138354   0.696   3.555  16.867  1.4852 -0.4323 -3.2869
 8907SOL    HW238355   0.693   3.655  16.761  1.3714  1.4024 -0.0524
 8908SOL     OW38356   3.123   3.430   7.670 -0.6368 -0.3595  0.1198
 8908SOL    HW138357   3.106   3.475   7.587 -2.7806  0.1224  0.8273
 8908SOL    HW238358   3.218   3.440   7.678 -0.8998  2.6067 -0.4663
 8909SOL     OW38359   0.757   4.057   3.405 -0.2462  0.2054  0.0305
 8909SOL    HW138360   0.807   4.022   3.478  0.0154  1.6166  0.5369
 8909SOL    HW238361   0.813   4.130   3.377  0.4998 -0.6931 -0.8134
 8910SOL     OW38362   0.892   3.637   4.847  0.2644 -0.0283 -0.2163
 8910SOL    HW138363   0.958   3.569   4.856  0.3442 -0.1971 -1.8981
 8910SOL    HW238364   0.881   3.636   4.751  0.9221 -1.7970 -0.2877
 8911SOL     OW38365   1.411   1.730   2.149 -0.4836 -0.5377 -0.2459
 8911SOL    HW138366   1.434   1.822   2.139 -1.6568 -0.0045  2.0385
 8911SOL    HW238367   1.492   1.701   2.191  0.2297  1.6766 -0.0806
 8912SOL     OW38368   3.697   0.355   1.984  0.0082  0.7750 -0.0730
 8912SOL    HW138369   3.697   0.428   2.046  0.3563  0.6407  0.0809
 8912SOL    HW238370   3.713   0.392   1.897  1.3116  1.1007  0.3150
 8913SOL     OW38371   0.254   1.985   0.492 -0.5626  0.5466 -0.2585
 8913SOL    HW138372   0.252   2.032   0.408 -1.0874 -1.1470 -1.1923
 8913SOL    HW238373   0.283   2.059   0.544  0.8296  0.6232 -1.1503
 8914SOL     OW38374   1.188   2.805   4.480 -0.1148  0.0325  0.0660
 8914SOL    HW138375   1.270   2.774   4.442 -1.0690 -0.8322 -1.2684
 8914SOL    HW238376   1.175   2.739   4.548  1.3044  0.9998  1.2776
 8915SOL     OW38377   0.408   2.402   7.644  0.1810 -0.3131  0.6378
 8915SOL    HW138378   0.503   2.402   7.648  0.2294  0.8345 -0.7118
 8915SOL    HW238379   0.389   2.436   7.732 -0.8366  0.3370  0.1743
 8916SOL     OW38380   3.925   1.382   4.873 -0.3643  0.4083 -0.3002
 8916SOL    HW138381   3.871   1.326   4.928  2.8721 -0.4570  1.9918
 8916SOL    HW238382   3.899   1.465   4.914  1.3272 -0.1033  1.7897
 8917SOL     OW38383   1.848   3.746   1.620  0.0809  0.1669  0.0964
 8917SOL    HW138384   1.884   3.799   1.549  0.8936 -0.4046  0.0818
 8917SOL    HW238385   1.866   3.805   1.693  1.2859  0.3766 -0.3654
 8918SOL     OW38386   0.928   0.415   2.014  0.7494  0.8849 -0.2267
 8918SOL    HW138387   0.868   0.377   2.078  0.7078 -0.1678 -0.8941
 8918SOL    HW238388   0.867   0.457   1.953 -0.0721  1.1046  0.7421
 8919SOL     OW38389   1.031   3.666   8.479 -0.7195  0.1362  0.6499
 8919SOL    HW138390   0.967   3.713   8.532 -1.8208 -1.2408  0.5428
 8919SOL    HW238391   1.004   3.714   8.400  0.7831  1.4323  0.9235
 8920SOL     OW38392   2.301   2.680   1.248  0.4341  0.0062  0.1020
 8920SOL    HW138393   2.214   2.714   1.271  1.3706  0.5424  2.8269
 8920SOL    HW238394   2.282   2.593   1.214 -2.5584  0.1942  1.2510
 8921SOL     OW38395   2.752   2.997   0.907 -0.1930 -0.0448 -0.0095
 8921SOL    HW138396   2.819   2.929   0.918 -0.8328 -0.7011 -0.2307
 8921SOL    HW238397   2.791   3.063   0.965 -0.8735  0.5489 -0.2392
 8922SOL     OW38398   4.575   4.526   7.600 -0.8120 -0.7942  0.2024
 8922SOL    HW138399   4.649   4.484   7.642 -1.1499  0.3065  1.9292
 8922SOL    HW238400   4.515   4.547   7.673  2.4120 -0.9161  2.8884
 8923SOL     OW38401   1.314   3.500   9.099  0.0349  0.4550 -0.4270
 8923SOL    HW138402   1.371   3.523   9.026  0.5699 -0.0209 -0.1522
 8923SOL    HW238403   1.379   3.491   9.169  0.6630  0.0454 -1.0740
 8924SOL     OW38404   3.545   1.373   3.078 -0.0534 -0.5309 -0.4655
 8924SOL    HW138405   3.475   1.310   3.060  0.8561 -1.8637  0.5993
 8924SOL    HW238406   3.501   1.433   3.138  0.4563 -0.5006 -0.1155
 8925SOL     OW38407   3.788   2.601   8.954  0.2979 -0.0699  0.0002
 8925SOL    HW138408   3.774   2.533   8.888  2.2563 -1.4317  0.9812
 8925SOL    HW238409   3.709   2.652   8.941  2.0476  2.2810 -1.3928
 8926SOL     OW38410   1.241   4.698  16.559  0.3685  0.4161  0.5291
 8926SOL    HW138411   1.331   4.690  16.591  1.1077 -0.2359 -1.7447
 8926SOL    HW238412   1.204   0.004  16.635  0.3719  0.9324  0.2274
 8927SOL     OW38413   4.083   2.615   4.697 -1.2133  0.2228  0.1585
 8927SOL    HW138414   4.035   2.693   4.724  0.9625  1.4188  0.5823
 8927SOL    HW238415   4.175   2.640   4.703 -1.2770  1.1199 -2.8128
 8928SOL     OW38416   0.781   2.729   0.653  0.7384 -0.1956 -0.2266
 8928SOL    HW138417   0.826   2.705   0.572 -0.7040 -1.1292 -0.7613
 8928SOL    HW238418   0.827   2.810   0.673 -1.4333  0.5906  1.5986
 8929SOL     OW38419   0.309   1.202   8.960 -0.3171  0.4857  0.5135
 8929SOL    HW138420   0.241   1.261   8.993 -0.4471  0.3165  0.5513
 8929SOL    HW238421   0.383   1.237   9.010 -0.3842  1.8137 -0.3433
 8930SOL     OW38422   4.034   4.475   6.746 -0.4631 -0.2855 -0.2314
 8930SOL    HW138423   4.072   4.389   6.765 -0.1984 -0.0614  0.2459
 8930SOL    HW238424   4.004   4.512   6.829 -1.4810 -0.0331 -0.7131
 8931SOL     OW38425   3.225   2.829   4.228  0.3616  0.1991 -0.1146
 8931SOL    HW138426   3.138   2.826   4.188  1.1268  0.7573 -1.8081
 8931SOL    HW238427   3.215   2.899   4.292  1.9449 -0.2043  0.5863
 8932SOL     OW38428   2.107   2.561   2.994 -0.5166  0.0762 -0.2267
 8932SOL    HW138429   2.166   2.489   2.973 -0.5562  0.0659 -0.3035
 8932SOL    HW238430   2.053   2.564   2.914 -0.3720 -3.0230 -0.4304
 8933SOL     OW38431   0.579   2.176   9.524 -0.1652 -0.4806  0.0820
 8933SOL    HW138432   0.620   2.092   9.544 -1.5537 -1.4069 -1.0044
 8933SOL    HW238433   0.631   2.212   9.452  0.5020  1.5807  1.5778
 8934SOL     OW38434   0.225   3.355  12.125  0.6163  0.3966 -0.7032
 8934SOL    HW138435   0.316   3.386  12.126  0.7263  0.1110 -1.7959
 8934SOL    HW238436   0.231   3.282  12.186 -0.2747  0.0135 -1.0879
 8935SOL     OW38437   3.752   4.488   2.611  0.4533  0.2845  0.3654
 8935SOL    HW138438   3.796   4.533   2.539 -1.3989 -1.1496 -1.6497
 8935SOL    HW238439   3.706   4.562   2.651  2.1831  0.8071  1.3859
 8936SOL     OW38440   4.183   4.025  10.198 -0.0474  0.3579 -0.0148
 8936SOL    HW138441   4.130   3.974  10.260 -0.6333  0.4159 -0.4674
 8936SOL    HW238442   4.271   4.037  10.234  0.5491  0.0605 -1.3910
 8937SOL     OW38443   3.436   3.134   7.493  0.5153 -0.2795 -0.0549
 8937SOL    HW138444   3.443   3.044   7.461 -2.2344 -0.1512 -1.0048
 8937SOL    HW238445   3.418   3.118   7.586 -2.9568  0.0195 -0.6570
 8938SOL     OW38446   2.322   0.298   0.108  0.1634 -0.0062  0.3540
 8938SOL    HW138447   2.333   0.365   0.040 -2.0228  0.8586  0.8774
 8938SOL    HW238448   2.392   0.241   0.073 -0.0948  0.1476 -0.4221
 8939SOL     OW38449   4.467   3.271  15.847 -0.0107 -0.2355 -0.4147
 8939SOL    HW138450   4.473   3.233  15.935  1.7564 -1.2547 -0.9612
 8939SOL    HW238451   4.554   3.243  15.817 -0.1720 -0.1607 -0.9510
 8940SOL     OW38452   0.375   3.429   6.297 -0.1622 -0.6810  0.4448
 8940SOL    HW138453   0.319   3.493   6.342  0.0613  1.0794 -1.7880
 8940SOL    HW238454   0.363   3.456   6.206  0.1812 -1.0644  0.2899
 8941SOL     OW38455   4.352   4.564   2.255 -0.2650 -0.1094 -0.2092
 8941SOL    HW138456   4.397   4.640   2.293  1.0185 -1.1743  0.3826
 8941SOL    HW238457   4.343   4.598   2.165 -1.0962 -0.4915 -0.2753
 8942SOL     OW38458   0.228   3.419  12.981  0.2641  0.5780  0.2919
 8942SOL    HW138459   0.266   3.462  13.057 -0.2868  1.1431  0.2465
 8942SOL    HW238460   0.208   3.335  13.021  3.1026 -0.9666 -1.5167
 8943SOL     OW38461   4.731   2.128   4.543  0.3078  0.5680  0.6773
 8943SOL    HW138462   4.733   2.191   4.471 -0.2261 -1.2664 -0.9213
 8943SOL    HW238463   4.715   2.187   4.617  1.1419 -0.1720  1.4397
 8944SOL     OW38464   3.749   1.901   2.701  0.2055 -0.0008 -0.3347
 8944SOL    HW138465   3.730   1.934   2.613 -1.7992  1.9557  0.8315
 8944SOL    HW238466   3.685   1.949   2.754  0.4548 -0.7166  0.6282
 8945SOL     OW38467   0.093   1.898   4.263 -0.7772  0.1498 -0.0682
 8945SOL    HW138468   0.041   1.879   4.341 -1.5947 -0.6659 -0.8027
 8945SOL    HW238469   0.092   1.816   4.213 -0.8149  2.3326 -3.6612
 8946SOL     OW38470   0.469   2.672  11.516  0.7498  0.0945  0.0784
 8946SOL    HW138471   0.509   2.723  11.586 -0.6908 -1.2270  1.8763
 8946SOL    HW238472   0.502   2.707  11.433 -0.3043 -0.0525 -0.4073
 8947SOL     OW38473   4.220   0.034  12.836  0.7653  0.0777  0.3495
 8947SOL    HW138474   4.169   0.115  12.831 -2.6749 -2.1792 -1.0930
 8947SOL    HW238475   4.210   0.017  12.929  2.7599  1.5231  0.8282
 8948SOL     OW38476   4.538   1.963   0.737  0.0634 -0.3082  0.2374
 8948SOL    HW138477   4.617   1.916   0.710  0.9567  2.0051 -1.1734
 8948SOL    HW238478   4.579   2.049   0.737 -1.5045  0.4126 -1.5784
 8949SOL     OW38479   2.970   0.438  16.370 -0.0753 -0.0005 -0.1520
 8949SOL    HW138480   3.022   0.499  16.422 -1.3703  1.1424 -0.2045
 8949SOL    HW238481   2.925   0.492  16.306  0.5394  0.7861  0.0847
 8950SOL     OW38482   2.228   0.098   0.266 -0.2120  0.6045  0.3188
 8950SOL    HW138483   2.144   0.106   0.221  1.1618 -1.1097 -2.5173
 8950SOL    HW238484   2.259   0.189   0.261 -1.2520  0.9537  0.2093
 8951SOL     OW38485   3.726   0.079   5.751  0.4083  0.0440 -0.5224
 8951SOL    HW138486   3.805   0.039   5.786 -0.9459 -1.0431  1.3420
 8951SOL    HW238487   3.667   0.003   5.759 -1.7893  1.7057 -0.8863
 8952SOL     OW38488   4.270   4.339   8.788 -0.0553 -0.2828  0.0071
 8952SOL    HW138489   4.315   4.384   8.860  0.6616  0.0717 -0.6601
 8952SOL    HW238490   4.292   4.398   8.716 -0.6199  0.1074  0.1538
 8953SOL     OW38491   0.678   0.687   5.348  0.3274 -0.5731 -0.0387
 8953SOL    HW138492   0.755   0.732   5.383 -0.8824  0.9382  0.6310
 8953SOL    HW238493   0.716   0.601   5.328  0.0698 -0.5174 -0.7682
 8954SOL     OW38494   0.011   2.764   8.735  0.0715 -0.1490  0.5135
 8954SOL    HW138495   0.015   2.668   8.735 -2.7700 -0.2584 -2.3841
 8954SOL    HW238496   4.657   2.785   8.747 -0.3693 -0.5745 -2.1986
 8955SOL     OW38497   0.744   1.637   7.872  0.5101  0.5689  0.7427
 8955SOL    HW138498   0.781   1.660   7.787 -1.2460  2.6918  0.5701
 8955SOL    HW238499   0.811   1.575   7.903 -0.3113  0.4212  2.2006
 8956SOL     OW38500   3.057   0.775   8.711 -0.1759  0.4399 -0.3911
 8956SOL    HW138501   2.996   0.714   8.671  0.9223 -1.4301  0.8039
 8956SOL    HW238502   3.132   0.753   8.655  2.4411  1.9466  2.5037
 8957SOL     OW38503   1.252   2.040   2.470  0.3365  0.2346 -0.4855
 8957SOL    HW138504   1.263   1.945   2.478  2.7674  0.5600 -0.1372
 8957SOL    HW238505   1.235   2.045   2.376  2.3658  0.1016 -0.8670
 8958SOL     OW38506   0.963   1.429   3.127  0.2136  0.0393  0.0585
 8958SOL    HW138507   0.935   1.501   3.183 -0.4234 -0.6492  0.6256
 8958SOL    HW238508   0.926   1.448   3.040  0.0351  0.1806  0.1664
 8959SOL     OW38509   4.453   2.969   3.040  0.0143  0.0394  0.1144
 8959SOL    HW138510   4.473   2.909   3.112  0.5116  1.7888  1.4527
 8959SOL    HW238511   4.379   3.010   3.084 -0.0278  0.6477 -0.5318
 8960SOL     OW38512   3.673   3.731   7.224  0.0385  0.4416 -0.1117
 8960SOL    HW138513   3.613   3.781   7.170 -0.9042  1.5959  2.0174
 8960SOL    HW238514   3.757   3.750   7.181  0.6338 -1.4182  0.1930
 8961SOL     OW38515   4.066   3.561   4.090 -0.4146 -0.4855 -0.1600
 8961SOL    HW138516   4.146   3.607   4.116 -1.6105  0.4518  1.8418
 8961SOL    HW238517   4.049   3.570   3.996  0.7094  2.1065 -0.1483
 8962SOL     OW38518   3.698   0.873   6.104  0.2273  0.1954  0.7173
 8962SOL    HW138519   3.644   0.795   6.119  1.4284 -0.8848 -0.6625
 8962SOL    HW238520   3.747   0.852   6.025 -0.0871  0.3137  0.4942
 8963SOL     OW38521   4.168   1.115   0.633 -0.5497 -0.1753 -0.1446
 8963SOL    HW138522   4.135   1.071   0.554  0.0439 -1.4843  0.3223
 8963SOL    HW238523   4.158   1.041   0.693 -0.5238  0.9520  1.2241
 8964SOL     OW38524   2.843   3.581   4.266 -0.1186  0.3354 -0.4518
 8964SOL    HW138525   2.830   3.502   4.213 -0.4911 -0.6003  1.0360
 8964SOL    HW238526   2.931   3.600   4.232 -0.2264  0.8282 -0.4565
 8965SOL     OW38527   1.505   2.167   5.840 -0.0646  0.4090 -0.7317
 8965SOL    HW138528   1.540   2.243   5.887  0.2647 -1.2627  1.7019
 8965SOL    HW238529   1.531   2.096   5.898 -0.7921 -1.4951 -2.7485
 8966SOL     OW38530   1.017   0.579   3.590 -0.0103 -0.4878 -0.9103
 8966SOL    HW138531   0.959   0.505   3.576  0.0183 -0.5984 -0.4469
 8966SOL    HW238532   1.016   0.597   3.496 -0.3727 -2.2138 -1.2318
 8967SOL     OW38533   4.316   0.586   3.677  1.0035  0.2475  0.3824
 8967SOL    HW138534   4.225   0.560   3.663  1.4832 -2.8092  2.8267
 8967SOL    HW238535   4.360   0.502   3.662  0.2192  0.0752 -0.9965
 8968SOL     OW38536   2.499   2.024   8.950  0.1225  0.3718  0.1248
 8968SOL    HW138537   2.433   2.080   8.991 -1.2096 -1.5339  0.5969
 8968SOL    HW238538   2.452   2.012   8.867 -2.2588  0.2531  1.4765
 8969SOL     OW38539   4.488   0.941   7.147  0.8821  0.0021 -0.6386
 8969SOL    HW138540   4.498   0.854   7.185  0.6684 -0.4062 -1.5194
 8969SOL    HW238541   4.414   0.968   7.200  0.5197 -0.5499 -0.8693
 8970SOL     OW38542   0.101   0.814  16.656  0.0138 -0.0132  0.2659
 8970SOL    HW138543   0.110   0.769  16.740  1.6304 -0.3373 -0.0677
 8970SOL    HW238544   0.032   0.758  16.623 -0.5358  0.9294 -0.1857
 8971SOL     OW38545   2.143   1.079   5.288  0.1363 -0.1960 -0.0399
 8971SOL    HW138546   2.090   1.022   5.345  1.1089 -0.3694  0.6985
 8971SOL    HW238547   2.231   1.055   5.318  1.1841  0.8276 -2.2749
 8972SOL     OW38548   2.058   2.218   5.245 -0.5604  0.7898 -0.1175
 8972SOL    HW138549   2.047   2.197   5.338  0.3858  2.1031  0.2905
 8972SOL    HW238550   2.001   2.158   5.196  0.6128  1.6661 -2.5448
 8973SOL     OW38551   0.334   0.386  16.953  0.3340 -0.1525 -0.0854
 8973SOL    HW138552   0.267   0.455  16.948  1.5568  1.1601  1.6838
 8973SOL    HW238553   0.339   0.355  16.863  0.4027 -1.2271  0.2886
 8974SOL     OW38554   3.504   1.986   5.287 -0.2762 -0.0286  0.3906
 8974SOL    HW138555   3.458   2.035   5.354  0.1277  2.5542 -1.2200
 8974SOL    HW238556   3.441   1.998   5.217  0.7463 -1.7500 -0.8335
 8975SOL     OW38557   3.790   2.338   5.626 -0.1699 -0.2391  0.0121
 8975SOL    HW138558   3.877   2.376   5.622 -1.3744  2.3332 -1.5507
 8975SOL    HW238559   3.811   2.250   5.593  0.7440  0.3047 -0.8475
 8976SOL     OW38560   1.418   1.549   8.441 -0.1522 -0.2891 -0.2001
 8976SOL    HW138561   1.353   1.512   8.501  1.1633 -2.3978 -0.0640
 8976SOL    HW238562   1.464   1.603   8.505 -1.2339  0.1333  0.2207
 8977SOL     OW38563   0.189   0.172   5.168  0.0338 -0.0088 -0.7562
 8977SOL    HW138564   0.213   0.264   5.177 -1.5023  0.2894  0.3693
 8977SOL    HW238565   0.145   0.158   5.252  0.4898  1.0992 -0.3199
 8978SOL     OW38566   4.409   1.544   5.524 -0.7958 -0.5317  0.1015
 8978SOL    HW138567   4.391   1.554   5.618 -1.2968 -2.4310  0.2235
 8978SOL    HW238568   4.447   1.630   5.510 -0.5345 -0.6863 -0.1424
 8979SOL     OW38569   4.418   0.056   1.098  0.1326  0.1440  0.0485
 8979SOL    HW138570   4.489   0.105   1.138 -0.5686 -0.9242  2.6250
 8979SOL    HW238571   4.453   4.706   1.088 -2.0555 -0.5738 -1.1818
 8980SOL     OW38572   4.267   0.570   6.078 -0.8511  0.3697  0.0174
 8980SOL    HW138573   4.183   0.576   6.125  0.3546 -0.6785  2.3041
 8980SOL    HW238574   4.283   0.658   6.044  2.1260 -0.4001 -0.5315
 8981SOL     OW38575   3.240   0.540  14.995  0.3025 -0.4131  0.0772
 8981SOL    HW138576   3.171   0.556  14.931  0.0352  1.9134  0.9562
 8981SOL    HW238577   3.230   0.619  15.048  2.0366 -1.1261  1.4732
 8982SOL     OW38578   3.575   3.823   3.130 -0.5382  0.7190  0.4526
 8982SOL    HW138579   3.566   3.728   3.120 -0.6515  0.6660  1.0544
 8982SOL    HW238580   3.511   3.847   3.063  0.8078  3.2224  0.0726
 8983SOL     OW38581   3.127   4.664   8.526  0.0549  0.0325 -0.2423
 8983SOL    HW138582   3.051   4.706   8.565  2.2811  1.9520  2.0702
 8983SOL    HW238583   3.114   4.570   8.533 -0.0906  0.1591  1.3405
 8984SOL     OW38584   1.714   1.916  15.100  0.4465  0.1431  0.5821
 8984SOL    HW138585   1.684   2.003  15.074  0.8072 -0.4687 -1.8434
 8984SOL    HW238586   1.681   1.861  15.030 -2.4560  1.3215  1.0439
 8985SOL     OW38587   2.435   1.274   4.219  0.3313 -0.2892 -0.2161
 8985SOL    HW138588   2.439   1.369   4.212 -0.3859 -0.1823  0.8877
 8985SOL    HW238589   2.350   1.252   4.181 -1.1703  0.3799  2.7486
 8986SOL     OW38590   1.699   2.980   5.263 -0.3066  0.3233 -0.2816
 8986SOL    HW138591   1.661   2.997   5.177 -1.2904  1.5254  0.3952
 8986SOL    HW238592   1.748   3.062   5.271 -1.4710  0.9828  0.0134
 8987SOL     OW38593   4.203   4.145   4.460  0.5853  0.4958  0.1052
 8987SOL    HW138594   4.209   4.227   4.508  2.2902  1.1333 -1.2125
 8987SOL    HW238595   4.190   4.176   4.371  1.5498 -2.3091 -1.0370
 8988SOL     OW38596   1.218   1.818   8.743 -0.1250 -0.4206  0.4735
 8988SOL    HW138597   1.186   1.735   8.705 -1.0980 -0.4110  1.2795
 8988SOL    HW238598   1.265   1.783   8.818 -2.4894 -1.8523  1.3154
 8989SOL     OW38599   3.607   3.331  10.127 -0.6553  0.3829  0.0549
 8989SOL    HW138600   3.578   3.240  10.116  2.1644 -0.3811 -1.3897
 8989SOL    HW238601   3.564   3.350  10.210 -1.7434 -0.7872 -0.2517
 8990SOL     OW38602   1.210   2.682   7.080  0.2471  0.4517 -0.5260
 8990SOL    HW138603   1.278   2.616   7.067 -0.0834 -0.0861  0.5389
 8990SOL    HW238604   1.165   2.683   6.995 -2.9305 -1.9743  1.1406
 8991SOL     OW38605   0.556   4.458  12.884  0.2588 -0.9090  0.2215
 8991SOL    HW138606   0.569   4.365  12.900  1.2367 -0.3103  2.8080
 8991SOL    HW238607   0.460   4.456  12.882  0.2829 -1.5235 -0.5766
 8992SOL     OW38608   1.647   1.922   6.698  0.0609 -0.7915 -0.5827
 8992SOL    HW138609   1.627   1.936   6.605 -1.2834  1.1106 -0.0025
 8992SOL    HW238610   1.557   1.933   6.730 -0.8965 -1.5313 -2.9896
 8993SOL     OW38611   3.044   4.100   9.859  0.9625  0.5407  0.8658
 8993SOL    HW138612   3.130   4.126   9.827  0.8663  2.0103  1.8150
 8993SOL    HW238613   3.052   4.116   9.953 -0.9018  1.0722  0.9342
 8994SOL     OW38614   4.127   2.271  15.097  0.1815 -0.1385 -0.5438
 8994SOL    HW138615   4.134   2.256  15.192 -0.0419  1.6198 -0.2501
 8994SOL    HW238616   4.203   2.325  15.077 -1.6133  1.9820 -1.5949
 8995SOL     OW38617   3.222   2.874   9.493  0.4976 -0.7108  0.3459
 8995SOL    HW138618   3.299   2.841   9.447 -0.2241  0.0562 -1.3825
 8995SOL    HW238619   3.241   2.967   9.480  0.7846 -0.7105  0.7436
 8996SOL     OW38620   3.920   1.047   3.814  0.2625  0.5017 -0.0631
 8996SOL    HW138621   3.980   0.992   3.864 -2.0780 -2.3369 -0.3394
 8996SOL    HW238622   3.902   1.000   3.732 -1.0570  0.5999  0.1661
 8997SOL     OW38623   3.692   0.155  12.767  0.6686 -0.2409  0.0752
 8997SOL    HW138624   3.750   0.092  12.723  0.8224  0.5624 -0.8708
 8997SOL    HW238625   3.667   0.112  12.849 -0.7806 -1.3968 -0.9770
 8998SOL     OW38626   1.310   2.819   0.092 -0.4369  0.0663 -0.3271
 8998SOL    HW138627   1.406   2.822   0.089 -0.3453 -0.2455  2.4077
 8998SOL    HW238628   1.294   2.751   0.026 -1.6602 -0.4195  0.4855
 8999SOL     OW38629   1.626   2.552  16.667 -0.8140  0.5427 -0.0902
 8999SOL    HW138630   1.698   2.493  16.690 -0.2225  1.3122  0.0270
 8999SOL    HW238631   1.557   2.494  16.636 -0.0961 -1.3671  1.8674
 9000SOL     OW38632   0.646   3.969   4.788  0.2527 -0.2845 -0.2464
 9000SOL    HW138633   0.625   4.013   4.706 -0.5986  1.5097  0.9111
 9000SOL    HW238634   0.600   3.887   4.771 -1.0719  0.9524 -2.7016
 9001SOL     OW38635   1.176   4.182   4.051  0.0867  0.3301 -0.4351
 9001SOL    HW138636   1.268   4.159   4.038  0.2518  0.7318  0.0046
 9001SOL    HW238637   1.167   4.172   4.146 -3.0167 -1.5514 -0.9489
 9002SOL     OW38638   3.451   0.129  12.534 -0.3314  0.2951  0.1704
 9002SOL    HW138639   3.362   0.144  12.566 -0.1485  1.3560  0.1611
 9002SOL    HW238640   3.494   0.211  12.556 -0.7691  0.6368 -0.2363
 9003SOL     OW38641   3.613   3.631  10.396  0.1477  0.2387  0.4503
 9003SOL    HW138642   3.594   3.659  10.486  1.4898  0.2867  0.7262
 9003SOL    HW238643   3.565   3.548  10.402  3.1545 -1.5371  0.0264
 9004SOL     OW38644   0.200   0.740  11.477 -0.0249 -0.0798 -0.0625
 9004SOL    HW138645   0.174   0.650  11.496  1.4265  0.0858  2.7389
 9004SOL    HW238646   0.142   0.795  11.530 -2.8173 -1.4097 -1.7816
 9005SOL     OW38647   1.882   4.251   6.182 -0.4731  0.2861 -0.3926
 9005SOL    HW138648   1.792   4.277   6.201 -0.5183 -1.6514  2.1342
 9005SOL    HW238649   1.868   4.167   6.138  0.6683 -0.7755  1.2711
 9006SOL     OW38650   0.877   0.053   4.798  0.1414  0.5241 -0.1180
 9006SOL    HW138651   0.815   4.723   4.774  1.0949 -0.0846 -0.8330
 9006SOL    HW238652   0.844   0.078   4.884 -0.1421 -1.0255  0.2273
 9007SOL     OW38653   4.717   2.319   4.353  0.4691 -0.2896 -0.2297
 9007SOL    HW138654   0.048   2.321   4.288  0.5524 -0.7918 -0.1586
 9007SOL    HW238655   4.634   2.326   4.307  0.5142 -1.5484 -0.5126
 9008SOL     OW38656   2.824   3.810   2.737 -0.1866 -0.2287 -0.1167
 9008SOL    HW138657   2.803   3.790   2.646  0.9384  1.5438 -0.7594
 9008SOL    HW238658   2.888   3.881   2.723 -1.9372  1.4829  0.5431
 9009SOL     OW38659   0.763   3.995   8.331  0.7282  0.2489 -0.1898
 9009SOL    HW138660   0.792   4.055   8.262 -2.3600  0.4198 -1.3540
 9009SOL    HW238661   0.837   4.011   8.390  0.2985 -2.4385  1.0998
 9010SOL     OW38662   0.209   1.926   9.714 -0.0218  0.2375  1.1352
 9010SOL    HW138663   0.287   1.902   9.663 -0.5926  2.4347 -0.8020
 9010SOL    HW238664   0.226   2.020   9.726  0.7052  0.0939  1.2144
 9011SOL     OW38665   2.755   3.926   0.694  0.3882 -0.4352  0.8634
 9011SOL    HW138666   2.842   3.964   0.704  1.1480 -1.4644 -1.7710
 9011SOL    HW238667   2.714   3.936   0.780  0.9770  0.3795  1.0505
 9012SOL     OW38668   1.584   4.596  15.421 -0.2626  0.2663 -0.5773
 9012SOL    HW138669   1.567   4.524  15.360  1.6803  0.5438 -1.4581
 9012SOL    HW238670   1.520   4.662  15.394  0.8334  1.3628 -0.4822
 9013SOL     OW38671   3.793   2.443  15.618  0.1437  0.3638 -0.1649
 9013SOL    HW138672   3.797   2.493  15.699  0.4698  0.7259 -0.4028
 9013SOL    HW238673   3.827   2.502  15.551 -2.0787  0.8946 -0.8267
 9014SOL     OW38674   0.724   1.746  11.646  0.0063 -0.5716 -0.5290
 9014SOL    HW138675   0.704   1.840  11.642  0.9200 -0.4133 -1.4926
 9014SOL    HW238676   0.820   1.742  11.641 -0.1160 -1.0002 -2.7247
 9015SOL     OW38677   2.966   1.127   5.341 -0.5426  0.0104  0.2904
 9015SOL    HW138678   2.873   1.109   5.325 -0.5832 -0.0435  0.5721
 9015SOL    HW238679   2.983   1.209   5.295 -2.7642 -0.2255 -0.9625
 9016SOL     OW38680   2.320   0.903   1.582  0.1929  0.2586 -0.0387
 9016SOL    HW138681   2.396   0.866   1.628  0.2755  0.8930  0.3360
 9016SOL    HW238682   2.255   0.888   1.652 -0.3622 -2.2263 -1.0805
 9017SOL     OW38683   0.415   3.078   3.033 -0.1256 -0.2038  0.1528
 9017SOL    HW138684   0.364   3.008   3.074 -0.8201  0.0448 -0.2770
 9017SOL    HW238685   0.454   3.026   2.963 -0.7049  0.0850 -0.3877
 9018SOL     OW38686   1.771   0.012  16.867  0.2406  0.2653 -0.2441
 9018SOL    HW138687   1.757   4.705  16.784 -0.0724  0.1110 -0.1054
 9018SOL    HW238688   1.699   0.075  16.877 -0.1874  0.2467 -3.0999
 9019SOL     OW38689   1.232   2.554   5.507 -0.0366 -0.4225  0.3819
 9019SOL    HW138690   1.183   2.502   5.571 -0.1281 -2.8921 -1.6710
 9019SOL    HW238691   1.299   2.492   5.479  0.3134 -0.6319  1.6814
 9020SOL     OW38692   2.166   4.594  16.639  0.2016  0.2066 -0.1304
 9020SOL    HW138693   2.106   4.558  16.574  1.9429 -1.0912 -1.0237
 9020SOL    HW238694   2.166   4.689  16.623 -0.7807  0.2964  0.4445
 9021SOL     OW38695   2.518   2.021   9.979 -0.0614 -0.2221  0.3445
 9021SOL    HW138696   2.439   2.046  10.027 -0.5711 -2.2609  0.5687
 9021SOL    HW238697   2.517   1.930  10.009 -1.6409  0.0614  1.1733
 9022SOL     OW38698   2.625   2.482   8.319 -0.5410 -0.2990  0.0179
 9022SOL    HW138699   2.597   2.409   8.264 -1.1318  1.6138 -2.1828
 9022SOL    HW238700   2.634   2.452   8.410 -2.1735 -0.5872  0.1009
 9023SOL     OW38701   1.515   3.749   4.865  0.0932  0.1329 -0.5998
 9023SOL    HW138702   1.433   3.723   4.906  0.1920 -0.4326 -0.7523
 9023SOL    HW238703   1.574   3.782   4.932  0.7698  1.8576 -2.0360
 9024SOL     OW38704   0.471   1.917   2.609  0.0832  0.0382 -0.1193
 9024SOL    HW138705   0.415   1.950   2.539  0.0850 -0.0123 -0.1449
 9024SOL    HW238706   0.548   1.889   2.559  0.1086  0.3400 -0.2480
 9025SOL     OW38707   1.832   3.104  10.189  0.0663 -0.5167 -0.0146
 9025SOL    HW138708   1.872   3.049  10.257  0.4127 -0.0441  0.1552
 9025SOL    HW238709   1.867   3.056  10.114 -0.7747 -0.7525 -0.2558
 9026SOL     OW38710   3.214   1.077  14.054 -0.0389 -0.3527  0.4787
 9026SOL    HW138711   3.169   1.064  14.138 -1.4845 -1.8649 -0.5398
 9026SOL    HW238712   3.242   1.168  14.066 -1.8785  0.3259 -0.3802
 9027SOL     OW38713   2.309   0.845  14.825 -0.2254 -0.1985 -0.1301
 9027SOL    HW138714   2.365   0.897  14.882  0.1759  0.2515 -0.9442
 9027SOL    HW238715   2.361   0.835  14.745 -1.3490  0.0043 -0.8814
 9028SOL     OW38716   4.072   2.266   1.096  0.0992  0.1440 -0.1374
 9028SOL    HW138717   4.068   2.232   1.007 -1.9521  0.4161 -0.1646
 9028SOL    HW238718   4.031   2.351   1.076  0.5073  0.6070  0.9826
 9029SOL     OW38719   0.935   2.573   8.598 -0.0567 -0.4746 -0.5421
 9029SOL    HW138720   0.868   2.567   8.531  0.0617  2.8504 -0.9436
 9029SOL    HW238721   0.910   2.659   8.631  1.0763 -0.9652  1.6173
 9030SOL     OW38722   3.970   0.439   7.370 -0.2061  0.3936  0.6375
 9030SOL    HW138723   4.064   0.441   7.351 -0.0344  1.0744  1.5555
 9030SOL    HW238724   3.961   0.520   7.421 -2.8835  0.1491  0.5464
 9031SOL     OW38725   0.571   1.948   7.476 -0.3889  0.3195 -0.0042
 9031SOL    HW138726   0.543   1.931   7.566  0.2506 -1.3418 -0.1085
 9031SOL    HW238727   0.624   2.024   7.498  2.2688 -1.8638  1.0712
 9032SOL     OW38728   4.105   1.283   3.034 -0.6812  0.0949  0.5665
 9032SOL    HW138729   4.065   1.365   3.064 -0.8531  0.5677 -0.9685
 9032SOL    HW238730   4.160   1.309   2.960 -0.4423 -1.5815  0.1445
 9033SOL     OW38731   0.019   4.598   0.212 -0.4103 -0.0579 -0.0307
 9033SOL    HW138732   4.736   4.590   0.305 -0.6474 -3.3364 -0.3817
 9033SOL    HW238733   4.731   4.522   0.161  0.6540  0.3858 -1.2780
 9034SOL     OW38734   0.938   0.689  10.011 -0.3219  0.6887 -0.1229
 9034SOL    HW138735   0.926   0.595   9.995 -1.1692  0.9374 -0.9649
 9034SOL    HW238736   1.021   0.676  10.057 -1.4910 -0.6799  1.5955
 9035SOL     OW38737   2.915   2.076   0.805  0.0120  0.4012 -0.3596
 9035SOL    HW138738   2.908   2.011   0.875  2.0784 -1.1022 -1.5556
 9035SOL    HW238739   2.826   2.111   0.804  0.1027  0.7870  3.3675
 9036SOL     OW38740   2.551   4.008   8.686  0.0391 -0.1368  0.2976
 9036SOL    HW138741   2.560   3.914   8.671  0.5006 -0.1596  0.7075
 9036SOL    HW238742   2.502   4.041   8.611 -1.3043  1.2550  1.7856
 9037SOL     OW38743   1.833   4.376  15.285  0.0425 -0.2369 -0.7644
 9037SOL    HW138744   1.828   4.377  15.380  0.9012  1.2910 -0.7314
 9037SOL    HW238745   1.856   4.466  15.260 -0.3402  0.7070  2.3133
 9038SOL     OW38746   3.868   4.471  12.916 -0.1391 -0.3305  0.5900
 9038SOL    HW138747   3.836   4.403  12.975  1.1273 -1.1600  0.3222
 9038SOL    HW238748   3.799   4.537  12.927  1.1422  1.2978 -0.9622
 9039SOL     OW38749   1.788   3.980   7.401  0.0197  0.0878 -0.4490
 9039SOL    HW138750   1.741   3.987   7.318  1.2985  0.6761 -1.1197
 9039SOL    HW238751   1.849   4.053   7.404 -1.8046  1.5015  1.6488
 9040SOL     OW38752   0.313   1.652   7.319  0.1761  0.3932 -0.2544
 9040SOL    HW138753   0.329   1.701   7.400 -1.1375  0.0465  0.2238
 9040SOL    HW238754   0.336   1.714   7.250 -0.2021  0.8366  0.0220
 9041SOL     OW38755   4.093   0.184   8.702  0.8170  0.0613 -0.5615
 9041SOL    HW138756   3.999   0.165   8.700  0.8925 -0.2931 -0.7485
 9041SOL    HW238757   4.133   0.165   8.617 -1.1778  1.0912 -1.7431
 9042SOL     OW38758   2.743   0.219   9.687  0.7209  0.5817 -0.1494
 9042SOL    HW138759   2.697   0.136   9.676  2.4470 -0.3707 -0.1709
 9042SOL    HW238760   2.667   0.277   9.685  0.8198  0.6196 -2.2504
 9043SOL     OW38761   0.523   1.929   2.149 -0.5570  0.3105  0.0744
 9043SOL    HW138762   0.467   1.853   2.133  0.0560 -0.4171  1.3484
 9043SOL    HW238763   0.496   1.964   2.234 -0.5973  1.6161 -0.4777
 9044SOL     OW38764   2.182   1.629   6.210 -0.3508  0.1216  0.3057
 9044SOL    HW138765   2.124   1.655   6.138  0.6192 -0.6218 -0.7405
 9044SOL    HW238766   2.131   1.568   6.263  0.2786 -0.9922 -0.3698
 9045SOL     OW38767   3.452   1.098   3.403 -0.0882 -0.5784 -0.1099
 9045SOL    HW138768   3.504   1.119   3.481 -0.5931 -0.9393  0.3213
 9045SOL    HW238769   3.506   1.091   3.324  2.5068 -0.2000  1.6116
 9046SOL     OW38770   2.248   0.919  13.171 -0.5900  0.2318  0.5930
 9046SOL    HW138771   2.293   0.907  13.255 -2.6718  0.0335  1.6854
 9046SOL    HW238772   2.173   0.862  13.188 -2.3522  2.5004  0.4533
 9047SOL     OW38773   2.840   4.630   3.928 -0.8121  0.1306  0.3463
 9047SOL    HW138774   2.875   4.583   4.004  1.7131  1.1072 -0.2232
 9047SOL    HW238775   2.873   4.576   3.855  1.9042  1.6048  0.4749
 9048SOL     OW38776   1.152   3.522  13.469 -0.2553 -0.2952 -0.5821
 9048SOL    HW138777   1.226   3.576  13.440  1.3251 -2.2683 -0.2382
 9048SOL    HW238778   1.092   3.527  13.396  3.2040  1.1424 -3.3348
 9049SOL     OW38779   2.993   1.085   6.122 -0.6000  0.4154  0.1628
 9049SOL    HW138780   2.940   1.006   6.105  1.0693 -1.0563  1.8754
 9049SOL    HW238781   2.979   1.138   6.043 -0.1778  0.2327 -0.0311
 9050SOL     OW38782   4.308   4.371  12.468 -0.5240 -0.2493 -0.3028
 9050SOL    HW138783   4.384   4.323  12.435 -0.0494 -0.7550  1.5339
 9050SOL    HW238784   4.317   4.365  12.563 -0.8356 -1.0728 -0.3244
 9051SOL     OW38785   4.410   2.319   9.867 -0.2613  0.0539  0.3730
 9051SOL    HW138786   4.436   2.374   9.941 -0.2229 -0.2881  0.6151
 9051SOL    HW238787   4.496   2.315   9.824  0.8335 -0.0903  2.5489
 9052SOL     OW38788   3.788   1.212   9.876 -0.1997 -0.5190  0.8034
 9052SOL    HW138789   3.747   1.265   9.944  2.3625  0.9406  1.2207
 9052SOL    HW238790   3.816   1.285   9.821 -3.3405 -0.3862 -0.6480
 9053SOL     OW38791   3.189   1.317   2.393  0.2013  0.2654  0.3135
 9053SOL    HW138792   3.197   1.408   2.421 -0.0649  0.4350 -0.1560
 9053SOL    HW238793   3.238   1.315   2.310 -1.6336  0.9538 -0.7798
 9054SOL     OW38794   1.746   0.842  17.235 -0.2464 -0.1893  0.1536
 9054SOL    HW138795   1.741   0.854  17.140 -0.2782  0.0229  0.1821
 9054SOL    HW238796   1.683   0.908  17.262 -0.6766 -0.0262 -1.2455
 9055SOL     OW38797   0.965   3.833  13.846 -0.5707  0.9363 -0.2485
 9055SOL    HW138798   0.976   3.759  13.786 -0.6587  1.5309 -1.0044
 9055SOL    HW238799   1.028   3.813  13.915  0.8007  1.6218 -1.2906
 9056SOL     OW38800   2.098   3.769  16.177 -0.1231 -0.5059  0.6680
 9056SOL    HW138801   2.038   3.820  16.231 -0.1536 -2.2164  2.2472
 9056SOL    HW238802   2.183   3.781  16.220  0.3937  0.2578 -0.5852
 9057SOL     OW38803   3.869   3.073   2.331  0.1521 -0.0790  0.3603
 9057SOL    HW138804   3.896   3.159   2.298  1.9627 -1.4759 -1.7613
 9057SOL    HW238805   3.816   3.048   2.255  0.5514  0.4894 -0.1101
 9058SOL     OW38806   2.563   2.837   2.232 -0.2346 -0.0312 -0.6236
 9058SOL    HW138807   2.556   2.799   2.144  1.1012 -1.6935  0.0010
 9058SOL    HW238808   2.472   2.821   2.256  0.5172 -4.0052 -0.4029
 9059SOL     OW38809   2.593   3.224  10.436  0.6371  0.3378  0.2735
 9059SOL    HW138810   2.648   3.293  10.473  1.1616  0.5327 -0.8498
 9059SOL    HW238811   2.655   3.150  10.439 -1.4980 -1.3384  3.2730
 9060SOL     OW38812   3.861   0.918   2.171 -0.2846 -0.1663 -0.3653
 9060SOL    HW138813   3.874   0.824   2.187  1.5942  0.5336  2.1809
 9060SOL    HW238814   3.952   0.947   2.174 -0.1446 -0.9636  2.7456
 9061SOL     OW38815   1.515   1.843  16.431 -0.2141  0.1672 -0.0552
 9061SOL    HW138816   1.574   1.770  16.450 -1.4824 -0.3354  1.9576
 9061SOL    HW238817   1.436   1.799  16.399 -2.6242  2.5078  2.6074
 9062SOL     OW38818   1.105   1.708  11.235  0.1707 -0.0842 -0.2394
 9062SOL    HW138819   1.136   1.656  11.162 -1.3594 -0.3871 -0.6672
 9062SOL    HW238820   1.057   1.775  11.186 -0.0786 -1.0004 -1.2480
 9063SOL     OW38821   1.990   1.879   1.660  0.7245  0.1042  0.3325
 9063SOL    HW138822   1.937   1.916   1.731 -0.9669 -0.0049 -0.8671
 9063SOL    HW238823   2.076   1.907   1.690  0.8647 -0.7992  0.7801
 9064SOL     OW38824   3.503   3.376   5.050  0.4262  0.5036  0.0656
 9064SOL    HW138825   3.482   3.379   4.957  0.4020  3.3468  0.1773
 9064SOL    HW238826   3.547   3.457   5.075  1.4439 -0.2375  0.6904
 9065SOL     OW38827   3.983   3.850   1.091 -0.1903 -0.2409  0.3189
 9065SOL    HW138828   4.043   3.807   1.152  1.8564 -0.0306 -1.5363
 9065SOL    HW238829   4.017   3.940   1.087  1.7353 -1.0386 -0.9264
 9066SOL     OW38830   1.750   3.290   7.384 -0.2828  0.9264 -0.1766
 9066SOL    HW138831   1.683   3.323   7.443 -1.0391 -1.2554  0.1972
 9066SOL    HW238832   1.818   3.352   7.409  2.7383 -2.0915 -0.7852
 9067SOL     OW38833   1.596   3.866   5.993  0.2521 -0.2587  0.0365
 9067SOL    HW138834   1.605   3.802   5.922  1.4638 -0.2303  0.1513
 9067SOL    HW238835   1.519   3.832   6.037  0.8628 -1.0106  0.5393
 9068SOL     OW38836   3.000   2.973  16.581 -0.3002  0.2759 -0.0785
 9068SOL    HW138837   3.054   2.918  16.525  0.3522 -0.3651  1.1975
 9068SOL    HW238838   2.922   2.964  16.525 -0.2598  0.0113 -0.0894
 9069SOL     OW38839   2.074   3.193   5.689  0.5627  0.3096  0.0980
 9069SOL    HW138840   2.126   3.117   5.664  1.8218  1.4842 -0.8632
 9069SOL    HW238841   2.006   3.194   5.622  0.6702  1.5908 -0.0028
 9070SOL     OW38842   0.107   0.184   3.561 -0.0846  0.1418 -0.5973
 9070SOL    HW138843   0.016   0.210   3.547  0.2614  0.1423 -2.8085
 9070SOL    HW238844   0.151   0.229   3.489 -1.5989  1.6815 -0.5750
 9071SOL     OW38845   2.129   1.989   6.832 -0.2522 -0.2012 -0.2740
 9071SOL    HW138846   2.062   1.970   6.766  0.6684  1.4737 -1.7047
 9071SOL    HW238847   2.143   1.900   6.864  1.5161 -0.7321 -2.4927
 9072SOL     OW38848   3.956   2.258  14.332  0.0745 -0.3894  0.3257
 9072SOL    HW138849   3.894   2.284  14.264 -2.6380 -0.2593  2.8186
 9072SOL    HW238850   3.956   2.163  14.321 -2.6788 -0.3034 -0.5142
 9073SOL     OW38851   3.885   3.469   5.517  0.3202  0.7119 -0.4663
 9073SOL    HW138852   3.905   3.379   5.493 -1.4702  0.8405 -2.4374
 9073SOL    HW238853   3.935   3.476   5.598  0.0041 -0.2125 -0.1970
 9074SOL     OW38854   0.889   3.174   3.941  0.3674  0.5855 -0.3213
 9074SOL    HW138855   0.851   3.226   3.870  2.8437  1.9704 -0.6373
 9074SOL    HW238856   0.835   3.095   3.941  0.1649  0.7303 -1.8181
 9075SOL     OW38857   0.971   0.839   2.123 -0.5336  0.7118 -0.0283
 9075SOL    HW138858   0.893   0.855   2.175  0.2373  2.8683  0.4643
 9075SOL    HW238859   1.015   0.782   2.186 -2.9805  0.9141  1.8781
 9076SOL     OW38860   1.416   0.053   2.727  0.3673  0.0521 -0.8261
 9076SOL    HW138861   1.447   0.065   2.638  1.9044  3.7056  0.2352
 9076SOL    HW238862   1.376   4.705   2.717  1.6098 -0.7381  1.1061
 9077SOL     OW38863   4.464   2.650   2.877 -0.2768 -0.0192  0.6852
 9077SOL    HW138864   4.408   2.595   2.932  0.5319 -2.6873 -1.1427
 9077SOL    HW238865   4.400   2.688   2.817 -0.9418 -0.6052  1.0215
 9078SOL     OW38866   4.439   2.747  14.937 -0.4375 -0.1678  0.2439
 9078SOL    HW138867   4.517   2.802  14.942 -1.1193  0.5887  2.2188
 9078SOL    HW238868   4.463   2.669  14.986 -1.0149  0.8523  2.1260
 9079SOL     OW38869   2.724   1.377   5.731 -0.2086  0.2931 -0.0983
 9079SOL    HW138870   2.717   1.282   5.741 -0.4020  0.4312  1.0044
 9079SOL    HW238871   2.721   1.406   5.822 -1.0969 -1.9530  0.5752
 9080SOL     OW38872   1.377   1.530   1.529 -0.1824 -0.2836 -0.3776
 9080SOL    HW138873   1.289   1.542   1.564 -0.0924 -1.8159  0.3739
 9080SOL    HW238874   1.425   1.516   1.611 -0.8787 -3.3108 -0.4998
 9081SOL     OW38875   4.093   3.969   4.813 -0.2481 -0.2009 -0.0648
 9081SOL    HW138876   4.149   3.894   4.792  0.6852  0.4162  0.2562
 9081SOL    HW238877   4.043   3.922   4.880 -0.8177  0.5301  0.0158
 9082SOL     OW38878   0.540   0.617   4.685  0.0644 -0.6011  0.1232
 9082SOL    HW138879   0.568   0.530   4.712  0.5302 -0.3843  0.3346
 9082SOL    HW238880   0.570   0.672   4.756  3.8195 -0.7451 -1.3622
 9083SOL     OW38881   4.644   2.502   9.315  0.3507 -0.6100  0.1893
 9083SOL    HW138882   4.652   2.506   9.219 -1.7568  2.9653  0.1604
 9083SOL    HW238883   4.728   2.460   9.333  1.0029  0.6570  0.1108
 9084SOL     OW38884   1.189   0.014  14.585 -0.3626  0.1312  0.1354
 9084SOL    HW138885   1.245   0.041  14.658 -0.5830 -0.6546  0.6033
 9084SOL    HW238886   1.109   4.735  14.635 -0.7232  0.8609 -0.1909
 9085SOL     OW38887   3.654   1.044   2.073 -0.5623  0.2162 -0.0590
 9085SOL    HW138888   3.730   1.011   2.120  0.1380 -0.8138 -1.9027
 9085SOL    HW238889   3.624   0.969   2.022 -2.8361  0.5556  0.7718
 9086SOL     OW38890   0.654   4.496   6.122 -0.4138  0.3793  0.6086
 9086SOL    HW138891   0.632   4.432   6.055 -0.6839  1.2194 -0.1078
 9086SOL    HW238892   0.568   4.509   6.162  0.3959  0.5085  2.3206
 9087SOL     OW38893   2.999   0.654  14.361  0.2956 -0.1474 -0.3196
 9087SOL    HW138894   2.975   0.610  14.443 -2.0616  0.1805 -0.8157
 9087SOL    HW238895   3.093   0.641  14.353  0.0303 -0.8458 -2.3397
 9088SOL     OW38896   2.836   3.294   8.399 -0.3307  0.1662  0.0911
 9088SOL    HW138897   2.762   3.239   8.372 -3.2965  6.0893 -3.9052
 9088SOL    HW238898   2.915   3.254   8.363 -0.7260  0.7491 -1.4339
 9089SOL     OW38899   3.570   4.512   0.247 -0.7645  0.1727 -0.1401
 9089SOL    HW138900   3.662   4.502   0.220 -0.1803  4.2288  0.3198
 9089SOL    HW238901   3.535   4.543   0.164 -0.9277 -1.8358 -0.8181
 9090SOL     OW38902   0.604   2.549   9.625 -0.0887  0.1785  0.1176
 9090SOL    HW138903   0.700   2.543   9.633 -0.2930 -0.8255  1.8073
 9090SOL    HW238904   0.593   2.616   9.558  1.5183  2.1869  1.8352
 9091SOL     OW38905   3.752   4.116   6.394 -0.6555 -0.3390 -0.6608
 9091SOL    HW138906   3.805   4.192   6.370 -1.0296  0.4385  0.9580
 9091SOL    HW238907   3.815   4.069   6.447 -0.5278 -1.5057 -1.8613
 9092SOL     OW38908   1.791   4.674  14.524 -0.5580  0.4304 -0.2744
 9092SOL    HW138909   1.800   4.601  14.463 -1.7241  0.2812 -0.2699
 9092SOL    HW238910   1.755   0.007  14.472 -1.2038  0.5804  0.3890
 9093SOL     OW38911   0.358   1.997   7.023  0.3623 -0.6426  0.4672
 9093SOL    HW138912   0.282   1.967   7.072 -0.1324 -1.2943 -0.6912
 9093SOL    HW238913   0.427   1.943   7.063  1.9305  0.1173 -1.1844
 9094SOL     OW38914   2.103   0.540  13.939 -0.0247  0.7669  0.2746
 9094SOL    HW138915   2.008   0.530  13.944  0.1203 -0.7737 -0.0595
 9094SOL    HW238916   2.114   0.445  13.934 -1.1300  0.6841 -0.5756
 9095SOL     OW38917   2.726   3.174   0.163  0.5618 -0.1295 -0.2162
 9095SOL    HW138918   2.741   3.151   0.255  0.0608  1.0833  0.1650
 9095SOL    HW238919   2.811   3.214   0.147  1.1448 -0.2418  2.5288
 9096SOL     OW38920   0.786   4.500   5.642  0.0102  0.3487 -0.2584
 9096SOL    HW138921   0.752   4.572   5.696 -2.2705 -0.7685 -0.1907
 9096SOL    HW238922   0.816   4.436   5.706 -0.4525 -0.2934 -0.6887
 9097SOL     OW38923   0.772   4.158  10.070 -0.6582  0.4104  0.6414
 9097SOL    HW138924   0.846   4.194  10.118 -0.8758 -0.1113  1.3763
 9097SOL    HW238925   0.820   4.107  10.006 -0.3907  2.2997 -0.6465
 9098SOL     OW38926   2.516   2.363  13.350  0.1705  0.0031 -0.1239
 9098SOL    HW138927   2.609   2.344  13.358  0.5978  1.4076 -1.6291
 9098SOL    HW238928   2.493   2.304  13.421  0.5764  1.6489  1.3683
 9099SOL     OW38929   2.916   2.339   8.331  0.1691 -0.1360  0.2713
 9099SOL    HW138930   2.917   2.348   8.235  0.3616 -0.7542  0.2188
 9099SOL    HW238931   2.919   2.432   8.354  0.2639 -0.2865  0.8609
 9100SOL     OW38932   0.124   2.011   4.849  0.1790  0.1231  0.1436
 9100SOL    HW138933   0.038   1.977   4.825  0.0314  0.1180  0.6959
 9100SOL    HW238934   0.164   1.929   4.877 -0.8887 -0.4846 -0.1107
 9101SOL     OW38935   0.668   3.064  14.415 -0.0972  0.0040 -0.1654
 9101SOL    HW138936   0.699   3.154  14.427 -2.5132  0.7370  0.4784
 9101SOL    HW238937   0.585   3.063  14.463  0.4925 -0.8136  0.8354
 9102SOL     OW38938   2.364   3.882   7.950 -0.2359  0.3701 -0.4653
 9102SOL    HW138939   2.398   3.966   7.983 -1.0914  0.4260  0.2904
 9102SOL    HW238940   2.272   3.908   7.940 -0.7761 -1.6796 -0.7463
 9103SOL     OW38941   3.657   1.127   5.437 -0.1111  0.1002 -0.0651
 9103SOL    HW138942   3.565   1.151   5.448 -0.4477 -0.8311 -0.8037
 9103SOL    HW238943   3.703   1.199   5.480  0.1357  0.2787 -0.6302
 9104SOL     OW38944   2.403   3.750   3.580  0.4077 -0.1271 -0.3659
 9104SOL    HW138945   2.408   3.833   3.628  0.6578 -0.6731  0.5593
 9104SOL    HW238946   2.366   3.699   3.652 -0.7227  1.2774  0.0421
 9105SOL     OW38947   1.954   0.676   4.980 -0.8405 -0.0867 -0.2636
 9105SOL    HW138948   1.963   0.618   4.905 -2.6398  0.8294 -1.1857
 9105SOL    HW238949   1.880   0.728   4.947  0.4596  1.8496 -0.1096
 9106SOL     OW38950   2.119   0.158  13.163  0.6243  0.8628  0.6352
 9106SOL    HW138951   2.161   0.082  13.123  0.5678 -0.6463  3.4284
 9106SOL    HW238952   2.037   0.121  13.196  1.4815 -0.7684  0.9693
 9107SOL     OW38953   4.596   4.736   6.679  0.3180 -0.2405  0.1161
 9107SOL    HW138954   4.536   4.708   6.748 -0.5921  0.0577 -0.5716
 9107SOL    HW238955   4.530   0.017   6.614 -1.1694 -0.5393  1.5357
 9108SOL     OW38956   2.545   4.612   3.248 -0.2773  0.2290 -0.4057
 9108SOL    HW138957   2.591   4.629   3.330 -0.6422 -0.8842  0.0256
 9108SOL    HW238958   2.604   4.657   3.187 -0.2184 -1.7554 -1.7962
 9109SOL     OW38959   3.700   1.343   2.538  0.0104  0.1125  0.2043
 9109SOL    HW138960   3.752   1.297   2.472  0.8164  2.2954 -0.6902
 9109SOL    HW238961   3.710   1.291   2.617 -1.7891 -0.3748  0.1004
 9110SOL     OW38962   0.468   2.048   5.104 -0.5096 -0.4468 -0.5265
 9110SOL    HW138963   0.538   2.081   5.047 -1.1630  1.5838 -0.1363
 9110SOL    HW238964   0.493   2.082   5.190  0.2339  0.5347 -1.1204
 9111SOL     OW38965   0.855   0.836  13.556 -0.1315 -0.3914 -0.0494
 9111SOL    HW138966   0.854   0.757  13.610  0.4007 -0.5990 -0.3347
 9111SOL    HW238967   0.949   0.852  13.562 -0.2594  0.1271  0.5490
 9112SOL     OW38968   1.927   1.117   9.602  0.4327 -0.8674 -0.5354
 9112SOL    HW138969   1.930   1.050   9.534 -0.4551 -1.1215 -0.3201
 9112SOL    HW238970   2.011   1.100   9.645  0.0997 -1.3614 -0.0897
 9113SOL     OW38971   0.926   0.962   3.503  0.4715  0.3561  0.2275
 9113SOL    HW138972   0.884   0.881   3.531  1.3246 -0.3686 -0.5751
 9113SOL    HW238973   0.952   0.997   3.589 -2.0791  1.2357  0.6293
 9114SOL     OW38974   3.913   2.209   8.756  0.2600 -0.0473 -0.4650
 9114SOL    HW138975   3.824   2.193   8.787 -0.3853  0.2258 -2.1756
 9114SOL    HW238976   3.934   2.159   8.677 -0.5300  1.4396 -1.6363
 9115SOL     OW38977   0.781   0.076   1.891  0.1935  0.0802 -0.1271
 9115SOL    HW138978   0.722   0.105   1.961 -1.5886 -1.4850 -0.9700
 9115SOL    HW238979   0.789   0.149   1.829 -2.0086  0.7308  0.3474
 9116SOL     OW38980   0.247   3.556   7.070  0.1499 -0.2924  0.5964
 9116SOL    HW138981   0.179   3.606   7.116 -1.3549 -0.0364 -1.9043
 9116SOL    HW238982   0.231   3.578   6.978 -0.1326 -2.3328  0.1710
 9117SOL     OW38983   0.547   2.231   3.260 -0.2511 -0.3467 -0.8925
 9117SOL    HW138984   0.497   2.297   3.307  1.0886  0.0830 -0.0705
 9117SOL    HW238985   0.574   2.172   3.330 -1.4087  0.7800  0.5146
 9118SOL     OW38986   3.998   0.575   5.508 -0.0479 -0.1892 -0.2274
 9118SOL    HW138987   4.023   0.502   5.564  2.9960  0.7239 -0.3850
 9118SOL    HW238988   3.951   0.530   5.438 -1.5602 -0.9579  1.3123
 9119SOL     OW38989   2.785   2.624   4.001 -0.3571  0.5213 -0.0819
 9119SOL    HW138990   2.720   2.616   4.071 -1.5772  2.2299 -1.0186
 9119SOL    HW238991   2.737   2.576   3.933 -3.1353 -1.6635  3.4257
 9120SOL     OW38992   1.752   0.483   2.429  0.2941  0.2570 -0.2323
 9120SOL    HW138993   1.790   0.401   2.398  0.2370 -0.5064  1.7020
 9120SOL    HW238994   1.713   0.464   2.515  0.4855  1.1458  0.0548
 9121SOL     OW38995   2.725   1.016   0.218  0.0757  0.5503  0.3798
 9121SOL    HW138996   2.760   1.089   0.269  1.6235  0.9911 -1.3312
 9121SOL    HW238997   2.804   0.970   0.191 -0.4653  0.0759 -0.4151
 9122SOL     OW38998   3.070   1.716  16.831  0.0665  0.1977  0.6696
 9122SOL    HW138999   3.084   1.637  16.883  0.1440 -0.6303 -0.5861
 9122SOL    HW239000   3.064   1.789  16.892 -2.0336 -0.6223  1.4244
 9123SOL     OW39001   0.636   4.654   8.803  0.1266  0.5621  0.4815
 9123SOL    HW139002   0.662   4.606   8.882 -0.2639  1.2826  1.0403
 9123SOL    HW239003   0.561   4.604   8.770  1.7361 -2.0618  0.7418
 9124SOL     OW39004   1.996   0.198   2.405 -0.4529 -0.0759 -0.0914
 9124SOL    HW139005   2.035   0.284   2.394 -0.9147  0.2504  0.7533
 9124SOL    HW239006   2.056   0.144   2.354 -1.8047 -2.4644  0.8617
 9125SOL     OW39007   0.167   3.531   3.157 -0.5693 -0.8209 -0.3595
 9125SOL    HW139008   0.203   3.462   3.212  0.6556  0.5956  0.6370
 9125SOL    HW239009   0.169   3.601   3.223 -2.0546  1.3780 -2.6477
 9126SOL     OW39010   1.661   2.396   1.122  0.3086  0.0804 -0.4532
 9126SOL    HW139011   1.643   2.490   1.131  0.2962 -0.1897  2.3768
 9126SOL    HW239012   1.596   2.380   1.053  0.4663 -0.5499 -0.4524
 9127SOL     OW39013   1.834   3.988   6.087  0.8788  0.2675  0.3228
 9127SOL    HW139014   1.750   3.972   6.044  0.3614  0.0084  1.4124
 9127SOL    HW239015   1.821   3.932   6.164  0.1234  0.0540  0.0377
 9128SOL     OW39016   2.396   2.748  10.937 -0.1313 -0.1956  0.3532
 9128SOL    HW139017   2.341   2.670  10.944 -0.9151  0.3323  0.1184
 9128SOL    HW239018   2.346   2.796  10.871  0.6759 -0.1895 -0.2557
 9129SOL     OW39019   2.624   1.469   7.403 -0.3449  0.2672 -0.0281
 9129SOL    HW139020   2.533   1.481   7.429 -0.9702  0.2352 -2.2083
 9129SOL    HW239021   2.673   1.527   7.461 -0.1988 -0.6688  0.7878
 9130SOL     OW39022   4.536   4.118   6.800  0.0218 -0.4882 -0.8753
 9130SOL    HW139023   4.467   4.144   6.739  0.6252  2.0206 -0.5095
 9130SOL    HW239024   4.496   4.050   6.853  1.2865  0.4568  1.3314
 9131SOL     OW39025   1.154   0.028   6.459 -0.1123 -0.6119 -0.5491
 9131SOL    HW139026   1.153   4.683   6.506  1.1359 -0.4876 -0.2936
 9131SOL    HW239027   1.066   0.058   6.481  0.4596  0.1007  0.7316
 9132SOL     OW39028   0.864   2.757   9.168  0.2564  0.3120  0.1361
 9132SOL    HW139029   0.958   2.770   9.150  0.0633  0.0280 -1.1004
 9132SOL    HW239030   0.874   2.688   9.234  0.0095 -0.6124 -0.7873
 9133SOL     OW39031   3.665   0.601  17.241  0.2958  0.6212  0.2628
 9133SOL    HW139032   3.725   0.657  17.290 -1.3689  0.5465  2.4311
 9133SOL    HW239033   3.580   0.637  17.267  0.4309  1.9880 -1.2237
 9134SOL     OW39034   0.162   2.385   6.168  0.2980  0.2095 -0.3683
 9134SOL    HW139035   0.126   2.343   6.091 -2.7222 -0.1613  1.2614
 9134SOL    HW239036   0.249   2.412   6.139 -0.2354  0.8892 -1.3256
 9135SOL     OW39037   4.690   0.097   7.580 -0.3215  0.6058  0.0585
 9135SOL    HW139038   0.001   0.058   7.508 -0.2479 -0.1984  0.5416
 9135SOL    HW239039   4.600   0.107   7.548 -0.9648 -0.7707  1.4042
 9136SOL     OW39040   0.244   3.557   7.916 -0.6148 -0.2115 -0.5158
 9136SOL    HW139041   0.333   3.580   7.888 -0.1361 -0.8031  0.5285
 9136SOL    HW239042   0.261   3.476   7.964  0.9209  0.1700 -0.4142
 9137SOL     OW39043   1.701   3.500  17.473 -0.1686 -0.1272  0.5565
 9137SOL    HW139044   1.622   3.485  17.420  0.0751 -0.7999  0.3881
 9137SOL    HW239045   1.765   3.486  17.404 -2.1854 -1.9486 -0.9690
 9138SOL     OW39046   3.329   3.648   7.289 -0.2848 -0.2973 -0.2093
 9138SOL    HW139047   3.283   3.629   7.208  0.6970  0.5455 -0.9569
 9138SOL    HW239048   3.298   3.579   7.348  0.4540  0.2567  0.8387
 9139SOL     OW39049   4.732   0.906   9.669  0.5363  0.3971  0.6172
 9139SOL    HW139050   4.643   0.870   9.671  0.3101  0.7395 -3.6584
 9139SOL    HW239051   4.729   0.977   9.733  1.9253  1.0201 -0.0085
 9140SOL     OW39052   0.138   4.034   2.401 -0.4873  0.1508 -0.1172
 9140SOL    HW139053   0.069   4.101   2.408  0.2712  1.0413 -1.3050
 9140SOL    HW239054   0.169   4.050   2.312 -1.7384  0.1455 -0.5614
 9141SOL     OW39055   4.245   3.570   7.779  0.5707  0.4548 -0.2755
 9141SOL    HW139056   4.200   3.509   7.720 -1.8960  0.9885  1.0550
 9141SOL    HW239057   4.338   3.554   7.763  0.4042 -1.3278  0.5616
 9142SOL     OW39058   3.014   4.347   6.296 -0.0868  0.2120 -0.1262
 9142SOL    HW139059   3.042   4.355   6.388 -0.2000 -1.1912  0.0370
 9142SOL    HW239060   2.921   4.324   6.306  0.0009 -0.4668 -0.8322
 9143SOL     OW39061   2.854   3.808   1.572  0.0790 -0.0764  0.2645
 9143SOL    HW139062   2.935   3.848   1.540 -0.2038  0.1840 -0.1362
 9143SOL    HW239063   2.826   3.873   1.636 -1.4282 -0.0132 -0.4425
 9144SOL     OW39064   3.538   3.768   7.468  0.6548  0.3395 -0.7787
 9144SOL    HW139065   3.484   3.700   7.429 -0.5866  0.4134  0.7937
 9144SOL    HW239066   3.620   3.756   7.420  1.0696 -0.7850  0.2178
 9145SOL     OW39067   0.110   1.353   5.419 -0.4161  0.2156 -0.6046
 9145SOL    HW139068   0.053   1.286   5.381  0.2046 -0.3997 -0.4439
 9145SOL    HW239069   0.055   1.430   5.403  1.6476  1.5023 -1.4718
 9146SOL     OW39070   2.464   4.143   5.120 -0.1591 -0.1717 -0.1098
 9146SOL    HW139071   2.457   4.237   5.104 -1.9614 -0.5028 -1.2324
 9146SOL    HW239072   2.558   4.139   5.139 -0.1693  0.7746  0.1134
 9147SOL     OW39073   0.888   2.792   3.713 -0.4980  0.7942 -0.3395
 9147SOL    HW139074   0.842   2.762   3.792  1.5311  0.6429  0.7859
 9147SOL    HW239075   0.835   2.867   3.687 -0.8673  0.5070 -0.4122
 9148SOL     OW39076   3.646   0.476   2.846 -1.4757  0.1897 -0.1141
 9148SOL    HW139077   3.621   0.496   2.936  0.0216 -1.8370  0.7429
 9148SOL    HW239078   3.729   0.523   2.843 -0.4901 -1.6826 -2.7747
 9149SOL     OW39079   2.379   3.444   9.882 -0.4731 -0.0647  0.8764
 9149SOL    HW139080   2.409   3.353   9.876 -0.9326 -0.2767  1.8010
 9149SOL    HW239081   2.333   3.445   9.798  1.6359 -1.5130 -0.3215
 9150SOL     OW39082   1.607   2.111   7.375  0.5139 -0.1550  0.1548
 9150SOL    HW139083   1.591   2.154   7.459 -2.2116 -2.0703  0.6062
 9150SOL    HW239084   1.627   2.196   7.335 -0.8915  0.5331  0.9439
 9151SOL     OW39085   2.200   3.710   7.244 -1.0868  0.8909  0.1481
 9151SOL    HW139086   2.246   3.647   7.299  0.2354  2.5333  0.9249
 9151SOL    HW239087   2.265   3.781   7.248 -1.6709  1.4049  0.5011
 9152SOL     OW39088   4.608   2.317  16.356 -0.6332  0.1657  0.5575
 9152SOL    HW139089   4.536   2.355  16.306 -0.4834 -1.8698 -1.2285
 9152SOL    HW239090   4.648   2.394  16.397 -0.6795  0.2869  0.3736
 9153SOL     OW39091   2.913   1.640   7.979  0.0733 -0.1012 -0.0400
 9153SOL    HW139092   2.993   1.668   7.935  1.1160 -0.4894  1.5842
 9153SOL    HW239093   2.844   1.690   7.936 -0.7334 -1.3855 -0.2315
 9154SOL     OW39094   3.415   2.293   8.936 -0.2333  0.3151 -0.4619
 9154SOL    HW139095   3.410   2.199   8.949  2.8491  0.3822  0.9652
 9154SOL    HW239096   3.339   2.308   8.878  0.6102  0.3013 -1.5645
 9155SOL     OW39097   2.491   4.609  14.879 -0.1901  0.6711  0.5047
 9155SOL    HW139098   2.566   4.575  14.927  0.3935 -0.1018 -0.9383
 9155SOL    HW239099   2.537   4.664  14.816 -2.1665  0.8479 -0.8059
 9156SOL     OW39100   1.571   2.451   2.163 -0.2468 -0.1598 -0.1620
 9156SOL    HW139101   1.568   2.414   2.251  1.0737  1.0524  0.3760
 9156SOL    HW239102   1.597   2.376   2.108  0.3026  1.5773 -2.2689
 9157SOL     OW39103   3.419   3.792   5.049 -0.2068 -0.2679 -0.3269
 9157SOL    HW139104   3.470   3.806   5.129 -0.2734  0.7319 -0.4626
 9157SOL    HW239105   3.369   3.874   5.057 -0.8810 -0.7016 -0.1275
 9158SOL     OW39106   2.216   1.248   9.410 -0.1677  0.3156 -0.0706
 9158SOL    HW139107   2.283   1.281   9.350  0.2599  0.0962  0.2846
 9158SOL    HW239108   2.220   1.156   9.383  1.4619 -0.2136  1.9553
 9159SOL     OW39109   0.561   2.629  17.289 -0.0782  0.2818 -0.2433
 9159SOL    HW139110   0.561   2.688  17.214  1.2504 -0.1869 -0.6072
 9159SOL    HW239111   0.498   2.676  17.344 -3.4827 -1.4386 -2.6691
 9160SOL     OW39112   1.772   3.237   5.809  0.1653  0.1793 -0.1053
 9160SOL    HW139113   1.845   3.293   5.836  0.2252 -0.3448  0.8482
 9160SOL    HW239114   1.722   3.295   5.751  0.1193  0.0616 -0.1830
 9161SOL     OW39115   2.584   3.938   0.907  0.2933 -0.0039 -0.0859
 9161SOL    HW139116   2.547   3.947   0.995  1.7400  1.7201  0.3349
 9161SOL    HW239117   2.622   3.852   0.924 -1.3717 -0.5603  0.8708
 9162SOL     OW39118   2.186   0.752   3.776 -0.4477  0.2680  0.1064
 9162SOL    HW139119   2.169   0.735   3.683  2.7290  1.0317 -0.6225
 9162SOL    HW239120   2.281   0.764   3.775 -0.4430  0.1668 -0.8940
 9163SOL     OW39121   1.594   4.354  14.084  0.1186 -0.4077  0.0461
 9163SOL    HW139122   1.536   4.392  14.151 -0.3143  0.6760 -0.9537
 9163SOL    HW239123   1.640   4.299  14.147  0.7107  0.6750  0.5581
 9164SOL     OW39124   0.106   3.541   8.864 -0.0144  0.2926 -0.7315
 9164SOL    HW139125   0.063   3.481   8.925  1.2230  0.7061  0.5484
 9164SOL    HW239126   0.048   3.537   8.788 -1.8821 -2.1399  0.7675
 9165SOL     OW39127   4.246   4.363   4.635  0.3435 -0.8905 -0.5667
 9165SOL    HW139128   4.304   4.434   4.608  0.0124 -0.2951  0.2757
 9165SOL    HW239129   4.165   4.400   4.600  2.3738  2.7025 -1.5325
 9166SOL     OW39130   4.467   2.207   4.182  0.3036  0.0376  0.1013
 9166SOL    HW139131   4.524   2.140   4.142  0.5732  0.2750  0.0880
 9166SOL    HW239132   4.499   2.284   4.135 -1.2806 -0.2446 -1.4352
 9167SOL     OW39133   0.140   0.139   8.710  0.1366  0.3626  0.0444
 9167SOL    HW139134   0.226   0.150   8.670 -0.6865  1.1610 -1.4724
 9167SOL    HW239135   0.088   0.189   8.647 -1.7420 -1.6566 -0.0188
 9168SOL     OW39136   3.128   2.198   7.731 -0.0211 -0.1054  0.0984
 9168SOL    HW139137   3.175   2.234   7.656  0.9008 -1.0013  0.2379
 9168SOL    HW239138   3.036   2.215   7.710 -0.2378 -1.3311  0.0541
 9169SOL     OW39139   1.556   2.241   9.585  0.0505 -0.7007  0.3907
 9169SOL    HW139140   1.603   2.325   9.585 -0.8556 -0.2011  2.5934
 9169SOL    HW239141   1.466   2.272   9.591 -0.5181 -2.6719  1.8742
 9170SOL     OW39142   0.805   1.837   3.589  0.3493 -0.3743  0.0133
 9170SOL    HW139143   0.800   1.816   3.683  0.8453  1.2668  0.4022
 9170SOL    HW239144   0.887   1.790   3.574  0.5104  0.2656 -1.0941
 9171SOL     OW39145   3.883   2.153   6.555  0.1636 -0.0690 -0.0976
 9171SOL    HW139146   3.960   2.171   6.501 -0.3479 -0.1901 -0.8605
 9171SOL    HW239147   3.906   2.065   6.586  1.9088  0.5280  0.3045
 9172SOL     OW39148   1.668   3.528   2.205 -0.0500  0.4184 -0.3322
 9172SOL    HW139149   1.739   3.574   2.250  2.1576 -1.5652 -1.7804
 9172SOL    HW239150   1.623   3.486   2.279 -1.2429  1.6159 -0.3816
 9173SOL     OW39151   2.189   3.974   2.962 -0.3725 -0.2359  0.1458
 9173SOL    HW139152   2.146   3.941   2.883 -0.8671  0.0705  0.2940
 9173SOL    HW239153   2.211   3.894   3.009  0.7436 -0.1363 -0.1955
 9174SOL     OW39154   2.847   1.333   9.084  0.6206  0.1809 -0.0426
 9174SOL    HW139155   2.806   1.275   9.019  0.6308  0.5693 -0.3952
 9174SOL    HW239156   2.889   1.377   9.010 -1.3634  2.0631 -0.0359
 9175SOL     OW39157   1.798   0.927   8.472 -0.1174  0.8432  0.0995
 9175SOL    HW139158   1.869   0.863   8.473 -1.3541 -0.5846 -2.2935
 9175SOL    HW239159   1.723   0.875   8.444  0.4456  0.2616 -0.3069
 9176SOL     OW39160   3.154   4.369   2.740 -0.1392 -0.4617  0.1654
 9176SOL    HW139161   3.222   4.305   2.719 -0.0418 -1.2343  2.9073
 9176SOL    HW239162   3.121   4.397   2.654  0.0589  2.0774  0.9233
 9177SOL     OW39163   0.152   2.508  15.827 -0.0874  0.4667 -0.2964
 9177SOL    HW139164   0.209   2.568  15.779 -1.4159  1.5985 -0.4791
 9177SOL    HW239165   0.087   2.571  15.859  0.5994  0.6117  0.8268
 9178SOL     OW39166   2.278   0.057   2.555  0.2416  0.6929  0.2549
 9178SOL    HW139167   2.264   0.146   2.587 -1.7761  0.5635 -0.2964
 9178SOL    HW239168   2.233   0.050   2.471 -3.4859  1.5191  2.1797
 9179SOL     OW39169   4.280   3.430   1.605  0.6608  0.3593  0.0059
 9179SOL    HW139170   4.345   3.456   1.670 -0.0472  0.1410  0.8068
 9179SOL    HW239171   4.265   3.511   1.556 -3.9379 -0.3943  0.1906
 9180SOL     OW39172   3.981   2.246   6.245 -0.4084 -0.0454  0.3714
 9180SOL    HW139173   3.886   2.235   6.250 -0.6230  1.7462  0.1604
 9180SOL    HW239174   3.979   2.342   6.241  1.3536 -0.0078  0.7762
 9181SOL     OW39175   1.480   4.274  13.853 -0.0798  0.1201 -0.2095
 9181SOL    HW139176   1.539   4.217  13.804 -1.6176 -1.7655  0.0918
 9181SOL    HW239177   1.544   4.320  13.907 -1.1602  0.9261  0.3737
 9182SOL     OW39178   3.490   1.962  17.248 -0.0516  0.1943  0.1859
 9182SOL    HW139179   3.456   2.038  17.295  1.5038  1.7389 -1.1606
 9182SOL    HW239180   3.442   1.883  17.274  0.1637  0.0870  0.2575
 9183SOL     OW39181   2.086   1.816   4.228  0.0440 -0.1205 -0.5874
 9183SOL    HW139182   2.048   1.899   4.257  2.0836  0.2257  1.1581
 9183SOL    HW239183   2.062   1.756   4.298  1.3258 -0.0998 -0.1225
 9184SOL     OW39184   4.053   2.036  16.753 -0.3402 -0.0761  0.0142
 9184SOL    HW139185   4.108   2.037  16.832 -3.1044 -0.8735  1.9668
 9184SOL    HW239186   3.995   1.962  16.769 -0.9187  0.0661 -1.4819
 9185SOL     OW39187   4.076   2.110  15.825  0.2895 -0.2783  0.5718
 9185SOL    HW139188   4.012   2.086  15.892 -1.0750  1.0574 -0.2339
 9185SOL    HW239189   4.026   2.150  15.753  2.7225  2.0428  0.1796
 9186SOL     OW39190   4.019   3.420   8.220  0.3762  0.4356  0.3761
 9186SOL    HW139191   4.082   3.412   8.148 -0.6864  0.6449 -0.5688
 9186SOL    HW239192   4.062   3.486   8.275  0.3340  0.6911  0.0975
 9187SOL     OW39193   3.752   2.232   6.790  0.2025 -0.3163  0.3809
 9187SOL    HW139194   3.794   2.315   6.769  0.0578 -0.6395 -1.1731
 9187SOL    HW239195   3.781   2.183   6.713 -1.6514  1.1260 -1.2238
 9188SOL     OW39196   2.520   4.529   4.291 -0.1392 -0.3626 -0.1215
 9188SOL    HW139197   2.588   4.490   4.236  0.0826  1.9057 -1.4075
 9188SOL    HW239198   2.550   4.496   4.376 -1.6438 -0.5276  0.3467
 9189SOL     OW39199   2.070   3.683   3.204 -0.2251  0.1426  0.0385
 9189SOL    HW139200   2.136   3.740   3.244 -0.4501  0.4467 -0.0264
 9189SOL    HW239201   2.061   3.613   3.268  0.0712 -1.0155 -1.1875
 9190SOL     OW39202   4.643   3.681   6.804 -0.2175  0.7970 -0.4473
 9190SOL    HW139203   4.588   3.738   6.859  0.4874  0.8922  0.1637
 9190SOL    HW239204   4.603   3.682   6.717  0.0180 -0.3575 -0.5621
 9191SOL     OW39205   0.154   3.462  14.650 -0.2706 -0.5502 -0.3022
 9191SOL    HW139206   0.213   3.394  14.621  1.8316  1.4707 -0.7289
 9191SOL    HW239207   0.150   3.451  14.745  4.3849  2.3416  0.2199
 9192SOL     OW39208   3.101   3.359  13.966 -0.0650 -0.0128  0.3667
 9192SOL    HW139209   3.075   3.444  13.931 -1.3467 -0.7082 -0.3791
 9192SOL    HW239210   3.018   3.310  13.972 -0.5896  0.8211 -0.0519
 9193SOL     OW39211   3.741   0.086   9.536 -0.1442 -0.0589 -0.5259
 9193SOL    HW139212   3.675   0.065   9.601 -1.3576 -0.0151 -1.7385
 9193SOL    HW239213   3.731   0.178   9.510  0.2765  0.4320  1.0589
 9194SOL     OW39214   3.809   2.486   6.669 -0.1756 -0.6749 -0.1374
 9194SOL    HW139215   3.789   2.468   6.578 -0.4191 -1.1473  0.0108
 9194SOL    HW239216   3.898   2.522   6.667 -0.5006  0.0998 -0.6136
 9195SOL     OW39217   1.949   2.538  10.105  0.4709  0.3771  0.4065
 9195SOL    HW139218   2.023   2.480  10.122 -0.3181 -0.2720  1.6368
 9195SOL    HW239219   1.964   2.561  10.013  0.6829 -2.7543 -0.3415
 9196SOL     OW39220   1.047   0.158   4.073 -0.2613  0.6014  0.5341
 9196SOL    HW139221   0.970   0.115   4.038  0.3396  0.3695 -0.5040
 9196SOL    HW239222   1.110   0.087   4.062 -0.9706 -0.1702  1.4681
 9197SOL     OW39223   4.173   2.849  14.880 -0.6081  0.2645  1.0927
 9197SOL    HW139224   4.262   2.821  14.903 -0.7234 -0.4724  0.6721
 9197SOL    HW239225   4.150   2.799  14.802 -0.1292  1.5330  0.1502
 9198SOL     OW39226   4.116   4.007  17.299  0.0200 -0.7558 -0.1150
 9198SOL    HW139227   4.182   4.075  17.311  0.8659 -1.0302 -3.0963
 9198SOL    HW239228   4.169   3.935  17.265 -0.0825 -0.7132 -0.3698
 9199SOL     OW39229   1.702   1.547   6.667  0.4788 -0.6437  0.9408
 9199SOL    HW139230   1.626   1.488   6.665  0.6357 -0.8472  0.9915
 9199SOL    HW239231   1.687   1.629   6.620  2.9902 -1.0167 -0.4920
 9200SOL     OW39232   0.902   0.951   5.972  0.1217 -0.2658 -0.0524
 9200SOL    HW139233   0.885   1.041   5.946  0.7112  0.5504  2.4266
 9200SOL    HW239234   0.958   0.970   6.048 -3.5420  0.3671  2.4957
 9201SOL     OW39235   3.345   2.211   2.663 -0.0460 -0.3623 -0.2445
 9201SOL    HW139236   3.317   2.283   2.606  1.9108  1.2162  0.7763
 9201SOL    HW239237   3.366   2.141   2.602 -0.1329  0.6599 -1.4547
 9202SOL     OW39238   2.460   2.582  13.200  0.9275  0.5100 -0.0923
 9202SOL    HW139239   2.472   2.501  13.250 -2.3206 -1.6018 -2.7507
 9202SOL    HW239240   2.368   2.606  13.215  1.3583  2.7430 -1.0751
 9203SOL     OW39241   4.439   3.580   6.649 -0.3188  0.7326  0.1253
 9203SOL    HW139242   4.404   3.530   6.722  0.2669 -2.0997 -1.5607
 9203SOL    HW239243   4.361   3.612   6.603 -0.0227  0.3702 -0.6245
 9204SOL     OW39244   0.978   4.098  12.370 -0.0415 -0.4417  0.1964
 9204SOL    HW139245   0.886   4.072  12.381 -0.5779  1.2349 -0.3124
 9204SOL    HW239246   0.956   4.178  12.322 -1.6255 -2.2530 -2.0896
 9205SOL     OW39247   1.146   0.425   3.017 -0.1578  0.5146 -0.4807
 9205SOL    HW139248   1.147   0.343   2.969 -0.6364  0.5476 -0.5499
 9205SOL    HW239249   1.237   0.439   3.042  0.7512 -1.1691 -2.8760
 9206SOL     OW39250   1.362   3.984   1.735 -0.1230 -0.0750 -0.5135
 9206SOL    HW139251   1.408   3.920   1.680 -1.1695  0.2619 -1.7906
 9206SOL    HW239252   1.306   3.926   1.786 -0.7537  0.4333 -0.6202
 9207SOL     OW39253   4.736   0.879  14.419 -0.1418 -0.7932 -0.1585
 9207SOL    HW139254   4.664   0.937  14.395 -1.4337 -2.9217 -1.4874
 9207SOL    HW239255   4.704   0.789  14.431 -1.4222 -0.2477  0.5545
 9208SOL     OW39256   1.573   4.243   0.710 -1.0161  0.0442 -0.1247
 9208SOL    HW139257   1.641   4.303   0.680 -0.7248 -0.9648 -1.5038
 9208SOL    HW239258   1.509   4.292   0.761  1.2240  1.0436  1.7094
 9209SOL     OW39259   0.937   0.970   5.044  0.0367  0.7555 -0.0866
 9209SOL    HW139260   0.860   0.913   5.046  1.1401 -0.6742  2.7760
 9209SOL    HW239261   0.982   0.957   5.128 -0.6036 -0.8954 -0.0117
 9210SOL     OW39262   2.062   3.126   1.304  0.1270 -0.6007  0.4676
 9210SOL    HW139263   2.021   3.091   1.383  0.4045 -0.8820  0.4843
 9210SOL    HW239264   1.999   3.187   1.265  0.5965  0.2007  0.9517
 9211SOL     OW39265   3.762   3.567   0.963 -0.5059 -0.2027 -0.5206
 9211SOL    HW139266   3.850   3.561   1.002  0.4721 -1.3710 -2.9049
 9211SOL    HW239267   3.714   3.627   1.020  1.4842 -0.6337  1.6197
 9212SOL     OW39268   1.405   4.646   2.168 -0.5859  0.0737 -0.3436
 9212SOL    HW139269   1.408   4.718   2.104 -0.7544  1.3179  1.0314
 9212SOL    HW239270   1.361   4.691   2.240 -0.0852  1.0440 -0.6390
 9213SOL     OW39271   0.529   0.989   5.572 -0.1263 -0.0554  0.0423
 9213SOL    HW139272   0.526   1.008   5.666 -0.3584  3.9537 -0.7859
 9213SOL    HW239273   0.546   0.895   5.580 -0.7072 -0.1944 -0.3247
 9214SOL     OW39274   4.598   3.230   9.423 -0.0330  0.3362  0.0165
 9214SOL    HW139275   4.586   3.141   9.456  0.2987  0.4724  0.4982
 9214SOL    HW239276   4.598   3.283   9.503  1.0044 -0.1383  0.3284
 9215SOL     OW39277   2.036   2.897   5.815  1.0726 -0.1225 -0.5564
 9215SOL    HW139278   2.098   2.916   5.744 -0.2683 -1.3052 -2.0649
 9215SOL    HW239279   2.082   2.936   5.889 -0.8790  0.4246  0.3573
 9216SOL     OW39280   2.987   1.677   7.231 -0.5386 -0.3950 -0.1259
 9216SOL    HW139281   2.993   1.645   7.141 -1.1566  1.2587 -0.7586
 9216SOL    HW239282   3.039   1.758   7.230  0.1995 -0.8670  0.8035
 9217SOL     OW39283   3.160   2.430   0.767  0.5150  0.3001  0.1195
 9217SOL    HW139284   3.074   2.423   0.808  0.9340  1.0181  1.1274
 9217SOL    HW239285   3.212   2.376   0.826 -0.7607 -1.4280 -0.3531
 9218SOL     OW39286   4.451   2.091   7.536 -0.1587  0.1528  0.3263
 9218SOL    HW139287   4.382   2.042   7.581 -0.2157 -0.6946 -0.6939
 9218SOL    HW239288   4.425   2.183   7.547 -0.1755  0.0581  1.0840
 9219SOL     OW39289   0.888   4.313  14.744  0.4876  0.6275  0.1683
 9219SOL    HW139290   0.850   4.233  14.782  0.1150  0.8122  0.1883
 9219SOL    HW239291   0.857   4.302  14.654 -1.4512 -0.3565  0.9469
 9220SOL     OW39292   3.945   2.750   6.026 -0.5148 -0.7397 -0.5961
 9220SOL    HW139293   3.906   2.740   5.939  0.8942 -1.2412 -1.1737
 9220SOL    HW239294   3.976   2.840   6.017  0.6208 -1.2419 -1.6350
 9221SOL     OW39295   2.039   2.505  16.417  0.0674 -0.1989  0.2286
 9221SOL    HW139296   2.000   2.417  16.418  2.3206 -1.2221 -0.7359
 9221SOL    HW239297   2.015   2.526  16.327  0.5103 -0.0254  0.1531
 9222SOL     OW39298   0.529   2.600   0.736 -0.0821 -0.1810 -0.5196
 9222SOL    HW139299   0.616   2.641   0.742 -0.3436  0.1498  1.0528
 9222SOL    HW239300   0.553   2.537   0.668 -2.4507 -2.6855  0.9684
 9223SOL     OW39301   2.288   2.307  14.604  0.0787  0.0477 -0.0933
 9223SOL    HW139302   2.206   2.265  14.578 -1.2277  2.0701  0.7655
 9223SOL    HW239303   2.277   2.394  14.567  0.2521 -1.0211 -2.6773
 9224SOL     OW39304   0.964   3.152  15.042 -0.2671  0.0824  0.4573
 9224SOL    HW139305   1.053   3.155  15.078  0.3201 -0.1557 -0.9688
 9224SOL    HW239306   0.961   3.207  14.963  2.2446  0.4980  0.6390
 9225SOL     OW39307   3.477   0.458  16.143  0.2899  0.0126  0.1445
 9225SOL    HW139308   3.406   0.512  16.177  0.4794  0.9131 -0.8755
 9225SOL    HW239309   3.555   0.501  16.178  0.0880 -0.8475  1.6387
 9226SOL     OW39310   1.071   2.784   1.883 -0.6675 -0.4943 -0.7086
 9226SOL    HW139311   1.112   2.698   1.882 -1.5341 -0.8949 -1.1926
 9226SOL    HW239312   1.081   2.811   1.792 -1.8991 -0.0820 -0.7163
 9227SOL     OW39313   1.972   1.246   6.949  0.2380 -0.4931  0.1169
 9227SOL    HW139314   1.876   1.246   6.945  0.3135  0.7169 -1.6588
 9227SOL    HW239315   1.983   1.244   7.044  4.2042 -1.3687 -0.3590
 9228SOL     OW39316   1.295   3.985  10.705  0.3217  0.5204 -0.1290
 9228SOL    HW139317   1.352   3.983  10.782  0.3548 -0.2340 -0.1741
 9228SOL    HW239318   1.235   3.913  10.721  0.8015  0.6710  2.3695
 9229SOL     OW39319   1.665   1.621   2.231 -0.0864 -0.3980 -0.2714
 9229SOL    HW139320   1.723   1.596   2.160  1.0716 -1.1276  0.9300
 9229SOL    HW239321   1.689   1.713   2.243  3.2140 -1.2939 -0.0877
 9230SOL     OW39322   3.946   2.908  17.742 -0.1311 -0.2736  0.3196
 9230SOL    HW139323   4.019   2.952   0.034  0.5997 -2.2161  1.0685
 9230SOL    HW239324   3.872   2.964   0.013 -0.4164  0.3208 -1.9920
 9231SOL     OW39325   4.435   4.186   6.541 -0.0510 -0.0186  0.0756
 9231SOL    HW139326   4.478   4.267   6.566  0.3717 -0.0156 -0.6503
 9231SOL    HW239327   4.378   4.209   6.467 -0.9013 -2.3266  0.0027
 9232SOL     OW39328   1.245   4.344   2.478  0.5113  0.7794 -0.2583
 9232SOL    HW139329   1.284   4.282   2.415  1.9477 -0.2555  1.6698
 9232SOL    HW239330   1.177   4.384   2.423  0.6915 -0.3406 -1.3242
 9233SOL     OW39331   3.130   0.544   2.068  0.0547  0.0910 -0.0046
 9233SOL    HW139332   3.115   0.545   1.973  2.4851 -1.7340 -0.3997
 9233SOL    HW239333   3.172   0.627   2.089 -0.8909  0.3530  0.8545
 9234SOL     OW39334   3.412   2.385   7.895  0.4553  0.6069 -0.2711
 9234SOL    HW139335   3.393   2.298   7.930  0.8563 -0.6574 -3.2315
 9234SOL    HW239336   3.494   2.367   7.849  0.8544  0.8582  0.3360
 9235SOL     OW39337   3.678   2.478  17.717  0.5954  0.1390 -0.0807
 9235SOL    HW139338   3.638   2.447  17.636  2.0443 -2.4340  0.2008
 9235SOL    HW239339   3.733   2.550  17.685  0.0716  0.4700 -0.2470
 9236SOL     OW39340   3.241   0.971  12.725 -0.0545  0.0301 -0.2348
 9236SOL    HW139341   3.299   1.008  12.792 -0.9648  1.0204  0.0000
 9236SOL    HW239342   3.219   1.046  12.670  2.6975  1.3610  0.4296
 9237SOL     OW39343   4.062   2.216   9.902  0.0194 -0.3218 -0.2493
 9237SOL    HW139344   3.981   2.209   9.850 -0.1245 -1.0942  0.0774
 9237SOL    HW239345   4.122   2.212   9.828  0.0236  1.4019 -0.3360
 9238SOL     OW39346   3.889   0.983  10.834  0.2487  0.3811  0.3723
 9238SOL    HW139347   3.980   0.993  10.863  0.6545  1.3982 -1.2796
 9238SOL    HW239348   3.856   1.073  10.837 -1.2256 -0.1551  0.3121
 9239SOL     OW39349   3.980   1.317   3.479  0.1610 -0.2431  0.1203
 9239SOL    HW139350   3.897   1.318   3.527  0.4638 -0.3242  0.6413
 9239SOL    HW239351   3.955   1.341   3.390 -0.6434 -1.3175  0.0617
 9240SOL     OW39352   3.007   1.625   3.670  0.2904 -0.2993  0.1928
 9240SOL    HW139353   3.043   1.549   3.624 -0.3146 -0.5812  0.1911
 9240SOL    HW239354   2.934   1.647   3.613 -1.2236 -0.1672  2.1939
 9241SOL     OW39355   2.362   3.274  11.335 -0.0500 -0.0000 -0.6282
 9241SOL    HW139356   2.449   3.233  11.338 -0.1675 -0.3244 -2.0422
 9241SOL    HW239357   2.378   3.344  11.399  0.8458  0.0232 -0.8749
 9242SOL     OW39358   3.724   3.367   5.893  0.4452 -0.0816 -0.2949
 9242SOL    HW139359   3.759   3.404   5.975 -1.5027 -1.1400  1.0209
 9242SOL    HW239360   3.786   3.296   5.878  0.0159 -0.5994  0.3676
 9243SOL     OW39361   3.116   2.011   6.871  0.1531  0.2831 -0.0273
 9243SOL    HW139362   3.056   1.970   6.933 -0.1371 -1.5133 -1.5225
 9243SOL    HW239363   3.112   1.948   6.800 -2.1256  1.0664 -0.5817
 9244SOL     OW39364   0.587   0.350  15.625 -0.0758  0.0118  0.1437
 9244SOL    HW139365   0.531   0.272  15.625 -0.4596  0.2831 -0.6190
 9244SOL    HW239366   0.552   0.383  15.707  2.1641  0.9519  0.7310
 9245SOL     OW39367   3.280   0.756   6.332 -0.3309 -0.4368  0.1203
 9245SOL    HW139368   3.297   0.797   6.247 -1.3291  0.5554  0.4013
 9245SOL    HW239369   3.283   0.661   6.321  1.4305 -0.4022  0.2253
 9246SOL     OW39370   1.491   0.879   4.584  0.2056 -0.1523 -0.4175
 9246SOL    HW139371   1.502   0.792   4.622  0.7876  0.9307  1.9457
 9246SOL    HW239372   1.436   0.846   4.514 -1.9584  3.0722 -0.2131
 9247SOL     OW39373   3.699   3.903   2.551 -0.0225  0.4857  0.0172
 9247SOL    HW139374   3.702   3.996   2.527  2.9114  0.3692 -0.0689
 9247SOL    HW239375   3.609   3.883   2.576 -0.8369  0.8335 -2.6604
 9248SOL     OW39376   0.721   0.323   2.710  0.1290 -0.1569  0.3320
 9248SOL    HW139377   0.690   0.337   2.800  0.6495  1.7406  0.2152
 9248SOL    HW239378   0.699   0.232   2.689 -1.7206  0.6940 -1.4120
 9249SOL     OW39379   3.836   2.594   9.338  0.5988 -0.2010  0.1061
 9249SOL    HW139380   3.850   2.615   9.430  2.3481 -1.0645  0.0306
 9249SOL    HW239381   3.740   2.602   9.340  0.5390 -0.7967 -0.6123
 9250SOL     OW39382   1.837   2.462   9.741 -0.3651 -0.2190  0.0287
 9250SOL    HW139383   1.775   2.415   9.796  1.3083 -2.6913 -0.2018
 9250SOL    HW239384   1.784   2.511   9.678 -2.1672 -0.1453  1.6131
 9251SOL     OW39385   0.371   2.267   7.402  0.2693  0.2862 -0.3567
 9251SOL    HW139386   0.356   2.333   7.470 -1.4427 -2.1565  1.6310
 9251SOL    HW239387   0.466   2.263   7.394  0.4714  1.3547  1.2721
 9252SOL     OW39388   3.524   4.478   6.154 -0.7171  0.2629  0.0175
 9252SOL    HW139389   3.594   4.435   6.202 -0.7653 -0.5512 -0.6381
 9252SOL    HW239390   3.443   4.464   6.203 -0.7017  2.5891  0.7230
 9253SOL     OW39391   4.427   0.691   1.668 -0.5654  0.3153 -0.3339
 9253SOL    HW139392   4.480   0.658   1.741  1.3154 -1.4336 -2.4759
 9253SOL    HW239393   4.338   0.674   1.699 -0.6782  0.7541 -0.4226
 9254SOL     OW39394   3.597   2.399   3.337  0.1535 -0.5814  0.0550
 9254SOL    HW139395   3.647   2.479   3.346  0.0782 -0.7590  1.9876
 9254SOL    HW239396   3.529   2.425   3.276 -0.4087 -2.8092 -0.2950
 9255SOL     OW39397   2.904   2.663   4.982 -0.7195  0.2427  0.0446
 9255SOL    HW139398   2.938   2.648   4.894  2.7167 -3.5635  1.9945
 9255SOL    HW239399   2.941   2.750   5.000 -3.2373  1.0813  1.1365
 9256SOL     OW39400   2.137   4.413   3.697  0.1215 -0.6266 -0.8818
 9256SOL    HW139401   2.205   4.377   3.641  0.6421 -1.1162  0.0657
 9256SOL    HW239402   2.132   4.501   3.660 -0.0832  0.5987  2.0299
 9257SOL     OW39403   3.916   2.696   5.177  0.4386  0.1652 -0.2393
 9257SOL    HW139404   3.873   2.677   5.260 -0.7514  1.3280 -0.5951
 9257SOL    HW239405   3.842   2.679   5.119 -0.0324 -0.3547  0.5196
 9258SOL     OW39406   2.235   3.671   4.872 -0.4097 -0.8032  0.5626
 9258SOL    HW139407   2.236   3.634   4.784  1.8252  0.7802 -0.0652
 9258SOL    HW239408   2.182   3.747   4.851  0.4212  0.4235  2.9647
 9259SOL     OW39409   1.945   3.808  17.599 -0.6550 -0.0298  0.1836
 9259SOL    HW139410   1.879   3.740  17.613 -1.7625  1.1946  0.9090
 9259SOL    HW239411   2.018   3.781  17.655 -1.8666  0.1823  1.8446
 9260SOL     OW39412   2.635   0.310   6.545  0.3880  0.3312  0.0339
 9260SOL    HW139413   2.549   0.332   6.508  1.0445 -0.8191 -2.1664
 9260SOL    HW239414   2.670   0.252   6.477  2.8809  1.7719  0.0841
 9261SOL     OW39415   3.068   4.362   3.466 -0.8038  0.8514  0.2852
 9261SOL    HW139416   3.105   4.444   3.434  2.3543 -0.7072 -0.0524
 9261SOL    HW239417   3.082   4.315   3.383 -1.4796  0.5367  0.3490
 9262SOL     OW39418   2.446   2.556   2.315  0.1251 -0.3419  0.0333
 9262SOL    HW139419   2.470   2.557   2.223 -0.1523 -0.3351 -0.0384
 9262SOL    HW239420   2.482   2.472   2.343  0.8503 -0.0177  0.0873
 9263SOL     OW39421   4.145   1.953  13.443 -0.3593 -0.7632  0.0895
 9263SOL    HW139422   4.119   2.011  13.371 -0.3354 -0.4807  0.3057
 9263SOL    HW239423   4.223   1.914  13.403  0.0939  1.4472 -1.2173
 9264SOL     OW39424   4.717   4.075  12.500  0.2209  0.1198 -0.1527
 9264SOL    HW139425   0.051   4.014  12.511  1.3882  1.8243  1.6081
 9264SOL    HW239426   4.637   4.037  12.536 -0.5012  0.8427 -0.9756
 9265SOL     OW39427   3.257   4.210   2.301 -0.2215 -0.1221  0.2388
 9265SOL    HW139428   3.309   4.219   2.221 -1.5271 -0.6108 -0.6645
 9265SOL    HW239429   3.292   4.275   2.362  0.9596 -1.3256  0.8427
 9266SOL     OW39430   0.978   2.917   8.201 -0.0070  0.1014 -0.2213
 9266SOL    HW139431   0.940   3.005   8.199 -1.1647 -0.4367 -1.9835
 9266SOL    HW239432   0.913   2.865   8.154 -1.6849 -0.9592  3.2537
 9267SOL     OW39433   3.874   0.520   7.057 -0.4319 -0.0236  0.4815
 9267SOL    HW139434   3.941   0.544   6.993  1.6264 -0.9577  2.2820
 9267SOL    HW239435   3.919   0.460   7.116  1.9529  1.2861 -0.0207
 9268SOL     OW39436   3.131   2.072   3.328 -0.3692 -0.7280 -0.6455
 9268SOL    HW139437   3.098   2.012   3.261 -1.7486 -0.1297 -0.4945
 9268SOL    HW239438   3.052   2.079   3.381 -1.0378  1.4143 -1.9327
 9269SOL     OW39439   2.209   1.951   2.606 -0.0937 -0.2058 -0.5181
 9269SOL    HW139440   2.247   1.897   2.536  0.7152  0.2352 -0.4214
 9269SOL    HW239441   2.288   1.967   2.658 -0.2895  0.3535 -0.3921
 9270SOL     OW39442   3.744   0.456  10.142  0.2754 -0.3920 -0.0610
 9270SOL    HW139443   3.768   0.512  10.068  4.0335  0.6503  1.9423
 9270SOL    HW239444   3.742   0.370  10.100 -0.2013 -0.4440  0.0696
 9271SOL     OW39445   4.441   2.532   8.537 -0.2667  0.4990  0.0320
 9271SOL    HW139446   4.493   2.574   8.606 -0.2360 -0.0860  0.3588
 9271SOL    HW239447   4.406   2.610   8.493 -4.3465 -2.4743 -2.0158
 9272SOL     OW39448   1.882   3.336  11.822  0.0907  0.6737 -0.4386
 9272SOL    HW139449   1.815   3.377  11.876 -0.7292 -1.7496  0.4043
 9272SOL    HW239450   1.874   3.247  11.857 -1.1710  0.3696 -1.5049
 9273SOL     OW39451   4.350   3.916   7.461 -0.0671 -0.0600 -0.2545
 9273SOL    HW139452   4.325   4.002   7.425  1.3264  1.1891  1.8029
 9273SOL    HW239453   4.303   3.912   7.544  0.6702 -1.8081  0.0759
 9274SOL     OW39454   4.485   4.395  12.987 -0.3041 -0.1132  0.3016
 9274SOL    HW139455   4.476   4.321  13.048 -1.3786 -2.1567 -2.3352
 9274SOL    HW239456   4.494   4.473  13.042  0.5475  0.5050 -0.7044
 9275SOL     OW39457   2.718   2.351  17.672  0.4548  0.4897  0.1395
 9275SOL    HW139458   2.667   2.314  17.745 -0.3838 -1.8280 -1.5977
 9275SOL    HW239459   2.700   2.304  17.591 -1.5723  0.7205  0.4586
 9276SOL     OW39460   3.726   4.652   3.623  0.3767  0.8143 -0.2474
 9276SOL    HW139461   3.642   4.676   3.584  1.1872  0.2425 -2.3395
 9276SOL    HW239462   3.704   4.590   3.693 -1.6912  0.5869 -1.0927
 9277SOL     OW39463   3.859   3.661   8.421  0.2813  1.2072 -0.1164
 9277SOL    HW139464   3.790   3.617   8.471  2.9491 -1.3981  1.2899
 9277SOL    HW239465   3.846   3.748   8.459 -1.0378  0.9754 -0.0419
 9278SOL     OW39466   2.165   2.212  16.392 -0.2947 -0.5983  0.0170
 9278SOL    HW139467   2.217   2.269  16.448 -0.7451  0.0893 -0.2649
 9278SOL    HW239468   2.175   2.134  16.446  3.4686  2.2151  3.3616
 9279SOL     OW39469   3.740   4.043   7.548  0.2762  0.7120  0.1374
 9279SOL    HW139470   3.758   4.131   7.582  0.5685  0.8468 -0.3521
 9279SOL    HW239471   3.646   4.047   7.563 -0.0671 -2.0904 -1.2246
 9280SOL     OW39472   3.254   1.359   4.424 -0.4186  0.4036  0.0378
 9280SOL    HW139473   3.256   1.270   4.390  0.6710 -1.0510  3.8379
 9280SOL    HW239474   3.255   1.346   4.519 -0.2243  0.3475  0.0289
 9281SOL     OW39475   4.143   2.466   2.400 -0.0885 -0.5526  0.0221
 9281SOL    HW139476   4.163   2.488   2.491 -1.3779  0.8935 -0.0251
 9281SOL    HW239477   4.197   2.534   2.361 -3.1273  0.9286 -1.6549
 9282SOL     OW39478   2.119   4.640   3.526  0.5446  0.3004 -0.2881
 9282SOL    HW139479   2.190   4.676   3.579  2.9020 -0.8399 -2.6730
 9282SOL    HW239480   2.151   4.656   3.438  1.8471 -1.5470 -0.1426
 9283SOL     OW39481   0.128   3.232   9.100 -0.6539 -0.3359 -0.1965
 9283SOL    HW139482   0.087   3.148   9.122  2.3154 -1.2950  1.7342
 9283SOL    HW239483   0.100   3.250   9.010 -0.6172  1.4138  0.1501
 9284SOL     OW39484   3.627   4.513   4.307 -0.0643  0.0741 -0.1938
 9284SOL    HW139485   3.664   4.443   4.362  0.1987 -0.4692 -1.0704
 9284SOL    HW239486   3.548   4.469   4.277  0.0847 -0.3944  0.0923
 9285SOL     OW39487   0.194   1.061   3.696  0.2599 -0.4014  0.4273
 9285SOL    HW139488   0.180   1.155   3.712  0.5758  0.1160 -2.3235
 9285SOL    HW239489   0.107   1.045   3.659 -0.3194  0.3016  1.4707
 9286SOL     OW39490   2.083   0.691   6.609  0.1929 -0.5454 -0.4160
 9286SOL    HW139491   2.034   0.617   6.572 -2.4985  0.7523  0.5463
 9286SOL    HW239492   2.140   0.644   6.670  1.5664  0.3433 -1.0271
 9287SOL     OW39493   0.486   4.722   6.558 -0.0212  0.3391  0.0104
 9287SOL    HW139494   0.484   0.063   6.505  2.6004  0.8941  0.7696
 9287SOL    HW239495   0.460   0.005   6.647 -2.5251 -0.1983 -0.5844
 9288SOL     OW39496   3.679   1.439   6.919 -0.6772 -0.2317 -0.0213
 9288SOL    HW139497   3.625   1.360   6.922  0.0167 -0.6262  1.8000
 9288SOL    HW239498   3.695   1.436   7.014 -0.7343 -1.4052 -0.0413
 9289SOL     OW39499   2.195   2.561   4.786 -0.0375 -0.8111  0.4793
 9289SOL    HW139500   2.286   2.536   4.803 -0.2391 -1.7525  0.1454
 9289SOL    HW239501   2.166   2.551   4.877 -1.2286  0.1879  0.2101
 9290SOL     OW39502   4.124   0.020   9.876  0.1207  0.6625  0.0668
 9290SOL    HW139503   4.147   0.030   9.969  0.6163  1.4452 -0.1459
 9290SOL    HW239504   4.035   4.722   9.882  0.8274 -0.9686  0.7689
 9291SOL     OW39505   1.714   3.491   0.332 -0.5622  0.3190 -0.3049
 9291SOL    HW139506   1.765   3.561   0.374  0.1111 -0.1975 -0.2830
 9291SOL    HW239507   1.653   3.543   0.280 -1.4713 -0.4639 -0.0200
 9292SOL     OW39508   1.547   0.215   7.420  0.0236 -0.0301 -0.2894
 9292SOL    HW139509   1.568   0.288   7.362 -2.5908  0.6035 -0.4275
 9292SOL    HW239510   1.604   0.235   7.495  0.0730 -0.2088 -0.2809
 9293SOL     OW39511   3.868   2.799  14.424  0.3393  0.5342 -0.6060
 9293SOL    HW139512   3.788   2.831  14.381 -0.0222  0.6498  0.1613
 9293SOL    HW239513   3.855   2.827  14.514 -1.3243 -1.2318 -0.2949
 9294SOL     OW39514   3.496   0.847   5.545  0.0946  0.0079 -0.2243
 9294SOL    HW139515   3.461   0.821   5.459  0.6990  0.3022 -0.5643
 9294SOL    HW239516   3.587   0.868   5.524 -1.0536  1.8645 -3.4178
 9295SOL     OW39517   2.505   1.626   8.172 -0.4998  0.6009 -0.3197
 9295SOL    HW139518   2.492   1.648   8.079  1.3943  0.2332 -0.6763
 9295SOL    HW239519   2.574   1.683   8.205 -1.3968  0.3409  1.9983
 9296SOL     OW39520   0.566   3.691   6.845 -0.4490  0.2967  0.0579
 9296SOL    HW139521   0.656   3.659   6.840  0.1034  1.7003  0.6861
 9296SOL    HW239522   0.520   3.609   6.861  0.0109  0.6876  3.5572
 9297SOL     OW39523   4.731   1.742   6.095  0.4871 -0.1924 -0.2896
 9297SOL    HW139524   4.674   1.730   6.019  0.1091  0.7957 -0.1572
 9297SOL    HW239525   0.016   1.652   6.116 -0.9948 -0.6468 -0.6019
 9298SOL     OW39526   4.661   3.301   4.545  0.0760  0.3755  0.4715
 9298SOL    HW139527   4.686   3.251   4.467 -0.8517 -0.8929  0.9852
 9298SOL    HW239528   4.720   3.261   4.609  0.3202  1.3131  0.8220
 9299SOL     OW39529   2.611   3.305   4.368 -0.3044 -0.3017  0.7725
 9299SOL    HW139530   2.536   3.329   4.314 -0.6425  0.2825  1.5030
 9299SOL    HW239531   2.574   3.245   4.433  1.2685 -1.4492  0.6203
 9300SOL     OW39532   1.184   3.490   8.293 -0.1948  0.3114 -0.1757
 9300SOL    HW139533   1.129   3.526   8.362  1.1607  0.2538  0.9264
 9300SOL    HW239534   1.256   3.552   8.287 -1.2345  1.7911  2.6810
 9301SOL     OW39535   3.296   3.064  17.443 -0.0899  0.0166  0.5877
 9301SOL    HW139536   3.228   2.996  17.450  1.9211 -2.1311 -0.8281
 9301SOL    HW239537   3.368   3.032  17.497 -1.3706  0.8728  2.8281
 9302SOL     OW39538   2.401   4.362  13.478  0.1548 -0.5024 -0.2584
 9302SOL    HW139539   2.401   4.324  13.390 -2.4221  0.5714 -0.7047
 9302SOL    HW239540   2.462   4.435  13.479  0.6465 -0.9157 -0.0145
 9303SOL     OW39541   2.903   1.465  14.845  0.9316  0.8814 -0.0964
 9303SOL    HW139542   2.883   1.387  14.793  0.0670  1.8220 -1.2007
 9303SOL    HW239543   2.996   1.450  14.858  0.9236  1.1723  0.2994
 9304SOL     OW39544   2.779   1.578   4.547 -1.0490 -0.4505  0.1651
 9304SOL    HW139545   2.773   1.582   4.451 -0.0101  0.4597  0.1359
 9304SOL    HW239546   2.707   1.634   4.577 -1.0185 -1.4117  2.0254
 9305SOL     OW39547   2.721   0.152   6.335 -0.2318  0.1823 -0.1433
 9305SOL    HW139548   2.653   0.147   6.269 -0.8412 -0.4088  0.5339
 9305SOL    HW239549   2.733   0.064   6.370 -1.2123 -1.0351 -2.9308
 9306SOL     OW39550   0.205   4.618   4.763  0.6061  0.6405 -0.5863
 9306SOL    HW139551   0.176   4.532   4.794 -0.4546  1.7820  1.5769
 9306SOL    HW239552   0.218   4.664   4.846 -3.1075  1.6417 -0.5662
 9307SOL     OW39553   4.247   2.251   7.228  0.1005  0.1428 -0.0088
 9307SOL    HW139554   4.216   2.186   7.165  2.6095  0.4553 -1.5454
 9307SOL    HW239555   4.225   2.214   7.314 -1.4912 -0.1380 -0.5421
 9308SOL     OW39556   1.269   1.941   0.482  0.2274  0.0185  0.2883
 9308SOL    HW139557   1.357   1.942   0.444 -0.0408  0.9881 -0.3192
 9308SOL    HW239558   1.226   1.880   0.423  0.1746  0.0155  0.3295
 9309SOL     OW39559   2.427   1.088   4.932 -0.4841 -0.7402  0.3879
 9309SOL    HW139560   2.498   1.044   4.885 -1.4860 -2.6090  0.6184
 9309SOL    HW239561   2.342   1.062   4.898 -0.3356 -2.3315  1.2147
 9310SOL     OW39562   1.349   3.111   0.082 -0.2489  0.4634  0.2751
 9310SOL    HW139563   1.278   3.142   0.026 -1.7086  0.3830  2.0842
 9310SOL    HW239564   1.328   3.017   0.087  0.0548  0.3525 -0.5384
 9311SOL     OW39565   3.317   0.041   5.489 -0.4415  0.0639 -0.1455
 9311SOL    HW139566   3.231   4.738   5.493  0.6420 -1.9513  3.3932
 9311SOL    HW239567   3.342   0.035   5.582  0.3003  1.5211 -0.2605
 9312SOL     OW39568   2.322   2.088   3.336  0.2398  0.1033  0.5398
 9312SOL    HW139569   2.373   2.107   3.415  2.1758 -0.1562 -0.6671
 9312SOL    HW239570   2.250   2.044   3.382 -0.6805  0.9009 -0.1348
 9313SOL     OW39571   2.577   4.315   8.880  0.2500 -0.5092  0.2951
 9313SOL    HW139572   2.594   4.347   8.791 -0.0868 -0.3490  0.2883
 9313SOL    HW239573   2.641   4.245   8.874  0.1881 -0.3683 -1.9340
 9314SOL     OW39574   1.758   3.537   9.369  0.2377  0.1785  0.9895
 9314SOL    HW139575   1.753   3.622   9.412  0.3445  1.2495 -1.1098
 9314SOL    HW239576   1.850   3.516   9.385  0.8395  2.0768 -0.0441
 9315SOL     OW39577   2.296   0.564   1.912 -0.2103 -0.3266  0.2956
 9315SOL    HW139578   2.325   0.477   1.941  1.9802  0.3148 -0.0056
 9315SOL    HW239579   2.368   0.599   1.861  0.7981 -1.9697  0.5864
 9316SOL     OW39580   2.374   4.410   5.858  0.6358 -0.1245 -0.0947
 9316SOL    HW139581   2.318   4.478   5.820  1.2542  1.0966  1.1881
 9316SOL    HW239582   2.385   4.441   5.948 -0.2547 -1.0846  0.3623
 9317SOL     OW39583   4.574   1.141  11.245 -0.4163  0.1738 -0.5786
 9317SOL    HW139584   4.606   1.174  11.161  2.3441 -1.8065 -0.2894
 9317SOL    HW239585   4.622   1.058  11.244 -2.3137 -1.0162  3.4998
 9318SOL     OW39586   3.182   3.245   7.300  0.2380  0.0850  0.1723
 9318SOL    HW139587   3.246   3.294   7.352  0.0032  1.0536 -0.4489
 9318SOL    HW239588   3.137   3.325   7.271 -1.5537 -0.5665  1.1650
 9319SOL     OW39589   1.655   0.909   2.121 -0.1711  0.7198 -0.1450
 9319SOL    HW139590   1.661   0.977   2.053  0.1427  0.8342 -0.0046
 9319SOL    HW239591   1.685   0.834   2.071  0.6913 -0.0906  1.5955
 9320SOL     OW39592   1.485   4.674  16.699  0.0868 -0.3806 -0.3009
 9320SOL    HW139593   1.553   4.637  16.644 -0.4142 -3.9649  1.5086
 9320SOL    HW239594   1.443   4.598  16.739  1.7685 -1.1366 -0.0179
 9321SOL     OW39595   3.097   1.699   3.317 -0.2037 -0.0277  0.2866
 9321SOL    HW139596   3.021   1.747   3.286 -1.7074 -2.4511  0.2066
 9321SOL    HW239597   3.097   1.726   3.409 -0.3096  0.7891  0.0474
 9322SOL     OW39598   0.537   2.892  15.159 -0.0518 -0.1048  0.3528
 9322SOL    HW139599   0.449   2.857  15.174  0.5215 -2.6608 -2.1766
 9322SOL    HW239600   0.555   2.853  15.073  3.1495  0.5584  0.7172
 9323SOL     OW39601   3.579   1.878   6.478  0.4461 -0.3437  0.2343
 9323SOL    HW139602   3.486   1.853   6.477  0.3052  0.1919 -1.1724
 9323SOL    HW239603   3.582   1.966   6.440  2.4604 -1.0593 -1.2522
 9324SOL     OW39604   1.388   0.673   2.838 -0.0724 -0.1573  0.1820
 9324SOL    HW139605   1.308   0.632   2.803 -0.1055  0.4165 -0.4149
 9324SOL    HW239606   1.439   0.592   2.843 -1.2843 -0.8549  1.4487
 9325SOL     OW39607   3.792   2.302  14.145  0.3489 -0.7522 -0.1548
 9325SOL    HW139608   3.751   2.365  14.086  0.9296  0.5881  0.8851
 9325SOL    HW239609   3.743   2.225  14.115  0.4443 -0.4176 -1.1609
 9326SOL     OW39610   1.987   2.092   8.008 -0.1009 -0.1260 -0.1851
 9326SOL    HW139611   1.977   1.999   7.988  2.0073 -0.0769 -1.4606
 9326SOL    HW239612   1.929   2.138   7.948 -1.1041 -1.1102  0.0037
 9327SOL     OW39613   0.849   4.603  11.424  0.3498 -0.1589 -0.1362
 9327SOL    HW139614   0.900   4.589  11.504  2.3301  2.1595 -0.9959
 9327SOL    HW239615   0.909   4.669  11.389  1.3087 -0.5271  0.8129
 9328SOL     OW39616   4.468   2.251  13.920 -0.4232  0.3399 -0.2523
 9328SOL    HW139617   4.435   2.323  13.866 -1.4941 -0.6177 -0.8858
 9328SOL    HW239618   4.510   2.195  13.855  1.1320  0.0683  0.9822
 9329SOL     OW39619   3.225   3.119  13.365 -0.0551 -0.4930  0.6767
 9329SOL    HW139620   3.213   3.208  13.333  2.4402 -0.5005 -0.2854
 9329SOL    HW239621   3.197   3.143  13.454  0.9013 -0.9427  1.0978
 9330SOL     OW39622   4.244   0.586   1.840  0.4043  0.6693 -0.6124
 9330SOL    HW139623   4.272   0.595   1.932  0.7810 -0.2915 -0.6338
 9330SOL    HW239624   4.172   0.523   1.838 -0.5522  1.6755  1.1948
 9331SOL     OW39625   3.139   2.381  15.856  0.1048 -0.1182  0.6200
 9331SOL    HW139626   3.183   2.342  15.932 -0.8800 -0.2875  1.1044
 9331SOL    HW239627   3.069   2.317  15.847  1.6484 -1.8494  1.0721
 9332SOL     OW39628   1.455   0.706   6.905  0.2102  0.1991 -0.1202
 9332SOL    HW139629   1.469   0.638   6.839  1.0089  0.4542 -0.2097
 9332SOL    HW239630   1.500   0.777   6.859  0.4909 -0.5940 -1.0801
 9333SOL     OW39631   0.536   0.103   9.231 -0.6816 -0.2510  0.1299
 9333SOL    HW139632   0.446   0.112   9.263 -0.4438 -0.1771  0.7803
 9333SOL    HW239633   0.548   0.010   9.212  1.5599 -0.1408  1.0292
 9334SOL     OW39634   3.601   4.036   1.242 -0.5981 -0.4948  0.2404
 9334SOL    HW139635   3.511   4.064   1.260 -0.5398  0.0072 -0.2494
 9334SOL    HW239636   3.639   4.017   1.327  2.0107 -0.2968 -0.8855
 9335SOL     OW39637   0.126   1.454   9.448 -0.4059 -0.1210 -0.4600
 9335SOL    HW139638   0.092   1.543   9.437  0.8401  0.4888  0.6028
 9335SOL    HW239639   0.071   1.425   9.520 -0.8420  0.4448 -0.5625
 9336SOL     OW39640   2.765   3.108   6.008  0.0111 -0.2019  0.4687
 9336SOL    HW139641   2.803   3.141   6.089 -0.8521  0.8611  0.4383
 9336SOL    HW239642   2.825   3.035   5.994 -1.2364 -1.8151  3.5742
 9337SOL     OW39643   4.680   4.550  17.391  0.0171  0.5349  0.7232
 9337SOL    HW139644   0.023   4.551  17.441 -1.4858  1.5232  3.1192
 9337SOL    HW239645   4.632   4.632  17.399  0.0341  0.5593  0.5670
 9338SOL     OW39646   0.449   4.002  10.510 -0.3084 -0.4045 -0.1057
 9338SOL    HW139647   0.533   3.956  10.502  0.0495  0.0674  0.8549
 9338SOL    HW239648   0.424   4.015  10.419  0.3286  0.8470 -0.1149
 9339SOL     OW39649   4.188   3.432   2.862  0.0875 -0.4288 -0.4614
 9339SOL    HW139650   4.166   3.450   2.771  0.3152  0.9341 -0.2464
 9339SOL    HW239651   4.135   3.354   2.879 -1.8981  1.0493  0.1690
 9340SOL     OW39652   1.569   2.056   8.238 -0.3712 -0.0428  0.4006
 9340SOL    HW139653   1.524   2.077   8.156 -2.8010  0.0618  1.7555
 9340SOL    HW239654   1.608   2.140   8.260 -2.1926  1.4128 -1.9670
 9341SOL     OW39655   4.268   1.367   5.356 -0.2074  0.2063  0.3485
 9341SOL    HW139656   4.348   1.349   5.306  0.3552  0.3807  1.1955
 9341SOL    HW239657   4.293   1.453   5.388  1.0525  0.7683 -2.1601
 9342SOL     OW39658   1.153   1.131   6.415  0.2083  0.1238  0.5354
 9342SOL    HW139659   1.212   1.183   6.360  0.9257  0.7886  1.9288
 9342SOL    HW239660   1.120   1.202   6.470  0.1633  0.3164  0.2597
 9343SOL     OW39661   2.445   3.773   0.713 -0.3991  0.2574 -0.1563
 9343SOL    HW139662   2.473   3.826   0.639  1.8769  0.3116  0.7366
 9343SOL    HW239663   2.495   3.817   0.782 -0.7661  0.6320 -0.1242
 9344SOL     OW39664   3.070   3.350   4.309  0.2316 -0.4572  0.0314
 9344SOL    HW139665   3.125   3.362   4.232 -2.1976  3.2439 -1.0988
 9344SOL    HW239666   3.138   3.312   4.365  0.3836 -2.9479 -1.8798
 9345SOL     OW39667   3.846   1.641   6.833 -0.2558  0.0390 -0.6336
 9345SOL    HW139668   3.791   1.573   6.872 -1.1276  0.4727 -1.1104
 9345SOL    HW239669   3.780   1.696   6.791  1.4246  0.9208 -2.1189
 9346SOL     OW39670   2.895   3.488   4.843 -0.5919 -0.4974  0.5870
 9346SOL    HW139671   2.935   3.508   4.759 -3.3285 -1.2312 -0.9259
 9346SOL    HW239672   2.839   3.563   4.861  0.4245 -0.0486  1.8715
 9347SOL     OW39673   4.534   2.029   5.858 -0.3846 -0.3689  0.4983
 9347SOL    HW139674   4.508   1.974   5.932 -2.7539  2.4698  1.7475
 9347SOL    HW239675   4.472   2.101   5.859  0.2850  0.2196 -0.2630
 9348SOL     OW39676   0.722   0.647   7.689 -0.1370 -0.3106 -0.3713
 9348SOL    HW139677   0.653   0.581   7.682  0.8264 -1.3068 -0.4174
 9348SOL    HW239678   0.779   0.608   7.755 -0.8434 -2.8877 -1.2815
 9349SOL     OW39679   0.187   4.191   5.470  0.1555 -0.0544 -0.4135
 9349SOL    HW139680   0.270   4.239   5.477  0.0464  0.3473 -1.8794
 9349SOL    HW239681   0.129   4.244   5.416  1.1199  1.2101 -0.2256
 9350SOL     OW39682   4.686   4.124   8.006 -0.1177 -0.4099 -0.0599
 9350SOL    HW139683   4.615   4.068   8.038 -1.2607 -0.9037 -3.4938
 9350SOL    HW239684   4.646   4.204   8.042  0.4993 -0.0228 -0.2280
 9351SOL     OW39685   1.500   2.922   6.733  0.0825 -0.1541 -0.2743
 9351SOL    HW139686   1.518   2.835   6.697  1.0975  0.1973 -0.5989
 9351SOL    HW239687   1.428   2.956   6.680  0.4687 -0.3034 -0.8989
 9352SOL     OW39688   2.642   2.273   9.020  0.1804  0.0973 -0.1214
 9352SOL    HW139689   2.581   2.343   8.996  1.2373  0.2228 -2.4992
 9352SOL    HW239690   2.665   2.241   8.933 -0.6483  1.7126 -0.9359
 9353SOL     OW39691   1.991   1.365   9.283  0.2943 -0.2142  0.4082
 9353SOL    HW139692   1.977   1.441   9.341  1.3256 -1.0019  1.6729
 9353SOL    HW239693   2.065   1.326   9.329  1.0253 -1.1953 -1.5886
 9354SOL     OW39694   0.911   2.506  14.610  0.2353 -0.9630  0.1010
 9354SOL    HW139695   0.862   2.427  14.587 -1.6101  0.4901 -0.9731
 9354SOL    HW239696   0.921   2.483  14.702  0.7644 -1.2979 -0.0406
 9355SOL     OW39697   2.363   3.160  10.105 -0.2328 -0.2437 -0.5813
 9355SOL    HW139698   2.334   3.103  10.176  0.5593  1.9374  1.4988
 9355SOL    HW239699   2.280   3.173  10.060 -0.0804 -2.0380 -1.3774
 9356SOL     OW39700   0.071   2.806   9.114  0.2475 -0.2383  0.4339
 9356SOL    HW139701   0.151   2.784   9.065  0.2190 -1.5511  0.9796
 9356SOL    HW239702   0.111   2.845   9.192 -1.5382 -0.5366  1.4965
 9357SOL     OW39703   3.981   3.557  10.835  0.1760  0.2203  0.0355
 9357SOL    HW139704   4.046   3.601  10.780  0.1666  0.7475  0.4406
 9357SOL    HW239705   3.967   3.621  10.906  1.4384 -0.2853  0.7548
 9358SOL     OW39706   4.614   2.591   7.727  0.5053  0.2943  0.5019
 9358SOL    HW139707   4.558   2.546   7.790  0.3056  1.6245  1.2556
 9358SOL    HW239708   4.693   2.539   7.742  0.3937  0.9528  3.2381
 9359SOL     OW39709   2.817   2.286   6.716 -0.3149  0.7978  0.3479
 9359SOL    HW139710   2.901   2.322   6.744  0.1229  1.8462 -2.3769
 9359SOL    HW239711   2.776   2.293   6.802 -2.7076  1.0568 -0.8168
 9360SOL     OW39712   3.336   1.384   8.163 -0.3494 -0.2870  0.0256
 9360SOL    HW139713   3.395   1.411   8.234  0.6380 -2.3044 -0.0416
 9360SOL    HW239714   3.246   1.408   8.188 -1.3587  0.3012 -4.1790
 9361SOL     OW39715   2.811   2.500   7.624  0.5887  0.3439  0.2927
 9361SOL    HW139716   2.833   2.530   7.535  1.6771  3.6532  1.6533
 9361SOL    HW239717   2.731   2.451   7.607  1.8585 -1.5172 -0.3046
 9362SOL     OW39718   2.007   3.904   6.354 -0.3307  0.0803 -0.0355
 9362SOL    HW139719   2.012   3.823   6.405 -1.5774 -0.4050 -0.7007
 9362SOL    HW239720   2.075   3.886   6.290  0.3656  0.7922  0.5091
 9363SOL     OW39721   1.799   4.230   2.607  0.2729 -0.0498 -0.5458
 9363SOL    HW139722   1.806   4.326   2.602 -0.0359 -0.0490 -1.0159
 9363SOL    HW239723   1.890   4.203   2.618 -0.0422 -1.1829 -0.7735
 9364SOL     OW39724   3.503   4.116   5.975 -0.2248 -0.0648 -0.0275
 9364SOL    HW139725   3.539   4.091   6.060  0.5823 -0.0125 -0.3526
 9364SOL    HW239726   3.414   4.146   5.996 -0.6101 -2.9474  2.3596
 9365SOL     OW39727   3.363   4.552   2.835 -0.0539 -0.6195  0.0253
 9365SOL    HW139728   3.307   4.487   2.792 -1.4380  1.8144 -1.8156
 9365SOL    HW239729   3.446   4.507   2.849  0.1008 -0.1798  0.5072
 9366SOL     OW39730   4.443   2.570   7.494  0.2580 -0.1663  0.5709
 9366SOL    HW139731   4.516   2.617   7.454  0.3791  0.3169  1.3746
 9366SOL    HW239732   4.481   2.533   7.573  2.5956  0.3163 -0.3288
 9367SOL     OW39733   0.968   1.117   8.348 -0.1177 -0.0589  0.2277
 9367SOL    HW139734   0.931   1.035   8.316  0.8594 -0.3594 -0.1536
 9367SOL    HW239735   0.993   1.097   8.438 -0.9836  0.7994  0.6577
 9368SOL     OW39736   0.106   3.237   8.812  0.4790  0.2124  0.0588
 9368SOL    HW139737   0.048   3.266   8.742  0.2890  2.6425  1.2271
 9368SOL    HW239738   0.114   3.144   8.795 -1.6345 -0.2481  1.6054
 9369SOL     OW39739   4.257   2.514   5.711  0.3877  0.3524  0.1839
 9369SOL    HW139740   4.304   2.522   5.628  0.6460 -3.0600  0.0208
 9369SOL    HW239741   4.321   2.546   5.774  1.6307 -1.3701 -0.2173
 9370SOL     OW39742   0.572   2.224   2.178  0.1750 -0.3148 -0.2919
 9370SOL    HW139743   0.626   2.203   2.102 -0.4385  0.1989 -0.8753
 9370SOL    HW239744   0.605   2.311   2.200  0.6388 -0.9656  1.5664
 9371SOL     OW39745   2.869   2.184   9.445  0.4446 -0.3024  0.7231
 9371SOL    HW139746   2.928   2.228   9.385  1.8020  0.9462  3.0064
 9371SOL    HW239747   2.783   2.185   9.402  1.6443 -0.7655 -1.7037
 9372SOL     OW39748   1.910   4.547  16.968 -0.0450  0.5648  0.5687
 9372SOL    HW139749   1.996   4.587  16.979  0.8816 -0.7516 -2.0367
 9372SOL    HW239750   1.853   4.617  16.936 -1.0767 -0.1484  0.8606
 9373SOL     OW39751   3.243   1.999  17.517  0.0270  0.3503 -0.3289
 9373SOL    HW139752   3.256   2.085  17.477 -0.5301 -1.4251 -4.3310
 9373SOL    HW239753   3.316   1.948  17.480 -1.0653 -1.8962  0.6191
 9374SOL     OW39754   3.670   3.310   3.588 -0.4526  0.1152  0.2022
 9374SOL    HW139755   3.635   3.230   3.549 -0.7416 -0.4398  1.5765
 9374SOL    HW239756   3.584   3.346   3.608 -0.2542 -0.1942  1.6269
 9375SOL     OW39757   1.030   3.136   8.962  0.3487 -0.8623  0.2516
 9375SOL    HW139758   0.937   3.124   8.976 -0.2973  2.7456 -0.9158
 9375SOL    HW239759   1.056   3.215   9.009  2.9507  0.1266 -2.8190
 9376SOL     OW39760   2.763   2.525  14.387 -0.4379  0.9340  0.1317
 9376SOL    HW139761   2.674   2.492  14.398  1.2542 -2.9163  1.9646
 9376SOL    HW239762   2.820   2.452  14.365 -1.6342  0.0209  0.0699
 9377SOL     OW39763   2.474   1.336   8.440  0.0424  0.3768  0.3020
 9377SOL    HW139764   2.398   1.303   8.393 -0.0060  0.4764  0.3114
 9377SOL    HW239765   2.444   1.424   8.463  1.9665  1.0395  0.2678
 9378SOL     OW39766   1.688   4.334  17.492  0.2690 -0.1807  0.1422
 9378SOL    HW139767   1.611   4.390  17.502  0.8915  1.0058 -1.5576
 9378SOL    HW239768   1.732   4.379  17.420 -2.3538 -2.1372 -2.6935
 9379SOL     OW39769   0.582   3.126   0.321  0.0595 -0.1225  0.2307
 9379SOL    HW139770   0.572   3.063   0.393 -0.5585  1.1235  1.2233
 9379SOL    HW239771   0.531   3.198   0.357  2.1932  0.6663  1.6857
 9380SOL     OW39772   3.831   0.192   7.612  0.5559 -0.1481  0.8277
 9380SOL    HW139773   3.893   0.125   7.583  2.7406  1.3911  1.9368
 9380SOL    HW239774   3.882   0.269   7.637  0.7485 -0.3291  0.9883
 9381SOL     OW39775   4.305   2.117   8.850  0.4278  0.3361 -0.1995
 9381SOL    HW139776   4.351   2.184   8.799  0.7262 -0.2503 -0.7091
 9381SOL    HW239777   4.343   2.128   8.937 -0.3215  1.3298  0.0016
 9382SOL     OW39778   0.452   2.831   1.317  0.1491  0.5891 -0.6474
 9382SOL    HW139779   0.411   2.758   1.362 -1.5057  1.8578 -0.0970
 9382SOL    HW239780   0.471   2.902   1.379  3.3393  0.4965 -1.5322
 9383SOL     OW39781   3.969   1.685   5.903 -0.2139  0.6205  0.1675
 9383SOL    HW139782   3.899   1.718   5.848 -0.0243  1.0810  0.2050
 9383SOL    HW239783   3.999   1.603   5.864  0.7228  0.4525  1.2341
 9384SOL     OW39784   2.260   2.074   5.695  0.4801 -0.3767  0.1525
 9384SOL    HW139785   2.303   2.141   5.747 -0.8671  0.6696 -0.0924
 9384SOL    HW239786   2.291   1.989   5.726 -0.0457 -1.1356 -1.4053
 9385SOL     OW39787   4.410   2.196   5.437 -0.4875 -0.0130 -0.2153
 9385SOL    HW139788   4.364   2.167   5.358  2.6683  0.3438 -2.1563
 9385SOL    HW239789   4.371   2.141   5.506 -1.2813  1.6025  0.6180
 9386SOL     OW39790   0.549   3.845   8.307 -0.3218  0.3289 -0.3285
 9386SOL    HW139791   0.630   3.893   8.323 -0.6018  1.2002 -1.5105
 9386SOL    HW239792   0.509   3.908   8.247  1.9653  0.9821 -1.1941
 9387SOL     OW39793   4.601   3.070   4.015  0.2615 -0.2664  0.3296
 9387SOL    HW139794   4.525   3.117   3.978  0.2986  0.6056  1.3787
 9387SOL    HW239795   4.565   2.981   4.007  0.6371 -0.5177  1.4754
 9388SOL     OW39796   0.645   3.375   2.577  0.5663  0.5535 -0.2041
 9388SOL    HW139797   0.641   3.309   2.647 -1.5311  2.4879  1.5047
 9388SOL    HW239798   0.564   3.360   2.529  0.8032 -2.4077  0.3191
 9389SOL     OW39799   0.302   2.941  10.276 -0.2320  0.0855 -0.5846
 9389SOL    HW139800   0.390   2.913  10.249  0.7232 -0.0433  2.6450
 9389SOL    HW239801   0.329   2.987  10.355 -0.5062  0.6140 -0.7929
 9390SOL     OW39802   1.823   4.563   3.814  0.3388  0.1285  0.0651
 9390SOL    HW139803   1.770   4.575   3.735 -0.8666 -1.9668  0.5684
 9390SOL    HW239804   1.881   4.488   3.798 -0.2576 -0.3780  0.3143
 9391SOL     OW39805   2.188   1.421   6.855  0.5272  0.0294  0.1493
 9391SOL    HW139806   2.123   1.434   6.786  1.0049 -1.6694 -0.6175
 9391SOL    HW239807   2.134   1.372   6.917 -0.1370  1.8715  1.0231
 9392SOL     OW39808   2.792   1.069   6.661 -0.1990 -0.1288 -0.1545
 9392SOL    HW139809   2.728   1.024   6.606 -1.6524 -1.8784  3.0235
 9392SOL    HW239810   2.781   1.164   6.655 -2.1740 -0.2151  2.3984
 9393SOL     OW39811   0.219   0.486   1.915  0.7003 -0.1576  0.5972
 9393SOL    HW139812   0.165   0.496   1.993 -0.3192  1.4865 -0.2916
 9393SOL    HW239813   0.195   0.566   1.867 -3.2046 -0.9810  1.1913
 9394SOL     OW39814   3.044   4.225  13.853 -0.1987  0.4978 -0.8286
 9394SOL    HW139815   2.994   4.305  13.862  1.2778  1.3659 -0.2251
 9394SOL    HW239816   3.056   4.203  13.761  3.1950 -2.5873  0.3446
 9395SOL     OW39817   0.776   0.457   3.256  0.2742  0.4265  0.0459
 9395SOL    HW139818   0.863   0.481   3.224  0.3928  0.5443  0.4625
 9395SOL    HW239819   0.777   0.489   3.346  3.1752  2.4808 -0.7167
 9396SOL     OW39820   0.712   0.896   2.194  0.5331 -0.1380 -0.2347
 9396SOL    HW139821   0.708   0.827   2.260  1.5926 -0.1352 -0.1599
 9396SOL    HW239822   0.632   0.947   2.210  0.4941 -0.1647 -0.3497
 9397SOL     OW39823   0.774   2.578   7.293 -0.3719 -0.0505  0.2622
 9397SOL    HW139824   0.837   2.560   7.223  1.1858  2.5760  0.9896
 9397SOL    HW239825   0.735   2.492   7.308  0.3410  0.0913  2.8981
 9398SOL     OW39826   2.700   3.987   3.747 -0.6765 -0.2591  0.1655
 9398SOL    HW139827   2.717   3.998   3.653  1.7489  2.1694  0.8603
 9398SOL    HW239828   2.756   4.062   3.768 -1.1124  0.0916  0.0696
 9399SOL     OW39829   1.166   4.069  12.602  0.8785  0.2827  0.0445
 9399SOL    HW139830   1.107   4.040  12.532 -1.4721 -1.5111  2.7816
 9399SOL    HW239831   1.254   4.056  12.565  1.8719  1.3649  2.0630
 9400SOL     OW39832   2.885   0.895   3.368  0.3659  0.0845  0.2292
 9400SOL    HW139833   2.960   0.910   3.425  0.2916  1.8753 -0.1375
 9400SOL    HW239834   2.885   0.967   3.305  0.7320  0.5963  0.8196
 9401SOL     OW39835   0.775   3.207   6.137 -0.1668 -0.2515 -0.0810
 9401SOL    HW139836   0.845   3.151   6.103  1.4870  2.2796 -0.8582
 9401SOL    HW239837   0.798   3.203   6.230  0.8394 -1.0488 -0.3583
 9402SOL     OW39838   3.307   1.556   2.452 -0.3768  0.4662 -0.1264
 9402SOL    HW139839   3.313   1.552   2.548 -3.6905 -2.0323 -0.0589
 9402SOL    HW239840   3.388   1.511   2.426  0.2664  1.1586  0.6497
 9403SOL     OW39841   0.743   4.617   7.566 -0.2809 -0.2369 -0.0846
 9403SOL    HW139842   0.717   4.705   7.594 -0.5739  0.3768 -2.2096
 9403SOL    HW239843   0.734   4.626   7.471 -1.1500 -1.6935 -0.1347
 9404SOL     OW39844   1.917   2.798   5.152  0.2703  0.3953 -0.2181
 9404SOL    HW139845   1.949   2.824   5.239  0.5799 -3.2058  0.7797
 9404SOL    HW239846   1.858   2.864   5.119 -0.9583 -1.0201 -0.8513
 9405SOL     OW39847   1.407   0.927   3.644 -0.8126 -0.5389 -0.2973
 9405SOL    HW139848   1.473   0.861   3.668  1.1566  0.9672 -1.5480
 9405SOL    HW239849   1.324   0.882   3.631 -1.4986  1.1707 -1.9082
 9406SOL     OW39850   2.230   0.634   5.788  0.1176 -0.0680  0.2170
 9406SOL    HW139851   2.145   0.677   5.786 -0.0264 -0.4548 -1.7785
 9406SOL    HW239852   2.250   0.593   5.704  2.4333  1.7164 -0.1013
 9407SOL     OW39853   2.991   0.096   9.343 -0.4812 -0.1089 -0.2529
 9407SOL    HW139854   3.019   0.019   9.295 -0.0855  0.5925 -1.1451
 9407SOL    HW239855   2.898   0.083   9.358 -1.0232  0.8821 -2.8561
 9408SOL     OW39856   1.346   0.395   6.794 -0.1566 -0.3029 -0.0771
 9408SOL    HW139857   1.271   0.393   6.735  1.0060 -0.3576 -1.5573
 9408SOL    HW239858   1.422   0.392   6.736 -0.2787  0.7028 -0.2912
 9409SOL     OW39859   0.561   1.614   8.576 -0.9720  0.4275 -0.7154
 9409SOL    HW139860   0.643   1.565   8.578 -0.9712  0.3681 -1.7231
 9409SOL    HW239861   0.563   1.673   8.500 -1.0184 -0.5902 -1.5130
 9410SOL     OW39862   3.134   4.674   5.925 -0.7897 -0.1497  0.3346
 9410SOL    HW139863   3.059   4.713   5.880  0.0513 -1.8139 -2.4878
 9410SOL    HW239864   3.115   4.699   6.016  1.6973  0.5494  0.6592
 9411SOL     OW39865   0.957   1.026  10.216  0.3427 -0.8039 -0.5850
 9411SOL    HW139866   0.878   1.061  10.175  0.7803  1.0066  0.1220
 9411SOL    HW239867   0.939   0.932  10.221 -1.1723 -0.5178 -0.5854
 9412SOL     OW39868   1.448   2.126  12.482 -0.2153 -0.2216  0.2220
 9412SOL    HW139869   1.403   2.114  12.565  1.6215 -1.9857  0.9421
 9412SOL    HW239870   1.534   2.086  12.494  0.1324  0.3594 -0.2904
 9413SOL     OW39871   2.116   0.596   7.829 -0.3357 -0.4365 -0.2261
 9413SOL    HW139872   2.141   0.588   7.921 -0.8432  0.4139 -0.0097
 9413SOL    HW239873   2.198   0.625   7.789  1.3935 -1.4440  2.6558
 9414SOL     OW39874   0.694   4.573  12.677  0.4570 -0.6082 -0.1644
 9414SOL    HW139875   0.611   4.590  12.633 -0.1689  1.7115  1.8524
 9414SOL    HW239876   0.653   4.550  12.761 -0.1736  1.1462  0.0274
 9415SOL     OW39877   3.900   0.368  11.714 -0.4566 -0.4739  0.3056
 9415SOL    HW139878   3.863   0.395  11.797 -0.0897  1.0428 -0.0155
 9415SOL    HW239879   3.984   0.408  11.736  0.6531 -0.4952 -3.8262
 9416SOL     OW39880   1.608   0.590  11.103 -0.2551  0.0604 -0.5170
 9416SOL    HW139881   1.700   0.615  11.092 -0.8881  2.1614 -1.0913
 9416SOL    HW239882   1.587   0.598  11.196  0.5847  2.3633 -0.5093
 9417SOL     OW39883   2.744   4.167   8.462  0.1504 -0.6672 -0.2916
 9417SOL    HW139884   2.821   4.223   8.452 -1.0609  0.9273 -0.6013
 9417SOL    HW239885   2.775   4.080   8.439 -3.1399 -1.4940 -1.5473
 9418SOL     OW39886   4.072   4.660   4.057 -0.2294 -0.5070  0.1773
 9418SOL    HW139887   4.145   4.605   4.085 -0.0894  0.0552  0.9203
 9418SOL    HW239888   4.007   4.616   4.113 -1.9142 -1.0317 -2.2101
 9419SOL     OW39889   0.633   3.863   7.558  0.8484  0.5185  0.2587
 9419SOL    HW139890   0.625   3.954   7.532 -2.2767 -0.2888 -1.5765
 9419SOL    HW239891   0.705   3.869   7.621  0.2867  0.0890  0.9593
 9420SOL     OW39892   0.143   0.318   5.630 -0.3126  0.5590  0.6124
 9420SOL    HW139893   0.205   0.344   5.562  0.8351  0.5185  1.6455
 9420SOL    HW239894   0.054   0.332   5.598 -0.1701  0.9095  0.3715
 9421SOL     OW39895   2.756   1.401   2.392 -0.0729 -0.2717 -0.5319
 9421SOL    HW139896   2.835   1.352   2.369  1.1382  1.2777  0.2675
 9421SOL    HW239897   2.685   1.340   2.375 -1.2409  1.2487 -1.0645
 9422SOL     OW39898   2.551   2.375   4.713  0.2983  0.3206  0.4142
 9422SOL    HW139899   2.555   2.295   4.766 -0.4660 -0.9709 -1.4899
 9422SOL    HW239900   2.578   2.447   4.770  1.9182 -1.3132  1.7304
 9423SOL     OW39901   4.569   2.849   9.020  0.1763 -0.0060 -0.5131
 9423SOL    HW139902   4.654   2.827   9.059  0.7477  0.9743 -1.2011
 9423SOL    HW239903   4.577   2.944   9.013 -1.4624  0.0186 -2.0406
 9424SOL     OW39904   1.532   3.274   8.886  0.3183 -0.2654 -0.3103
 9424SOL    HW139905   1.589   3.320   8.823  2.3903 -1.5250  0.6488
 9424SOL    HW239906   1.583   3.287   8.965 -1.2769 -2.1580  1.0218
 9425SOL     OW39907   4.403   0.452  17.693  0.3220 -0.2916 -0.4701
 9425SOL    HW139908   4.322   0.401  17.697  0.2243 -0.1094 -0.1334
 9425SOL    HW239909   4.460   0.378  17.673  0.0216 -0.8822  0.9099
 9426SOL     OW39910   1.132   2.861   3.636  0.5729  0.7693 -0.4038
 9426SOL    HW139911   1.173   2.904   3.711  1.5376 -2.7156  1.0791
 9426SOL    HW239912   1.045   2.841   3.671  0.7414  1.0750  0.1875
 9427SOL     OW39913   3.835   0.156   0.107  0.1578  0.3368  0.1812
 9427SOL    HW139914   3.889   0.230   0.134  1.8760 -0.7389 -0.3202
 9427SOL    HW239915   3.801   0.192   0.025  0.0419  2.6319  1.2190
 9428SOL     OW39916   2.901   2.647   4.706 -0.2544 -0.6694 -0.4996
 9428SOL    HW139917   2.992   2.628   4.683 -0.2652 -0.4159 -0.7512
 9428SOL    HW239918   2.902   2.741   4.686  0.3303 -0.5013  0.3456
 9429SOL     OW39919   4.657   1.630  16.023 -0.0394  0.3735  0.4591
 9429SOL    HW139920   4.661   1.687  15.946 -3.2891 -0.9680 -0.7203
 9429SOL    HW239921   0.007   1.643  16.056  0.5844 -2.3572 -0.1895
 9430SOL     OW39922   2.865   0.577   7.455  0.8908  0.1090  0.0616
 9430SOL    HW139923   2.894   0.498   7.500  0.7326 -1.5530 -2.7423
 9430SOL    HW239924   2.795   0.600   7.517  0.6645 -1.0874  0.2628
 9431SOL     OW39925   3.651   3.969   7.881 -0.3651 -0.4340  0.1055
 9431SOL    HW139926   3.587   4.038   7.897  0.6524 -0.0304  2.4525
 9431SOL    HW239927   3.730   4.023   7.881  0.2509 -1.3632 -1.9249
 9432SOL     OW39928   0.589   4.691   1.666  0.7278 -0.2040 -1.2376
 9432SOL    HW139929   0.588   0.039   1.706  4.3057 -0.8070  0.1636
 9432SOL    HW239930   0.681   4.671   1.685 -0.4450 -2.3455  2.1708
 9433SOL     OW39931   3.758   1.350   2.121  0.3203  0.2938 -0.4927
 9433SOL    HW139932   3.709   1.278   2.083 -0.7467 -0.4518  2.2512
 9433SOL    HW239933   3.806   1.312   2.195 -1.1388 -0.5116  0.0330
 9434SOL     OW39934   2.425   3.223   4.569 -0.0136  0.1892  0.4734
 9434SOL    HW139935   2.331   3.224   4.585  0.0442 -2.5946  1.0078
 9434SOL    HW239936   2.463   3.267   4.646  2.7599  0.4252 -1.0219
 9435SOL     OW39937   1.538   2.846   3.846 -0.2193 -0.0593  0.0802
 9435SOL    HW139938   1.566   2.920   3.901  4.1568 -1.3570 -0.3737
 9435SOL    HW239939   1.444   2.854   3.860 -0.0161 -1.0536  1.8512
 9436SOL     OW39940   2.404   2.263  13.075  0.2181  0.3719  0.0736
 9436SOL    HW139941   2.482   2.317  13.087 -1.3062  2.2248  1.4852
 9436SOL    HW239942   2.335   2.320  13.108 -0.8972 -1.2278  0.5399
 9437SOL     OW39943   1.793   4.035   0.045 -0.7606  0.2594  0.0621
 9437SOL    HW139944   1.743   3.967  17.752  2.4730 -1.9021 -0.2654
 9437SOL    HW239945   1.817   4.104  17.736 -0.6771  1.3675  1.3454
 9438SOL     OW39946   1.414   4.549  10.780  0.8675  0.1656 -0.3284
 9438SOL    HW139947   1.401   4.623  10.721  0.0420 -0.2136 -0.6285
 9438SOL    HW239948   1.355   4.575  10.851  0.5363  1.6007 -1.1272
 9439SOL     OW39949   3.945   0.192   7.168  0.6571  0.1785  0.0444
 9439SOL    HW139950   3.857   0.226   7.182 -0.2040 -1.4757 -1.2923
 9439SOL    HW239951   3.971   0.166   7.257  1.0909  0.9449  0.1421
 9440SOL     OW39952   1.498   3.453   2.401 -0.5269 -0.2204 -0.4993
 9440SOL    HW139953   1.433   3.389   2.430  0.1367 -1.8972 -2.7040
 9440SOL    HW239954   1.556   3.472   2.474  0.4253  0.6956 -1.4828
 9441SOL     OW39955   0.026   3.073  12.037  0.3691 -0.7467 -0.6217
 9441SOL    HW139956   4.680   3.047  12.074 -0.2116  0.9705 -0.7097
 9441SOL    HW239957   0.071   3.091  12.119 -1.9331  0.1309  0.4632
 9442SOL     OW39958   0.523   3.940  17.344  0.0508  0.3506 -0.3328
 9442SOL    HW139959   0.434   3.968  17.320  0.1093 -0.2450 -1.2511
 9442SOL    HW239960   0.577   4.009  17.305 -0.0013  0.7163  0.2366
 9443SOL     OW39961   1.268   0.393   5.596 -0.1179  0.3355 -0.6225
 9443SOL    HW139962   1.201   0.325   5.601  1.3690 -1.1264 -0.3632
 9443SOL    HW239963   1.257   0.421   5.506 -1.0998 -1.7454 -1.1483
 9444SOL     OW39964   1.785   1.673   4.687  0.1092  0.0963 -0.0350
 9444SOL    HW139965   1.773   1.767   4.671 -0.3298 -0.4513 -2.9750
 9444SOL    HW239966   1.880   1.668   4.699  0.0504 -0.0388  0.3506
 9445SOL     OW39967   2.087   1.369  16.242 -0.9162 -0.2813  0.5178
 9445SOL    HW139968   2.124   1.287  16.211 -0.0496 -0.0529  0.9582
 9445SOL    HW239969   2.171   1.415  16.248 -1.6984  1.5473 -2.3144
 9446SOL     OW39970   2.037   1.682   3.582 -0.2748  0.0690 -0.5034
 9446SOL    HW139971   2.002   1.625   3.650  1.2022 -2.3183 -1.7075
 9446SOL    HW239972   2.037   1.616   3.512 -1.5187 -1.0114  0.5368
 9447SOL     OW39973   0.686   1.339   9.963 -0.2307 -0.0413 -0.5126
 9447SOL    HW139974   0.656   1.284  10.036  0.9127  0.9251  0.6777
 9447SOL    HW239975   0.635   1.315   9.886  1.5088 -0.0537 -1.6708
 9448SOL     OW39976   3.732   0.336   7.989 -0.3602 -0.7208  0.5780
 9448SOL    HW139977   3.656   0.347   8.046 -0.4656 -0.2463  0.3482
 9448SOL    HW239978   3.805   0.326   8.050 -0.4331  1.8135  1.0443
 9449SOL     OW39979   1.405   2.556   3.388 -0.7154 -0.2275 -0.9546
 9449SOL    HW139980   1.409   2.630   3.450 -2.6463 -0.7284 -0.2339
 9449SOL    HW239981   1.473   2.589   3.329  0.3874 -0.1172  0.3744
 9450SOL     OW39982   4.185   0.174   2.525 -0.5619 -0.9765 -0.0442
 9450SOL    HW139983   4.209   0.224   2.603 -1.5822 -0.9179  0.2301
 9450SOL    HW239984   4.234   0.228   2.463  0.1216  0.1463  1.4641
 9451SOL     OW39985   2.039   0.527  10.335 -0.3770 -0.6204  0.4488
 9451SOL    HW139986   1.955   0.492  10.305 -0.9597  0.0347  1.3233
 9451SOL    HW239987   2.058   0.466  10.407  1.4537 -0.5960 -0.0042
 9452SOL     OW39988   4.331   0.456   5.431 -0.1962 -0.1543  0.0025
 9452SOL    HW139989   4.264   0.475   5.497  0.1523  2.4485 -0.3791
 9452SOL    HW239990   4.397   0.424   5.492 -0.8005 -0.3086  0.5848
 9453SOL     OW39991   1.365   0.721   5.629 -0.4999 -1.0479 -0.2117
 9453SOL    HW139992   1.433   0.668   5.670 -0.0059 -0.1098  0.1772
 9453SOL    HW239993   1.384   0.813   5.643 -1.9721 -0.6233 -0.9829
 9454SOL     OW39994   4.410   3.003   9.711  0.6723 -0.0035  0.7439
 9454SOL    HW139995   4.393   2.932   9.773  0.1124 -2.2862 -2.0084
 9454SOL    HW239996   4.322   3.013   9.674  0.9910 -1.5300 -0.4657
 9455SOL     OW39997   4.059   1.094  17.514 -0.4409  0.2697 -0.1880
 9455SOL    HW139998   4.026   1.108  17.425  1.0176  1.7210 -0.5098
 9455SOL    HW239999   4.091   1.005  17.502 -0.4830  0.1158  0.8464
 9456SOL     OW40000   0.808   2.401   3.952  0.1356  0.5169 -0.1739
 9456SOL    HW140001   0.801   2.394   3.856 -1.5713  2.3637 -0.1976
 9456SOL    HW240002   0.723   2.357   3.964 -1.1689  1.9772 -4.0147
 9457SOL     OW40003   1.759   0.848   3.561  0.0219  0.7634 -0.4076
 9457SOL    HW140004   1.781   0.775   3.502 -0.4374 -0.7799  1.3468
 9457SOL    HW240005   1.689   0.805   3.611  1.6662  0.3773  1.5411
 9458SOL     OW40006   4.326   0.808  15.949  0.0892  0.4194  0.5703
 9458SOL    HW140007   4.382   0.757  16.007  1.0919 -0.0925 -0.8272
 9458SOL    HW240008   4.359   0.896  15.962  1.4372  0.4476 -2.9050
 9459SOL     OW40009   1.216   2.831   0.857  0.1052  0.3674 -0.2223
 9459SOL    HW140010   1.295   2.867   0.898  0.3713 -0.7447  0.2348
 9459SOL    HW240011   1.229   2.842   0.763 -0.1512  2.0759 -0.0529
 9460SOL     OW40012   0.052   3.954  13.605 -0.3166  0.3555  0.7342
 9460SOL    HW140013   0.033   4.001  13.524 -1.5458 -1.9260 -0.3235
 9460SOL    HW240014   0.116   3.885  13.585 -0.2854  0.4694  0.4415
 9461SOL     OW40015   1.127   4.420   5.980  0.1002  0.0537  0.4788
 9461SOL    HW140016   1.214   4.400   5.945  0.3031 -0.7688  1.4213
 9461SOL    HW240017   1.146   4.480   6.052  2.5392 -0.2933  0.1393
 9462SOL     OW40018   0.023   1.531  13.050 -0.5738 -0.1399 -0.5407
 9462SOL    HW140019   4.728   1.621  13.050  0.4074  0.2239 -0.7353
 9462SOL    HW240020   0.024   1.507  12.957  0.4088 -0.0277 -0.5539
 9463SOL     OW40021   3.044   1.055   6.399  0.5256  0.0764 -0.0481
 9463SOL    HW140022   3.032   1.066   6.305  0.7993 -0.6833 -0.1697
 9463SOL    HW240023   2.994   0.976   6.418  1.0708 -0.4052 -0.6139
 9464SOL     OW40024   2.086   2.492  14.326 -0.1029 -0.0601  0.4069
 9464SOL    HW140025   1.995   2.496  14.296  0.7150  1.3707 -1.9007
 9464SOL    HW240026   2.087   2.532  14.413 -0.4643  0.0367  0.3671
 9465SOL     OW40027   2.102   4.349   2.433  0.3007  0.5191 -0.2543
 9465SOL    HW140028   2.010   4.365   2.451  0.3916  2.0127 -1.0790
 9465SOL    HW240029   2.144   4.407   2.496  1.4550 -0.2400 -0.3275
 9466SOL     OW40030   4.738   3.053   4.427  0.3706  0.4155 -0.1585
 9466SOL    HW140031   0.062   2.998   4.475 -0.4630  1.0278  1.6235
 9466SOL    HW240032   0.039   3.052   4.340  0.5203  0.2585 -0.0894
 9467SOL     OW40033   0.712   2.025  11.604  0.4060 -0.7199  0.0711
 9467SOL    HW140034   0.743   2.068  11.524 -0.1476 -1.1861 -0.3951
 9467SOL    HW240035   0.769   2.062  11.670 -1.7925  2.1416  0.3637
 9468SOL     OW40036   1.123   2.563   0.986  0.1164 -0.2446 -0.4023
 9468SOL    HW140037   1.044   2.610   1.012 -0.0931 -1.3903  1.0410
 9468SOL    HW240038   1.171   2.641   0.959  0.5242 -1.1935 -2.4299
 9469SOL     OW40039   0.236   0.516  10.568  0.1733 -0.1003 -0.2320
 9469SOL    HW140040   0.154   0.565  10.569  0.7172  0.7779  1.2468
 9469SOL    HW240041   0.201   0.442  10.519  0.5555 -0.5507  0.1772
 9470SOL     OW40042   0.205   2.233   3.099 -0.6205 -0.0304  0.4875
 9470SOL    HW140043   0.163   2.286   3.031  1.7121 -1.2057 -1.8789
 9470SOL    HW240044   0.134   2.187   3.143 -0.4012 -0.1113  0.7536
 9471SOL     OW40045   2.535   1.394   8.857 -0.5050  0.2385 -0.2405
 9471SOL    HW140046   2.451   1.353   8.878 -1.0890  0.6757 -1.6879
 9471SOL    HW240047   2.502   1.464   8.801  0.5027 -0.0176 -1.1575
 9472SOL     OW40048   1.694   1.632   3.118  0.3171  0.1020  0.7435
 9472SOL    HW140049   1.650   1.612   3.035 -0.8166 -1.9354  1.8429
 9472SOL    HW240050   1.641   1.706   3.146  1.3722  1.9228 -2.0211
 9473SOL     OW40051   0.898   3.761  17.653  0.0163 -0.2019  0.2086
 9473SOL    HW140052   0.835   3.817  17.608 -1.4935 -0.4278  2.0259
 9473SOL    HW240053   0.855   3.757  17.738  0.9699 -0.7699  0.6645
 9474SOL     OW40054   4.331   2.860   9.151 -0.1958 -0.5005 -0.7111
 9474SOL    HW140055   4.418   2.866   9.112  0.7282 -0.9439  1.2879
 9474SOL    HW240056   4.340   2.927   9.219  2.2691 -0.5852 -0.9602
 9475SOL     OW40057   2.291   2.781   7.672 -0.0552  0.2660  0.1392
 9475SOL    HW140058   2.345   2.830   7.610  2.3394  0.9031  2.7025
 9475SOL    HW240059   2.349   2.725   7.723 -1.6559  0.0390  1.7049
 9476SOL     OW40060   1.695   4.144  13.445 -0.7088 -0.3052 -0.4788
 9476SOL    HW140061   1.733   4.191  13.371 -1.0449 -0.5925 -0.8322
 9476SOL    HW240062   1.677   4.056  13.410 -2.1424  0.4268 -1.5933
 9477SOL     OW40063   4.629   2.493  14.148 -0.2566  0.5396  0.4062
 9477SOL    HW140064   4.722   2.470  14.154  0.2664  2.8874  1.0486
 9477SOL    HW240065   4.590   2.431  14.087 -1.0820  1.5579 -0.0928
 9478SOL     OW40066   3.241   1.175   6.074  0.0501 -0.4162  0.5400
 9478SOL    HW140067   3.152   1.161   6.108 -0.2718 -1.8349 -0.8519
 9478SOL    HW240068   3.262   1.087   6.042  0.8505  0.5890 -1.6859
 9479SOL     OW40069   3.824   1.303   5.783  0.4066  0.1357 -0.6087
 9479SOL    HW140070   3.755   1.241   5.806  1.0405 -0.3247  0.0446
 9479SOL    HW240071   3.822   1.313   5.687 -0.4275 -0.7336 -0.6807
 9480SOL     OW40072   3.502   4.437   1.913 -0.8310 -0.0748  0.1185
 9480SOL    HW140073   3.539   4.519   1.881  0.8080 -0.2134  1.6602
 9480SOL    HW240074   3.506   4.453   2.008 -0.2058  0.5440 -0.0136
 9481SOL     OW40075   2.585   3.136   6.695  0.8652 -0.5483 -0.2209
 9481SOL    HW140076   2.514   3.078   6.668  0.3019  0.6424 -1.2412
 9481SOL    HW240077   2.620   3.166   6.611 -0.1130  0.6392 -0.1948
 9482SOL     OW40078   2.417   2.863   6.795  0.4012 -0.7035  0.2849
 9482SOL    HW140079   2.360   2.844   6.720 -1.6622 -0.3560  1.7874
 9482SOL    HW240080   2.358   2.886   6.866 -0.4012 -0.8648 -0.3266
 9483SOL     OW40081   1.399   3.272  17.198 -0.5811 -0.0132 -0.3684
 9483SOL    HW140082   1.413   3.230  17.283 -1.7441  2.6752  1.1480
 9483SOL    HW240083   1.357   3.354  17.226  0.9211 -0.1034  2.0951
 9484SOL     OW40084   0.714   1.465   2.260 -0.3278 -0.1214 -0.2338
 9484SOL    HW140085   0.739   1.375   2.279  0.0531 -0.3609 -1.8952
 9484SOL    HW240086   0.778   1.519   2.306  0.0136  2.1070 -3.2941
 9485SOL     OW40087   3.026   3.619   7.486  0.1014  0.3388  0.0644
 9485SOL    HW140088   3.059   3.703   7.518  0.2423  0.2166  0.2459
 9485SOL    HW240089   2.938   3.637   7.454 -0.6542 -0.9278  1.4079
 9486SOL     OW40090   1.363   3.786   5.317 -0.0418 -0.5295 -0.6541
 9486SOL    HW140091   1.324   3.744   5.241  0.6038 -2.5742  0.1512
 9486SOL    HW240092   1.285   3.802   5.370  1.8449 -0.7323  2.2330
 9487SOL     OW40093   2.416   3.492   0.669 -0.4171  0.3799  0.4555
 9487SOL    HW140094   2.463   3.485   0.752  0.4936 -0.0921 -0.0973
 9487SOL    HW240095   2.424   3.586   0.655 -0.1620  0.5496  1.7056
 9488SOL     OW40096   3.450   0.932   2.532  0.0203 -0.6152 -0.0570
 9488SOL    HW140097   3.361   0.966   2.522  0.5374  1.1335  1.3028
 9488SOL    HW240098   3.475   0.976   2.613  0.0820 -1.2202  0.2465
 9489SOL     OW40099   0.980   1.021   6.759  0.4456  0.4701 -0.3293
 9489SOL    HW140100   0.941   0.973   6.831  2.3224  1.1340  1.1207
 9489SOL    HW240101   1.074   1.027   6.774  0.0395  1.1080  1.8536
 9490SOL     OW40102   4.495   3.137   7.783  0.4318 -0.7523  0.5011
 9490SOL    HW140103   4.585   3.138   7.816  0.0956 -0.9597  1.4087
 9490SOL    HW240104   4.515   3.179   7.699 -0.3182 -0.4860  0.4587
 9491SOL     OW40105   1.658   0.508   4.680  0.4026  0.1277  0.1802
 9491SOL    HW140106   1.705   0.429   4.708  2.4907  1.1805 -0.3333
 9491SOL    HW240107   1.709   0.531   4.602  1.5348  2.6103  1.6341
 9492SOL     OW40108   3.863   1.008  11.639 -0.3233  0.0572  0.1890
 9492SOL    HW140109   3.830   1.075  11.579  2.3468 -0.8659 -2.3109
 9492SOL    HW240110   3.957   1.025  11.641 -0.5519  1.1192  1.5707
 9493SOL     OW40111   1.289   3.667   1.195  0.2045 -0.1766  0.4011
 9493SOL    HW140112   1.300   3.573   1.181  1.2981 -0.2192  1.6110
 9493SOL    HW240113   1.248   3.694   1.112  1.1268  1.2092  0.4062
 9494SOL     OW40114   2.622   1.927   6.511 -0.1712 -0.2336 -0.1544
 9494SOL    HW140115   2.537   1.941   6.553  0.7721  1.3867  1.2258
 9494SOL    HW240116   2.682   1.927   6.586 -1.0385  0.2684  0.5387
 9495SOL     OW40117   2.374   2.323   8.708 -0.2293  0.3124 -0.2825
 9495SOL    HW140118   2.465   2.319   8.679  0.0248  0.4262  0.5140
 9495SOL    HW240119   2.333   2.276   8.635 -1.5385 -0.1476  0.7387
 9496SOL     OW40120   1.487   3.888   3.593 -0.8183  0.1095  0.0485
 9496SOL    HW140121   1.456   3.856   3.509  0.1523  1.1767 -0.7128
 9496SOL    HW240122   1.508   3.805   3.635  0.7182 -0.0766 -1.1303
 9497SOL     OW40123   0.265   3.770   1.467  0.1574 -0.1860 -0.2599
 9497SOL    HW140124   0.327   3.714   1.421 -0.0784  0.8433 -1.8305
 9497SOL    HW240125   0.210   3.807   1.398  0.1764  1.6905  0.7261
 9498SOL     OW40126   2.426   3.000   2.692 -0.0079 -0.6353 -0.5229
 9498SOL    HW140127   2.489   3.015   2.762 -1.9916  0.4162  1.0748
 9498SOL    HW240128   2.438   2.908   2.669  0.3967 -0.9579  1.0155
 9499SOL     OW40129   2.733   0.253   7.496  0.1981  0.1004 -0.2533
 9499SOL    HW140130   2.671   0.249   7.423  2.9827 -1.2751 -2.5119
 9499SOL    HW240131   2.817   0.220   7.464  0.4494 -0.0345  0.5526
 9500SOL     OW40132   3.908   3.207   5.498 -0.0386  0.2239 -0.4481
 9500SOL    HW140133   3.958   3.143   5.549 -1.3971 -1.1051 -0.7992
 9500SOL    HW240134   3.846   3.146   5.458 -1.7312  2.9170 -1.9823
 9501SOL     OW40135   4.441   3.996  17.063 -0.2000  0.6105 -0.0171
 9501SOL    HW140136   4.367   4.053  17.041 -1.0001 -0.3716  0.1681
 9501SOL    HW240137   4.402   3.933  17.122  1.4750 -0.8390 -0.4574
 9502SOL     OW40138   4.477   4.333   3.998 -0.5781 -0.1628 -0.0632
 9502SOL    HW140139   4.538   4.401   4.027 -1.5280  0.0170  1.5325
 9502SOL    HW240140   4.511   4.252   4.036  0.2411  0.2696  0.1255
 9503SOL     OW40141   2.271   0.680   3.268  0.1010  0.0923  0.0619
 9503SOL    HW140142   2.298   0.770   3.252 -2.3218  0.5967 -1.2275
 9503SOL    HW240143   2.313   0.643   3.190  1.6272  0.9607  0.4866
 9504SOL     OW40144   2.524   2.525   6.971  0.1266  0.4533 -0.4771
 9504SOL    HW140145   2.604   2.511   7.023 -2.2450  4.0455  4.1347
 9504SOL    HW240146   2.526   2.618   6.952  1.5606  0.4298 -0.4052
 9505SOL     OW40147   2.813   4.463  16.064 -0.4774  0.5455  0.6414
 9505SOL    HW140148   2.815   4.479  15.969  2.6072 -1.6965  0.3148
 9505SOL    HW240149   2.802   4.553  16.094 -0.4862  1.6901 -2.7248
 9506SOL     OW40150   3.669   2.239  15.473 -0.3949  0.1006 -0.1422
 9506SOL    HW140151   3.708   2.282  15.397  0.7670  0.0028  0.3989
 9506SOL    HW240152   3.671   2.318  15.526 -2.8170 -0.4877  0.8496
 9507SOL     OW40153   1.336   2.112  12.717 -0.4508  0.3679 -0.0901
 9507SOL    HW140154   1.381   2.141  12.796 -0.9744 -0.3273  0.4553
 9507SOL    HW240155   1.294   2.033  12.751  1.6230 -0.6330  0.1623
 9508SOL     OW40156   2.881   3.204  13.980 -0.5083 -0.2629 -0.1279
 9508SOL    HW140157   2.821   3.267  14.021  1.6752  0.8927  1.2558
 9508SOL    HW240158   2.872   3.138  14.048  2.5367  0.3877  0.8793
 9509SOL     OW40159   1.340   0.172   6.252 -0.2582 -0.3444  0.0210
 9509SOL    HW140160   1.328   0.266   6.267 -0.6318 -0.3816 -0.0420
 9509SOL    HW240161   1.291   0.138   6.326  0.1135 -2.1680 -0.5754
 9510SOL     OW40162   3.994   2.551   9.127  0.0449  0.0618  0.1993
 9510SOL    HW140163   3.928   2.573   9.061  0.9135 -2.3403 -1.4748
 9510SOL    HW240164   3.941   2.566   9.205  1.2372  0.0779  1.0153
 9511SOL     OW40165   4.119   3.700   2.905 -0.0795  0.0545  0.3046
 9511SOL    HW140166   4.159   3.742   2.829  0.1584 -0.6482  0.0408
 9511SOL    HW240167   4.152   3.610   2.902  0.0019  0.1052 -0.4785
 9512SOL     OW40168   1.755   2.320  17.526  0.5639  0.2725  0.0100
 9512SOL    HW140169   1.840   2.332  17.569  1.5185 -1.8086 -1.2771
 9512SOL    HW240170   1.747   2.404  17.481  1.0061  0.6787  0.6961
 9513SOL     OW40171   3.325   3.247  12.219 -0.2209  0.1986  0.4434
 9513SOL    HW140172   3.271   3.168  12.220 -2.0599  1.4421  0.3711
 9513SOL    HW240173   3.293   3.294  12.142  1.3016 -0.8206 -0.7999
 9514SOL     OW40174   0.215   1.476  10.185  0.1967 -0.3954  0.0921
 9514SOL    HW140175   0.160   1.552  10.167  0.4905 -0.2955 -0.3931
 9514SOL    HW240176   0.245   1.496  10.274  2.3288  0.7491 -0.8822
 9515SOL     OW40177   2.317   2.370   3.386  0.6057  0.0155 -0.2281
 9515SOL    HW140178   2.277   2.334   3.465  0.3235 -1.5115 -1.0799
 9515SOL    HW240179   2.329   2.292   3.332  2.7945 -0.2696  0.6738
 9516SOL     OW40180   3.019   2.979   9.234  0.7052 -0.0740 -0.2168
 9516SOL    HW140181   2.979   3.062   9.211  0.4076 -0.1491  0.0190
 9516SOL    HW240182   2.992   2.952   9.322 -1.6667 -2.4156 -1.6388
 9517SOL     OW40183   0.627   1.545   1.206 -0.0728  0.0405 -0.8769
 9517SOL    HW140184   0.556   1.566   1.146  1.9246  1.4604 -2.7123
 9517SOL    HW240185   0.684   1.496   1.147  0.2984  1.2313 -1.5130
 9518SOL     OW40186   4.027   3.633   2.072  0.0810  0.9841  0.6146
 9518SOL    HW140187   4.059   3.620   1.983  2.5537  0.8745  1.5152
 9518SOL    HW240188   4.107   3.634   2.125  0.0150 -0.5693  0.7411
 9519SOL     OW40189   0.045   1.448   7.883 -0.0072  0.4479  1.0200
 9519SOL    HW140190   0.118   1.388   7.904 -0.8333  0.2318  3.2894
 9519SOL    HW240191   4.725   1.388   7.837 -0.2307  1.7307 -0.3509
 9520SOL     OW40192   3.360   3.644  12.403 -0.2074 -0.1767  0.3619
 9520SOL    HW140193   3.398   3.673  12.486  2.5023 -0.8807 -0.6202
 9520SOL    HW240194   3.429   3.591  12.364 -0.0019 -0.6350  1.3499
 9521SOL     OW40195   0.423   4.058   3.876  0.5149 -0.2375  0.5667
 9521SOL    HW140196   0.368   4.027   3.804  0.7788 -0.0048  0.2611
 9521SOL    HW240197   0.511   4.040   3.842  0.6899 -1.6085  1.7948
 9522SOL     OW40198   4.186   2.823   7.589 -0.0434  0.1065  0.1104
 9522SOL    HW140199   4.135   2.888   7.637  1.3846  0.9406  0.5106
 9522SOL    HW240200   4.276   2.832   7.621 -0.0818  1.4197 -0.1493
 9523SOL     OW40201   3.689   4.399   7.437 -0.2522  0.0196  0.9124
 9523SOL    HW140202   3.688   4.343   7.514 -1.6774 -3.8827 -1.9327
 9523SOL    HW240203   3.778   4.428   7.419 -0.7525  0.7520 -0.3866
 9524SOL     OW40204   4.496   4.604   2.619  0.0431 -0.4397  0.0898
 9524SOL    HW140205   4.427   4.561   2.670 -0.2083  1.0878  1.0455
 9524SOL    HW240206   4.506   4.674   2.683  1.2464 -1.0161  0.5203
 9525SOL     OW40207   2.871   3.551   2.877 -0.2650  0.4586 -0.0042
 9525SOL    HW140208   2.849   3.569   2.969 -0.4830 -1.0079  0.2198
 9525SOL    HW240209   2.871   3.642   2.845  0.0252  0.9917  1.4985
 9526SOL     OW40210   4.310   0.554   8.983 -0.2017 -0.3709 -0.1745
 9526SOL    HW140211   4.351   0.468   8.994  1.1122  0.5831  2.2870
 9526SOL    HW240212   4.263   0.536   8.902 -0.7673 -0.8636  0.2613
 9527SOL     OW40213   0.838   2.006   6.780  0.3161 -0.3982  0.1885
 9527SOL    HW140214   0.926   2.012   6.743  0.2226  0.2584  0.0815
 9527SOL    HW240215   0.809   1.921   6.745  0.6510  0.5836 -2.4598
 9528SOL     OW40216   2.083   2.908   3.701  0.1991  0.5096 -0.0423
 9528SOL    HW140217   2.138   2.967   3.649  0.1212 -1.4723 -2.3563
 9528SOL    HW240218   2.041   2.977   3.753 -1.5014  0.7870 -1.8066
 9529SOL     OW40219   2.333   4.096   6.028 -0.0450 -0.0755  0.2462
 9529SOL    HW140220   2.423   4.119   6.052  0.6985 -0.4086 -2.1754
 9529SOL    HW240221   2.317   4.034   6.099 -0.8756 -0.4780 -0.2924
 9530SOL     OW40222   2.208   1.005   6.180  0.4033 -0.4496  0.1026
 9530SOL    HW140223   2.159   0.940   6.231 -1.5202  1.3314  0.4903
 9530SOL    HW240224   2.248   0.939   6.123  0.5271 -2.3601  2.3649
 9531SOL     OW40225   1.953   2.210  11.875 -0.4643  0.3457  0.0434
 9531SOL    HW140226   1.999   2.132  11.906  1.3540  1.1560 -0.6126
 9531SOL    HW240227   1.902   2.237  11.951 -1.0097  1.6454 -0.7931
 9532SOL     OW40228   3.146   3.353   4.938 -0.6117  0.5249  0.2783
 9532SOL    HW140229   3.059   3.393   4.940 -0.4771  0.9816 -2.1220
 9532SOL    HW240230   3.162   3.340   4.844 -0.6613 -1.9612  0.6088
 9533SOL     OW40231   3.473   3.980   9.234 -0.0741 -0.5589  0.6969
 9533SOL    HW140232   3.560   3.942   9.226  0.1078 -0.3125  1.5848
 9533SOL    HW240233   3.463   3.971   9.328 -2.7267  4.1633  0.8810
 9534SOL     OW40234   1.024   1.560  13.738  0.8521  0.2358  0.4876
 9534SOL    HW140235   0.945   1.608  13.766  0.8459  0.1031  0.6970
 9534SOL    HW240236   0.972   1.488  13.703 -0.8583  0.5229  2.4587
 9535SOL     OW40237   2.460   3.089  10.875  0.3451 -0.3589  0.7646
 9535SOL    HW140238   2.485   3.147  10.803 -0.3817  0.1608  0.9375
 9535SOL    HW240239   2.365   3.087  10.866  0.0442  1.7620  3.3365
 9536SOL     OW40240   1.124   3.044   2.386 -0.2466 -0.0424 -0.3367
 9536SOL    HW140241   1.206   3.093   2.381 -0.0580 -0.3383 -0.1189
 9536SOL    HW240242   1.134   3.015   2.477 -1.6252  4.0972  1.1232
 9537SOL     OW40243   2.217   0.907   4.835  0.1372 -0.0723  0.0033
 9537SOL    HW140244   2.151   0.948   4.890 -0.3405 -1.9221  0.8209
 9537SOL    HW240245   2.229   0.823   4.879 -0.3677  0.4588  1.1500
 9538SOL     OW40246   2.217   3.444   9.650  0.6873  0.5396  0.4708
 9538SOL    HW140247   2.227   3.522   9.595 -0.5956 -0.0425 -0.5948
 9538SOL    HW240248   2.201   3.375   9.585  1.4338  1.0277 -0.2180
 9539SOL     OW40249   3.278   0.906   9.544 -0.1115  0.2749  0.0116
 9539SOL    HW140250   3.311   0.979   9.596  2.4387  1.1582 -2.8141
 9539SOL    HW240251   3.230   0.858   9.611 -1.0512  1.7907  0.4156
 9540SOL     OW40252   3.718   1.338   7.402 -0.9327 -0.1430 -0.0996
 9540SOL    HW140253   3.671   1.289   7.470 -2.0557  1.1180  0.0459
 9540SOL    HW240254   3.783   1.377   7.461 -0.8424  0.2699 -0.4687
 9541SOL     OW40255   1.150   0.630   8.973  0.0895 -0.2958 -0.1843
 9541SOL    HW140256   1.144   0.604   9.065 -3.1940 -1.5095 -0.7437
 9541SOL    HW240257   1.244   0.626   8.952  0.0540  0.6667 -0.4993
 9542SOL     OW40258   3.080   0.044  10.490  0.1048 -0.6993  0.6063
 9542SOL    HW140259   3.067   0.132  10.524  4.0556  1.0884 -2.6229
 9542SOL    HW240260   3.174   0.042  10.472 -0.2186 -1.2385 -1.0515
 9543SOL     OW40261   3.402   0.090   7.156  0.4678  0.1950 -0.2499
 9543SOL    HW140262   3.458   0.133   7.092 -2.1938  0.9120 -2.0647
 9543SOL    HW240263   3.461   0.034   7.208  1.5177 -0.7898 -2.5090
 9544SOL     OW40264   0.703   2.989   4.981  0.4533 -0.1862  0.0236
 9544SOL    HW140265   0.666   2.912   5.024  0.5361 -0.9434 -1.2706
 9544SOL    HW240266   0.657   2.986   4.898  1.9408  0.3127 -0.8172
 9545SOL     OW40267   1.188   0.649   5.407  0.4559 -0.0806  0.2026
 9545SOL    HW140268   1.244   0.711   5.361  0.4821  0.9326  1.6084
 9545SOL    HW240269   1.234   0.653   5.490 -1.0983  0.4430  1.0430
 9546SOL     OW40270   0.591   3.999   6.297  0.2266  0.1479  0.7544
 9546SOL    HW140271   0.511   3.951   6.277 -0.8468  1.9784  0.6294
 9546SOL    HW240272   0.551   4.072   6.344 -0.0129  1.2831 -1.2110
 9547SOL     OW40273   2.040   1.453   0.174 -0.1927  0.3406 -0.4497
 9547SOL    HW140274   2.072   1.372   0.135  1.1985  0.0113  1.4098
 9547SOL    HW240275   2.007   1.492   0.093  0.3317 -0.5783 -1.0965
 9548SOL     OW40276   2.943   2.893   7.705  0.0302 -0.4362  0.5304
 9548SOL    HW140277   3.031   2.854   7.701  1.0563  1.8759  0.6630
 9548SOL    HW240278   2.965   2.983   7.681 -1.6763  0.0492  0.7820
 9549SOL     OW40279   0.693   1.267   1.728  0.0741  0.6772  0.0932
 9549SOL    HW140280   0.617   1.213   1.750 -0.3580  0.7701 -1.1773
 9549SOL    HW240281   0.751   1.251   1.803 -1.2644 -0.4021  0.9006
 9550SOL     OW40282   0.482   3.012   4.088  0.7886 -0.4369  0.8390
 9550SOL    HW140283   0.547   2.971   4.031  1.2215 -0.1146  1.1026
 9550SOL    HW240284   0.481   3.103   4.056  1.9260 -1.6215 -2.5444
 9551SOL     OW40285   3.517   0.827   1.968 -0.6752  0.3275 -0.1922
 9551SOL    HW140286   3.543   0.788   2.052 -0.5230 -0.4594 -0.6035
 9551SOL    HW240287   3.457   0.761   1.934 -0.5676  0.5652 -0.8547
 9552SOL     OW40288   0.705   2.131  14.888  0.0200 -0.1781 -0.1432
 9552SOL    HW140289   0.800   2.128  14.878  0.2235  0.8796  1.3730
 9552SOL    HW240290   0.675   2.079  14.814  0.9913 -2.7712  1.2798
 9553SOL     OW40291   3.559   2.757   8.904  0.0007 -0.2840 -0.0398
 9553SOL    HW140292   3.493   2.710   8.955  0.5702 -0.1420  0.8366
 9553SOL    HW240293   3.501   2.780   8.831 -2.2838  0.3181  1.9703
 9554SOL     OW40294   4.165   1.699   7.640 -0.7390 -0.0255  0.2840
 9554SOL    HW140295   4.235   1.761   7.619 -1.5328  0.4405 -0.9892
 9554SOL    HW240296   4.190   1.622   7.588 -0.7601  1.8970 -2.6061
 9555SOL     OW40297   0.616   4.672   4.767 -0.3398 -0.0754  0.1205
 9555SOL    HW140298   0.639   4.632   4.683 -1.2876  2.6158 -1.4123
 9555SOL    HW240299   0.531   4.710   4.743 -1.8992 -2.1851  2.3318
 9556SOL     OW40300   4.600   1.624   5.128 -0.2648  0.1138  0.3718
 9556SOL    HW140301   4.544   1.672   5.066  0.5361  2.2504  1.3094
 9556SOL    HW240302   4.665   1.583   5.071 -1.2253  1.8852 -2.0168
 9557SOL     OW40303   2.089   0.865   8.666 -0.1014  0.1088  0.0305
 9557SOL    HW140304   2.086   0.960   8.652 -0.0732  0.1616  0.3630
 9557SOL    HW240305   2.013   0.835   8.716  0.2873 -2.5265 -0.9326
 9558SOL     OW40306   4.649   1.749   1.936 -0.1601  0.2588  0.5608
 9558SOL    HW140307   4.582   1.683   1.918 -0.2028 -0.0536  1.8666
 9558SOL    HW240308   4.607   1.834   1.921 -0.3219 -0.3855 -2.5324
 9559SOL     OW40309   2.477   3.178   8.124  0.0890  0.2313 -0.1908
 9559SOL    HW140310   2.485   3.254   8.181  1.0295  0.1315 -0.1787
 9559SOL    HW240311   2.531   3.218   8.056  0.2655  1.9835  1.0069
 9560SOL     OW40312   3.943   3.283   6.679  0.5668  0.4624  0.1268
 9560SOL    HW140313   3.972   3.214   6.619 -2.0883 -0.2726 -0.2810
 9560SOL    HW240314   3.993   3.345   6.626 -1.2782  0.2830 -1.8320
 9561SOL     OW40315   1.335   1.263   6.244 -0.3677  0.0532  0.5712
 9561SOL    HW140316   1.411   1.228   6.197 -1.2653 -0.8776 -0.1873
 9561SOL    HW240317   1.278   1.297   6.174 -1.4427  0.2458  1.5433
 9562SOL     OW40318   0.591   1.112   2.538  0.2593 -0.7847  0.6102
 9562SOL    HW140319   0.649   1.078   2.606  0.1627 -1.6612  0.2564
 9562SOL    HW240320   0.650   1.139   2.468  0.3609 -0.0160  0.9877
 9563SOL     OW40321   2.987   2.705  12.318 -0.4365  0.1203  0.7020
 9563SOL    HW140322   3.035   2.758  12.382  0.5189 -0.4366  0.4466
 9563SOL    HW240323   2.970   2.766  12.246  1.6556  0.6263  0.6145
 9564SOL     OW40324   3.932   2.967  15.771  0.5901  0.2068 -0.1899
 9564SOL    HW140325   4.006   3.027  15.781 -1.0078  2.2788 -0.9260
 9564SOL    HW240326   3.920   2.950  15.864 -1.2535 -2.0120 -0.8224
 9565SOL     OW40327   2.626   3.746   0.056  0.1252 -0.0871  0.1520
 9565SOL    HW140328   2.596   3.835   0.076 -0.2422 -0.2761  0.4546
 9565SOL    HW240329   2.697   3.729   0.118  1.5026  2.1870 -0.8277
 9566SOL     OW40330   1.494   0.846   5.042  0.3588  0.5584 -0.3782
 9566SOL    HW140331   1.419   0.849   4.983  0.8173  1.5995 -0.9069
 9566SOL    HW240332   1.564   0.892   4.996  0.2025  0.3689 -0.8087
 9567SOL     OW40333   4.450   3.730  17.677 -0.3873 -0.2317  0.1663
 9567SOL    HW140334   4.435   3.662  17.743 -1.3896  0.0397  0.2260
 9567SOL    HW240335   4.391   3.794  17.717 -1.3182 -1.5147  0.8894
 9568SOL     OW40336   2.538   2.655  17.598  0.8470  0.5866 -0.0449
 9568SOL    HW140337   2.462   2.602  17.624  0.7340 -0.6009 -2.7327
 9568SOL    HW240338   2.598   2.583  17.579 -0.9300 -0.2521 -2.5264
 9569SOL     OW40339   2.520   0.493   5.811 -0.7196  0.3282 -0.4275
 9569SOL    HW140340   2.535   0.554   5.882 -1.1748  1.9338 -1.7172
 9569SOL    HW240341   2.594   0.508   5.753 -0.1490 -1.6128 -0.1980
 9570SOL     OW40342   3.077   2.269   6.504  0.4971  0.3791 -0.0987
 9570SOL    HW140343   3.168   2.248   6.480  0.0787  1.5112 -2.7158
 9570SOL    HW240344   3.020   2.235   6.435 -0.4030 -1.4028  1.5419
 9571SOL     OW40345   3.323   3.293   9.069  0.4153 -0.4729  0.8017
 9571SOL    HW140346   3.241   3.338   9.092  1.2335  0.8450  1.1454
 9571SOL    HW240347   3.288   3.204   9.073 -1.2185  0.0568 -1.7222
   4.73867   4.73867  17.75266
