Membrane in water
40347
    1TMC1    C1    1   2.365   2.233  11.235  0.0560 -0.4185 -0.1905
    1TMC1    C2    2   2.432   2.201  11.118  0.8503  0.0447  0.6644
    1TMC1    C3    3   2.506   2.304  11.059 -0.2003  0.2812  0.0774
    1TMC1    C4    4   2.371   2.351  11.290  0.5588  0.0108  0.6575
    1TMC1    C5    5   2.432   2.453  11.217  0.0239 -0.2839  0.2431
    1TMC1    C6    6   2.502   2.435  11.104 -0.1997  0.1759 -0.2514
    1TMC1     C    7   2.299   2.130  11.313 -0.0657  0.8069  0.4606
    1TMC1     O    8   2.216   2.169  11.391  0.0474 -0.8040 -0.2028
    1TMC1     H    9   2.414   2.116  11.054  1.9415  1.5085 -1.5806
    1TMC1    H1   10   2.320   2.376  11.383  1.4006  0.1569  1.0839
    1TMC1    H2   11   2.559   2.515  11.057 -1.6959  0.7518 -1.0755
    1TMC1    C7   12   2.402   2.587  11.262 -0.3549  0.6497 -0.7158
    1TMC1    C8   13   2.583   2.272  10.946  0.3509  0.5807 -0.5786
    1TMC1    O1   14   2.393   2.618  11.380 -0.4782 -0.7542  0.1676
    1TMC1    O2   15   2.565   2.307  10.829  0.3402  0.4270 -0.0533
    1TMC1    O3   16   2.400   2.672  11.160 -0.1041  0.4089 -0.0121
    1TMC1    H3   17   2.374   2.630  11.075 -1.8381  0.4756  0.4917
    1TMC1    O5   18   2.647   2.161  10.991  0.1461  0.1036  1.1231
    1TMC1    H5   19   2.674   2.152  11.085 -0.3664 -3.6503  0.8892
    2MPD2     C   20   2.179   1.627  11.414  0.3429  0.3721 -0.7042
    2MPD2    C1   21   2.132   1.746  11.471  0.0869 -0.8386 -0.1483
    2MPD2    C2   22   2.184   1.867  11.425 -0.6356 -0.0291 -0.3646
    2MPD2    C3   23   2.282   1.872  11.324  0.6002 -0.2590 -0.5085
    2MPD2    C4   24   2.318   1.755  11.261 -0.0362 -0.4067  0.4420
    2MPD2    C5   25   2.268   1.635  11.307 -0.0389 -0.8960 -0.1155
    2MPD2     H   26   2.155   1.962  11.470 -0.9560 -1.3001  2.0930
    2MPD2    H1   27   2.381   1.750  11.172  0.7199 -1.5453  1.0359
    2MPD2    H2   28   2.140   1.529  11.437  1.5556  0.0537 -0.0056
    2MPD2    H3   29   2.310   1.544  11.265 -0.7577 -1.8747  1.2665
    2MPD2     N   30   2.337   1.998  11.276  0.4042 -0.7330 -0.0544
    2MPD2    H5   31   2.406   1.986  11.203 -0.0960  2.3778 -1.0370
    2MPD2    N1   32   2.031   1.749  11.569  0.2244 -0.6168  0.0282
    2MPD2    H7   33   1.990   1.839  11.591  1.1397 -0.4937  1.2144
    3TMC1    C1   34   1.110   2.528  10.488  0.5749 -0.5283 -0.1881
    3TMC1    C2   35   1.148   2.644  10.434 -0.1856  0.2676 -0.5571
    3TMC1    C3   36   1.213   2.641  10.314  0.0856 -0.5113 -0.2816
    3TMC1    C4   37   1.119   2.410  10.425  0.0878  0.6938  0.2533
    3TMC1    C5   38   1.178   2.406  10.298  0.1573  0.3426 -0.6223
    3TMC1    C6   39   1.222   2.522  10.244 -0.2465  0.6322 -0.1293
    3TMC1     C   40   1.054   2.517  10.619  0.2197  0.6054 -0.2301
    3TMC1     O   41   0.973   2.432  10.632  0.6534  0.0628  0.1443
    3TMC1     H   42   1.117   2.741  10.471  0.2631  0.2675 -0.1811
    3TMC1    H1   43   1.093   2.318  10.476 -1.8472  0.4255 -1.2286
    3TMC1    H2   44   1.243   2.530  10.138  4.0435 -0.7639  0.5815
    3TMC1    C7   45   1.136   2.293  10.210 -0.0705  0.3138  0.2770
    3TMC1    C8   46   1.286   2.752  10.254 -0.1066  0.1058  0.2561
    3TMC1    O1   47   1.181   2.274  10.098  0.2125  0.1001  0.0024
    3TMC1    O2   48   1.351   2.739  10.151 -0.8372 -0.1399  0.5033
    3TMC1    O3   49   1.025   2.228  10.258  0.1731  0.4559  0.2203
    3TMC1    H3   50   0.977   2.269  10.333  2.4360  2.6478  0.4572
    3TMC1    O5   51   1.292   2.855  10.339 -0.2710 -0.1346 -0.1171
    3TMC1    H5   52   1.256   2.834  10.427  0.5725 -0.5959  0.1117
    4MPD2     C   53   0.975   2.691  11.086 -0.0004 -0.0750  0.0340
    4MPD2    C1   54   1.066   2.771  11.028  0.0155  0.2591  0.1548
    4MPD2    C2   55   1.112   2.735  10.899  0.3062 -0.4958 -0.1987
    4MPD2    C3   56   1.061   2.628  10.837  0.3146 -0.8392  0.3805
    4MPD2    C4   57   0.966   2.547  10.895  0.3459 -0.1541  0.1018
    4MPD2    C5   58   0.925   2.583  11.018  0.1807 -0.4017 -0.1321
    4MPD2     H   59   1.184   2.804  10.857 -2.2120 -0.2776 -4.2152
    4MPD2    H1   60   0.939   2.453  10.848  0.7412 -0.5378  0.6333
    4MPD2    H2   61   0.926   2.706  11.181  0.4851  1.6907 -0.0057
    4MPD2    H3   62   0.855   2.520  11.072  0.9509  0.8604  2.3437
    4MPD2     N   63   1.106   2.609  10.707 -0.3021  0.1570 -0.2645
    4MPD2    H5   64   1.171   2.675  10.666 -0.2656  0.2066 -0.1264
    4MPD2    N1   65   1.111   2.892  11.087 -0.4692  0.0098  0.0406
    4MPD2    H7   66   1.183   2.946  11.040  0.1558 -1.8731 -1.1884
    5TCq1    O1   67   1.008   4.572  12.285 -0.2250 -0.3379  0.1723
    5TCq1    C1   68   1.050   4.519  12.163  0.1721  0.2561 -0.4041
    5TCq1    O2   69   1.162   4.494  12.121 -0.2488 -0.3392  0.6940
    5TCq1    C2   70   0.927   4.510  12.074  0.0265  0.3832 -0.4253
    5TCq1    C3   71   0.808   4.472  12.131 -0.3328 -0.8413  0.1162
    5TCq1    C4   72   0.696   4.454  12.049  0.3812 -0.8467  0.5831
    5TCq1    C5   73   0.712   4.469  11.911  0.1954 -0.8144 -0.4445
    5TCq1    C6   74   0.837   4.498  11.864 -0.0185 -0.6887 -0.0410
    5TCq1    C7   75   0.942   4.517  11.947 -0.3485  0.5264 -0.4364
    5TCq1    C8   76   0.856   4.490  11.720 -0.0096 -0.2356 -0.4545
    5TCq1    O4   77   0.970   4.478  11.678 -0.2706  0.0024  0.1468
    5TCq1    C9   78   0.581   4.394  12.109  0.6922  0.0039 -0.5625
    5TCq1    O5   79   0.473   4.372  12.044  0.4322  0.3790 -0.4389
    5TCq1    O6   80   0.616   4.346  12.219  0.5379 -0.0525 -0.1264
    5TCq1    H1   81   0.913   4.585  12.304 -0.1513 -0.4813  0.6309
    5TCq1    H2   82   0.800   4.461  12.238  0.0868 -0.3381  0.1997
    5TCq1    H3   83   0.637   4.425  11.846 -2.6340  0.8019  1.7092
    5TCq1    H4   84   1.041   4.533  11.906  0.5309 -3.0662  0.2800
    6MPD2     C   85   0.596   4.557  11.465  0.0734 -0.2359  0.3466
    6MPD2    C1   86   0.716   4.513  11.514  0.1015  0.6000 -0.4426
    6MPD2    C2   87   0.811   4.449  11.431 -1.0317 -0.0680  0.1199
    6MPD2    C3   88   0.773   4.436  11.295  0.2772 -0.7735  0.2862
    6MPD2    C4   89   0.658   4.483  11.242  0.3739 -0.5185 -0.2675
    6MPD2    C5   90   0.570   4.541  11.332 -0.3936 -0.5093  0.0126
    6MPD2     H   91   0.905   4.410  11.469 -0.2558  0.6402 -1.0468
    6MPD2    H1   92   0.625   4.480  11.139  0.3590  0.2986 -0.2886
    6MPD2    H2   93   0.531   4.613  11.532 -1.6464 -1.6915 -0.0917
    6MPD2    H3   94   0.487   4.595  11.288 -0.0201  0.8208  0.9609
    6MPD2     N   95   0.869   4.385  11.203  0.2790  0.6710 -0.1043
    6MPD2    H5   96   0.964   4.364  11.234  0.4464 -1.4393 -2.0774
    6MPD2    N1   97   0.746   4.534  11.648  0.1425 -1.0356 -0.2363
    6MPD2    H7   98   0.671   4.577  11.701  0.2832  0.2607 -1.0936
    7TCq1    O1   99   4.055   4.197  12.981 -0.0698 -0.1795 -0.4925
    7TCq1    C1  100   4.109   4.067  12.962  0.4445 -0.0104  0.4175
    7TCq1    O2  101   4.234   4.043  12.964 -0.0327 -0.0227  0.2016
    7TCq1    C2  102   4.011   3.966  12.993  0.5758 -0.2932 -0.6903
    7TCq1    C3  103   3.890   3.983  12.938  0.2751  0.4921 -0.9645
    7TCq1    C4  104   3.801   3.884  12.953  0.1861  0.4536 -0.0507
    7TCq1    C5  105   3.839   3.762  13.007 -1.2359  0.0428 -0.8141
    7TCq1    C6  106   3.964   3.748  13.049  0.8424  0.0781  0.3151
    7TCq1    C7  107   4.050   3.853  13.045  0.0905 -0.4666  0.3368
    7TCq1    C8  108   3.987   3.637  13.144 -0.2412  0.0188 -0.1313
    7TCq1    O4  109   3.928   3.530  13.113  0.2741 -0.6969 -0.1739
    7TCq1    C9  110   3.667   3.892  12.900 -0.1168  0.5027  0.1187
    7TCq1    O5  111   3.625   4.005  12.861 -0.6439  0.2498 -0.0972
    7TCq1    O6  112   3.613   3.777  12.895 -0.2511 -0.0206  0.0606
    7TCq1    H1  113   3.987   4.185  13.051  0.5294  4.3006  0.8098
    7TCq1    H2  114   3.868   4.071  12.878  3.6502  3.0164  1.4892
    7TCq1    H3  115   3.774   3.677  13.025 -1.2387 -0.1853 -1.9115
    7TCq1    H4  116   4.157   3.846  13.061  0.2064 -2.1472 -1.1143
    8MPD2     C  117   4.220   3.436  13.556  0.3341  0.1828  0.0821
    8MPD2    C1  118   4.143   3.375  13.457 -0.0441  0.0978 -0.1932
    8MPD2    C2  119   4.096   3.447  13.344 -0.4297 -0.5901  0.1806
    8MPD2    C3  120   4.123   3.582  13.338  0.0513  0.8939  1.2913
    8MPD2    C4  121   4.198   3.637  13.439  0.3088 -0.5544  0.1723
    8MPD2    C5  122   4.242   3.567  13.546  0.0651 -0.2712  0.0080
    8MPD2     H  123   4.031   3.409  13.266  0.7237  0.5895 -1.3568
    8MPD2    H1  124   4.218   3.743  13.432 -0.3216 -0.5332 -1.2600
    8MPD2    H2  125   4.261   3.379  13.639 -0.5834  1.9057  1.7110
    8MPD2    H3  126   4.303   3.614  13.623  1.5891  2.8754 -3.1384
    8MPD2     N  127   4.071   3.666  13.243  0.2344 -0.3722 -0.6591
    8MPD2    H5  128   4.100   3.763  13.245  1.3310 -0.7372  1.8442
    8MPD2    N1  129   4.110   3.234  13.475 -0.0317 -0.2862 -0.7412
    8MPD2    H7  130   4.144   3.195  13.561 -1.5392 -1.0451 -0.4974
    9TMC1    C1  131   1.853   2.395  10.717 -0.3343  0.0110 -0.0447
    9TMC1    C2  132   1.847   2.531  10.710  0.2233 -0.2537 -0.3054
    9TMC1    C3  133   1.889   2.595  10.598  0.8229 -0.3169  0.3401
    9TMC1    C4  134   1.880   2.313  10.606 -0.3099 -0.1268 -0.4036
    9TMC1    C5  135   1.937   2.376  10.500  0.7289  0.3820  0.0576
    9TMC1    C6  136   1.932   2.517  10.488  0.0463 -0.4417 -0.8073
    9TMC1     C  137   1.779   2.328  10.825 -0.1553 -0.4814  0.3559
    9TMC1     O  138   1.732   2.217  10.797  0.1495  0.5696  0.4757
    9TMC1     H  139   1.798   2.592  10.785 -0.4608 -0.3283 -0.6956
    9TMC1    H1  140   1.842   2.211  10.601  3.6196 -1.6436  1.2423
    9TMC1    H2  141   1.982   2.556  10.401  1.1137  0.0794  0.0407
    9TMC1    C7  142   1.961   2.302  10.377 -0.4561 -0.3328  0.4886
    9TMC1    C8  143   1.866   2.743  10.582  0.3717 -0.2498  0.3761
    9TMC1    O1  144   1.950   2.360  10.271  0.7318  0.3305 -0.4902
    9TMC1    O2  145   1.896   2.808  10.683  0.1172  0.0456  0.3180
    9TMC1    O3  146   1.953   2.169  10.391  0.3814  0.0641  0.4558
    9TMC1    H3  147   1.955   2.142  10.485 -0.7743 -0.1058  0.4364
    9TMC1    O5  148   1.885   2.779  10.453 -0.3582 -0.5186  0.5249
    9TMC1    H5  149   1.849   2.714  10.389  2.1384 -0.7832 -0.6203
   10MPD2     C  150   1.603   2.277  11.058  0.0204 -0.0902 -0.7856
   10MPD2    C1  151   1.687   2.388  11.043  0.0045  0.0477  0.2773
   10MPD2    C2  152   1.699   2.478  11.150  0.4080  0.6535  0.0524
   10MPD2    C3  153   1.629   2.452  11.268  0.0827 -0.3648  0.2619
   10MPD2    C4  154   1.542   2.345  11.276  0.1577  0.9286  0.2277
   10MPD2    C5  155   1.529   2.256  11.173  0.2489 -0.4766  0.1753
   10MPD2     H  156   1.768   2.561  11.145  0.6684  0.3928 -0.6790
   10MPD2    H1  157   1.495   2.332  11.373 -0.6158  1.4655 -0.0705
   10MPD2    H2  158   1.590   2.212  10.973 -3.1724  0.6025 -0.8176
   10MPD2    H3  159   1.477   2.161  11.179 -0.1056 -0.3538 -0.8775
   10MPD2     N  160   1.626   2.539  11.381  0.0181 -0.2012 -0.0626
   10MPD2    H5  161   1.555   2.526  11.453  0.2638 -0.0331  0.2081
   10MPD2    N1  162   1.765   2.410  10.933 -0.3665 -0.1555 -0.8424
   10MPD2    H7  163   1.824   2.492  10.932 -1.0310  0.3112 -1.8182
   11TCq1    O1  164   2.408   2.491  14.633 -0.2588 -0.4028  0.2702
   11TCq1    C1  165   2.301   2.519  14.563  0.0568 -0.1726  0.2981
   11TCq1    O2  166   2.199   2.579  14.603  0.3100  0.3300  0.5043
   11TCq1    C2  167   2.303   2.430  14.442  0.0325 -0.0324  0.8769
   11TCq1    C3  168   2.412   2.347  14.413  0.6424 -0.4509 -0.1149
   11TCq1    C4  169   2.392   2.257  14.308 -0.2451 -0.0611 -0.5296
   11TCq1    C5  170   2.279   2.258  14.225 -0.2832  0.7097 -0.0459
   11TCq1    C6  171   2.183   2.347  14.250 -0.1014 -0.2454 -0.7314
   11TCq1    C7  172   2.191   2.428  14.358  0.0585 -0.6346 -0.1569
   11TCq1    C8  173   2.068   2.350  14.161 -0.8845  0.4581 -0.2367
   11TCq1    O4  174   1.979   2.430  14.197  0.0762 -0.2072  0.5079
   11TCq1    C9  175   2.505   2.174  14.263 -0.1992  0.0623 -0.3019
   11TCq1    O5  176   2.612   2.180  14.327 -0.2777  0.0894  0.0463
   11TCq1    O6  177   2.487   2.098  14.164  0.8393 -0.2758 -0.0159
   11TCq1    H1  178   2.472   2.434  14.586 -0.7760 -1.8364  1.2792
   11TCq1    H2  179   2.513   2.362  14.447  1.4037 -0.1509 -2.4721
   11TCq1    H3  180   2.277   2.193  14.138 -0.5192  0.2592  0.2970
   11TCq1    H4  181   2.110   2.495  14.387  0.7425  0.7964 -1.6052
   12MPD2     C  182   1.860   2.317  13.963 -0.0769 -0.5650 -0.3628
   12MPD2    C1  183   1.986   2.273  13.942 -0.2302  0.0358 -0.7481
   12MPD2    C2  184   2.024   2.225  13.823  0.5389 -0.3176  0.3043
   12MPD2    C3  185   1.927   2.221  13.725 -0.3039 -0.2367  0.1329
   12MPD2    C4  186   1.796   2.253  13.748  0.1897 -0.5994 -0.6031
   12MPD2    C5  187   1.759   2.294  13.870 -0.7638 -0.1448 -0.7961
   12MPD2     H  188   2.127   2.201  13.800 -0.0217 -0.8383 -1.6494
   12MPD2    H1  189   1.720   2.232  13.674  0.2174 -3.2453  0.1175
   12MPD2    H2  190   1.816   2.355  14.055 -0.9717 -2.3070 -0.0786
   12MPD2    H3  191   1.658   2.320  13.899 -0.8081 -0.0167 -1.0703
   12MPD2     N  192   1.955   2.167  13.597 -0.1366  0.2435  0.8810
   12MPD2    H5  193   1.887   2.182  13.524 -1.1351 -0.3322  1.6817
   12MPD2    N1  194   2.088   2.289  14.042 -0.4684 -0.1062 -0.1896
   12MPD2    H7  195   2.182   2.268  14.010 -1.1334 -0.6752 -1.7613
   13TCq1    O1  196   1.401   3.334  10.077  0.8716 -0.2739  0.3960
   13TCq1    C1  197   1.360   3.242  10.168  0.0943 -0.3137  0.6123
   13TCq1    O2  198   1.248   3.229  10.214 -0.1439  0.1758 -0.6709
   13TCq1    C2  199   1.479   3.167  10.204  0.7999 -0.1188 -1.0183
   13TCq1    C3  200   1.576   3.151  10.113 -0.3207  0.2011  0.2092
   13TCq1    C4  201   1.680   3.070  10.146  0.1171  0.1909 -0.5509
   13TCq1    C5  202   1.684   3.002  10.262  0.5855 -0.2104  0.3763
   13TCq1    C6  203   1.574   3.010  10.340 -0.2653  0.1824  0.1497
   13TCq1    C7  204   1.473   3.089  10.319  0.1571  0.3453 -0.1307
   13TCq1    C8  205   1.565   2.908  10.446 -0.0600  0.1666 -0.1852
   13TCq1    O4  206   1.500   2.941  10.543  0.3927 -0.1751 -0.6231
   13TCq1    C9  207   1.790   3.063  10.049  0.0306 -0.6289  0.3413
   13TCq1    O5  208   1.891   2.991  10.082  0.0058 -0.8321  0.4831
   13TCq1    O6  209   1.783   3.144   9.946  0.6467  0.2178  0.0572
   13TCq1    H1  210   1.499   3.337  10.071  0.8254 -1.9404 -1.1594
   13TCq1    H2  211   1.577   3.193  10.013  1.3765  0.3321  0.2741
   13TCq1    H3  212   1.773   2.942  10.277  1.1108 -0.5225 -3.9171
   13TCq1    H4  213   1.387   3.103  10.384  1.4978 -1.2443  1.9928
   14MPD2     C  214   1.540   2.547  10.363  0.1374 -0.8302 -0.3416
   14MPD2    C1  215   1.543   2.663  10.441  0.2870 -0.0684  0.3005
   14MPD2    C2  216   1.519   2.649  10.572  0.0140  0.0354 -0.0187
   14MPD2    C3  217   1.482   2.534  10.626 -0.6591 -0.1573 -0.3467
   14MPD2    C4  218   1.477   2.421  10.543 -0.0681  0.5683 -0.1555
   14MPD2    C5  219   1.515   2.424  10.410 -1.0741 -0.6113 -0.7889
   14MPD2     H  220   1.519   2.735  10.639 -2.1529  0.3778 -0.4485
   14MPD2    H1  221   1.439   2.327  10.581  1.8702 -0.5489 -0.9559
   14MPD2    H2  222   1.568   2.551  10.258 -0.1736  0.9027 -0.3632
   14MPD2    H3  223   1.529   2.337  10.347 -2.8662 -1.1740 -0.4292
   14MPD2     N  224   1.438   2.538  10.760 -0.0519  0.0322  0.1227
   14MPD2    H5  225   1.432   2.626  10.809  3.2761 -0.1349  0.8609
   14MPD2    N1  226   1.578   2.788  10.388  0.1173  0.4066  0.0895
   14MPD2    H7  227   1.609   2.796  10.291  0.2186 -1.8971 -0.0526
   15TCq1    O1  228   3.992   1.692   1.299 -0.5874  0.3402  0.0544
   15TCq1    C1  229   3.920   1.711   1.414 -0.2424  0.2764 -0.1349
   15TCq1    O2  230   3.800   1.714   1.417 -0.7218  0.8424  0.9008
   15TCq1    C2  231   3.998   1.618   1.497 -0.0871 -0.6660 -0.0317
   15TCq1    C3  232   4.119   1.660   1.544 -0.4291 -0.8459 -0.2559
   15TCq1    C4  233   4.205   1.569   1.599  0.7748 -0.2186  0.2810
   15TCq1    C5  234   4.177   1.438   1.584 -0.7662  0.5511  0.6379
   15TCq1    C6  235   4.066   1.391   1.514 -0.3212 -0.2139 -0.5014
   15TCq1    C7  236   3.974   1.484   1.471 -0.3881 -0.3698 -0.2030
   15TCq1    C8  237   4.075   1.259   1.451  0.3155  0.0723 -0.9330
   15TCq1    O4  238   4.178   1.193   1.464 -0.3549 -0.2370  0.0023
   15TCq1    C9  239   4.332   1.609   1.648  0.2348 -0.4516 -0.2419
   15TCq1    O5  240   4.411   1.516   1.663 -0.5162 -0.2583 -0.2980
   15TCq1    O6  241   4.357   1.731   1.652 -0.3960  0.3267  0.6957
   15TCq1    H1  242   4.087   1.680   1.322 -0.4616 -0.2618 -0.8233
   15TCq1    H2  243   4.149   1.764   1.546  2.1569 -1.5999  0.3891
   15TCq1    H3  244   4.245   1.364   1.625 -0.1857 -0.0142 -1.3225
   15TCq1    H4  245   3.901   1.457   1.395 -0.7021  0.7747 -0.3112
   16MPD2     C  246   3.795   1.079   1.284  0.6511  0.3366  0.3780
   16MPD2    C1  247   3.929   1.092   1.327  0.2884 -0.4071 -0.1534
   16MPD2    C2  248   4.018   0.983   1.312 -0.7146 -0.2672 -0.2477
   16MPD2    C3  249   3.977   0.863   1.250 -0.2588 -0.3228 -0.1532
   16MPD2    C4  250   3.843   0.855   1.207  0.6756  0.1867 -0.4809
   16MPD2    C5  251   3.762   0.970   1.204 -0.5884 -0.2396  0.7438
   16MPD2     H  252   4.118   0.987   1.353 -0.3061  1.7506 -1.4346
   16MPD2    H1  253   3.809   0.769   1.150  2.5304  0.0602 -1.4088
   16MPD2    H2  254   3.724   1.160   1.292  0.1315 -0.1857  1.1535
   16MPD2    H3  255   3.666   0.966   1.154  0.5214  1.2426 -1.5244
   16MPD2     N  256   4.082   0.762   1.236  0.1869 -0.3165 -0.0161
   16MPD2    H5  257   4.179   0.785   1.254 -0.2494  0.1828  1.7021
   16MPD2    N1  258   3.953   1.218   1.395 -0.3654  0.2147 -0.4067
   16MPD2    H7  259   3.869   1.275   1.405 -1.2491 -1.6492  2.5379
   17TMC1    C1  260   1.496   1.690  11.519  0.3838 -0.3304  0.1429
   17TMC1    C2  261   1.362   1.670  11.532 -0.5525  0.1480 -0.5106
   17TMC1    C3  262   1.322   1.542  11.568 -0.1502 -0.6220 -0.0787
   17TMC1    C4  263   1.583   1.586  11.525 -0.4623  0.4214  0.0905
   17TMC1    C5  264   1.534   1.459  11.546 -0.1453  0.4295  0.6475
   17TMC1    C6  265   1.405   1.434  11.562 -0.4531  0.1653  0.4250
   17TMC1     C  266   1.542   1.826  11.519 -0.1861  0.6393 -0.1050
   17TMC1     O  267   1.464   1.913  11.556  0.5509 -0.1191 -0.1738
   17TMC1     H  268   1.296   1.756  11.523  1.0655  1.5468  1.0033
   17TMC1    H1  269   1.690   1.599  11.537 -0.7758  2.4891  0.6300
   17TMC1    H2  270   1.371   1.332  11.576 -0.5702  0.0336 -0.8208
   17TMC1    C7  271   1.632   1.355  11.570  1.0992 -0.2158  0.3906
   17TMC1    C8  272   1.180   1.516  11.578  0.0305 -0.5133 -0.3401
   17TMC1    O1  273   1.744   1.387  11.537  0.3238  0.0544 -0.2105
   17TMC1    O2  274   1.126   1.410  11.543 -0.1517 -0.1908  0.1705
   17TMC1    O3  275   1.608   1.295  11.687  0.6542  0.0600 -0.0060
   17TMC1    H3  276   1.517   1.297  11.724  0.7434  0.2109  0.2065
   17TMC1    O5  277   1.136   1.599  11.677 -0.6284 -0.4243  0.0534
   17TMC1    H5  278   1.205   1.646  11.729  0.5241 -0.4455 -1.4583
   18MPD2     C  279   1.714   2.075  11.484  0.4013  0.2362  0.6188
   18MPD2    C1  280   1.734   1.951  11.430 -0.0302 -0.1592 -0.5990
   18MPD2    C2  281   1.831   1.948  11.326  0.0625  0.2348  0.1850
   18MPD2    C3  282   1.896   2.064  11.278  0.6802 -0.1203  0.0170
   18MPD2    C4  283   1.866   2.188  11.333  0.7897  0.3708 -0.1514
   18MPD2    C5  284   1.771   2.192  11.435  0.3270  0.0273  0.0536
   18MPD2     H  285   1.863   1.853  11.286 -1.3846 -0.2091  0.0867
   18MPD2    H1  286   1.908   2.280  11.293 -1.6628  1.8923  0.7571
   18MPD2    H2  287   1.638   2.082  11.561  0.9959 -1.0741  1.3083
   18MPD2    H3  288   1.753   2.287  11.483 -1.6861 -0.0289 -0.5711
   18MPD2     N  289   1.993   2.069  11.171 -0.5935 -0.0296 -0.5398
   18MPD2    H5  290   2.047   2.153  11.160  1.9773 -1.9528 -2.4531
   18MPD2    N1  291   1.666   1.827  11.464 -0.7868 -0.1702 -0.1459
   18MPD2    H7  292   1.694   1.737  11.426 -1.3787 -0.6634  0.5959
   19TMC2    C1  293   3.109   2.127  14.139  0.1960  0.7038 -0.1692
   19TMC2    C2  294   3.044   2.244  14.105 -0.5675  0.0963 -0.3710
   19TMC2    C3  295   2.903   2.233  14.107  0.0707  0.3052  0.1400
   19TMC2    C4  296   3.043   2.012  14.181  0.4117  0.2453 -0.1828
   19TMC2    C5  297   2.905   2.015  14.170  1.1917 -0.5194  0.0107
   19TMC2    C6  298   2.828   2.125  14.139  0.7603  0.1525  0.4458
   19TMC2     C  299   3.253   2.140  14.152 -0.2572  0.4517  0.5005
   19TMC2     O  300   3.297   2.229  14.083 -0.2746 -0.4560 -0.4034
   19TMC2     H  301   3.094   2.336  14.076  0.1085  0.2716  1.3568
   19TMC2    H1  302   3.089   1.925  14.227 -1.2612 -0.4731  0.1231
   19TMC2    H2  303   2.721   2.115  14.122  0.9215  0.2265 -0.5833
   19TMC2    C7  304   2.838   1.884  14.141 -0.4509 -0.0768  0.0308
   19TMC2    C8  305   2.833   2.353  14.075 -0.1880  0.6139 -0.2770
   19TMC2    O1  306   2.917   1.790  14.124 -0.1028 -0.1275  0.1037
   19TMC2    O2  307   2.891   2.451  14.032  0.1098  0.3028 -0.1665
   19TMC2    O5  308   2.739   2.362  14.171  0.1206 -0.0635  0.2085
   19TMC2    H5  309   2.720   2.277  14.216  1.8236 -0.6619 -0.2239
   20MPD2     C  310   3.524   2.195  14.248 -0.0464  0.0769 -0.2666
   20MPD2    C1  311   3.458   2.078  14.261  0.3891  0.5608  0.4936
   20MPD2    C2  312   3.524   1.968  14.309  0.0229 -0.5190  0.2788
   20MPD2    C3  313   3.665   1.976  14.322  0.5271  0.9944 -0.3464
   20MPD2    C4  314   3.736   2.091  14.298  0.3245 -0.1229  0.5774
   20MPD2    C5  315   3.658   2.201  14.264 -0.8654  0.0470 -0.8615
   20MPD2     H  316   3.480   1.870  14.324  0.2938 -0.5464  0.8662
   20MPD2    H1  317   3.844   2.093  14.300  0.4261 -4.0965 -0.7054
   20MPD2    H2  318   3.474   2.289  14.227 -1.0251 -0.1687  0.9503
   20MPD2    H3  319   3.705   2.297  14.246  0.9658 -0.9875 -1.6447
   20MPD2     N  320   3.743   1.864  14.367 -0.3407 -0.0682  0.3061
   20MPD2    H5  321   3.835   1.882  14.406  0.6825  0.6612 -2.4931
   20MPD2    N1  322   3.318   2.059  14.238 -0.8810  0.4174  0.5514
   20MPD2    H7  323   3.269   1.977  14.272  1.9081 -1.6119 -0.3119
   21TMC2    C1  324   0.449   2.478  14.838 -0.1213 -0.2127  0.0293
   21TMC2    C2  325   0.439   2.359  14.911 -0.8930 -0.3102 -0.3815
   21TMC2    C3  326   0.405   2.372  15.041 -0.0364 -0.6017 -0.0029
   21TMC2    C4  327   0.433   2.606  14.888 -0.2434  0.1511  0.1757
   21TMC2    C5  328   0.422   2.613  15.026 -0.2540  0.0243  0.2835
   21TMC2    C6  329   0.397   2.500  15.101 -0.4038 -0.6397 -0.5326
   21TMC2     C  330   0.460   2.473  14.698 -0.3313  0.2825  0.1689
   21TMC2     O  331   0.418   2.577  14.652 -0.3388  0.1383  0.6392
   21TMC2     H  332   0.446   2.264  14.860 -0.2235 -0.4589 -0.0149
   21TMC2    H1  333   0.448   2.695  14.829  2.2599 -0.3422  0.0653
   21TMC2    H2  334   0.373   2.512  15.206  3.0425  2.2318 -0.0803
   21TMC2    C7  335   0.387   2.743  15.081  0.1383  0.1265 -0.6713
   21TMC2    C8  336   0.412   2.265  15.127 -0.0187  0.2414  0.4052
   21TMC2    O1  337   0.361   2.753  15.202 -0.0331 -0.0742 -0.0489
   21TMC2    O2  338   0.466   2.282  15.234 -0.2183  0.2170  0.3853
   21TMC2    O5  339   0.420   2.149  15.057  0.0346  0.4821 -0.4848
   21TMC2    H5  340   0.356   2.142  14.983 -0.9793  0.4668  0.3864
   22MPD2     C  341   0.719   2.384  14.287 -0.3515  0.0180  0.1785
   22MPD2    C1  342   0.777   2.310  14.386 -0.5063 -0.5117  0.2079
   22MPD2    C2  343   0.711   2.307  14.507  0.3522 -0.2599 -0.0136
   22MPD2    C3  344   0.593   2.374  14.528 -0.3429  1.0280  0.3230
   22MPD2    C4  345   0.538   2.452  14.421  0.7368  0.5975  0.0697
   22MPD2    C5  346   0.602   2.454  14.302  0.3888 -0.1565  0.2549
   22MPD2     H  347   0.745   2.244  14.588 -1.5567 -1.9553 -0.5226
   22MPD2    H1  348   0.444   2.506  14.426  0.3883  0.0166 -0.3158
   22MPD2    H2  349   0.761   2.379  14.188 -0.5075  0.0292  0.1120
   22MPD2    H3  350   0.557   2.514  14.224  1.8999  1.0022  0.2644
   22MPD2     N  351   0.544   2.374  14.657 -0.8401  0.0061  0.2468
   22MPD2    H5  352   0.591   2.311  14.721  0.7967  1.9930  0.9935
   22MPD2    N1  353   0.910   2.263  14.371  0.2572  0.8275 -0.7951
   22MPD2    H7  354   0.956   2.268  14.281  0.0680 -0.4023 -0.9679
   23TMC2    C1  355   2.406   3.458  14.079  0.1188  0.4749 -0.6122
   23TMC2    C2  356   2.382   3.474  13.946 -0.1248 -0.1158  0.2275
   23TMC2    C3  357   2.254   3.500  13.905 -0.1538  0.2816 -0.6327
   23TMC2    C4  358   2.303   3.457  14.165 -0.0633 -0.4547  0.4197
   23TMC2    C5  359   2.175   3.466  14.116 -0.1361  0.1952 -0.3090
   23TMC2    C6  360   2.145   3.492  13.986  0.3971  0.7763  1.1094
   23TMC2     C  361   2.538   3.401  14.113 -0.2016 -0.4867  0.1931
   23TMC2     O  362   2.620   3.385  14.024  0.4124  0.3533  0.8932
   23TMC2     H  363   2.460   3.490  13.872 -1.5440 -1.1746 -1.5011
   23TMC2    H1  364   2.319   3.445  14.271 -1.1992  0.3705  0.6899
   23TMC2    H2  365   2.042   3.506  13.956  0.1893 -1.7973  0.6437
   23TMC2    C7  366   2.062   3.436  14.215  0.8011  0.1574 -0.5269
   23TMC2    C8  367   2.243   3.491  13.759  0.1773 -0.4838 -0.5345
   23TMC2    O1  368   2.098   3.394  14.321  0.7036 -0.4772  0.4187
   23TMC2    O2  369   2.312   3.574  13.699 -0.0010  0.2057  0.3214
   23TMC2    O5  370   2.125   3.435  13.728 -0.0506  0.5988  0.7094
   23TMC2    H5  371   2.114   3.358  13.788  1.8540 -1.8424 -2.0911
   24MPD2     C  372   2.880   3.162  14.414  0.4153  0.2469 -0.1742
   24MPD2    C1  373   2.772   3.191  14.496  0.6520  0.2111  0.5195
   24MPD2    C2  374   2.668   3.257  14.436 -0.2138  0.5476 -0.2733
   24MPD2    C3  375   2.669   3.305  14.304  0.0194  0.2218  0.5275
   24MPD2    C4  376   2.772   3.254  14.222  0.4297 -0.1840 -0.2192
   24MPD2    C5  377   2.874   3.188  14.278  0.8436  0.3555 -0.4026
   24MPD2     H  378   2.588   3.293  14.500 -0.3984  1.0011 -0.7572
   24MPD2    H1  379   2.792   3.287  14.121 -1.4476  2.6998  0.3610
   24MPD2    H2  380   2.966   3.104  14.445  1.3504  0.9669 -1.4362
   24MPD2    H3  381   2.959   3.168  14.214  1.9118 -2.1193  1.7965
   24MPD2     N  382   2.550   3.357  14.242  0.6194 -0.1284  0.2714
   24MPD2    H5  383   2.474   3.371  14.308 -1.0467 -3.3256 -0.9787
   24MPD2    N1  384   2.770   3.157  14.635 -0.5313  0.4615  0.4131
   24MPD2    H7  385   2.686   3.166  14.690 -1.9765 -0.3893 -1.6518
   25TMC2    C1  386   1.195   1.228  11.956  0.2743 -0.1772  0.9657
   25TMC2    C2  387   1.215   1.355  12.002  0.7353  0.3200 -0.9412
   25TMC2    C3  388   1.165   1.380  12.124  0.2455  0.6538 -0.6242
   25TMC2    C4  389   1.127   1.126  12.029  0.1095 -0.6534  0.0266
   25TMC2    C5  390   1.086   1.165  12.154 -0.0161 -0.4800 -0.2950
   25TMC2    C6  391   1.092   1.294  12.201 -0.9357  0.2308  0.4393
   25TMC2     C  392   1.265   1.197  11.829  0.0719 -0.8638 -0.0347
   25TMC2     O  393   1.375   1.248  11.805 -0.4686  0.5178  0.6687
   25TMC2     H  394   1.269   1.431  11.947  0.6965 -0.8167 -2.5381
   25TMC2    H1  395   1.132   1.022  11.997  1.9585 -0.4629 -0.2978
   25TMC2    H2  396   1.033   1.339  12.281 -1.6803  0.7227 -0.3854
   25TMC2    C7  397   0.991   1.081  12.215 -0.1837  0.4658 -0.0555
   25TMC2    C8  398   1.181   1.510  12.176  0.1585 -0.7896  0.5676
   25TMC2    O1  399   0.991   1.083  12.337  0.3149  0.2445  0.1260
   25TMC2    O2  400   1.200   1.609  12.106 -0.3894  0.0624  0.0636
   25TMC2    O5  401   1.245   1.488  12.287  0.0827 -0.3223 -0.2665
   25TMC2    H5  402   1.255   1.398  12.324 -0.0764 -0.0224  0.5096
   26MPD2     C  403   1.318   0.926  11.397 -0.3118  0.3711 -0.9126
   26MPD2    C1  404   1.192   0.914  11.439 -0.4454 -0.4237  0.0007
   26MPD2    C2  405   1.165   0.972  11.562 -0.1951  0.9923 -0.2955
   26MPD2    C3  406   1.251   1.045  11.636  0.1480  0.3415 -0.5548
   26MPD2    C4  407   1.386   1.051  11.599 -0.2885 -0.6987 -0.4497
   26MPD2    C5  408   1.412   0.989  11.478  0.1725 -0.3655  0.1048
   26MPD2     H  409   1.061   0.974  11.594  0.5018  2.3590  1.9249
   26MPD2    H1  410   1.461   1.099  11.660 -1.6118  3.3903 -2.0508
   26MPD2    H2  411   1.334   0.878  11.302  1.3714  0.8491 -0.8761
   26MPD2    H3  412   1.516   0.988  11.447  1.3035  1.5924  3.8711
   26MPD2     N  413   1.199   1.101  11.756 -0.0612  0.5181  0.0254
   26MPD2    H5  414   1.103   1.076  11.776  0.3585 -1.2754 -0.1490
   26MPD2    N1  415   1.100   0.840  11.366 -0.2660  0.7540 -1.0194
   26MPD2    H7  416   1.129   0.798  11.278 -1.1202  0.3621 -1.1165
   27TMC2    C1  417   0.061   3.026  12.198 -0.8183 -0.2040  0.3971
   27TMC2    C2  418   4.729   3.136  12.137 -0.2850 -0.6637 -0.4153
   27TMC2    C3  419   0.057   3.214  12.047  0.0193 -0.6098 -0.0769
   27TMC2    C4  420   0.188   3.006  12.158  0.5415 -0.2498 -0.5613
   27TMC2    C5  421   0.256   3.085  12.064 -0.3703  0.2080 -0.4705
   27TMC2    C6  422   0.190   3.189  12.009  0.4057  0.0830 -0.4493
   27TMC2     C  423   0.021   2.954  12.317  0.0870 -0.4179 -0.1030
   27TMC2     O  424   0.069   2.845  12.337 -0.4747 -0.2746  0.1663
   27TMC2     H  425   4.621   3.137  12.142 -0.2921 -0.8813 -0.5303
   27TMC2    H1  426   0.242   2.920  12.197  1.2070  0.3156 -0.2506
   27TMC2    H2  427   0.233   3.241  11.925  1.2536 -4.0372 -2.5333
   27TMC2    C7  428   0.394   3.099  12.109 -0.6197 -0.0419  0.3784
   27TMC2    C8  429   4.731   3.336  12.022 -0.8550  0.3902 -0.0697
   27TMC2    O1  430   0.452   2.994  12.136 -0.5854  0.0155 -0.1547
   27TMC2    O2  431   4.672   3.391  12.113 -0.1258  0.1905  0.1670
   27TMC2    O5  432   0.069   3.408  11.939 -0.0162 -0.0530  0.2090
   27TMC2    H5  433   0.103   3.350  11.868 -0.5220  1.5697 -1.3630
   28MPD2     C  434   4.481   2.886  12.748  0.6409 -0.1292 -0.7412
   28MPD2    C1  435   4.446   3.010  12.688 -0.5007 -0.3102 -0.0905
   28MPD2    C2  436   4.513   3.053  12.577 -0.7140 -0.4015 -0.9546
   28MPD2    C3  437   4.606   2.978  12.514  1.1391  0.7122  0.6332
   28MPD2    C4  438   4.652   2.866  12.584 -0.4033 -0.9963 -0.0627
   28MPD2    C5  439   4.591   2.825  12.699 -0.5005 -0.0676 -0.4341
   28MPD2     H  440   4.489   3.152  12.539  0.3319  0.2206  0.0084
   28MPD2    H1  441   0.003   2.810  12.563 -1.0637 -2.7402  1.7759
   28MPD2    H2  442   4.432   2.837  12.831 -0.0762 -0.0822 -1.1423
   28MPD2    H3  443   4.628   2.735  12.747 -1.9803 -1.4557 -1.9096
   28MPD2     N  444   4.660   3.018  12.388  0.0601 -0.2204  0.0723
   28MPD2    H5  445   4.625   3.106  12.350 -2.3500 -2.0520 -1.9760
   28MPD2    N1  446   4.346   3.078  12.760 -0.0252  0.5313  0.1870
   28MPD2    H7  447   4.291   3.025  12.826 -0.8459  0.3661 -0.6291
   29TMC2    C1  448   4.116   0.728  14.354  0.3954 -0.2768 -0.8134
   29TMC2    C2  449   4.124   0.754  14.484 -0.1853 -0.3115  1.1936
   29TMC2    C3  450   4.129   0.876  14.530 -0.4042 -0.2401 -1.1210
   29TMC2    C4  451   4.133   0.822  14.258 -0.7456  0.0741 -0.7980
   29TMC2    C5  452   4.133   0.952  14.309 -0.4575  0.5990 -0.0031
   29TMC2    C6  453   4.114   0.978  14.444  1.4105  0.0466  0.1576
   29TMC2     C  454   4.161   0.587  14.330  0.0455 -0.4632  0.6034
   29TMC2     O  455   4.208   0.513  14.409 -0.3039 -0.7972 -0.1276
   29TMC2     H  456   4.095   0.668  14.542  0.4484 -1.3141  0.0386
   29TMC2    H1  457   4.146   0.793  14.154 -2.3354 -0.2212 -0.9169
   29TMC2    H2  458   4.093   1.080  14.473  0.5695 -0.1232  0.1333
   29TMC2    C7  459   4.183   1.059  14.220  0.0386  0.0829 -0.5323
   29TMC2    C8  460   4.105   0.888  14.668  0.2154  0.1054 -1.3076
   29TMC2    O1  461   4.160   1.042  14.102  0.9752 -0.0198 -0.1944
   29TMC2    O2  462   4.043   0.809  14.741 -0.2143  0.2071 -0.6840
   29TMC2    O5  463   4.129   1.015  14.699 -0.6713  0.5981 -0.8452
   29TMC2    H5  464   4.186   1.055  14.630  1.9890  0.1270  1.0830
   30MPD2     C  465   4.196   0.189  14.001  0.4038  0.4857 -0.0413
   30MPD2    C1  466   4.273   0.207  14.114  0.1367  0.1875  0.5122
   30MPD2    C2  467   4.251   0.331  14.177 -0.0800 -0.0176  0.3934
   30MPD2    C3  468   4.157   0.428  14.136 -0.0418 -0.2140 -0.3821
   30MPD2    C4  469   4.095   0.403  14.014  0.2752  0.1552  0.2460
   30MPD2    C5  470   4.098   0.280  13.960 -0.4985  0.0376  0.6829
   30MPD2     H  471   4.300   0.353  14.271  0.7572 -1.1055  0.2115
   30MPD2    H1  472   4.032   0.477  13.966 -0.5584 -0.5960  0.1812
   30MPD2    H2  473   4.210   0.099  13.943 -1.1576  1.4705 -1.9585
   30MPD2    H3  474   4.033   0.260  13.876 -0.8858  0.3090  0.9163
   30MPD2     N  475   4.122   0.552  14.204  0.0714  0.0475 -0.4657
   30MPD2    H5  476   4.060   0.618  14.157 -2.3098 -0.8879  1.3847
   30MPD2    N1  477   4.356   0.111  14.177 -0.0942 -0.8017  0.0756
   30MPD2    H7  478   4.392   0.135  14.268  0.9572 -0.4183 -0.4373
   31TMC2    C1  479   2.600   4.130  15.252  0.8840 -0.5308  0.4374
   31TMC2    C2  480   2.716   4.054  15.236  0.8967  0.2638  0.2579
   31TMC2    C3  481   2.728   3.929  15.291  0.7687 -0.4937  0.1104
   31TMC2    C4  482   2.495   4.084  15.328  0.4767  0.5217 -0.1221
   31TMC2    C5  483   2.512   3.959  15.376 -0.2656 -0.2528  0.3280
   31TMC2    C6  484   2.622   3.878  15.361 -0.2268 -0.3977 -0.1704
   31TMC2     C  485   2.580   4.255  15.184 -0.1541 -0.0229 -0.3143
   31TMC2     O  486   2.465   4.292  15.157 -0.3462  0.8668 -0.0143
   31TMC2     H  487   2.799   4.086  15.174  1.3068 -2.3269 -0.5107
   31TMC2    H1  488   2.402   4.140  15.324 -0.0214 -0.3241 -0.2004
   31TMC2    H2  489   2.619   3.772  15.383  1.4834 -1.2515 -4.0855
   31TMC2    C7  490   2.434   3.920  15.493 -0.4510 -0.6202 -0.0171
   31TMC2    C8  491   2.832   3.838  15.257  0.2931  0.4562 -0.1604
   31TMC2    O1  492   2.483   3.832  15.562  0.1501  0.2578  0.0194
   31TMC2    O2  493   2.907   3.864  15.162  0.3564  0.3935  0.3513
   31TMC2    O5  494   2.875   3.787  15.375 -0.0992  0.1687  0.0614
   31TMC2    H5  495   2.824   3.804  15.457 -0.4207  0.2495 -0.1554
   32MPD2     C  496   2.788   4.630  14.914 -0.0083  0.1880  0.2463
   32MPD2    C1  497   2.658   4.582  14.902 -0.0046 -0.6688 -0.6130
   32MPD2    C2  498   2.628   4.468  14.982  0.3994 -1.1526  0.1196
   32MPD2    C3  499   2.720   4.422  15.072  0.6410 -0.5469 -0.3035
   32MPD2    C4  500   2.848   4.472  15.078  0.2605  0.7808 -0.1030
   32MPD2    C5  501   2.878   4.578  15.000  0.0970 -0.1836 -0.0893
   32MPD2     H  502   2.530   4.422  14.984 -0.7312  1.2728  1.2154
   32MPD2    H1  503   2.925   4.427  15.139  1.0365  0.3707 -1.3852
   32MPD2    H2  504   2.827   4.709  14.851  1.2687 -0.9481 -0.4083
   32MPD2    H3  505   2.984   4.601  15.000 -0.2926  1.6197 -2.7043
   32MPD2     N  506   2.701   4.316  15.163  0.0122 -0.3741 -0.5637
   32MPD2    H5  507   2.787   4.290  15.209  1.5329  1.0359 -2.6567
   32MPD2    N1  508   2.569   4.638  14.811  0.3885  0.1027 -0.4886
   32MPD2    H7  509   2.600   4.716  14.754  2.1537 -0.4850 -0.3331
   33TMC2    C1  510   2.207   2.931  10.593  0.2490 -0.2616  0.2342
   33TMC2    C2  511   2.164   2.993  10.705  0.2872  0.6707  0.0546
   33TMC2    C3  512   2.195   3.124  10.720  0.2210 -0.4628  0.2151
   33TMC2    C4  513   2.259   3.006  10.489 -0.5549  0.4608 -0.4358
   33TMC2    C5  514   2.282   3.142  10.498 -0.1637 -0.8164 -0.4532
   33TMC2    C6  515   2.258   3.205  10.618  0.0274  0.1522 -0.7291
   33TMC2     C  516   2.214   2.784  10.605 -0.4484 -0.1896  0.9729
   33TMC2     O  517   2.190   2.735  10.713 -0.3234 -0.1075  0.3008
   33TMC2     H  518   2.112   2.934  10.780 -2.2515  2.3410 -0.3791
   33TMC2    H1  519   2.275   2.961  10.392 -0.6730 -0.6330  0.0493
   33TMC2    H2  520   2.286   3.309  10.624  1.2067 -0.1962 -0.0966
   33TMC2    C7  521   2.337   3.206  10.387 -0.8355  0.0524  0.3181
   33TMC2    C8  522   2.128   3.200  10.824 -0.7943 -0.3037  0.6620
   33TMC2    O1  523   2.405   3.303  10.408 -0.1535  0.1833 -1.0725
   33TMC2    O2  524   2.099   3.317  10.812 -0.0134 -0.1805 -0.4342
   33TMC2    O5  525   2.074   3.119  10.915  0.5333  0.2841 -0.2213
   33TMC2    H5  526   2.124   3.036  10.925 -0.0318 -0.0921 -0.5077
   34MPD2     C  527   2.283   2.312  10.410  0.3100 -0.1436 -0.1224
   34MPD2    C1  528   2.262   2.348  10.540 -0.3518  0.1520  0.3890
   34MPD2    C2  529   2.256   2.481  10.578 -0.3042  0.6281 -0.0046
   34MPD2    C3  530   2.262   2.578  10.474  0.0639  0.1190 -0.1467
   34MPD2    C4  531   2.285   2.542  10.345 -0.4907  0.0083  0.0537
   34MPD2    C5  532   2.296   2.411  10.314 -0.5779 -0.3455  0.3846
   34MPD2     H  533   2.230   2.509  10.679  0.3285 -0.7578  0.5387
   34MPD2    H1  534   2.289   2.605  10.257  0.9262  0.1362  0.2024
   34MPD2    H2  535   2.287   2.209  10.377  0.6996  0.7853 -2.9263
   34MPD2    H3  536   2.313   2.375  10.213  0.9538  1.4783 -0.0152
   34MPD2     N  537   2.243   2.718  10.490  0.2892 -0.4481 -0.1251
   34MPD2    H5  538   2.253   2.769  10.403  3.5021 -0.5188  0.1984
   34MPD2    N1  539   2.248   2.246  10.642  0.0612 -0.2363  0.5424
   34MPD2    H7  540   2.260   2.153  10.603  1.4756  0.7619 -1.3935
   35TMC2    C1  541   3.256   3.382  11.416 -0.8412  0.4775 -0.5530
   35TMC2    C2  542   3.172   3.387  11.306  0.0074  0.0505  0.3671
   35TMC2    C3  543   3.038   3.348  11.333  0.5508 -0.0631 -0.4960
   35TMC2    C4  544   3.203   3.362  11.544  0.0695 -0.1940 -0.1075
   35TMC2    C5  545   3.070   3.327  11.560  0.7694  0.2040  0.7242
   35TMC2    C6  546   2.986   3.315  11.450  0.7175 -0.3673 -0.5188
   35TMC2     C  547   3.378   3.461  11.403 -1.0165  0.0951 -0.7045
   35TMC2     O  548   3.375   3.536  11.304  0.0593  0.2158 -0.2657
   35TMC2     H  549   3.198   3.415  11.205  1.4357 -1.7511  0.2395
   35TMC2    H1  550   3.256   3.402  11.630 -1.1719  0.4281  0.3760
   35TMC2    H2  551   2.884   3.279  11.456  0.0370  1.6265  0.2283
   35TMC2    C7  552   3.053   3.238  11.674  1.1338 -0.0179 -0.1456
   35TMC2    C8  553   2.959   3.312  11.216 -0.0308 -0.2415  0.1236
   35TMC2    O1  554   3.122   3.255  11.770  0.9228  0.0938 -0.4821
   35TMC2    O2  555   2.837   3.302  11.220 -0.0050 -0.1564  0.4169
   35TMC2    O5  556   3.039   3.239  11.144  0.4390  0.0080  0.4542
   35TMC2    H5  557   3.128   3.228  11.182  1.6572 -0.5783 -2.5838
   36MPD2     C  558   3.768   3.747  11.616  0.3735 -0.4426 -0.4866
   36MPD2    C1  559   3.752   3.632  11.690 -0.3803 -0.1240  0.8925
   36MPD2    C2  560   3.657   3.542  11.644  0.3724 -0.5415 -1.0956
   36MPD2    C3  561   3.569   3.567  11.538 -0.1085 -0.0188 -0.4681
   36MPD2    C4  562   3.595   3.677  11.462  0.1695  0.4152 -0.5574
   36MPD2    C5  563   3.692   3.766  11.501 -0.6522 -0.0223  0.0556
   36MPD2     H  564   3.648   3.450  11.701 -1.7980  1.6073  2.0896
   36MPD2    H1  565   3.537   3.707  11.376  0.0619 -0.4628 -0.7889
   36MPD2    H2  566   3.839   3.822  11.647 -0.7116  0.2792  0.2754
   36MPD2    H3  567   3.714   3.854  11.441  1.9772 -1.3908 -1.0093
   36MPD2     N  568   3.464   3.465  11.511  0.4004  0.4559  0.1659
   36MPD2    H5  569   3.449   3.391  11.579 -0.0097 -0.1097 -0.5481
   36MPD2    N1  570   3.819   3.620  11.811  0.1928  0.4207 -0.5706
   36MPD2    H7  571   3.874   3.700  11.840  1.8511 -0.9774  0.1452
   37TMC2    C1  572   1.060   3.420  11.954  0.2200  0.5643 -0.0821
   37TMC2    C2  573   1.012   3.403  11.826  0.2555  0.8426 -0.5543
   37TMC2    C3  574   1.098   3.395  11.723 -0.0203 -0.2130 -0.8780
   37TMC2    C4  575   1.194   3.454  11.974 -0.1833  0.1963  0.1398
   37TMC2    C5  576   1.278   3.433  11.864  0.8130 -0.0959  0.4372
   37TMC2    C6  577   1.229   3.414  11.740  0.0970  1.0874 -0.0460
   37TMC2     C  578   0.964   3.434  12.056  0.7595  0.8930 -0.1197
   37TMC2     O  579   0.847   3.456  12.023 -0.3734 -0.7088 -0.0640
   37TMC2     H  580   0.904   3.399  11.813  0.4459  0.4886 -2.0260
   37TMC2    H1  581   1.232   3.476  12.073  0.7414  0.6824 -0.3313
   37TMC2    H2  582   1.291   3.420  11.651  1.1789  1.3473  0.7264
   37TMC2    C7  583   1.424   3.456  11.875 -0.0472  0.2422  0.1041
   37TMC2    C8  584   1.047   3.394  11.589  0.4137  0.1583  0.5883
   37TMC2    O1  585   1.454   3.546  11.948 -0.2441  0.2908  0.2051
   37TMC2    O2  586   1.075   3.480  11.509 -0.6180  0.3090  0.4925
   37TMC2    O5  587   0.927   3.326  11.593  0.7778  0.6568  0.2128
   37TMC2    H5  588   0.928   3.246  11.650 -0.4131 -0.1529 -0.8844
   38MPD2     C  589   0.822   3.430  12.558 -0.1473 -0.0754  0.0438
   38MPD2    C1  590   0.947   3.377  12.546  0.3179  0.6533  0.6663
   38MPD2    C2  591   1.013   3.362  12.422  0.1818 -0.0383  0.0055
   38MPD2    C3  592   0.953   3.410  12.307 -0.1118  0.7366  0.0523
   38MPD2    C4  593   0.829   3.471  12.317  0.8023 -0.1545 -0.8319
   38MPD2    C5  594   0.765   3.477  12.443 -0.0274 -0.6021  1.1166
   38MPD2     H  595   1.107   3.307  12.425  0.1113 -0.1071  1.0933
   38MPD2    H1  596   0.781   3.520  12.233  2.2668 -0.1101 -1.6460
   38MPD2    H2  597   0.773   3.438  12.655  0.0447 -1.2217  0.2332
   38MPD2    H3  598   0.666   3.521  12.452  0.2179  0.5356 -1.7355
   38MPD2     N  599   1.017   3.404  12.182  0.7244 -0.2365  0.1560
   38MPD2    H5  600   1.104   3.351  12.183 -1.0119 -3.0419  2.3205
   38MPD2    N1  601   1.031   3.341  12.657  1.0546 -0.3071  0.1814
   38MPD2    H7  602   1.132   3.336  12.642  1.2735 -1.0188  1.8906
   39TMC2    C1  603   4.180   0.762   1.619 -0.3851 -0.5117  0.9049
   39TMC2    C2  604   4.118   0.873   1.677  0.5729 -0.4147  0.1456
   39TMC2    C3  605   4.195   0.962   1.740  0.1830 -0.9840  0.3343
   39TMC2    C4  606   4.318   0.762   1.595  0.2653 -0.1115  0.0208
   39TMC2    C5  607   4.383   0.867   1.647  0.9951  0.4752  0.4667
   39TMC2    C6  608   4.328   0.966   1.725  0.0806  0.1448 -0.2912
   39TMC2     C  609   4.094   0.649   1.589  0.5016  0.3866  0.1331
   39TMC2     O  610   3.980   0.682   1.564 -0.0209  0.4459 -0.4201
   39TMC2     H  611   4.010   0.867   1.687  0.3056  0.6562 -2.0043
   39TMC2    H1  612   4.368   0.670   1.565 -1.6598 -0.5416 -1.8616
   39TMC2    H2  613   4.394   1.034   1.777 -0.7198 -0.9118  2.1015
   39TMC2    C7  614   4.526   0.880   1.626 -0.4248 -0.4253  0.1405
   39TMC2    C8  615   4.130   1.065   1.823  0.1782 -0.1579 -0.0180
   39TMC2    O1  616   4.593   0.947   1.707  0.2251  0.0405  0.2678
   39TMC2    O2  617   4.014   1.043   1.861 -0.0920 -0.0799  0.5413
   39TMC2    O5  618   4.189   1.187   1.809  0.0817  0.4412 -0.1328
   39TMC2    H5  619   4.283   1.183   1.778 -0.7812  0.9010 -2.8322
   40MPD2     C  620   4.218   0.318   1.457 -0.6095  0.1764  0.8853
   40MPD2    C1  621   4.135   0.427   1.478 -0.5616 -0.1534  0.6687
   40MPD2    C2  622   4.003   0.421   1.428 -0.4667 -0.2896 -0.1124
   40MPD2    C3  623   3.955   0.308   1.353 -0.5782  0.1543  0.2971
   40MPD2    C4  624   4.037   0.197   1.353  0.0202  0.5143  0.3262
   40MPD2    C5  625   4.166   0.199   1.409 -0.1741 -0.6414  0.2418
   40MPD2     H  626   3.931   0.501   1.442 -0.5980 -0.5061  0.4702
   40MPD2    H1  627   4.007   0.110   1.296 -0.4591 -0.1781  1.6316
   40MPD2    H2  628   4.319   0.308   1.494 -1.1944 -0.4475  2.3205
   40MPD2    H3  629   4.229   0.112   1.396  1.9609  1.1004 -1.0549
   40MPD2     N  630   3.830   0.306   1.277 -0.0167 -0.2626  0.3022
   40MPD2    H5  631   3.803   0.225   1.223  1.8574 -1.5636  1.2911
   40MPD2    N1  632   4.175   0.535   1.561  0.5689  0.1005 -0.2043
   40MPD2    H7  633   4.269   0.526   1.597  0.3365  1.1711  0.6640
   41TMC2    C1  634   3.054   3.501  13.945 -0.6462  0.0642  0.5358
   41TMC2    C2  635   2.924   3.494  13.905 -0.4774 -0.0382 -0.1452
   41TMC2    C3  636   2.902   3.547  13.772  0.0917  0.2256 -0.1668
   41TMC2    C4  637   3.159   3.526  13.855  1.5975 -0.3484  0.3764
   41TMC2    C5  638   3.133   3.552  13.715  0.7034  0.2234  0.3387
   41TMC2    C6  639   3.006   3.572  13.680 -0.1551 -0.4924 -0.1065
   41TMC2     C  640   3.092   3.457  14.079  0.1669  0.2807 -0.5603
   41TMC2     O  641   3.206   3.418  14.089  0.2458  0.3830  0.1188
   41TMC2     H  642   2.839   3.489  13.972  0.1590  0.8686  0.7235
   41TMC2    H1  643   3.261   3.522  13.890  1.4475 -0.0015  0.8681
   41TMC2    H2  644   2.983   3.609  13.580  2.0442  0.3785 -0.3007
   41TMC2    C7  645   3.241   3.611  13.633  0.0963 -0.1577  0.4007
   41TMC2    C8  646   2.770   3.607  13.743  0.0165 -0.2457 -0.0821
   41TMC2    O1  647   3.339   3.647  13.701  0.0215  0.5009  1.4050
   41TMC2    O2  648   2.751   3.693  13.660 -0.2623  0.0733  0.1674
   41TMC2    O5  649   2.681   3.509  13.783  0.4660 -0.4211  0.3913
   41TMC2    H5  650   2.714   3.447  13.852  0.9643 -0.3852  0.1853
   42MPD2     C  651   3.139   3.420  14.376  0.1839 -0.5603  0.1899
   42MPD2    C1  652   3.026   3.473  14.319  0.5027  0.0901 -0.2919
   42MPD2    C2  653   2.932   3.521  14.408 -0.0493 -0.2597  0.0746
   42MPD2    C3  654   2.944   3.517  14.548  0.0715 -0.7205  0.2337
   42MPD2    C4  655   3.061   3.455  14.593  0.4030 -0.4570 -0.0931
   42MPD2    C5  656   3.159   3.413  14.509  0.2025 -0.7830 -0.7636
   42MPD2     H  657   2.845   3.569  14.364 -0.2200 -0.8702 -0.2752
   42MPD2    H1  658   3.066   3.438  14.700 -0.7707 -1.1095 -0.1434
   42MPD2    H2  659   3.222   3.388  14.314 -0.3508 -1.1121 -0.2397
   42MPD2    H3  660   3.253   3.371  14.543 -1.0429 -2.2927  0.8024
   42MPD2     N  661   2.851   3.559  14.649  0.3867 -0.2577  0.4537
   42MPD2    H5  662   2.875   3.540  14.746 -3.2157  1.8042  1.7277
   42MPD2    N1  663   3.004   3.489  14.179 -0.8110  0.1705  0.4854
   42MPD2    H7  664   2.915   3.529  14.153 -0.7712  0.3648  0.6435
   43TMC2    C1  665   4.124   1.628   0.371  0.1702 -0.0771 -0.3926
   43TMC2    C2  666   4.008   1.649   0.440 -0.0967  0.5137 -0.7653
   43TMC2    C3  667   3.973   1.784   0.455 -0.2714  0.2199 -0.1512
   43TMC2    C4  668   4.214   1.728   0.341  1.1047 -0.0373 -0.1760
   43TMC2    C5  669   4.192   1.857   0.379  1.2835  0.0097  0.1706
   43TMC2    C6  670   4.065   1.885   0.428  0.3140 -0.1855  0.1332
   43TMC2     C  671   4.187   1.499   0.381 -0.2730  0.5484  0.2619
   43TMC2     O  672   4.269   1.477   0.295 -0.6509 -0.4336 -0.1574
   43TMC2     H  673   3.946   1.562   0.457 -1.3928  1.0814 -2.4857
   43TMC2    H1  674   4.306   1.706   0.289  1.1184  0.1616 -0.2340
   43TMC2    H2  675   4.029   1.984   0.454 -1.7949 -0.6547 -0.9034
   43TMC2    C7  676   4.278   1.962   0.330 -0.2736 -0.0635  0.9148
   43TMC2    C8  677   3.880   1.826   0.555 -0.2645  0.1456  0.3805
   43TMC2    O1  678   4.363   1.937   0.245 -0.1835  0.1531 -0.1685
   43TMC2    O2  679   3.889   1.929   0.619  0.1460 -0.5637 -0.2438
   43TMC2    O5  680   3.771   1.745   0.551 -0.3103  0.3029  0.2854
   43TMC2    H5  681   3.775   1.699   0.465 -2.3243 -1.8796  1.3721
   44MPD2     C  682   4.360   1.085   0.642 -0.1227 -0.3488 -1.1714
   44MPD2    C1  683   4.392   1.130   0.517  0.1199 -0.2688  1.1815
   44MPD2    C2  684   4.326   1.238   0.466  0.1223  0.4740 -0.9760
   44MPD2    C3  685   4.225   1.310   0.533  1.0450 -0.6257 -0.2716
   44MPD2    C4  686   4.194   1.262   0.656  0.4153  0.2142 -0.8291
   44MPD2    C5  687   4.265   1.161   0.709  0.1510 -0.5655 -0.4658
   44MPD2     H  688   4.354   1.269   0.366  0.7909 -0.7012 -1.1572
   44MPD2    H1  689   4.122   1.312   0.720  1.3341 -3.0435  2.7560
   44MPD2    H2  690   4.415   1.005   0.690  0.8332 -0.1696 -1.9570
   44MPD2    H3  691   4.260   1.139   0.815  0.6667  1.6021  0.0008
   44MPD2     N  692   4.159   1.428   0.492 -0.2393  0.6772 -0.1594
   44MPD2    H5  693   4.086   1.470   0.550 -1.8771 -1.0483 -0.9826
   44MPD2    N1  694   4.486   1.073   0.427 -0.2427  0.5889  0.5809
   44MPD2    H7  695   4.501   1.125   0.342  1.2048 -0.8345 -0.0434
   45TMC2    C1  696   4.494   4.237   9.651 -0.1948  0.1027 -0.2625
   45TMC2    C2  697   4.370   4.280   9.628 -0.1769  0.5551 -0.7020
   45TMC2    C3  698   4.342   4.414   9.648  0.2038  0.1823 -0.4472
   45TMC2    C4  699   4.589   4.313   9.721 -0.1403 -0.3871  0.5016
   45TMC2    C5  700   4.557   4.444   9.752 -0.8877  0.0913 -0.4439
   45TMC2    C6  701   4.432   4.492   9.719  0.7760 -0.8908 -0.0132
   45TMC2     C  702   4.525   4.099   9.619 -0.1503  0.5387 -0.8601
   45TMC2     O  703   4.642   4.066   9.601  0.2575 -0.4079  0.1786
   45TMC2     H  704   4.299   4.219   9.573  0.1972  0.1451 -0.7290
   45TMC2    H1  705   4.685   4.265   9.738  0.2168  0.7302  1.6466
   45TMC2    H2  706   4.399   4.590   9.751 -1.3998 -1.8328  0.6210
   45TMC2    C7  707   4.667   4.533   9.786 -0.5766 -0.3677 -0.6128
   45TMC2    C8  708   4.205   4.456   9.631  0.0702 -0.6388  0.3330
   45TMC2    O1  709   0.035   4.478   9.809  0.6011  0.0542 -0.0656
   45TMC2    O2  710   4.119   4.371   9.629  0.4925 -0.3318  0.2999
   45TMC2    O5  711   4.207   4.577   9.567 -0.5064 -0.1708 -0.1193
   45TMC2    H5  712   4.298   4.615   9.566 -0.6840  0.2466 -0.5690
   46MPD2     C  713   4.536   3.805   9.537 -0.4289  0.5636  0.6397
   46MPD2    C1  714   4.419   3.868   9.585  0.8992  0.0646  0.1628
   46MPD2    C2  715   4.317   3.791   9.621 -0.3990  1.0033 -0.2711
   46MPD2    C3  716   4.328   3.655   9.616  0.1557 -0.1318 -0.2227
   46MPD2    C4  717   4.437   3.588   9.562  0.2760 -0.3915  0.0890
   46MPD2    C5  718   4.539   3.668   9.514 -0.3698 -0.7520 -0.7016
   46MPD2     H  719   4.233   3.833   9.674 -0.2049  0.9944  0.0416
   46MPD2    H1  720   4.438   3.479   9.562 -3.1018 -0.4292  1.7383
   46MPD2    H2  721   4.619   3.856   9.489 -1.7905 -0.1165 -2.4668
   46MPD2    H3  722   4.623   3.636   9.454 -0.8556 -1.7212 -0.8707
   46MPD2     N  723   4.221   3.589   9.683 -0.0086  0.0227 -0.5194
   46MPD2    H5  724   4.145   3.652   9.704 -0.2146 -0.5786  0.5338
   46MPD2    N1  725   4.414   4.014   9.606 -0.0867  0.3232 -0.1688
   46MPD2    H7  726   4.323   4.050   9.635  0.1100 -1.1517  2.2994
   47TMC2    C1  727   2.415   0.495   8.877 -0.2756  0.4707  0.5619
   47TMC2    C2  728   2.343   0.552   8.775 -0.7612  0.5157  0.2264
   47TMC2    C3  729   2.210   0.548   8.780 -0.2788  0.2000  0.0739
   47TMC2    C4  730   2.348   0.443   8.988  0.7503  0.2884 -0.7795
   47TMC2    C5  731   2.216   0.434   8.982  0.0151  0.0096 -0.3295
   47TMC2    C6  732   2.141   0.486   8.883 -0.5187  0.0564  0.2270
   47TMC2     C  733   2.556   0.498   8.873 -0.5238 -0.1813 -0.1320
   47TMC2     O  734   2.603   0.607   8.843 -0.0075 -0.0333  0.0146
   47TMC2     H  735   2.399   0.606   8.700  0.8775 -0.0510  1.0516
   47TMC2    H1  736   2.403   0.384   9.060  1.1636  1.9648  0.2734
   47TMC2    H2  737   2.035   0.468   8.876 -0.3944  0.4894 -2.8009
   47TMC2    C7  738   2.153   0.371   9.099  0.5702 -0.5502 -0.4663
   47TMC2    C8  739   2.135   0.619   8.675 -0.2432 -0.2018 -0.3253
   47TMC2    O1  740   2.229   0.296   9.162 -0.1946 -0.4093  0.1847
   47TMC2    O2  741   2.185   0.646   8.569 -0.2889 -0.2075  0.1723
   47TMC2    O5  742   2.032   0.679   8.722 -0.3773 -0.2086  0.7492
   47TMC2    H5  743   2.024   0.649   8.815  0.2294 -0.5521  0.6917
   48MPD2     C  744   2.845   0.455   8.915 -0.7951  0.1410 -0.4089
   48MPD2    C1  745   2.750   0.356   8.948  0.2052  0.1575  0.1453
   48MPD2    C2  746   2.788   0.242   9.008 -0.1514  0.3070 -0.1888
   48MPD2    C3  747   2.918   0.220   9.047 -0.1086 -0.2570 -0.1711
   48MPD2    C4  748   3.011   0.319   9.019  0.1571  0.2066  0.7470
   48MPD2    C5  749   2.971   0.438   8.959  0.0855  0.4670 -0.6306
   48MPD2     H  750   2.719   0.159   9.009 -1.1029  1.0839 -1.2318
   48MPD2    H1  751   3.114   0.310   9.053  0.0423  1.0915  1.3186
   48MPD2    H2  752   2.815   0.554   8.883  0.5665  1.0255  1.0201
   48MPD2    H3  753   3.051   0.508   8.941  0.4329 -0.2296 -1.8260
   48MPD2     N  754   2.948   0.100   9.116 -0.4839 -0.0549  0.1601
   48MPD2    H5  755   2.868   0.041   9.138  1.4809 -2.0154  2.1613
   48MPD2    N1  756   2.613   0.375   8.920 -0.0055  0.4106  0.2702
   48MPD2    H7  757   2.548   0.300   8.938 -0.5708  0.7654 -0.2942
   49TMC2    C1  758   1.206   1.918  10.271 -0.6760 -0.6187 -0.4509
   49TMC2    C2  759   1.266   1.983  10.168  0.2121 -0.2160 -1.3451
   49TMC2    C3  760   1.241   1.948  10.036  0.3683 -0.2202  0.0852
   49TMC2    C4  761   1.108   1.828  10.241  0.1366  0.6632 -0.0917
   49TMC2    C5  762   1.077   1.805  10.109  0.1268  0.1246  0.5279
   49TMC2    C6  763   1.148   1.858  10.005 -0.0237 -0.0391 -1.0441
   49TMC2     C  764   1.203   1.988  10.396  0.2099  0.2532  0.0623
   49TMC2     O  765   1.255   2.101  10.396 -0.2411  0.4826  0.0606
   49TMC2     H  766   1.334   2.064  10.191  0.1149 -0.1012 -1.4580
   49TMC2    H1  767   1.050   1.769  10.311 -0.2669 -1.3718 -2.1486
   49TMC2    H2  768   1.125   1.820   9.906 -0.9142  0.3888 -1.0061
   49TMC2    C7  769   0.985   1.702  10.080 -0.2763  0.6032 -0.6047
   49TMC2    C8  770   1.341   1.979   9.934 -0.5538  0.0385 -0.6241
   49TMC2    O1  771   0.980   1.610  10.157  0.2762 -0.0058 -0.3122
   49TMC2    O2  772   1.359   1.915   9.831 -0.1607 -0.2660 -0.4872
   49TMC2    O5  773   1.385   2.103   9.962 -0.5315 -0.3496  0.2216
   49TMC2    H5  774   1.318   2.152  10.014  1.6294  1.0858  1.6715
   50MPD2     C  775   1.115   2.106  10.648  0.3832  0.5573 -0.3551
   50MPD2    C1  776   1.062   1.993  10.600 -0.0819  0.3459  1.0875
   50MPD2    C2  777   0.955   1.936  10.670 -0.2893  0.6499 -0.5917
   50MPD2    C3  778   0.892   2.005  10.773  0.1009  0.2307 -0.1548
   50MPD2    C4  779   0.943   2.129  10.808 -0.7142 -0.0988  0.8161
   50MPD2    C5  780   1.066   2.166  10.758 -0.5786 -0.2900  0.3363
   50MPD2     H  781   0.912   1.846  10.629  0.4227  1.5294 -3.2189
   50MPD2    H1  782   0.905   2.194  10.886  0.4145  2.1503 -0.5265
   50MPD2    H2  783   1.200   2.161  10.612 -1.0691  2.8354 -0.3448
   50MPD2    H3  784   1.113   2.257  10.794 -0.0798 -1.1559  1.8727
   50MPD2     N  785   0.767   1.968  10.824 -0.5088  0.0548 -0.1903
   50MPD2    H5  786   0.721   2.036  10.883 -0.3738  0.9320 -1.0928
   50MPD2    N1  787   1.113   1.928  10.485  0.1071 -0.1127 -0.9938
   50MPD2    H7  788   1.078   1.833  10.471 -0.8653 -0.0862  1.3610
   51TMC2    C1  789   1.852   0.670   2.152 -1.1461  0.5648  0.1263
   51TMC2    C2  790   1.824   0.792   2.208  0.3573  0.2355 -0.1801
   51TMC2    C3  791   1.927   0.882   2.203 -0.7959  0.0234  0.0203
   51TMC2    C4  792   1.972   0.634   2.094  0.5618 -0.3148  0.4002
   51TMC2    C5  793   2.070   0.735   2.088  0.4897 -0.4250 -0.0044
   51TMC2    C6  794   2.044   0.862   2.142 -0.1618 -0.0126 -0.1560
   51TMC2     C  795   1.735   0.578   2.148  0.1480 -0.3463  0.3065
   51TMC2     O  796   1.632   0.609   2.208  0.3496 -0.1469 -0.2819
   51TMC2     H  797   1.731   0.797   2.264  0.5951  2.7796 -0.0388
   51TMC2    H1  798   2.004   0.532   2.075 -0.3712 -0.4272 -0.5639
   51TMC2    H2  799   2.120   0.939   2.136  1.5181 -1.6240  0.3377
   51TMC2    C7  800   2.165   0.718   1.978 -0.2448 -0.0829 -0.2135
   51TMC2    C8  801   1.907   1.013   2.263  0.3209 -0.2534  0.2012
   51TMC2    O1  802   2.129   0.625   1.905  0.2461 -0.5349 -0.4636
   51TMC2    O2  803   1.962   1.113   2.223 -0.0369 -0.3032 -0.8839
   51TMC2    O5  804   1.806   1.005   2.357  0.3684 -0.2832  0.0913
   51TMC2    H5  805   1.769   0.915   2.375 -2.5214  0.8431 -0.2977
   52MPD2     C  806   1.477   0.191   1.916  0.0545  0.0436 -0.5793
   52MPD2    C1  807   1.596   0.220   1.849  0.0135 -0.6010 -0.5073
   52MPD2    C2  808   1.686   0.313   1.904 -0.1152 -0.4735  0.1591
   52MPD2    C3  809   1.658   0.389   2.013 -0.0637  0.2037 -0.3507
   52MPD2    C4  810   1.546   0.351   2.085 -0.6200 -0.0947  0.2298
   52MPD2    C5  811   1.454   0.259   2.040 -0.1940  0.7481  0.5153
   52MPD2     H  812   1.782   0.327   1.854  0.3615 -1.9605  0.6560
   52MPD2    H1  813   1.536   0.394   2.184  0.4566  2.1169 -0.6299
   52MPD2    H2  814   1.415   0.106   1.889  1.3481 -0.8826 -0.5921
   52MPD2    H3  815   1.369   0.229   2.099  1.1076 -1.8629  1.0731
   52MPD2     N  816   1.758   0.483   2.050  0.2084 -0.4919 -0.1829
   52MPD2    H5  817   1.839   0.473   1.990  1.1699 -0.6801  1.1598
   52MPD2    N1  818   1.632   0.153   1.730  0.2670 -0.3142 -0.0393
   52MPD2    H7  819   1.727   0.176   1.705  0.3289  1.0865  1.4524
   53TMC2    C1  820   2.098   3.769  11.837 -0.3081  0.3880  0.5409
   53TMC2    C2  821   2.220   3.729  11.886  0.7912 -0.1719  0.2307
   53TMC2    C3  822   2.241   3.766  12.012 -0.0798  0.1461  0.2766
   53TMC2    C4  823   2.002   3.842  11.904 -1.0328  0.7062 -0.2767
   53TMC2    C5  824   2.035   3.876  12.033 -0.1488  0.7473  0.1415
   53TMC2    C6  825   2.153   3.831  12.087 -0.1711 -0.3798 -0.6154
   53TMC2     C  826   2.045   3.667  11.741 -0.0419  0.0306  0.4360
   53TMC2     O  827   2.106   3.605  11.657 -0.1196  0.5579 -0.2154
   53TMC2     H  828   2.280   3.663  11.824  0.4152  0.1343 -0.4548
   53TMC2    H1  829   1.915   3.883  11.855 -1.0614 -0.3336 -1.0849
   53TMC2    H2  830   2.190   3.852  12.187  0.4059 -0.7583 -0.7473
   53TMC2    C7  831   1.922   3.929  12.106  0.2012  0.9227  0.1693
   53TMC2    C8  832   2.331   3.686  12.088 -0.0677 -0.7003  0.4740
   53TMC2    O1  833   1.828   3.967  12.042  0.5354 -0.3566  0.4121
   53TMC2    O2  834   2.308   3.646  12.202 -0.1285  0.0244  0.3687
   53TMC2    O5  835   2.449   3.692  12.028  0.3657 -0.4207  0.1870
   53TMC2    H5  836   2.449   3.745  11.946  0.1876  1.0182  1.1266
   54MPD2     C  837   1.850   3.494  11.587  0.0739  0.0087  0.7183
   54MPD2    C1  838   1.820   3.556  11.704 -0.1342 -0.1385 -0.2754
   54MPD2    C2  839   1.698   3.536  11.770 -0.7230  0.1390 -0.2288
   54MPD2    C3  840   1.613   3.443  11.711  0.5620 -0.4317  0.1250
   54MPD2    C4  841   1.641   3.379  11.597 -0.2659  0.2626 -0.5331
   54MPD2    C5  842   1.756   3.412  11.530  0.6384  0.2620  0.0781
   54MPD2     H  843   1.664   3.576  11.864 -3.1242 -1.3394 -0.4575
   54MPD2    H1  844   1.575   3.307  11.552 -0.6079  0.2129  0.0391
   54MPD2    H2  845   1.941   3.512  11.531 -0.4405 -0.2382 -0.1948
   54MPD2    H3  846   1.780   3.361  11.437 -2.4086 -2.0850  0.5694
   54MPD2     N  847   1.492   3.403  11.771 -0.1913 -0.0666  0.0644
   54MPD2    H5  848   1.445   3.323  11.731  1.6647 -1.6179  0.9929
   54MPD2    N1  849   1.912   3.643  11.773 -0.5434  0.9281 -0.3723
   54MPD2    H7  850   1.875   3.674  11.862  2.4654  2.5665  0.2877
   55TMC2    C1  851   2.581   1.869  17.534 -0.2780 -0.1395 -0.0430
   55TMC2    C2  852   2.583   1.856  17.399  0.6265 -0.4351 -0.5586
   55TMC2    C3  853   2.599   1.729  17.356 -0.5338  0.3815 -0.1147
   55TMC2    C4  854   2.581   1.760  17.625  0.3482 -0.0052  0.7474
   55TMC2    C5  855   2.591   1.635  17.566  0.2712  0.0547  0.5832
   55TMC2    C6  856   2.610   1.618  17.440  0.1574  0.0806  0.4953
   55TMC2     C  857   2.529   1.997  17.581 -0.9418 -0.7939  0.4977
   55TMC2     O  858   2.470   1.998  17.685  0.2972  0.2627 -0.3774
   55TMC2     H  859   2.579   1.938  17.328  0.0594 -0.3102 -0.3879
   55TMC2    H1  860   2.554   1.782  17.728 -0.1415  1.6757  0.2513
   55TMC2    H2  861   2.633   1.516  17.411 -2.8250 -1.2797  2.9518
   55TMC2    C7  862   2.566   1.512  17.656 -0.0538 -0.5231  0.1890
   55TMC2    C8  863   2.563   1.691  17.221 -0.3121 -0.0233  0.3908
   55TMC2    O1  864   2.594   1.401  17.607  0.0957  0.5489 -0.5199
   55TMC2    O2  865   2.573   1.767  17.125  0.1866  0.0110 -0.4501
   55TMC2    O5  866   2.449   1.618  17.245  0.2546  0.0303 -0.3723
   55TMC2    H5  867   2.426   1.587  17.335 -1.6280  1.3700 -0.3942
   56MPD2     C  868   2.551   2.338  17.435 -0.1856 -0.7041 -0.0903
   56MPD2    C1  869   2.512   2.237  17.523 -0.4738 -0.4114 -0.4568
   56MPD2    C2  870   2.405   2.271  17.609  0.3209  0.1720  0.1702
   56MPD2    C3  871   2.341   2.390  17.603 -1.0268 -0.2766  0.1118
   56MPD2    C4  872   2.393   2.484  17.522  0.8272 -0.6043  0.0725
   56MPD2    C5  873   2.495   2.464  17.440 -0.1786  0.3413  0.6400
   56MPD2     H  874   2.359   2.199  17.676  2.6836  0.0908  1.7209
   56MPD2    H1  875   2.369   2.590  17.527  1.9116 -0.3746  0.3007
   56MPD2    H2  876   2.631   2.322  17.363 -2.2193 -1.1641 -2.2529
   56MPD2    H3  877   2.537   2.534  17.369  0.2077  0.8298  1.3615
   56MPD2     N  878   2.243   2.417  17.696 -0.0883  0.4568 -0.0322
   56MPD2    H5  879   2.208   2.338  17.748 -0.0598 -0.2617 -1.0942
   56MPD2    N1  880   2.569   2.106  17.514 -0.4011 -0.2793 -0.5133
   56MPD2    H7  881   2.641   2.093  17.444 -0.2093  2.4658 -0.8406
   57TMC2    C1  882   1.718   2.341  12.881 -0.0737 -0.2900 -0.8024
   57TMC2    C2  883   1.643   2.331  12.763  0.0616 -0.5076 -0.1813
   57TMC2    C3  884   1.699   2.395  12.659 -0.5815 -0.6523  0.0204
   57TMC2    C4  885   1.838   2.407  12.887 -0.3838  0.6048  0.2003
   57TMC2    C5  886   1.888   2.459  12.776  0.3233 -0.7953  0.8673
   57TMC2    C6  887   1.819   2.462  12.658  0.0903  0.1660 -0.1192
   57TMC2     C  888   1.661   2.285  12.998  0.0039  0.0602  0.1045
   57TMC2     O  889   1.724   2.308  13.102 -0.2124 -0.6375  0.4054
   57TMC2     H  890   1.544   2.286  12.753  0.9139 -2.3386 -0.3250
   57TMC2    H1  891   1.897   2.408  12.978  2.0579 -1.8165 -1.3611
   57TMC2    H2  892   1.862   2.518  12.577  1.6201  2.1286  2.0525
   57TMC2    C7  893   2.034   2.473  12.762 -0.1533  0.4228  0.5995
   57TMC2    C8  894   1.605   2.435  12.556  0.0915  0.1198 -0.2334
   57TMC2    O1  895   2.085   2.554  12.684 -0.1803  0.3095  0.1151
   57TMC2    O2  896   1.536   2.364  12.481  0.1624 -0.4808 -0.0159
   57TMC2    O5  897   1.559   2.554  12.607  0.3247 -0.7149 -0.0256
   57TMC2    H5  898   1.596   2.577  12.695 -2.2570  2.3393  0.2980
   58MPD2     C  899   1.264   2.058  13.254 -0.2581  0.2907  0.2584
   58MPD2    C1  900   1.363   2.144  13.301  0.5706 -0.0224 -0.0293
   58MPD2    C2  901   1.463   2.185  13.210  0.1672  0.2570  0.7587
   58MPD2    C3  902   1.453   2.164  13.072  0.5470 -0.4970  0.7518
   58MPD2    C4  903   1.339   2.093  13.027  0.6883 -0.5225  0.2881
   58MPD2    C5  904   1.257   2.038  13.119  0.6393  0.4175  0.0444
   58MPD2     H  905   1.542   2.257  13.227 -0.5936  1.6502 -1.5413
   58MPD2    H1  906   1.327   2.060  12.925 -0.5028  1.7179 -0.2772
   58MPD2    H2  907   1.189   2.010  13.316  0.0643 -0.9709 -0.3384
   58MPD2    H3  908   1.184   1.973  13.074 -1.8620  2.7320  0.7479
   58MPD2     N  909   1.542   2.216  12.978 -0.0671 -0.6144 -0.0010
   58MPD2    H5  910   1.511   2.200  12.883  1.3965 -0.7845 -0.4652
   58MPD2    N1  911   1.358   2.185  13.435  0.1659  0.6716 -0.0454
   58MPD2    H7  912   1.286   2.143  13.493  4.0039 -1.9873  2.7237
   59TMC2    C1  913   4.152   2.700  12.819 -0.1889  0.9445 -0.3738
   59TMC2    C2  914   4.195   2.572  12.841  0.4300 -0.9941  0.1211
   59TMC2    C3  915   4.160   2.479  12.745  1.1033 -0.2629 -0.0238
   59TMC2    C4  916   4.078   2.736  12.704  0.3451 -0.1424  0.6036
   59TMC2    C5  917   4.036   2.637  12.620 -0.5784  0.2960  1.5466
   59TMC2    C6  918   4.071   2.506  12.640  0.8518 -0.4491  0.3062
   59TMC2     C  919   4.171   2.808  12.919  0.1622  0.1777  0.1656
   59TMC2     O  920   4.165   2.918  12.867 -0.4924  0.1116 -0.1353
   59TMC2     H  921   4.267   2.545  12.917  1.5333  0.7972 -0.2875
   59TMC2    H1  922   4.048   2.838  12.682 -0.1727 -0.6546 -1.0243
   59TMC2    H2  923   4.045   2.422  12.576  0.3706  0.4480 -0.6712
   59TMC2    C7  924   3.916   2.652  12.531 -0.9345  0.5706  0.3848
   59TMC2    C8  925   4.207   2.345  12.759 -0.0128  0.0211  0.2634
   59TMC2    O1  926   3.842   2.552  12.521  0.3206 -0.2718  0.1035
   59TMC2    O2  927   4.194   2.273  12.858 -0.0871 -0.4458  0.9621
   59TMC2    O5  928   4.237   2.300  12.633  0.1091 -0.2386 -0.3615
   59TMC2    H5  929   4.258   2.379  12.578 -0.2278  0.2556  0.2152
   60MPD2     C  930   4.267   2.998  13.118  0.0254 -0.5168  0.1251
   60MPD2    C1  931   4.281   2.864  13.128 -0.0464  0.1399 -0.0588
   60MPD2    C2  932   4.358   2.811  13.226  0.6315  0.2596 -0.0611
   60MPD2    C3  933   4.414   2.892  13.320 -0.1315  0.6204  0.4722
   60MPD2    C4  934   4.386   3.025  13.316 -0.6670 -0.9362  0.6878
   60MPD2    C5  935   4.318   3.075  13.213  0.3676 -1.0358  0.1140
   60MPD2     H  936   4.365   2.704  13.242  0.5033  0.5323  1.8621
   60MPD2    H1  937   4.440   3.094  13.380 -1.5188  0.9689 -0.6353
   60MPD2    H2  938   4.220   3.056  13.039  0.0692  0.6548  0.9548
   60MPD2    H3  939   4.306   3.182  13.197  0.0098 -1.2305 -0.9046
   60MPD2     N  940   4.497   2.853  13.423  0.5375  0.1329  0.5870
   60MPD2    H5  941   4.535   2.927  13.481  1.7076  0.2764 -0.3503
   60MPD2    N1  942   4.223   2.770  13.039 -0.2361  0.5378 -0.0451
   60MPD2    H7  943   4.230   2.672  13.065 -0.2488  0.3056 -0.9275
   61TMC2    C1  944   3.909   3.576  15.082 -0.4480  0.5006  0.3101
   61TMC2    C2  945   3.886   3.482  15.175 -0.2948 -0.2086  0.5041
   61TMC2    C3  946   3.881   3.518  15.306 -0.3784 -0.2191 -0.9996
   61TMC2    C4  947   3.946   3.706  15.120  0.6201 -0.3915 -0.0570
   61TMC2    C5  948   3.947   3.735  15.256  0.7659 -0.1107 -0.3882
   61TMC2    C6  949   3.929   3.636  15.353  0.1138  0.1521  0.4409
   61TMC2     C  950   3.886   3.538  14.940 -0.7610 -0.2931 -0.2539
   61TMC2     O  951   3.882   3.415  14.924  0.1019  0.2540 -0.0027
   61TMC2     H  952   3.860   3.380  15.146  0.0632 -0.2501  0.3231
   61TMC2    H1  953   3.944   3.791  15.051 -2.3758 -0.7084 -0.3658
   61TMC2    H2  954   3.937   3.654  15.459  2.4917 -1.6174  0.5462
   61TMC2    C7  955   3.925   3.874  15.295 -0.1248  0.9061  0.5473
   61TMC2    C8  956   3.891   3.405  15.399 -0.9049  0.4583 -0.6298
   61TMC2    O1  957   3.933   3.949  15.201  0.2668 -0.6445 -0.0019
   61TMC2    O2  958   3.907   3.292  15.359  0.2013  0.1119  0.0215
   61TMC2    O5  959   3.845   3.439  15.524  0.0612 -0.4855 -0.2741
   61TMC2    H5  960   3.801   3.526  15.509  0.4023  0.0329  1.6507
   62MPD2     C  961   3.881   3.505  14.640  0.5781 -0.9291  0.0942
   62MPD2    C1  962   3.869   3.626  14.704 -0.3158 -0.6219 -0.4572
   62MPD2    C2  963   3.833   3.739  14.630  0.2917 -0.0982  0.3623
   62MPD2    C3  964   3.786   3.731  14.500 -0.5573  0.5741 -0.8792
   62MPD2    C4  965   3.805   3.611  14.434  0.4584  0.1793  0.3751
   62MPD2    C5  966   3.861   3.502  14.503 -1.2468 -0.0914  0.0358
   62MPD2     H  967   3.832   3.833  14.682 -0.8830 -0.2519  0.6128
   62MPD2    H1  968   3.773   3.590  14.332 -0.9824 -0.4436  0.9452
   62MPD2    H2  969   3.917   3.413  14.686 -0.5329 -1.1600  0.5220
   62MPD2    H3  970   3.873   3.407  14.452 -1.2556  0.1629 -0.4445
   62MPD2     N  971   3.732   3.844  14.443 -0.3510 -0.2112 -0.1392
   62MPD2    H5  972   3.702   3.827  14.348 -1.3800 -2.3202  0.5606
   62MPD2    N1  973   3.881   3.642  14.845 -0.6737 -0.0516 -0.2514
   62MPD2    H7  974   3.895   3.738  14.876  0.2406 -0.9572  2.1611
   63TMC2    C1  975   2.236   4.076  10.150  0.3099 -0.4600  0.1418
   63TMC2    C2  976   2.161   3.973  10.201 -0.4709 -0.6368 -0.6279
   63TMC2    C3  977   2.027   3.983  10.197  0.3713  1.0401 -0.6105
   63TMC2    C4  978   2.177   4.185  10.096 -0.0150 -0.1108 -0.7042
   63TMC2    C5  979   2.043   4.199  10.107 -0.3626 -0.4485 -0.0435
   63TMC2    C6  980   1.965   4.102  10.164  0.4974  0.3758 -0.1665
   63TMC2     C  981   2.374   4.048  10.117 -0.1379 -0.1600 -0.0998
   63TMC2     O  982   2.425   4.114  10.028 -0.4013 -0.4228  0.6749
   63TMC2     H  983   2.207   3.879  10.230  1.0564 -0.0416 -1.1275
   63TMC2    H1  984   2.239   4.255  10.043 -1.1378  0.5391 -1.1730
   63TMC2    H2  985   1.857   4.113  10.164  0.3270 -1.2894 -0.2378
   63TMC2    C7  986   1.974   4.323  10.079  0.0683 -0.4176 -0.2869
   63TMC2    C8  987   1.965   3.910  10.309  0.2903 -0.8121 -0.0792
   63TMC2    O1  988   1.855   4.321  10.059  0.5158  0.0746  0.4068
   63TMC2    O2  989   1.856   3.857  10.288 -0.4634  0.2611 -0.0106
   63TMC2    O5  990   2.056   3.882  10.404 -0.1463  0.1387 -0.5072
   63TMC2    H5  991   2.135   3.941  10.404 -0.4835  0.5953  2.5030
   64MPD2     C  992   2.830   3.865  10.280  0.0128  0.1587 -0.8709
   64MPD2    C1  993   2.725   3.822  10.363 -0.2024  0.1627 -0.0803
   64MPD2    C2  994   2.596   3.851  10.331 -0.6841  0.0660  0.7053
   64MPD2    C3  995   2.568   3.925  10.222  0.2743  0.2910  0.0110
   64MPD2    C4  996   2.670   3.968  10.135 -0.2274 -0.5377 -0.5660
   64MPD2    C5  997   2.800   3.948  10.169  0.0787 -0.4950  0.3492
   64MPD2     H  998   2.522   3.804  10.395 -0.2578 -1.7200 -0.0985
   64MPD2    H1  999   2.648   4.040  10.058  3.0881  1.5818  0.5159
   64MPD2    H2 1000   2.933   3.830  10.287 -0.2930 -1.0215 -2.2501
   64MPD2    H3 1001   2.882   3.988  10.110 -1.3391 -0.8970 -1.9260
   64MPD2     N 1002   2.430   3.962  10.211 -0.0267  0.3266  0.0635
   64MPD2    H5 1003   2.374   3.932  10.290  1.2683  0.0244  0.8610
   64MPD2    N1 1004   2.752   3.728  10.478  0.4280 -0.1813 -1.0135
   64MPD2    H7 1005   2.674   3.713  10.541  0.3789 -0.8748 -1.2369
   65TMC2    C1 1006   4.418   3.796  15.864 -0.1950  0.3068 -0.2904
   65TMC2    C2 1007   4.516   3.788  15.762 -0.3709  0.2827 -0.3234
   65TMC2    C3 1008   4.534   3.888  15.680 -0.4237 -0.0632 -0.4042
   65TMC2    C4 1009   4.333   3.909  15.863  0.0467  0.4509  0.1395
   65TMC2    C5 1010   4.371   4.019  15.791  0.4867  0.9459 -0.1538
   65TMC2    C6 1011   4.468   4.003  15.698  0.7209 -0.5694  0.6232
   65TMC2     C 1012   4.377   3.678  15.938  0.0354 -0.1713 -0.3890
   65TMC2     O 1013   4.323   3.695  16.047 -0.0705  0.0851  0.2691
   65TMC2     H 1014   4.595   3.715  15.751 -0.8044 -0.2087 -0.1801
   65TMC2    H1 1015   4.265   3.908  15.947 -2.2703  1.8508 -1.6990
   65TMC2    H2 1016   4.498   4.096  15.651 -0.3706 -0.5887 -0.1139
   65TMC2    C7 1017   4.314   4.153  15.803  0.1704 -0.6059  0.0610
   65TMC2    C8 1018   4.634   3.883  15.575 -0.5240 -0.4225  0.6859
   65TMC2    O1 1019   4.362   4.241  15.734  0.1975 -0.0102 -0.6612
   65TMC2    O2 1020   4.650   3.983  15.503  0.4733 -0.5088 -0.2094
   65TMC2    O5 1021   4.627   3.757  15.521  0.4090  0.3890 -0.0453
   65TMC2    H5 1022   4.579   3.684  15.567 -0.1702 -0.1000 -1.4323
   66MPD2     C 1023   4.293   3.416  16.024  0.4817  0.0593  0.0688
   66MPD2    C1 1024   4.320   3.449  15.897 -0.3114  0.3694  0.4219
   66MPD2    C2 1025   4.291   3.360  15.801  0.2814 -0.0866  0.0123
   66MPD2    C3 1026   4.238   3.233  15.830 -0.0533  0.5543 -0.5888
   66MPD2    C4 1027   4.220   3.203  15.961  0.1358 -0.1519 -0.0665
   66MPD2    C5 1028   4.247   3.296  16.057 -0.3371  0.7596 -0.0625
   66MPD2     H 1029   4.315   3.389  15.700 -0.9818  0.8139 -0.0230
   66MPD2    H1 1030   4.189   3.106  15.999  0.3082 -0.3580 -0.4467
   66MPD2    H2 1031   4.315   3.479  16.110 -3.3589  1.1582  0.2448
   66MPD2    H3 1032   4.229   3.270  16.161  0.1597  2.4303  0.4480
   66MPD2     N 1033   4.205   3.130  15.742 -0.1546  0.4434  0.0788
   66MPD2    H5 1034   4.165   3.045  15.779  2.1894 -1.6116 -2.1371
   66MPD2    N1 1035   4.385   3.565  15.857  0.4334 -0.4510 -0.1239
   66MPD2    H7 1036   4.434   3.560  15.768 -1.0962 -0.0265 -0.9890
   67TMC2    C1 1037   4.159   2.897  14.379  0.0727  0.5222 -0.1254
   67TMC2    C2 1038   4.101   3.011  14.432  0.8275 -0.2176  0.6580
   67TMC2    C3 1039   4.157   3.064  14.548  0.4538  0.0187  0.1601
   67TMC2    C4 1040   4.266   2.834  14.436 -0.5133  0.0438 -0.0933
   67TMC2    C5 1041   4.320   2.894  14.547  0.3173  0.4329  0.3789
   67TMC2    C6 1042   4.271   3.011  14.608  0.5607  0.4913 -0.6392
   67TMC2     C 1043   4.108   2.837  14.253  0.3658 -0.6248 -0.0989
   67TMC2     O 1044   4.128   2.715  14.236  0.0146  0.0801  0.3506
   67TMC2     H 1045   4.012   3.055  14.389 -0.5258 -2.0056  1.6480
   67TMC2    H1 1046   4.294   2.742  14.386 -0.7662 -0.5324  0.8313
   67TMC2    H2 1047   4.307   3.057  14.700  2.0402 -1.8600 -0.0261
   67TMC2    C7 1048   4.433   2.818  14.592  0.4210  0.0838  0.2436
   67TMC2    C8 1049   4.117   3.194  14.609 -0.0601  0.4282  0.3177
   67TMC2    O1 1050   4.479   2.735  14.513 -0.5368 -0.4356  0.0310
   67TMC2    O2 1051   4.180   3.248  14.703 -0.6861 -0.6528  0.3853
   67TMC2    O5 1052   4.071   3.271  14.506  0.3655  0.8093 -1.0582
   67TMC2    H5 1053   4.024   3.231  14.430  0.7772 -0.3009 -0.7247
   68MPD2     C 1054   3.994   2.779  13.980 -0.7814 -0.0692  0.2688
   68MPD2    C1 1055   4.004   2.901  14.041 -0.1059  1.2104  0.8199
   68MPD2    C2 1056   3.955   3.006  13.970  0.1974  0.5555 -0.2925
   68MPD2    C3 1057   3.894   2.997  13.841  0.2067 -0.1716  0.0525
   68MPD2    C4 1058   3.888   2.864  13.787 -0.5037  0.0950  0.0013
   68MPD2    C5 1059   3.934   2.759  13.860 -0.0302 -0.5657 -0.1113
   68MPD2     H 1060   3.946   3.095  14.031  0.7635  1.4635 -1.5427
   68MPD2    H1 1061   3.832   2.841  13.697 -0.3420 -3.2931  0.7656
   68MPD2    H2 1062   4.032   2.689  14.026  2.5928  0.3997 -1.6118
   68MPD2    H3 1063   3.925   2.660  13.818  0.0811  0.0569 -1.6177
   68MPD2     N 1064   3.836   3.100  13.769 -0.3133 -0.4877  0.3794
   68MPD2    H5 1065   3.783   3.076  13.686 -0.5613  2.6069 -0.3614
   68MPD2    N1 1066   4.041   2.929  14.176 -0.2928  0.2611  0.3036
   68MPD2    H7 1067   4.035   3.025  14.207  1.4163 -0.3269  2.4422
   69TMC2    C1 1068   0.825   4.068  12.669 -0.6534  0.0790 -0.7746
   69TMC2    C2 1069   0.691   4.104  12.649 -0.2125 -0.3149 -0.4189
   69TMC2    C3 1070   0.654   4.185  12.545 -0.7290  0.1425  0.4543
   69TMC2    C4 1071   0.916   4.100  12.570 -0.1360 -0.3127  0.2660
   69TMC2    C5 1072   0.877   4.176  12.467  0.1834  0.0685 -0.3918
   69TMC2    C6 1073   0.753   4.228  12.453  0.7268 -0.1672 -0.2320
   69TMC2     C 1074   0.867   4.019  12.793 -1.1369 -0.1470  0.5347
   69TMC2     O 1075   0.775   4.000  12.873 -0.3088 -0.3226 -0.4553
   69TMC2     H 1076   0.620   4.071  12.723 -1.7282  1.5006 -1.0913
   69TMC2    H1 1077   1.017   4.061  12.567 -0.5326 -1.4079  1.1374
   69TMC2    H2 1078   0.737   4.298  12.373 -1.1060 -0.1404  0.1600
   69TMC2    C7 1079   0.973   4.176  12.359  0.2065 -0.1091  0.0496
   69TMC2    C8 1080   0.514   4.244  12.554 -0.2023  1.0900 -0.3742
   69TMC2    O1 1081   1.093   4.171  12.381 -0.0417  0.5914  0.8670
   69TMC2    O2 1082   0.441   4.228  12.650  0.4675  0.0161 -0.3628
   69TMC2    O5 1083   0.488   4.324  12.452  0.4192 -0.1248 -0.3919
   69TMC2    H5 1084   0.551   4.312  12.378  2.6907  1.8551  1.2549
   70MPD2     C 1085   1.195   4.074  12.941  0.1946  0.0011  0.8782
   70MPD2    C1 1086   1.075   4.011  12.923 -0.0152  0.2458 -0.3615
   70MPD2    C2 1087   1.039   3.915  13.009 -0.3970  0.9458  0.3433
   70MPD2    C3 1088   1.127   3.878  13.113 -0.1161  0.2956 -0.1966
   70MPD2    C4 1089   1.244   3.947  13.132 -0.0880  1.0448  0.3034
   70MPD2    C5 1090   1.277   4.049  13.048 -0.6179  0.2813 -0.3030
   70MPD2     H 1091   0.955   3.850  12.988 -1.0148  1.9185 -0.1624
   70MPD2    H1 1092   1.314   3.923  13.211 -1.9211  1.0568  1.9315
   70MPD2    H2 1093   1.222   4.152  12.871  1.0035 -2.6807 -1.7857
   70MPD2    H3 1094   1.370   4.099  13.072 -0.2392  1.0693 -3.4730
   70MPD2     N 1095   1.119   3.762  13.187 -0.5721 -0.1589 -0.7534
   70MPD2    H5 1096   1.193   3.731  13.249 -0.4345  0.9841 -0.3420
   70MPD2    N1 1097   1.002   4.045  12.814  0.7505 -0.0313 -0.2041
   70MPD2    H7 1098   1.049   4.105  12.746 -0.8381  0.1305 -1.1617
   71TMC2    C1 1099   3.407   0.196   1.336 -1.1020  0.0129  0.1016
   71TMC2    C2 1100   3.452   0.221   1.464  0.2477 -0.0395  0.2954
   71TMC2    C3 1101   3.400   0.325   1.530  0.2381 -0.1738  0.6087
   71TMC2    C4 1102   3.325   0.288   1.274  0.6411 -0.8870 -0.3321
   71TMC2    C5 1103   3.274   0.390   1.347  0.4282 -0.6218 -0.5444
   71TMC2    C6 1104   3.306   0.405   1.472  0.1142 -0.1293  0.5543
   71TMC2     C 1105   3.455   0.076   1.260  0.6943 -0.8952 -0.2398
   71TMC2     O 1106   3.575   0.047   1.262  0.0534 -0.4531 -0.2311
   71TMC2     H 1107   3.526   0.154   1.505  0.8675  0.4852  0.0297
   71TMC2    H1 1108   3.307   0.288   1.167  0.7132 -1.3801 -0.3441
   71TMC2    H2 1109   3.271   0.495   1.521 -0.5178  0.4745 -1.0105
   71TMC2    C7 1110   3.203   0.494   1.274 -0.1199 -0.2997 -0.6010
   71TMC2    C8 1111   3.382   0.286   1.672  0.9543 -0.1894 -0.0867
   71TMC2    O1 1112   3.186   0.600   1.331  0.6830 -0.4617 -0.1167
   71TMC2    O2 1113   3.316   0.188   1.694  0.2717  0.0810  0.1346
   71TMC2    O5 1114   3.369   0.404   1.734 -0.5405  0.2509  0.0672
   71TMC2    H5 1115   3.435   0.465   1.694 -0.6817 -0.1754 -0.8178
   72MPD2     C 1116   3.377   4.449   0.896 -0.6946 -0.5231 -0.1191
   72MPD2    C1 1117   3.493   4.494   0.962  0.8467 -0.0309 -0.1818
   72MPD2    C2 1118   3.485   4.602   1.051 -0.0961 -0.0655 -0.0690
   72MPD2    C3 1119   3.372   4.652   1.099  0.1446 -0.1160 -0.2178
   72MPD2    C4 1120   3.259   4.607   1.038  0.3870 -0.0273 -0.8885
   72MPD2    C5 1121   3.258   4.504   0.942 -0.2112 -0.1848 -0.8678
   72MPD2     H 1122   3.574   4.659   1.078  0.5130  0.2348 -2.7483
   72MPD2    H1 1123   3.161   4.625   1.082  1.2458 -2.4145  1.9372
   72MPD2    H2 1124   3.379   4.361   0.833 -0.4031 -0.4692 -0.1853
   72MPD2    H3 1125   3.161   4.476   0.902 -0.4601 -1.3360  0.5367
   72MPD2     N 1126   3.356   0.024   1.186 -0.3509  0.4544 -0.6109
   72MPD2    H5 1127   3.259   0.048   1.205 -0.5504  0.0502 -1.1028
   72MPD2    N1 1128   3.623   4.447   0.934  0.0020  0.5256 -0.0056
   72MPD2    H7 1129   3.702   4.500   0.969 -0.9285  1.9213  0.0045
   73TMC2    C1 1130   3.259   1.375  13.920  0.0070 -0.1065 -0.0796
   73TMC2    C2 1131   3.195   1.350  14.045 -0.5409  0.3834  0.6071
   73TMC2    C3 1132   3.268   1.311  14.151 -0.4437  0.0359 -0.3811
   73TMC2    C4 1133   3.391   1.335  13.904  0.0194 -0.2356 -1.0017
   73TMC2    C5 1134   3.458   1.275  14.011  0.1939 -0.3783 -0.3127
   73TMC2    C6 1135   3.396   1.264  14.131 -0.1937  0.2474  0.5570
   73TMC2     C 1136   3.258   1.513  13.870  1.2110 -0.2572  0.0422
   73TMC2     O 1137   3.363   1.553  13.822  0.3546  0.1062 -0.0959
   73TMC2     H 1138   3.093   1.383  14.061 -1.1663 -0.3527 -1.9690
   73TMC2    H1 1139   3.437   1.344  13.806  0.5404  1.6210 -0.5882
   73TMC2    H2 1140   3.452   1.213  14.209 -0.0752 -0.4552  0.0155
   73TMC2    C7 1141   3.589   1.344  14.022  0.5835 -0.1661 -0.4526
   73TMC2    C8 1142   3.197   1.264  14.267 -0.0994 -0.2203  0.2559
   73TMC2    O1 1143   3.665   1.300  14.108 -0.2037 -0.1401 -0.1372
   73TMC2    O2 1144   3.092   1.199  14.261  0.1281  0.3701 -0.2252
   73TMC2    O5 1145   3.283   1.265  14.371 -0.2896 -0.0439 -0.0882
   73TMC2    H5 1146   3.353   1.333  14.362 -0.7193  0.7340  2.4463
   74MPD2     C 1147   3.051   1.989  13.823 -0.1906 -0.4338 -0.3367
   74MPD2    C1 1148   3.184   1.949  13.841  0.3489 -0.3901 -0.3882
   74MPD2    C2 1149   3.220   1.813  13.846 -1.1480  0.8176 -0.8313
   74MPD2    C3 1150   3.118   1.716  13.843 -0.4213 -0.4279  0.8815
   74MPD2    C4 1151   2.988   1.757  13.834  0.4536  0.1169 -0.3417
   74MPD2    C5 1152   2.963   1.886  13.798 -0.6973 -0.3469 -0.3882
   74MPD2     H 1153   3.323   1.785  13.861 -0.7745  3.0080  0.7500
   74MPD2    H1 1154   2.908   1.684  13.835 -1.1240  1.8848  2.0335
   74MPD2    H2 1155   3.017   2.092  13.815 -0.9104 -0.7519 -1.3594
   74MPD2    H3 1156   2.860   1.917  13.784  0.0233  3.7956  3.4543
   74MPD2     N 1157   3.135   1.582  13.877 -0.1414  0.5336  0.0451
   74MPD2    H5 1158   3.055   1.523  13.898 -0.9441  1.1074 -1.4313
   74MPD2    N1 1159   3.286   2.044  13.833 -0.0179  0.0938  0.3712
   74MPD2    H7 1160   3.259   2.135  13.797  0.7297 -0.4664 -1.6087
   75TMC2    C1 1161   3.768   3.318  13.717  0.1192  0.1907  0.1091
   75TMC2    C2 1162   3.820   3.440  13.672  0.1163 -0.5378  0.0524
   75TMC2    C3 1163   3.740   3.523  13.605 -0.0552 -0.0490  0.1518
   75TMC2    C4 1164   3.642   3.285  13.696  0.0463 -0.1642  0.0511
   75TMC2    C5 1165   3.564   3.371  13.629 -0.1878 -0.4805 -0.0504
   75TMC2    C6 1166   3.610   3.492  13.581 -0.0565  0.1788  0.4405
   75TMC2     C 1167   3.848   3.234  13.798 -0.2165 -0.3960 -0.2915
   75TMC2     O 1168   3.927   3.281  13.877  0.2579  0.4114  0.0188
   75TMC2     H 1169   3.926   3.453  13.692 -0.5196  1.2234  2.2735
   75TMC2    H1 1170   3.602   3.191  13.730  0.5708 -0.0356  1.0110
   75TMC2    H2 1171   3.546   3.560  13.526  1.1751  1.6361  0.7896
   75TMC2    C7 1172   3.457   3.319  13.553 -0.2173 -0.1692 -0.1423
   75TMC2    C8 1173   3.799   3.644  13.560  0.3465 -0.4791  0.4414
   75TMC2    O1 1174   3.444   3.357  13.439  0.0615 -0.3317 -0.0725
   75TMC2    O2 1175   3.892   3.694  13.619 -0.6471  0.3816  0.2047
   75TMC2    O5 1176   3.778   3.644  13.428  0.1442 -0.4754 -0.3101
   75TMC2    H5 1177   3.745   3.554  13.407 -0.3522 -0.1269 -1.0312
   76TMC2    C1 1178   2.373   3.999  12.358 -0.1392 -0.7025 -0.3621
   76TMC2    C2 1179   2.341   3.896  12.440 -0.0873  0.1070 -0.0015
   76TMC2    C3 1180   2.428   3.792  12.456 -0.4722 -0.7948 -0.1784
   76TMC2    C4 1181   2.486   3.984  12.274  0.1816  0.1942  0.6209
   76TMC2    C5 1182   2.575   3.885  12.299  0.2297 -0.6205 -0.4982
   76TMC2    C6 1183   2.548   3.794  12.397  0.1882  0.2527  0.5648
   76TMC2     C 1184   2.263   4.082  12.320 -0.5396  0.2341  0.5935
   76TMC2     O 1185   2.155   4.051  12.358  0.2679  0.0243  0.0329
   76TMC2     H 1186   2.255   3.895  12.506 -0.1158 -1.0952 -0.0609
   76TMC2    H1 1187   2.491   4.046  12.185  0.7175 -0.5320  0.1526
   76TMC2    H2 1188   2.608   3.704  12.396  1.5122  1.1625 -0.9605
   76TMC2    C7 1189   2.700   3.879  12.226 -0.1625  0.3871 -0.1114
   76TMC2    C8 1190   2.385   3.678  12.531  0.3931 -1.0101  0.5495
   76TMC2    O1 1191   2.712   3.955  12.129 -0.0247 -0.6387 -0.8167
   76TMC2    O2 1192   2.267   3.653  12.553 -0.1045  0.0912  0.1781
   76TMC2    O5 1193   2.494   3.656  12.612 -0.6974 -0.4078 -0.2357
   76TMC2    H5 1194   2.582   3.688  12.580 -0.3577 -1.5767 -0.4635
   77MPD2     C 1195   2.047   4.471  12.073  0.3856 -0.0976  0.3680
   77MPD2    C1 1196   1.993   4.346  12.110  0.0745 -0.6132  0.0209
   77MPD2    C2 1197   2.082   4.258  12.172  0.1993  0.2647 -0.0570
   77MPD2    C3 1198   2.211   4.287  12.197 -0.6513 -0.0858 -0.2082
   77MPD2    C4 1199   2.260   4.404  12.153  0.0786  0.4225  0.2911
   77MPD2    C5 1200   2.179   4.505  12.100  0.9037  0.4630  0.0842
   77MPD2     H 1201   2.040   4.159  12.184 -0.2129  0.6403  1.5706
   77MPD2    H1 1202   2.360   4.444  12.163  0.0922  0.5345 -0.3216
   77MPD2    H2 1203   1.982   4.539  12.018  1.2108 -0.3166 -0.8864
   77MPD2    H3 1204   2.224   4.593  12.056  2.6960 -1.5739 -2.1667
   77MPD2     N 1205   2.298   4.198  12.256  0.1403 -0.3497 -0.1823
   77MPD2    H5 1206   2.397   4.218  12.242  0.0909 -0.1889 -0.2854
   77MPD2    N1 1207   1.877   4.294  12.053  0.3965 -0.9424  0.1855
   77MPD2    H7 1208   1.852   4.196  12.064 -0.9650 -0.5966  0.1078
   78TMC2    C1 1209   0.362   0.167   1.342 -0.3867 -0.1096 -0.1610
   78TMC2    C2 1210   0.339   0.172   1.478  0.0618  0.5222 -0.3994
   78TMC2    C3 1211   0.454   0.180   1.552  0.7254  0.4882 -0.2406
   78TMC2    C4 1212   0.486   0.158   1.285 -0.2408  0.1283 -0.0674
   78TMC2    C5 1213   0.594   0.163   1.367  0.3786  0.2557  0.6075
   78TMC2    C6 1214   0.584   0.182   1.500 -0.0036 -0.3785  0.6719
   78TMC2     C 1215   0.258   0.133   1.247  1.0074  0.7107 -0.4745
   78TMC2     O 1216   0.282   0.092   1.131  0.1991 -0.3696 -0.2461
   78TMC2     H 1217   0.245   0.167   1.531  0.8027 -1.9169  0.6310
   78TMC2    H1 1218   0.494   0.157   1.177  2.8233 -0.5531  0.1574
   78TMC2    H2 1219   0.677   0.203   1.551 -0.8827  0.8910  1.7665
   78TMC2    C7 1220   0.732   0.155   1.317 -0.6199 -0.0709  0.3393
   78TMC2    C8 1221   0.443   0.161   1.698  0.1132  0.4896  0.1270
   78TMC2    O1 1222   0.815   0.217   1.377  0.2035 -0.1058  0.0892
   78TMC2    O2 1223   0.330   0.169   1.749 -0.5028  0.3368  0.0715
   78TMC2    O5 1224   0.538   0.073   1.737 -0.1451 -0.2602 -0.2095
   78TMC2    H5 1225   0.600   0.047   1.666  2.3955  0.2241  1.8189
   79MPD1     C 1226   4.496   0.015   1.204 -0.3450 -0.5208  0.0501
   79MPD1    C1 1227   4.606   4.716   1.123 -0.3750 -0.3635 -0.3829
   79MPD1    C2 1228   4.731   0.022   1.152 -0.6514 -0.2888 -0.4687
   79MPD1    C3 1229   0.007   0.113   1.253 -0.1715  0.7436  0.7022
   79MPD1    C4 1230   4.641   0.151   1.330  0.0421 -0.2919  0.1395
   79MPD1    C5 1231   4.515   0.112   1.295  0.0328  0.3497 -0.4391
   79MPD1     H 1232   0.080   4.720   1.105  0.0737  0.8016 -0.0813
   79MPD1    H1 1233   4.663   0.214   1.415  0.2737 -0.4625  0.2085
   79MPD1    H2 1234   4.397   4.711   1.192 -0.4147  0.1421 -1.8112
   79MPD1    H3 1235   4.436   0.146   1.361  1.0477  2.7193 -0.4567
   79MPD1     N 1236   0.137   0.149   1.304 -0.1001 -0.1582 -0.1797
   79MPD1    H5 1237   0.132   0.217   1.379  0.0842 -0.4876  0.1297
   79MPD1    N1 1238   4.583   4.611   1.032  0.7392 -0.2563 -0.4650
   79MPD1    H6 1239   4.487   4.622   1.000  0.7335  0.9049 -0.0311
   79MPD1    H7 1240   4.649   4.608   0.954  2.0081  1.5795  0.5445
   80TMC2    C1 1241   1.934   3.063  12.326 -0.4487 -0.4491  0.2363
   80TMC2    C2 1242   2.049   3.080  12.260  0.2826  0.2923 -0.1236
   80TMC2    C3 1243   2.059   3.029  12.133  0.5212 -1.1301  1.1274
   80TMC2    C4 1244   1.833   2.989  12.280  0.2542  0.3587 -0.7295
   80TMC2    C5 1245   1.852   2.926  12.158 -0.0161  0.6446 -0.1198
   80TMC2    C6 1246   1.958   2.954  12.077  0.2763  0.4456 -0.3742
   80TMC2     C 1247   1.922   3.182  12.415  0.1481  0.1412  0.6489
   80TMC2     O 1248   1.999   3.275  12.392  0.1817 -0.4818 -0.1879
   80TMC2     H 1249   2.128   3.151  12.279  0.6921 -0.9100  2.5789
   80TMC2    H1 1250   1.735   3.001  12.322  0.1239 -1.0061 -0.6485
   80TMC2    H2 1251   1.968   2.889  11.991 -1.8289  0.2379 -0.4615
   80TMC2    C7 1252   1.729   2.870  12.094 -0.7203  0.7978  0.4281
   80TMC2    C8 1253   2.191   3.029  12.076 -1.0996  0.2866 -0.3438
   80TMC2    O1 1254   1.720   2.868  11.971 -0.5194 -0.3643  0.4025
   80TMC2    O2 1255   2.295   3.057  12.135  0.0854  0.2997  0.6079
   80TMC2    O5 1256   2.177   2.996  11.941  0.2811  0.2348 -0.4062
   80TMC2    H5 1257   2.092   2.976  11.896  0.3051 -2.0652  0.6144
   81MPD2     C 1258   1.801   3.402  12.558 -0.5791 -0.2037 -0.6826
   81MPD2    C1 1259   1.758   3.277  12.583 -0.7797  0.3112 -0.5396
   81MPD2    C2 1260   1.655   3.243  12.669 -0.4193  0.7683  0.0685
   81MPD2    C3 1261   1.592   3.344  12.740 -0.2148 -0.1332 -0.2409
   81MPD2    C4 1262   1.637   3.473  12.712  0.0861 -0.3750  0.0866
   81MPD2    C5 1263   1.739   3.507  12.629 -0.4051 -0.4298 -0.6804
   81MPD2     H 1264   1.625   3.139  12.676 -0.1333  0.6629 -0.2778
   81MPD2    H1 1265   1.589   3.556  12.763  0.1555 -2.1215  3.0294
   81MPD2    H2 1266   1.868   3.434  12.479 -2.2566  2.6046 -0.9769
   81MPD2    H3 1267   1.768   3.609  12.609 -1.0599  0.2663  1.9978
   81MPD2     N 1268   1.488   3.325  12.833  0.0771 -0.1309  0.7880
   81MPD2    H5 1269   1.447   3.410  12.872 -0.1095 -0.4796  1.3458
   81MPD2    N1 1270   1.816   3.167  12.502  0.3431  0.7264 -0.1836
   81MPD2    H7 1271   1.779   3.074  12.520  1.1696  0.4724  0.1945
   82TMC2    C1 1272   4.403   2.775  11.066  0.3645 -0.0194 -0.0090
   82TMC2    C2 1273   4.491   2.825  11.157 -0.1914  1.0308 -0.1558
   82TMC2    C3 1274   4.506   2.747  11.270 -0.1483 -0.5046 -0.1815
   82TMC2    C4 1275   4.366   2.641  11.072 -0.8252 -0.5819  0.1088
   82TMC2    C5 1276   4.411   2.559  11.176  0.6333  0.3811 -0.4045
   82TMC2    C6 1277   4.482   2.613  11.277 -0.2511 -0.0435 -0.1282
   82TMC2     C 1278   4.316   2.863  10.989  0.6659 -0.3683  0.2078
   82TMC2     O 1279   4.209   2.821  10.945  0.2609 -0.0022 -0.6082
   82TMC2     H 1280   4.522   2.928  11.161 -1.9841  1.6159 -1.0991
   82TMC2    H1 1281   4.298   2.601  10.998 -0.4097  0.7283 -0.9757
   82TMC2    H2 1282   4.523   2.556  11.360  0.3677  2.0822  1.0177
   82TMC2    C7 1283   4.356   2.426  11.199  0.1425  0.1579  0.1441
   82TMC2    C8 1284   4.592   2.795  11.373  0.2411  0.2651  0.1905
   82TMC2    O1 1285   4.362   2.395  11.317  0.3529 -0.9965 -0.5834
   82TMC2    O2 1286   4.688   2.872  11.364 -0.5990  0.0631  0.0289
   82TMC2    O5 1287   4.543   2.749  11.491 -0.2215  0.0011  0.2198
   82TMC2    H5 1288   4.460   2.697  11.494 -0.6698  0.7647  0.9038
   83MPD2     C 1289   4.118   3.338  10.913 -0.0781  0.0102 -0.2967
   83MPD2    C1 1290   4.063   3.222  10.953  0.3913  0.4397  0.4540
   83MPD2    C2 1291   4.143   3.108  10.969  0.2959 -0.9103  0.0831
   83MPD2    C3 1292   4.281   3.102  10.951  0.0283  0.3060 -0.5257
   83MPD2    C4 1293   4.333   3.228  10.911  0.3191 -0.1184 -0.4657
   83MPD2    C5 1294   4.255   3.337  10.887  0.1600  0.6513  0.0015
   83MPD2     H 1295   4.101   3.018  11.012 -0.4646  0.4998  2.2936
   83MPD2    H1 1296   4.438   3.249  10.896  0.4077 -1.6856 -2.0147
   83MPD2    H2 1297   4.057   3.427  10.901 -1.1705 -0.7212 -0.1410
   83MPD2    H3 1298   4.305   3.432  10.870 -2.2892  1.5866 -2.0509
   83MPD2     N 1299   4.363   2.991  10.986 -0.5813 -0.1594  0.1449
   83MPD2    H5 1300   4.458   3.011  11.014 -0.4933  0.3247 -0.4998
   83MPD2    N1 1301   3.919   3.225  10.971  0.0076 -0.6883  0.0492
   83MPD2    H7 1302   3.874   3.313  10.951 -3.2762 -2.1904  0.7778
   84TMC2    C1 1303   0.392   1.929  10.973 -0.0184 -0.0013  0.0625
   84TMC2    C2 1304   0.335   1.804  10.983 -0.1543 -0.5040 -0.0509
   84TMC2    C3 1305   0.402   1.698  10.941  0.4037  0.4470 -1.0954
   84TMC2    C4 1306   0.517   1.955  10.920  0.5151  0.0051 -0.1860
   84TMC2    C5 1307   0.574   1.844  10.870 -0.1056 -1.1002 -0.5215
   84TMC2    C6 1308   0.521   1.719  10.873 -0.9475  1.1016  0.0883
   84TMC2     C 1309   0.342   2.040  11.051  0.1496 -0.1419  0.1363
   84TMC2     O 1310   0.422   2.127  11.084  0.5407 -0.2704 -0.3820
   84TMC2     H 1311   0.243   1.781  11.035 -0.9629  2.5319 -0.0998
   84TMC2    H1 1312   0.563   2.051  10.899  3.1486 -1.2886 -0.3470
   84TMC2    H2 1313   0.579   1.639  10.829 -3.2050  0.7166 -2.2024
   84TMC2    C7 1314   0.703   1.852  10.796 -0.2244 -0.2858 -0.1589
   84TMC2    C8 1315   0.384   1.574  11.006 -0.0370 -0.4377  0.2920
   84TMC2    O1 1316   0.725   1.762  10.718  0.0635  0.0545  0.0915
   84TMC2    O2 1317   0.471   1.490  10.970 -0.5124 -0.3345 -0.6461
   84TMC2    O5 1318   0.357   1.594  11.133  0.0127 -0.2670 -0.1928
   84TMC2    H5 1319   0.323   1.679  11.167 -2.0643 -1.0562 -0.2813
   85TMC2    C1 1320   1.670   4.554  15.705  0.6680  1.0648 -0.2758
   85TMC2    C2 1321   1.631   4.478  15.599  0.8881 -0.9588  0.2617
   85TMC2    C3 1322   1.627   4.533  15.478  0.0149 -0.1106 -1.1008
   85TMC2    C4 1323   1.668   4.689  15.695  0.1898  0.3410  0.3285
   85TMC2    C5 1324   1.648   0.010  15.574  0.3894 -0.4423  0.5810
   85TMC2    C6 1325   1.627   4.667  15.466 -0.3797 -0.0997  0.7479
   85TMC2     C 1326   1.661   4.492  15.841  0.0863  0.2759 -1.0224
   85TMC2     O 1327   1.733   4.541  15.929 -0.4063 -0.0532  0.3717
   85TMC2     H 1328   1.626   4.370  15.613 -1.1771 -1.0512 -1.2933
   85TMC2    H1 1329   1.692   0.018  15.776 -0.2543  1.7594 -0.7347
   85TMC2    H2 1330   1.642   4.719  15.372 -1.2397 -0.8026  0.2188
   85TMC2    C7 1331   1.742   0.124  15.551  0.2012  0.0097 -0.5330
   85TMC2    C8 1332   1.622   4.441  15.363 -0.0594  0.9657 -0.9666
   85TMC2    O1 1333   1.837   0.127  15.626  0.2815 -0.3079 -0.7096
   85TMC2    O2 1334   1.687   4.337  15.368 -0.4300 -0.5836 -0.1103
   85TMC2    O5 1335   1.497   4.471  15.313  0.6196  0.1062 -0.3174
   85TMC2    H5 1336   1.461   4.554  15.350  0.0318 -1.1329  1.8884
   86MPD2     C 1337   1.463   4.162  16.190 -0.2693  0.6982 -0.2945
   86MPD2    C1 1338   1.371   4.196  16.097  0.0604 -0.4117  0.0018
   86MPD2    C2 1339   1.403   4.273  15.987  0.0974 -0.4792 -0.2294
   86MPD2    C3 1340   1.523   4.335  15.976  0.0495  0.0582  0.3250
   86MPD2    C4 1341   1.618   4.324  16.078  0.4158  0.1341  0.2222
   86MPD2    C5 1342   1.577   4.241  16.181 -0.2437  0.5919 -0.6051
   86MPD2     H 1343   1.337   4.270  15.901 -0.6318  0.1533  0.3088
   86MPD2    H1 1344   1.717   4.368  16.089  0.8772 -0.7305 -0.4914
   86MPD2    H2 1345   1.450   4.094  16.273  0.2809  1.2733  0.2681
   86MPD2    H3 1346   1.645   4.213  16.260 -3.3242 -0.0110  1.8582
   86MPD2     N 1347   1.556   4.400  15.853 -0.0224  0.2861  0.1003
   86MPD2    H5 1348   1.486   4.397  15.781 -1.5074 -1.8780  1.6280
   86MPD2    N1 1349   1.245   4.123  16.086 -0.0257  0.4728 -0.0801
   86MPD2    H7 1350   1.191   4.157  16.007  0.7460  1.3719 -0.2135
   87TMC2    C1 1351   4.633   3.270   0.754 -0.0500  0.1900  0.3494
   87TMC2    C2 1352   4.696   3.285   0.638  0.2069  0.3748  0.6010
   87TMC2    C3 1353   0.092   3.319   0.644 -0.3508 -0.5975 -0.0545
   87TMC2    C4 1354   4.681   3.316   0.875  0.6590  0.0823 -0.1502
   87TMC2    C5 1355   0.065   3.373   0.866 -0.3005  0.3818 -0.5434
   87TMC2    C6 1356   0.150   3.371   0.764 -0.0920  0.7887 -0.5060
   87TMC2     C 1357   4.495   3.221   0.740  0.5334  0.2829  0.3765
   87TMC2     O 1358   4.450   3.207   0.626  0.7577  0.4620 -0.4832
   87TMC2     H 1359   4.656   3.247   0.544  1.4971  1.9454 -0.5863
   87TMC2    H1 1360   4.621   3.322   0.965  1.3135 -1.2206  0.3697
   87TMC2    H2 1361   0.249   3.414   0.775 -0.5714  1.4421  1.2214
   87TMC2    C7 1362   0.073   3.503   0.928  0.5805 -0.3024  0.3867
   87TMC2    C8 1363   0.171   3.334   0.525 -0.6139 -0.1226  0.6556
   87TMC2    O1 1364   0.125   3.594   0.861  0.1528  0.3705  0.0529
   87TMC2    O2 1365   0.114   3.344   0.412  0.0869  0.3303 -0.2535
   87TMC2    O5 1366   0.303   3.310   0.541  0.0376  0.2829  0.1171
   87TMC2    H5 1367   0.323   3.285   0.634  0.0147  1.0380  0.3328
   88MPD2     C 1368   0.078   3.610   1.281 -0.1593 -0.0337 -0.1258
   88MPD2    C1 1369   0.062   3.617   1.145 -0.1076 -0.3196  0.4271
   88MPD2    C2 1370   0.034   3.744   1.093  0.6522 -0.1383  0.5463
   88MPD2    C3 1371   0.033   3.855   1.177  0.2584 -0.2530  0.4996
   88MPD2    C4 1372   0.057   3.846   1.309  0.6870 -0.6228 -0.2441
   88MPD2    C5 1373   0.075   3.719   1.362  0.2844 -0.5883 -0.1366
   88MPD2     H 1374   0.001   3.757   0.991  0.4937 -1.4798  0.4298
   88MPD2    H1 1375   0.053   3.933   1.374 -0.8493 -0.4538 -0.5627
   88MPD2    H2 1376   0.075   3.513   1.330  0.9738  1.2371  2.4329
   88MPD2    H3 1377   0.093   3.714   1.469 -1.8805  1.4306  0.3154
   88MPD2     N 1378   0.005   3.989   1.136  0.0754  0.5259  0.1673
   88MPD2    H5 1379   0.001   4.065   1.203  1.5373  1.6985 -1.0817
   88MPD2    N1 1380   0.058   3.500   1.068 -0.6020  0.6804 -0.2394
   88MPD2    H7 1381   0.045   3.408   1.109  1.3014  0.4710 -0.0929
   89TMC2    C1 1382   0.175   0.915   0.893  0.3809 -0.0090  0.1941
   89TMC2    C2 1383   0.274   0.910   0.798  0.2747  0.1953 -0.1182
   89TMC2    C3 1384   0.262   0.987   0.687  0.1286 -0.0817  0.0168
   89TMC2    C4 1385   0.072   1.003   0.880 -0.3403  0.2082  0.4924
   89TMC2    C5 1386   0.062   1.094   0.776  0.0310  0.8219  0.6797
   89TMC2    C6 1387   0.149   1.074   0.674 -1.3184 -0.5431  0.0979
   89TMC2     C 1388   0.207   0.881   1.032  0.5158  0.7112  0.4086
   89TMC2     O 1389   0.327   0.864   1.061 -0.1481 -0.0810 -0.1119
   89TMC2     H 1390   0.353   0.837   0.810  0.1700  0.0939 -0.0443
   89TMC2    H1 1391   0.020   1.030   0.972  0.9585 -1.5124  1.7228
   89TMC2    H2 1392   0.156   1.141   0.589  1.3025 -2.2045 -1.0185
   89TMC2    C7 1393   4.694   1.189   0.776  0.3486  0.0957 -0.0204
   89TMC2    C8 1394   0.358   0.992   0.573 -0.5298  0.1347  0.3500
   89TMC2    O1 1395   4.604   1.167   0.853  0.3088 -0.1476 -0.0577
   89TMC2    O2 1396   0.335   1.052   0.470  0.0645  0.2833  0.0766
   89TMC2    O5 1397   0.481   0.981   0.625 -0.1123  0.3525  1.0697
   89TMC2    H5 1398   0.476   0.958   0.720  1.2752  0.3759  1.1553
   90MPD2     C 1399   0.058   0.866   1.507 -0.4978  0.6832  0.4954
   90MPD2    C1 1400   4.689   0.864   1.434  0.5114  0.0915  0.9060
   90MPD2    C2 1401   4.708   0.858   1.300 -0.9022  0.2388  0.1896
   90MPD2    C3 1402   0.097   0.847   1.249  0.0632  0.2176 -0.0071
   90MPD2    C4 1403   0.210   0.843   1.328  0.2111  0.0244 -0.0385
   90MPD2    C5 1404   0.190   0.857   1.466 -0.3763 -0.3298  0.5734
   90MPD2     H 1405   4.621   0.846   1.236 -1.9233  2.2158  1.1976
   90MPD2    H1 1406   0.310   0.831   1.288 -0.2291 -1.5437 -0.7003
   90MPD2    H2 1407   0.044   0.883   1.613 -3.5993  1.5976 -0.0791
   90MPD2    H3 1408   0.266   0.853   1.543  1.6170 -1.1351 -1.4393
   90MPD2     N 1409   0.097   0.860   1.106 -0.1675 -0.4592  0.6347
   90MPD2    H5 1410   0.007   0.866   1.060  0.2832 -0.1154 -0.2122
   90MPD2    N1 1411   4.559   0.849   1.493  0.7104 -0.2660  0.5192
   90MPD2    H7 1412   4.488   0.820   1.427  1.8161 -0.9050 -0.3995
   91TMC2    C1 1413   1.327   0.348  15.932 -0.0166 -0.3837  0.3133
   91TMC2    C2 1414   1.346   0.278  16.052  0.0744 -0.0412 -0.2815
   91TMC2    C3 1415   1.238   0.228  16.121  0.3150  0.2809 -0.0661
   91TMC2    C4 1416   1.201   0.373  15.883  0.4771 -0.1679  0.1520
   91TMC2    C5 1417   1.090   0.316  15.951  0.3709 -0.1490  0.5138
   91TMC2    C6 1418   1.108   0.244  16.071 -0.2777 -0.1610  0.3015
   91TMC2     C 1419   1.438   0.400  15.849  0.1485 -0.5836  0.0115
   91TMC2     O 1420   1.421   0.415  15.724  0.1560  0.0788 -0.4662
   91TMC2     H 1421   1.443   0.237  16.078 -0.7778 -0.6527  1.9638
   91TMC2    H1 1422   1.184   0.448  15.807  0.3277  0.0513  0.4012
   91TMC2    H2 1423   1.022   0.196  16.116 -0.0385 -0.3343  0.5804
   91TMC2    C7 1424   0.959   0.379  15.948 -0.0947 -0.6771 -0.5784
   91TMC2    C8 1425   1.268   0.213  16.260  0.9797 -0.8391 -0.5391
   91TMC2    O1 1426   0.878   0.355  16.039  0.4360  0.5742  0.4935
   91TMC2    O2 1427   1.378   0.244  16.309  0.1182  0.0919  0.5046
   91TMC2    O5 1428   1.159   0.164  16.328 -0.2589  0.3457  0.2237
   91TMC2    H5 1429   1.090   0.133  16.265  0.7817 -1.2100 -0.1493
   92MPD2     C 1430   1.716   0.476  15.763 -0.3279 -0.7676 -0.3752
   92MPD2    C1 1431   1.687   0.442  15.894 -0.3495  0.9433  0.0145
   92MPD2    C2 1432   1.785   0.430  15.983  0.2377 -0.0315  0.5357
   92MPD2    C3 1433   1.920   0.445  15.944  0.5529  0.2746  0.4178
   92MPD2    C4 1434   1.950   0.480  15.817 -0.6460  0.2124  0.3235
   92MPD2    C5 1435   1.849   0.497  15.729 -0.3274  0.1054 -0.2311
   92MPD2     H 1436   1.762   0.399  16.084  0.1607 -0.4139  0.3990
   92MPD2    H1 1437   2.045   0.505  15.770 -0.0122 -1.2903  0.8044
   92MPD2    H2 1438   1.633   0.480  15.693 -1.0801 -1.8744  0.4595
   92MPD2    H3 1439   1.875   0.522  15.627 -1.7655 -1.1427 -0.8973
   92MPD2     N 1440   2.022   0.417  16.038  0.3468  0.5893  0.4103
   92MPD2    H5 1441   1.990   0.431  16.133  0.1866 -1.4764  0.6510
   92MPD2    N1 1442   1.550   0.412  15.929  0.2566 -0.3016  0.2076
   92MPD2    H7 1443   1.531   0.397  16.028  2.9359  1.3995  0.9828
   93TMC2    C1 1444   3.667   0.734  13.757 -0.4947 -0.8782  0.7787
   93TMC2    C2 1445   3.568   0.772  13.850 -0.1328 -0.1549  0.1203
   93TMC2    C3 1446   3.600   0.878  13.932 -0.3744 -0.8571  0.8683
   93TMC2    C4 1447   3.780   0.808  13.733 -0.4570  0.3245 -0.3842
   93TMC2    C5 1448   3.798   0.918  13.808  0.6709  0.1383 -0.0455
   93TMC2    C6 1449   3.713   0.951  13.916  0.0235  0.3447  0.1405
   93TMC2     C 1450   3.655   0.624  13.664 -0.4702 -0.2514 -0.6781
   93TMC2     O 1451   3.754   0.604  13.596  0.0961  0.0646 -0.2685
   93TMC2     H 1452   3.480   0.712  13.869 -0.6795  0.7030  0.3265
   93TMC2    H1 1453   3.834   0.779  13.643  0.6124  1.4491 -0.1120
   93TMC2    H2 1454   3.731   1.042  13.971 -0.3467  0.1894  0.5203
   93TMC2    C7 1455   3.907   1.001  13.774  0.5584  0.3076  0.5429
   93TMC2    C8 1456   3.511   0.896  14.049 -0.4527  0.3082  0.0445
   93TMC2    O1 1457   4.006   0.936  13.740  0.1577 -0.1047 -0.6272
   93TMC2    O2 1458   3.546   0.896  14.163 -0.0140  0.2446 -0.2056
   93TMC2    O5 1459   3.397   0.946  14.005 -0.1047  0.1227  0.3983
   93TMC2    H5 1460   3.394   0.952  13.908 -0.8572 -0.4999  0.3941
   94MPD2     C 1461   3.574   0.429  13.463 -0.5937 -0.2266  0.3839
   94MPD2    C1 1462   3.489   0.493  13.543 -0.8839  0.7071 -0.2040
   94MPD2    C2 1463   3.353   0.477  13.545  0.6104  0.2368 -0.9150
   94MPD2    C3 1464   3.296   0.399  13.450 -0.3439 -0.0214  0.0290
   94MPD2    C4 1465   3.382   0.330  13.363  0.1689  0.2697 -0.3351
   94MPD2    C5 1466   3.515   0.348  13.367 -0.5576  0.2011 -0.3985
   94MPD2     H 1467   3.284   0.538  13.603  0.9605  0.7329 -1.0182
   94MPD2    H1 1468   3.349   0.262  13.286  0.9541  2.0387 -2.2190
   94MPD2    H2 1469   3.683   0.429  13.469 -0.5909  1.5079  0.1484
   94MPD2    H3 1470   3.575   0.280  13.307 -1.6165 -0.6389 -0.4967
   94MPD2     N 1471   3.154   0.390  13.436 -0.0534 -0.1567  0.0571
   94MPD2    H5 1472   3.099   0.454  13.493 -0.8523  0.0013 -0.9055
   94MPD2    N1 1473   3.529   0.583  13.646 -0.4326 -0.5317 -0.4588
   94MPD2    H7 1474   3.458   0.621  13.708  1.3551  3.4605 -0.8816
   95TMC2    C1 1475   3.451   2.364  15.916  0.3542 -0.0433 -0.7576
   95TMC2    C2 1476   3.494   2.257  15.841 -0.5000 -0.2001  0.7699
   95TMC2    C3 1477   3.479   2.135  15.896  0.5198  0.8861  0.2829
   95TMC2    C4 1478   3.393   2.349  16.043 -0.3088 -0.2533  0.0737
   95TMC2    C5 1479   3.384   2.222  16.092  0.5741 -0.1044  0.0031
   95TMC2    C6 1480   3.422   2.111  16.015  0.3900  0.4304  0.5202
   95TMC2     C 1481   3.482   2.497  15.859 -0.9153  0.3542 -0.2917
   95TMC2     O 1482   3.542   2.483  15.752  0.0356  0.0847 -0.0068
   95TMC2     H 1483   3.538   2.263  15.742 -0.0739  2.1097  1.1052
   95TMC2    H1 1484   3.361   2.439  16.095 -1.1520  0.1659 -1.1694
   95TMC2    H2 1485   3.400   2.008  16.041 -1.7596  1.2733  2.0854
   95TMC2    C7 1486   3.299   2.200  16.207  0.1089 -0.1829 -0.5440
   95TMC2    C8 1487   3.504   2.019  15.817  0.0225 -0.2725  0.5543
   95TMC2    O1 1488   3.316   2.093  16.260 -0.2780  0.1072  0.7234
   95TMC2    O2 1489   3.543   1.915  15.871  0.0413 -0.6225 -0.1298
   95TMC2    O5 1490   3.419   2.030  15.711  0.0874 -0.0475 -0.5334
   95TMC2    H5 1491   3.412   2.123  15.682  2.4482  0.4068  0.3884
   96MPD2     C 1492   3.601   3.005  15.890  0.3960  0.0022 -0.3946
   96MPD2    C1 1493   3.642   2.908  15.796  0.0401 -0.0231 -0.1583
   96MPD2    C2 1494   3.601   2.780  15.807  0.0049 -0.5613  0.4666
   96MPD2    C3 1495   3.519   2.745  15.918 -0.6010 -0.1312  0.5944
   96MPD2    C4 1496   3.484   2.837  16.013 -0.6193  0.4146  0.1476
   96MPD2    C5 1497   3.518   2.966  15.989 -0.0168 -0.5347 -0.0243
   96MPD2     H 1498   3.647   2.705  15.744 -0.1454 -0.7249  0.5503
   96MPD2    H1 1499   3.417   2.817  16.095 -2.5885 -1.4743 -1.9021
   96MPD2    H2 1500   3.639   3.106  15.875 -0.4059  0.0011 -2.5491
   96MPD2    H3 1501   3.508   3.042  16.066 -0.1875 -0.5276 -0.0545
   96MPD2     N 1502   3.473   2.614  15.942 -0.6223 -0.2143  0.4736
   96MPD2    H5 1503   3.446   2.600  16.038  0.5426  1.7225  1.0778
   96MPD2    N1 1504   3.734   2.949  15.697  0.2691 -0.5646  0.3163
   96MPD2    H7 1505   3.780   3.039  15.710  0.0754 -0.1686 -1.7466
   97TMC2    C1 1506   1.417   0.485   0.056 -0.7695  0.2598  0.4571
   97TMC2    C2 1507   1.343   0.389   0.002 -0.2678  0.1297  0.0776
   97TMC2    C3 1508   1.220   0.431  17.702  0.0154  0.7244  0.6799
   97TMC2    C4 1509   1.373   0.605   0.079 -0.9926 -0.0139  0.0990
   97TMC2    C5 1510   1.248   0.642   0.039 -0.8301 -0.4354  0.0922
   97TMC2    C6 1511   1.167   0.555  17.719  0.2165 -0.6222  0.6719
   97TMC2     C 1512   1.540   0.454   0.126  0.1546 -0.1807 -0.1820
   97TMC2     O 1513   1.596   0.553   0.168  0.4819 -0.5230 -0.0969
   97TMC2     H 1514   1.392   0.297  17.730 -1.6078 -1.4150  2.7358
   97TMC2    H1 1515   1.436   0.686   0.111 -2.6270  1.4896 -0.5115
   97TMC2    H2 1516   1.067   0.575  17.684 -0.2775 -2.0789  1.2267
   97TMC2    C7 1517   1.175   0.759   0.106 -0.6369  0.7318 -0.1545
   97TMC2    C8 1518   1.149   0.349  17.601  0.4861 -0.0948  0.0241
   97TMC2    O1 1519   1.223   0.813   0.206 -0.3893 -0.1784 -0.2847
   97TMC2    O2 1520   1.091   0.395  17.500  0.1002 -0.7132  0.2784
   97TMC2    O5 1521   1.172   0.217  17.627  0.6074 -0.0258  0.4528
   97TMC2    H5 1522   1.197   0.193  17.719  0.5165 -1.4046  0.1170
   98MPD2     C 1523   1.779   0.134   0.467  0.3468  0.0665 -0.0858
   98MPD2    C1 1524   1.753   0.272   0.465 -0.1913 -1.0406  0.4653
   98MPD2    C2 1525   1.687   0.340   0.355 -0.3767 -0.1955 -0.4033
   98MPD2    C3 1526   1.642   0.267   0.248 -0.0741 -0.0600 -0.5887
   98MPD2    C4 1527   1.664   0.127   0.252  0.2401  0.0679  0.3091
   98MPD2    C5 1528   1.736   0.066   0.354  0.0935  0.0123 -0.2453
   98MPD2     H 1529   1.671   0.448   0.356 -1.0176 -0.2891  0.1303
   98MPD2    H1 1530   1.628   0.056   0.179 -0.2095  0.4778  0.1332
   98MPD2    H2 1531   1.826   0.075   0.545 -1.2707 -1.1397 -0.0350
   98MPD2    H3 1532   1.752   4.699   0.358  0.9582  0.1726  0.4631
   98MPD2     N 1533   1.559   0.322   0.158  0.1772 -0.1532 -0.4687
   98MPD2    H5 1534   1.501   0.254   0.109 -1.1426  2.7075 -2.9031
   98MPD2    N1 1535   1.804   0.346   0.570 -0.4081 -0.1000  0.2966
   98MPD2    H7 1536   1.829   0.294   0.654 -2.3769  0.1535  1.0410
   99TMC2    C1 1537   4.707   2.454   0.827  0.2475 -0.5190 -0.0740
   99TMC2    C2 1538   0.086   2.521   0.856  0.1851  0.3001 -0.6254
   99TMC2    C3 1539   0.122   2.521   0.986 -0.1009  0.0763  0.5054
   99TMC2    C4 1540   4.617   2.419   0.920  0.5555  0.6507  0.4060
   99TMC2    C5 1541   4.661   2.425   1.050  0.1481 -0.6047  0.0686
   99TMC2    C6 1542   0.040   2.481   1.086  0.4355 -0.1799 -0.0737
   99TMC2     C 1543   4.668   2.451   0.688 -0.0775  0.5148  0.0900
   99TMC2     O 1544   4.732   2.518   0.609 -0.0384  0.6896 -0.2086
   99TMC2     H 1545   0.161   2.553   0.784 -1.3460 -0.0305 -2.3789
   99TMC2    H1 1546   4.513   2.395   0.897  0.4332  0.7780  0.8240
   99TMC2    H2 1547   0.066   2.501   1.189  0.9089  0.4179 -0.3022
   99TMC2    C7 1548   4.552   2.420   1.150 -0.1084 -0.9165  0.3271
   99TMC2    C8 1549   0.235   2.606   1.022  0.1464  0.9404  0.3383
   99TMC2    O1 1550   4.572   2.481   1.254  0.9020 -0.4688 -0.1651
   99TMC2    O2 1551   0.285   2.680   0.939 -0.1852 -0.4796  0.2022
   99TMC2    O5 1552   0.297   2.547   1.131  0.5861  0.9145  0.3456
   99TMC2    H5 1553   0.260   2.465   1.169  0.3016  1.7286  1.8339
  100MPD2     C 1554   4.563   2.371   0.412  0.5689  0.0661  0.4249
  100MPD2    C1 1555   4.525   2.316   0.536  0.7614 -0.0136 -0.4006
  100MPD2    C2 1556   4.426   2.214   0.537 -0.0084 -0.0168  0.3676
  100MPD2    C3 1557   4.373   2.175   0.417 -0.2253  0.2391  0.0377
  100MPD2    C4 1558   4.433   2.216   0.298 -0.3256 -0.3195  0.4888
  100MPD2    C5 1559   4.514   2.324   0.295 -0.3292 -0.6847  0.0334
  100MPD2     H 1560   4.396   2.162   0.627 -0.0455 -1.3674 -0.4235
  100MPD2    H1 1561   4.402   2.174   0.203  1.6989 -0.3951 -0.1336
  100MPD2    H2 1562   4.630   2.456   0.404 -2.0148  1.5739 -5.2457
  100MPD2    H3 1563   4.557   2.366   0.204  0.0839 -0.7392  0.2015
  100MPD2     N 1564   4.284   2.066   0.420  0.4566 -0.9535 -0.2156
  100MPD2    H5 1565   4.228   2.050   0.503  1.9126 -1.0258  0.7573
  100MPD2    N1 1566   4.575   2.350   0.662 -0.2449 -0.1044  0.3277
  100MPD2    H7 1567   4.545   2.296   0.742 -1.9853 -0.2627 -0.4478
  101TMC2    C1 1568   0.286   3.443  12.970  0.3536  0.1548 -0.0527
  101TMC2    C2 1569   0.166   3.509  12.994 -0.4543 -0.3938 -0.3577
  101TMC2    C3 1570   0.156   3.639  12.952 -0.4574  0.1119 -0.1877
  101TMC2    C4 1571   0.399   3.499  12.908 -0.7923 -0.1803  0.0176
  101TMC2    C5 1572   0.380   3.624  12.860  0.0827 -0.2604 -0.4959
  101TMC2    C6 1573   0.260   3.694  12.875  0.5126 -0.6100  0.3427
  101TMC2     C 1574   0.298   3.321  13.050  0.0643 -0.2778  0.2511
  101TMC2     O 1575   0.236   3.315  13.155  0.2543  0.2296  0.1219
  101TMC2     H 1576   0.092   3.474  13.064  1.0638 -0.2701  1.3305
  101TMC2    H1 1577   0.491   3.444  12.891  0.2121  0.6697  2.7917
  101TMC2    H2 1578   0.255   3.799  12.848 -2.5111 -0.8010  0.2501
  101TMC2    C7 1579   0.479   3.671  12.760  0.1294 -0.4949  0.7533
  101TMC2    C8 1580   0.067   3.731  13.020 -0.4326 -0.2029 -0.4730
  101TMC2    O1 1581   0.588   3.614  12.752  0.1958 -0.0491 -0.7578
  101TMC2    O2 1582   4.739   3.702  13.118  0.3046  0.5419  0.6969
  101TMC2    O5 1583   0.012   3.802  12.918  0.0180  0.0258  0.2645
  101TMC2    H5 1584   0.045   3.783  12.828 -0.9071 -1.0541  0.1468
  102MPD2     C 1585   0.491   3.013  12.994 -0.4612 -1.1151 -0.1662
  102MPD2    C1 1586   0.410   3.100  13.066  0.1023  0.2302  0.1355
  102MPD2    C2 1587   0.352   3.064  13.181  0.2978  0.0377 -0.5851
  102MPD2    C3 1588   0.353   2.921  13.211  0.9961 -0.1744  0.4855
  102MPD2    C4 1589   0.434   2.839  13.137 -0.3578  0.1148  0.4429
  102MPD2    C5 1590   0.506   2.886  13.031 -0.1580 -0.1943 -0.0046
  102MPD2     H 1591   0.293   3.130  13.244 -1.0701 -0.3055 -1.4932
  102MPD2    H1 1592   0.436   2.731  13.148  0.0704 -0.0466 -1.2288
  102MPD2    H2 1593   0.534   3.042  12.899 -1.3248 -1.4362 -0.6502
  102MPD2    H3 1594   0.572   2.826  12.970  0.0877  1.3912 -1.2888
  102MPD2     N 1595   0.292   2.879  13.332 -0.0365 -0.1533 -0.5891
  102MPD2    H5 1596   0.225   2.946  13.367  1.2236  0.6866  0.2445
  102MPD2    N1 1597   0.394   3.227  13.008 -0.8483  0.4441  0.2169
  102MPD2    H7 1598   0.441   3.243  12.919 -1.0885 -1.5011 -0.2599
  103TMC2    C1 1599   3.273   3.537  12.661 -0.5030 -0.4325 -0.1563
  103TMC2    C2 1600   3.399   3.539  12.609 -0.0013  0.1157 -0.6572
  103TMC2    C3 1601   3.506   3.546  12.696 -0.6692 -1.0286 -0.4580
  103TMC2    C4 1602   3.253   3.544  12.794 -1.1107 -0.5212  0.2680
  103TMC2    C5 1603   3.363   3.525  12.873 -0.2744 -0.2320 -0.8680
  103TMC2    C6 1604   3.491   3.531  12.830  0.5217  0.1049  0.2391
  103TMC2     C 1605   3.175   3.600  12.580  0.0457  0.4380  0.7051
  103TMC2     O 1606   3.064   3.617  12.629  0.5737 -0.3275 -0.2254
  103TMC2     H 1607   3.422   3.529  12.504  2.1526  0.6448 -0.2394
  103TMC2    H1 1608   3.154   3.546  12.839 -2.5364  2.0240 -2.9232
  103TMC2    H2 1609   3.563   3.498  12.904 -0.5876 -3.8681 -0.5070
  103TMC2    C7 1610   3.337   3.548  13.013 -0.5925 -0.3286  0.2583
  103TMC2    C8 1611   3.636   3.557  12.627  0.3880  0.4758  0.4566
  103TMC2    O1 1612   3.235   3.493  13.046  0.3724 -0.2309  0.4328
  103TMC2    O2 1613   3.670   3.517  12.516  0.5108  0.3557 -0.0278
  103TMC2    O5 1614   3.715   3.636  12.706 -0.3548  0.0020  0.2494
  103TMC2    H5 1615   3.678   3.667  12.792  2.8920 -0.1513  1.7173
  104MPD2     C 1616   3.182   3.714  12.229 -0.9603  0.0067 -0.7569
  104MPD2    C1 1617   3.132   3.692  12.351  0.4842  0.1950  0.2158
  104MPD2    C2 1618   3.005   3.732  12.370 -0.4978 -0.3673  0.5609
  104MPD2    C3 1619   2.925   3.789  12.274 -0.1920 -0.1073  0.2635
  104MPD2    C4 1620   2.983   3.815  12.153  0.4067 -0.2153 -0.0985
  104MPD2    C5 1621   3.104   3.773  12.132 -0.0784 -0.3238 -0.2766
  104MPD2     H 1622   2.955   3.726  12.466 -1.2143 -0.8674  0.1620
  104MPD2    H1 1623   2.937   3.861  12.066  2.7124  2.7521  0.2646
  104MPD2    H2 1624   3.288   3.696  12.212 -0.1531  2.1431  2.1286
  104MPD2    H3 1625   3.144   3.784  12.031 -0.2540 -3.5834 -0.6976
  104MPD2     N 1626   2.797   3.811  12.301  0.3630 -0.5429  0.2429
  104MPD2    H5 1627   2.762   3.764  12.385 -0.2655 -2.8359 -1.3062
  104MPD2    N1 1628   3.213   3.631  12.452 -0.2639 -0.0364  0.2415
  104MPD2    H7 1629   3.312   3.622  12.429 -0.6039  0.7673 -1.4913
  105TMC2    C1 1630   3.897   2.728   0.355  0.3282  0.2841  0.2984
  105TMC2    C2 1631   3.772   2.676   0.363 -0.5923 -0.4749  0.2563
  105TMC2    C3 1632   3.707   2.679   0.481  0.4760  0.6187  0.1297
  105TMC2    C4 1633   3.957   2.792   0.456  0.0593  0.0960 -0.1714
  105TMC2    C5 1634   3.879   2.804   0.575  0.3759 -0.3785 -0.3174
  105TMC2    C6 1635   3.756   2.742   0.590 -0.4294 -0.1210  0.0043
  105TMC2     C 1636   3.977   2.725   0.235  0.5763  0.0928 -0.1708
  105TMC2     O 1637   3.902   2.726   0.135  0.0697 -1.0768  0.0572
  105TMC2     H 1638   3.736   2.615   0.281 -1.1529  0.2451 -0.0349
  105TMC2    H1 1639   4.052   2.845   0.451  0.3261 -0.1129  2.7134
  105TMC2    H2 1640   3.705   2.736   0.686  0.2569 -0.0738  0.3727
  105TMC2    C7 1641   3.936   2.866   0.697 -0.5414  0.5531  0.1933
  105TMC2    C8 1642   3.578   2.618   0.495 -0.1612  0.5047 -1.0614
  105TMC2    O1 1643   3.858   2.859   0.789 -0.1072 -0.0794  0.0506
  105TMC2    O2 1644   3.520   2.595   0.601  0.4002 -0.2812  0.3477
  105TMC2    O5 1645   3.511   2.639   0.382  0.2563 -0.0492 -0.0954
  105TMC2    H5 1646   3.569   2.690   0.322  0.7496  0.4487  0.8022
  106MPD2     C 1647   4.404   2.662  17.714 -0.0883 -0.1342 -0.1840
  106MPD2    C1 1648   4.277   2.683  17.672  0.1538 -0.4628 -0.1888
  106MPD2    C2 1649   4.176   2.701   0.011 -0.4810  0.4588  0.0188
  106MPD2    C3 1650   4.208   2.698   0.147  0.0979  0.3752 -0.1050
  106MPD2    C4 1651   4.338   2.680   0.189 -0.3735  0.5317 -0.5075
  106MPD2    C5 1652   4.439   2.664   0.097  0.6877 -0.1611 -0.0375
  106MPD2     H 1653   4.073   2.718  17.738 -0.9714  0.2385  1.5984
  106MPD2    H1 1654   4.359   2.657   0.293 -1.4140 -1.6687 -0.7879
  106MPD2    H2 1655   4.485   2.655  17.642 -1.1552  0.1535 -1.4215
  106MPD2    H3 1656   4.541   2.636   0.123  0.7835  1.0258  0.8392
  106MPD2     N 1657   4.110   2.701   0.251  0.3006 -0.9079  0.1133
  106MPD2    H5 1658   4.147   2.683   0.344 -2.0484  0.5442  1.3459
  106MPD2    N1 1659   4.240   2.700  17.534 -0.1770 -0.5073 -0.1830
  106MPD2    H7 1660   4.145   2.729  17.512  0.0803  0.7933  0.4081
  107TMC2    C1 1661   0.200   2.786  11.640  0.7265  0.3041 -0.0764
  107TMC2    C2 1662   0.325   2.758  11.689  0.6447 -0.2914  0.1844
  107TMC2    C3 1663   0.383   2.637  11.663 -0.7404  0.1192  0.2315
  107TMC2    C4 1664   0.139   2.696  11.555  0.7885 -0.1341  0.0805
  107TMC2    C5 1665   0.200   2.577  11.528  0.3223  0.1851 -0.4829
  107TMC2    C6 1666   0.324   2.545  11.568  0.4800  0.1117 -0.8372
  107TMC2     C 1667   0.116   2.850  11.737 -0.1749 -0.5427  0.3905
  107TMC2     O 1668   0.142   2.836  11.856 -0.0698  0.3374 -0.2754
  107TMC2     H 1669   0.367   2.824  11.763 -0.1445 -0.0821  0.4515
  107TMC2    H1 1670   0.032   2.710  11.546  0.8337  0.2975  0.2129
  107TMC2    H2 1671   0.359   2.444  11.552  0.1328  0.3554 -3.0188
  107TMC2    C7 1672   0.111   2.472  11.478  0.1773 -0.5145 -0.1265
  107TMC2    C8 1673   0.525   2.632  11.694  0.5827  0.1250  0.1750
  107TMC2    O1 1674   4.733   2.477  11.512 -0.2482  0.2092 -1.2924
  107TMC2    O2 1675   0.577   2.639  11.802  0.5336 -0.0744  0.0645
  107TMC2    O5 1676   0.578   2.579  11.585 -0.1152  0.8087 -0.5057
  107TMC2    H5 1677   0.525   2.593  11.503 -1.9723  0.1502  0.5828
  108MPD2     C 1678   4.575   3.071  11.649 -0.2739  0.7598 -0.9114
  108MPD2    C1 1679   4.653   2.990  11.733 -0.4939 -0.5924  0.1905
  108MPD2    C2 1680   4.610   2.967  11.861 -0.4663 -0.3922  0.3826
  108MPD2    C3 1681   4.484   3.013  11.905 -0.5514  0.0395 -0.0520
  108MPD2    C4 1682   4.412   3.101  11.823 -0.2360 -0.2404 -0.2180
  108MPD2    C5 1683   4.465   3.135  11.704  0.6160  0.0864  0.0786
  108MPD2     H 1684   4.675   2.902  11.918  1.2259  1.0745  0.1434
  108MPD2    H1 1685   4.319   3.148  11.853  0.3978  1.1912 -0.5120
  108MPD2    H2 1686   4.590   3.092  11.543 -0.6169  0.4410 -1.0237
  108MPD2    H3 1687   4.405   3.203  11.645 -1.0072 -0.4627  1.0975
  108MPD2     N 1688   4.418   2.973  12.018  0.2247  0.3861  0.3374
  108MPD2    H5 1689   4.328   3.015  12.036  1.0187  1.4270  1.8525
  108MPD2    N1 1690   0.022   2.935  11.678 -0.0660  0.1997  0.1205
  108MPD2    H7 1691   0.026   2.944  11.577 -1.4643  0.2497  0.0733
  109TMC2    C1 1692   2.032   0.979   1.668 -0.1937  0.3546  0.9682
  109TMC2    C2 1693   2.110   1.065   1.738  0.2492 -0.0703 -0.8153
  109TMC2    C3 1694   2.177   1.149   1.648 -0.3434  0.0149 -0.6140
  109TMC2    C4 1695   2.010   0.976   1.530  0.5484  0.7335  0.0271
  109TMC2    C5 1696   2.095   1.054   1.454  0.2075 -0.3870  0.0561
  109TMC2    C6 1697   2.179   1.137   1.515 -0.0377  0.4467 -0.8420
  109TMC2     C 1698   1.934   0.898   1.740  0.1636 -0.1575 -0.3182
  109TMC2     O 1699   1.897   0.944   1.846 -0.4794  0.3071 -0.3665
  109TMC2     H 1700   2.116   1.072   1.846  0.1475  0.1688 -0.8256
  109TMC2    H1 1701   1.931   0.918   1.484  1.5817  0.4899 -1.4277
  109TMC2    H2 1702   2.224   1.206   1.444  1.9838 -1.5283 -1.4789
  109TMC2    C7 1703   2.067   1.060   1.316  0.3456 -0.4911 -0.3477
  109TMC2    C8 1704   2.255   1.261   1.704 -0.6961 -0.1767 -0.1705
  109TMC2    O1 1705   1.949   1.047   1.291  0.4178 -0.7361 -0.0511
  109TMC2    O2 1706   2.346   1.318   1.647 -0.1930 -0.3352 -0.2994
  109TMC2    O5 1707   2.209   1.289   1.831 -0.2771  0.1792 -0.3939
  109TMC2    H5 1708   2.113   1.268   1.832 -0.3340  0.4558 -0.0709
  110MPD2     C 1709   1.546   0.561   1.724 -0.1524 -0.0602 -0.7308
  110MPD2    C1 1710   1.626   0.534   1.611 -0.2388  0.2455 -0.0952
  110MPD2    C2 1711   1.743   0.609   1.596 -0.0714  0.2573 -0.4072
  110MPD2    C3 1712   1.775   0.706   1.690  0.7159  0.7593 -0.0190
  110MPD2    C4 1713   1.703   0.719   1.807  0.0724  0.9048  0.3676
  110MPD2    C5 1714   1.593   0.645   1.819  0.3544  0.0691  0.2897
  110MPD2     H 1715   1.790   0.626   1.500  0.4808  0.6625 -0.0668
  110MPD2    H1 1716   1.735   0.781   1.891  0.9159  0.7160  0.1788
  110MPD2    H2 1717   1.458   0.501   1.744 -1.6937  2.4057 -0.1154
  110MPD2    H3 1718   1.529   0.656   1.905  0.9382  0.5918  0.6521
  110MPD2     N 1719   1.887   0.791   1.657  0.0264  0.5779 -0.4936
  110MPD2    H5 1720   1.955   0.776   1.583  0.2590  1.9470 -0.5628
  110MPD2    N1 1721   1.576   0.434   1.515 -0.0153 -0.0394  0.1774
  110MPD2    H7 1722   1.483   0.393   1.524 -0.1120  0.1792  0.1823
  111TMC2    C1 1723   0.525   3.769  11.514  0.5360 -0.0997 -0.3013
  111TMC2    C2 1724   0.504   3.636  11.533 -0.4301  0.1245  0.1546
  111TMC2    C3 1725   0.618   3.567  11.543  0.5806  0.1078 -0.3396
  111TMC2    C4 1726   0.649   3.816  11.492  0.1197  0.4033 -0.3307
  111TMC2    C5 1727   0.762   3.742  11.506 -0.5178 -0.5040  0.4492
  111TMC2    C6 1728   0.747   3.615  11.545  0.3226 -0.8133  0.7007
  111TMC2     C 1729   0.418   3.843  11.454  1.1071 -0.4483  0.3538
  111TMC2     O 1730   0.444   3.945  11.394  0.1426  0.2954 -0.1571
  111TMC2     H 1731   0.412   3.579  11.529  0.0971 -0.8599  1.7228
  111TMC2    H1 1732   0.651   3.923  11.472 -0.5822  0.7353  1.3659
  111TMC2    H2 1733   0.827   3.547  11.571 -0.7517 -2.0814  0.6779
  111TMC2    C7 1734   0.867   3.820  11.566  1.0093 -0.5859 -0.6125
  111TMC2    C8 1735   0.599   3.436  11.602 -1.1724 -0.2803  0.0205
  111TMC2    O1 1736   0.830   3.912  11.644  0.4114 -0.0325  0.2390
  111TMC2    O2 1737   0.509   3.411  11.680 -0.2541 -0.2608  0.1451
  111TMC2    O5 1738   0.633   3.353  11.503  0.3904 -0.1579  0.3832
  111TMC2    H5 1739   0.696   3.386  11.435  1.4259  2.7737  2.7663
  112MPD2     C 1740   4.666   3.958  11.345 -0.5760 -0.9072 -0.1242
  112MPD2    C1 1741   0.042   3.965  11.273  0.0553 -0.2669  0.6558
  112MPD2    C2 1742   0.167   3.922  11.330 -0.3918 -0.6470  0.2890
  112MPD2    C3 1743   0.173   3.848  11.447  0.4274 -0.4560  0.4425
  112MPD2    C4 1744   0.050   3.825  11.510 -0.2156  0.2233  0.1445
  112MPD2    C5 1745   4.673   3.883  11.461  0.0699  0.0785 -0.2010
  112MPD2     H 1746   0.254   3.938  11.266 -1.1080 -0.8475 -0.7302
  112MPD2    H1 1747   0.037   3.765  11.599 -0.2143 -0.5616 -0.3935
  112MPD2    H2 1748   4.575   4.008  11.315  0.4220  1.3407  0.5867
  112MPD2    H3 1749   4.588   3.885  11.528  0.2152  0.0488 -0.0187
  112MPD2     N 1750   0.295   3.797  11.495 -0.7610  0.3927  0.4984
  112MPD2    H5 1751   0.289   3.723  11.565  0.8614 -0.7698 -0.5868
  112MPD2    N1 1752   0.048   4.054  11.158 -0.0712 -1.2071  0.0515
  112MPD2    H7 1753   0.144   4.063  11.125  0.2789 -0.6864  1.1849
  113TMC2    C1 1754   3.099   2.226   0.249 -0.1239 -0.4099 -0.5977
  113TMC2    C2 1755   3.023   2.335   0.220  0.6848  0.2347 -0.3752
  113TMC2    C3 1756   2.941   2.326   0.113 -0.1859  0.3567 -0.7618
  113TMC2    C4 1757   3.085   2.108   0.190 -0.8000 -0.2534  0.2506
  113TMC2    C5 1758   2.989   2.098   0.099  0.0453 -0.4661  0.0654
  113TMC2    C6 1759   2.925   2.203   0.045  0.0630 -0.3000  0.6811
  113TMC2     C 1760   3.193   2.245   0.357 -0.1092  0.0902 -0.5930
  113TMC2     O 1761   3.210   2.368   0.378 -0.0935  0.2788 -0.2182
  113TMC2     H 1762   3.026   2.430   0.273  4.2580 -1.4786  2.4380
  113TMC2    H1 1763   3.153   2.028   0.217 -0.7188 -0.5288 -0.7629
  113TMC2    H2 1764   2.862   2.198  17.713  0.6524  2.7460  0.0657
  113TMC2    C7 1765   2.951   1.973   0.033 -0.0957 -0.3334 -0.2123
  113TMC2    C8 1766   2.892   2.448   0.066  0.1452 -0.1060 -0.3005
  113TMC2    O1 1767   2.899   1.979  17.682 -0.1749 -0.3117  0.3880
  113TMC2    O2 1768   2.947   2.550   0.087  0.4588  0.4858 -0.0674
  113TMC2    O5 1769   2.775   2.437   0.007 -0.7698  0.1951 -0.5432
  113TMC2    H5 1770   2.733   2.349   0.015  0.6137 -0.3155  1.0239
  114MPD2     C 1771   3.575   2.093   0.671  0.5039  0.2727 -0.2275
  114MPD2    C1 1772   3.526   2.221   0.651  0.3071  0.0537 -0.1508
  114MPD2    C2 1773   3.415   2.236   0.564  0.0746  0.1283 -0.5665
  114MPD2    C3 1774   3.354   2.127   0.515  0.0305 -0.1024 -0.2188
  114MPD2    C4 1775   3.399   1.999   0.542 -0.9599 -0.0305  0.4724
  114MPD2    C5 1776   3.508   1.987   0.618  1.0673 -0.2623 -0.2254
  114MPD2     H 1777   3.376   2.336   0.549  2.1004  1.0075 -0.1010
  114MPD2    H1 1778   3.356   1.913   0.493 -0.2853 -0.5293  0.7493
  114MPD2    H2 1779   3.655   2.061   0.737  0.4398  1.3626  0.3663
  114MPD2    H3 1780   3.562   1.895   0.634 -0.8875 -1.6659 -1.7599
  114MPD2     N 1781   3.247   2.137   0.423 -0.2654 -0.7807 -0.8893
  114MPD2    H5 1782   3.215   2.046   0.390 -0.8279 -0.8176 -0.2585
  114MPD2    N1 1783   3.580   2.337   0.717  0.5515  0.5647  0.0620
  114MPD2    H7 1784   3.526   2.422   0.703 -1.6400 -0.6191  1.4156
  115TMC2    C1 1785   4.243   4.612   0.042  0.2683 -0.5987 -0.6051
  115TMC2    C2 1786   4.375   4.605   0.076 -0.7812  0.2329  0.0496
  115TMC2    C3 1787   4.443   4.719   0.075  0.2243 -0.1012  0.0788
  115TMC2    C4 1788   4.186   4.732  17.756  0.5829  0.3367 -0.7171
  115TMC2    C5 1789   4.259   0.109   0.008  0.5121 -0.1937 -0.0230
  115TMC2    C6 1790   4.391   0.106   0.044 -0.6936 -0.1921  0.1645
  115TMC2     C 1791   4.181   4.487   0.010  0.3509 -0.1570 -0.2797
  115TMC2     O 1792   4.244   4.383   0.026  0.3007 -0.2124  0.4103
  115TMC2     H 1793   4.412   4.514   0.121 -0.2470  1.7131  2.5800
  115TMC2    H1 1794   4.082   0.004  17.727  0.0585 -0.8030  0.7298
  115TMC2    H2 1795   4.447   0.198   0.043  1.2971 -1.4392 -3.0732
  115TMC2    C7 1796   4.197   0.236  17.739 -0.2273  0.0199 -0.3741
  115TMC2    C8 1797   4.582   4.717   0.113 -0.3498 -0.1024  0.2781
  115TMC2    O1 1798   4.074   0.234  17.751 -0.1969  0.1582  0.2896
  115TMC2    O2 1799   4.652   0.079   0.129 -0.8327 -0.3158 -0.5863
  115TMC2    O5 1800   4.634   4.591   0.085  0.4186 -0.4008  0.2516
  115TMC2    H5 1801   4.571   4.516   0.079  1.2301 -1.0264 -0.3627
  116MPD2     C 1802   3.836   4.324  17.409 -0.0649  0.6175  0.5235
  116MPD2    C1 1803   3.946   4.253  17.456  0.1583  0.2527 -0.3068
  116MPD2    C2 1804   4.028   4.311  17.555 -1.0231 -0.6612 -0.0447
  116MPD2    C3 1805   3.988   4.430  17.613  0.4506 -0.4585  0.2132
  116MPD2    C4 1806   3.873   4.489  17.571 -0.1578 -0.2338 -0.2938
  116MPD2    C5 1807   3.798   4.434  17.471  0.4782 -0.3650  0.3606
  116MPD2     H 1808   4.126   4.280  17.590 -0.1426  0.2530 -1.7079
  116MPD2    H1 1809   3.832   4.575  17.621 -2.7890 -0.2444 -2.4310
  116MPD2    H2 1810   3.776   4.289  17.325 -1.0937 -1.7150  2.2334
  116MPD2    H3 1811   3.703   4.484  17.459  0.6567 -0.1942 -0.2911
  116MPD2     N 1812   4.060   4.512  17.706 -0.2256  0.2455  0.0768
  116MPD2    H5 1813   4.020   4.603  17.726 -1.1121 -0.5063  1.6549
  116MPD2    N1 1814   3.973   4.139  17.380  0.3719 -0.2091 -0.4729
  116MPD2    H7 1815   3.908   4.115  17.305 -0.4513  1.8011 -0.3918
  117TMC2    C1 1816   2.683   1.167  13.647 -0.0719  0.0815  0.6115
  117TMC2    C2 1817   2.795   1.089  13.631  0.7270  0.3825  0.1131
  117TMC2    C3 1818   2.909   1.130  13.699  0.2971 -0.5170  0.0207
  117TMC2    C4 1819   2.674   1.269  13.736  0.0164  0.4841  0.2770
  117TMC2    C5 1820   2.779   1.289  13.814  0.2341 -0.1856 -0.8763
  117TMC2    C6 1821   2.902   1.230  13.793  0.8174  0.2843  0.1435
  117TMC2     C 1822   2.587   1.163  13.535 -0.2184  0.7842  0.0068
  117TMC2     O 1823   2.569   1.058  13.473  0.1478 -0.3164 -0.6557
  117TMC2     H 1824   2.785   0.996  13.576 -0.8248  1.3881 -1.2993
  117TMC2    H1 1825   2.594   1.343  13.738 -1.6089 -1.1872 -1.8014
  117TMC2    H2 1826   2.987   1.272  13.846  0.3567 -0.5610  1.5690
  117TMC2    C7 1827   2.778   1.406  13.894  0.2457  0.2856 -0.3919
  117TMC2    C8 1828   3.037   1.092  13.650 -0.3688  0.7038  0.4674
  117TMC2    O1 1829   2.886   1.460  13.919  0.7875  0.4683  0.1195
  117TMC2    O2 1830   3.135   1.166  13.664 -0.4867 -0.3466  0.4059
  117TMC2    O5 1831   3.016   1.001  13.552  0.8708  0.2935 -0.2153
  117TMC2    H5 1832   2.925   0.964  13.549  1.3415 -1.0221  1.6256
  118MPD2     C 1833   2.479   1.564  14.031 -0.2000 -0.9368  0.0044
  118MPD2    C1 1834   2.616   1.554  14.006  0.4153  0.7562 -0.1713
  118MPD2    C2 1835   2.690   1.661  14.043 -0.5588  0.2241 -0.2393
  118MPD2    C3 1836   2.625   1.767  14.101 -0.0017  0.0119 -0.0013
  118MPD2    C4 1837   2.489   1.771  14.121 -0.0415  0.0937  0.0311
  118MPD2    C5 1838   2.412   1.672  14.072  0.8397 -0.2735 -0.5021
  118MPD2     H 1839   2.796   1.661  14.019 -0.2078  0.3881  1.3229
  118MPD2    H1 1840   2.440   1.858  14.164 -2.1817  0.0581 -2.3254
  118MPD2    H2 1841   2.417   1.480  14.005  0.6190 -1.3725 -0.5461
  118MPD2    H3 1842   2.304   1.681  14.076  0.8264 -0.7847  0.2459
  118MPD2     N 1843   2.701   1.880  14.143  0.0656  0.4804  0.6099
  118MPD2    H5 1844   2.655   1.967  14.169 -0.6963 -0.3950  2.1993
  118MPD2    N1 1845   2.654   1.444  13.937 -0.5010  0.1181  0.2346
  118MPD2    H7 1846   2.583   1.372  13.927 -0.4354 -0.0710  1.1815
  119TMC2    C1 1847   1.274   2.572  13.250 -0.4547 -0.2988 -0.1975
  119TMC2    C2 1848   1.324   2.584  13.122 -0.1847 -0.1166 -0.3847
  119TMC2    C3 1849   1.271   2.496  13.025 -0.7391 -0.5131  0.1286
  119TMC2    C4 1850   1.179   2.477  13.286 -0.2731  0.3476 -0.1047
  119TMC2    C5 1851   1.127   2.396  13.185 -0.2345  0.3834 -0.6553
  119TMC2    C6 1852   1.170   2.405  13.052  0.0405 -0.1659 -0.1284
  119TMC2     C 1853   1.340   2.641  13.356 -0.5427 -0.2237 -0.4761
  119TMC2     O 1854   1.273   2.684  13.447  0.2268 -0.3729 -0.1472
  119TMC2     H 1855   1.397   2.659  13.094 -0.9234  0.7513  0.0099
  119TMC2    H1 1856   1.154   2.471  13.391  2.6354  1.6339  0.6536
  119TMC2    H2 1857   1.145   2.331  12.977 -0.0943  0.9085 -1.1364
  119TMC2    C7 1858   1.025   2.306  13.235  0.3033  0.5834  0.5311
  119TMC2    C8 1859   1.343   2.502  12.898 -0.3953 -1.0196 -0.8077
  119TMC2    O1 1860   1.008   2.310  13.356  0.5526 -0.2168 -0.1509
  119TMC2    O2 1861   1.354   2.407  12.822  0.3674 -0.8054 -0.4286
  119TMC2    O5 1862   1.344   2.629  12.864 -0.6494 -0.5042  0.1361
  119TMC2    H5 1863   1.287   2.683  12.923 -0.6324 -0.5980  0.2385
  120MPD2     C 1864   1.748   2.680  13.656  0.3958 -1.2157 -0.0679
  120MPD2    C1 1865   1.615   2.651  13.689  0.5323  0.1059  0.1553
  120MPD2    C2 1866   1.527   2.652  13.580  0.5972 -0.0427  0.5019
  120MPD2    C3 1867   1.568   2.674  13.451 -0.3025 -0.6228 -0.4559
  120MPD2    C4 1868   1.699   2.695  13.420 -0.6123  0.7023 -0.8448
  120MPD2    C5 1869   1.786   2.704  13.526  0.0101 -0.5771  0.0343
  120MPD2     H 1870   1.423   2.627  13.598  0.1806  1.0850 -0.3643
  120MPD2    H1 1871   1.737   2.703  13.319 -1.8039 -0.2934 -1.3764
  120MPD2    H2 1872   1.822   2.686  13.735 -1.8530 -2.1228  2.1299
  120MPD2    H3 1873   1.893   2.716  13.515 -0.3183  1.1833 -1.1877
  120MPD2     N 1874   1.480   2.659  13.344 -0.3256 -1.0600 -0.2107
  120MPD2    H5 1875   1.524   2.640  13.254  1.1220 -0.9743  0.4836
  120MPD2    N1 1876   1.586   2.612  13.820 -0.1266  0.5237  0.1656
  120MPD2    H7 1877   1.661   2.627  13.886 -2.0608  1.8176  2.0762
  121TMC2    C1 1878   2.633   4.237  14.076  0.7165  0.3334 -0.0437
  121TMC2    C2 1879   2.577   4.358  14.092  0.5310 -0.2939  0.2698
  121TMC2    C3 1880   2.493   4.382  14.195  0.2056 -0.3660 -1.3436
  121TMC2    C4 1881   2.603   4.132  14.161  0.7367 -0.2631 -0.6721
  121TMC2    C5 1882   2.526   4.158  14.266 -0.1876  0.6402  0.1008
  121TMC2    C6 1883   2.461   4.278  14.276 -0.3660 -0.2752  0.3994
  121TMC2     C 1884   2.742   4.226  13.986  0.3001  0.1581  0.1618
  121TMC2     O 1885   2.828   4.142  14.004  0.7844 -0.1529  0.2960
  121TMC2     H 1886   2.608   4.447  14.037 -0.0387  0.4786  1.1908
  121TMC2    H1 1887   2.649   4.035  14.152  2.6412  0.4034  2.0146
  121TMC2    H2 1888   2.415   4.303  14.370 -1.6456 -0.8874 -0.0667
  121TMC2    C7 1889   2.471   4.049  14.340  0.3268  0.4861  0.0683
  121TMC2    C8 1890   2.467   4.522  14.232  0.1518  0.2197 -0.4048
  121TMC2    O1 1891   2.540   3.956  14.377  0.0201  0.1577  0.1224
  121TMC2    O2 1892   2.426   4.591  14.139 -0.1015  0.1075  0.1229
  121TMC2    O5 1893   2.541   4.558  14.337 -0.9862 -1.0640 -0.0935
  121TMC2    H5 1894   2.579   4.499  14.406  0.3895 -0.7315 -0.5620
  122MPD2     C 1895   2.976   4.315  13.830 -0.1298 -0.1044 -0.1915
  122MPD2    C1 1896   2.846   4.324  13.786 -0.4093 -0.3029  0.1126
  122MPD2    C2 1897   2.813   4.355  13.652  0.4199  0.3877  0.3850
  122MPD2    C3 1898   2.910   4.390  13.560 -0.2232  0.4444  0.3631
  122MPD2    C4 1899   3.037   4.395  13.610 -0.3013 -0.7832 -0.0448
  122MPD2    C5 1900   3.078   4.348  13.738  0.2893  0.1744  0.3383
  122MPD2     H 1901   2.708   4.368  13.626  1.2714  0.3653 -2.9824
  122MPD2    H1 1902   3.108   4.445  13.545 -0.6040  0.6152  0.7204
  122MPD2    H2 1903   2.995   4.271  13.928  0.7681  2.0624  0.6083
  122MPD2    H3 1904   3.182   4.349  13.768  0.2469 -0.1699  0.4953
  122MPD2     N 1905   2.887   4.409  13.429 -0.1244 -0.0256 -0.5958
  122MPD2    H5 1906   2.965   4.413  13.364  0.8164 -0.5090  0.4896
  122MPD2    N1 1907   2.741   4.309  13.875 -0.3610  0.1391 -0.3543
  122MPD2    H7 1908   2.647   4.338  13.850 -0.6763  1.1840  1.9870
  123TMC2    C1 1909   0.779   2.923  10.823  0.4811  0.4152  0.2249
  123TMC2    C2 1910   0.849   3.028  10.876 -0.0469  0.1360 -0.6762
  123TMC2    C3 1911   0.930   3.090  10.792 -0.4909  0.4100  0.5269
  123TMC2    C4 1912   0.790   2.885  10.694  0.0265 -0.9572  0.7812
  123TMC2    C5 1913   0.870   2.951  10.611 -0.3774  0.8082  0.7214
  123TMC2    C6 1914   0.946   3.056  10.658  0.2268  0.0053  0.1432
  123TMC2     C 1915   0.684   2.852  10.913  0.0932 -0.1345 -0.1114
  123TMC2     O 1916   0.646   2.908  11.013  0.3640 -0.0468  0.4030
  123TMC2     H 1917   0.843   3.051  10.981  0.1376 -1.1807 -0.3821
  123TMC2    H1 1918   0.737   2.803  10.645 -0.4867 -0.6532  0.8330
  123TMC2    H2 1919   1.019   3.108  10.597 -0.4404 -0.1984 -0.8262
  123TMC2    C7 1920   0.889   2.886  10.482  0.2454 -0.1947 -0.0560
  123TMC2    C8 1921   1.018   3.192  10.842 -0.4036  0.0211 -0.5785
  123TMC2    O1 1922   0.872   2.766  10.474  0.3273  0.1582 -0.0307
  123TMC2    O2 1923   1.130   3.220  10.802 -0.4703 -0.1337 -0.0403
  123TMC2    O5 1924   0.950   3.268  10.930  0.4697  1.0411 -0.1592
  123TMC2    H5 1925   0.856   3.247  10.948  1.1219 -1.0440  0.8066
  124MPD2     C 1926   0.391   2.449  10.975 -0.1055 -0.4146  0.3464
  124MPD2    C1 1927   0.461   2.435  10.862 -0.0655 -0.1219  0.0351
  124MPD2    C2 1928   0.555   2.530  10.837  0.4719 -0.2713 -0.0489
  124MPD2    C3 1929   0.575   2.636  10.915 -0.0951 -0.0002  1.4512
  124MPD2    C4 1930   0.508   2.646  11.034  0.2519 -0.6443  0.0046
  124MPD2    C5 1931   0.410   2.553  11.061 -0.1060  0.7420 -0.7962
  124MPD2     H 1932   0.603   2.534  10.740  1.0593  0.3359  0.2695
  124MPD2    H1 1933   0.525   2.725  11.106 -0.4617 -0.6034  0.1310
  124MPD2    H2 1934   0.332   2.365  11.009 -0.8218 -0.5773 -1.3426
  124MPD2    H3 1935   0.356   2.546  11.154  0.7965 -0.6133 -0.3850
  124MPD2     N 1936   0.665   2.725  10.870  0.1410 -0.4690  0.7237
  124MPD2    H5 1937   0.705   2.699  10.780  0.9185  0.9239  0.6674
  124MPD2    N1 1938   0.443   2.316  10.791 -0.8560 -0.3751 -0.1747
  124MPD2    H7 1939   0.357   2.264  10.804 -1.0928  0.0310 -0.1256
  125TMC2    C1 1940   2.122   4.534   9.681 -0.8221 -0.1513  0.3333
  125TMC2    C2 1941   2.073   4.408   9.670 -0.4384 -0.2184 -0.5279
  125TMC2    C3 1942   1.943   4.388   9.624 -0.1170 -0.1302  0.3979
  125TMC2    C4 1943   2.047   4.642   9.649  0.4328 -0.3225  0.1998
  125TMC2    C5 1944   1.917   4.624   9.613  0.7755 -0.5678 -0.2578
  125TMC2    C6 1945   1.863   4.500   9.601 -0.2161  0.6116  0.5842
  125TMC2     C 1946   2.244   4.539   9.762  0.5314  0.4220  0.0035
  125TMC2     O 1947   2.271   4.439   9.834 -0.6177  0.0408 -0.2808
  125TMC2     H 1948   2.138   4.322   9.683 -1.6377 -0.8759  1.0451
  125TMC2    H1 1949   2.068   0.007   9.665 -2.1802  0.2117  0.0864
  125TMC2    H2 1950   1.767   4.481   9.556  1.1042  0.5689 -2.2164
  125TMC2    C7 1951   1.844   0.001   9.562  0.1743 -0.0244 -0.0217
  125TMC2    C8 1952   1.924   4.260   9.566  0.3213  0.4469 -0.0595
  125TMC2    O1 1953   1.723   4.729   9.569  0.1395 -0.2317 -0.4445
  125TMC2    O2 1954   2.021   4.211   9.509 -0.2964 -0.3897  0.1193
  125TMC2    O5 1955   1.848   4.202   9.665 -0.3404  0.3281  0.3746
  125TMC2    H5 1956   1.806   4.265   9.727  0.2880  2.0236 -0.9189
  126MPD1     C 1957   2.698   0.018   9.832  0.4203  0.0829 -0.3526
  126MPD1    C1 1958   2.638   0.080   9.723  0.3200 -0.1394 -0.8105
  126MPD1    C2 1959   2.512   0.042   9.695 -0.6192 -0.2888  0.4924
  126MPD1    C3 1960   2.442   4.684   9.765 -0.4561  0.4744  0.2268
  126MPD1    C4 1961   2.504   4.631   9.876  0.3864 -0.8822 -0.0689
  126MPD1    C5 1962   2.632   4.666   9.913 -0.3435  0.3497 -0.1858
  126MPD1     H 1963   2.472   0.084   9.604  1.7034  0.5187 -0.1730
  126MPD1    H1 1964   2.460   4.547   9.928 -0.4680 -0.0865  0.4727
  126MPD1    H2 1965   2.797   0.048   9.866 -0.0224  4.1906 -2.7251
  126MPD1    H3 1966   2.693   4.616   9.988 -0.8031 -2.2903 -1.5731
  126MPD1     N 1967   2.312   4.649   9.718  0.4572  0.2326 -0.3859
  126MPD1    H5 1968   2.262   4.703   9.648  0.9288 -0.3812 -1.1910
  126MPD1    N1 1969   2.706   0.180   9.651 -0.2339 -0.0151 -0.1828
  126MPD1    H6 1970   2.693   0.170   9.551  0.3121 -0.0942 -0.2450
  126MPD1    H7 1971   2.807   0.173   9.660  0.0345  2.7566 -1.2822
  127TMC2    C1 1972   2.800   3.744   9.779  0.0903 -0.0199 -0.2973
  127TMC2    C2 1973   2.881   3.744   9.888  0.1093  0.4563  0.0311
  127TMC2    C3 1974   2.896   3.627   9.953 -0.1738  0.2430  0.0238
  127TMC2    C4 1975   2.718   3.635   9.750 -0.4524 -0.0105  0.0576
  127TMC2    C5 1976   2.738   3.516   9.821  0.8465  0.0328  0.0152
  127TMC2    C6 1977   2.831   3.514   9.923  0.1830 -0.4104  0.5582
  127TMC2     C 1978   2.794   3.866   9.700 -0.0772 -0.8763  0.7406
  127TMC2     O 1979   2.865   3.960   9.732  0.1453 -0.2371 -0.4518
  127TMC2     H 1980   2.926   3.838   9.917 -2.0422  1.2610  0.7664
  127TMC2    H1 1981   2.663   3.629   9.657 -1.6777 -0.8471  0.8496
  127TMC2    H2 1982   2.838   3.416   9.969 -0.6565 -0.5939  0.2915
  127TMC2    C7 1983   2.630   3.414   9.815 -0.2477  0.8154 -0.1101
  127TMC2    C8 1984   2.968   3.616  10.081  0.1027  0.1250  0.4954
  127TMC2    O1 1985   2.609   3.364   9.708 -0.0508 -0.5338  0.2424
  127TMC2    O2 1986   2.929   3.555  10.179 -0.5777  0.3159 -0.3237
  127TMC2    O5 1987   3.071   3.695  10.070 -0.1001  0.6233 -0.5173
  127TMC2    H5 1988   3.086   3.746   9.988  1.6034  0.2228 -0.4566
  128MPD2     C 1989   2.626   3.913   9.373  0.3435 -0.5419 -0.4698
  128MPD2    C1 1990   2.715   3.940   9.472 -0.2965  0.4494 -0.2087
  128MPD2    C2 1991   2.780   4.068   9.474 -0.2882 -0.6047  0.0529
  128MPD2    C3 1992   2.779   4.150   9.364  0.5346  0.4933  0.2388
  128MPD2    C4 1993   2.703   4.110   9.254 -0.2003 -0.0813  0.4237
  128MPD2    C5 1994   2.630   3.994   9.265  0.0573 -0.3121  0.6504
  128MPD2     H 1995   2.837   4.101   9.560 -0.1601 -1.6001  0.3555
  128MPD2    H1 1996   2.688   4.163   9.161 -0.3875  0.4523  0.7564
  128MPD2    H2 1997   2.566   3.823   9.364 -0.8640  0.3113 -0.9296
  128MPD2    H3 1998   2.581   3.962   9.173 -0.8538 -0.6325  1.2529
  128MPD2     N 1999   2.855   4.267   9.368 -0.1148  0.1824  0.0281
  128MPD2    H5 2000   2.896   4.273   9.461 -2.1349  0.0162  0.9346
  128MPD2    N1 2001   2.715   3.851   9.586  0.7498 -0.2069  0.2195
  128MPD2    H7 2002   2.672   3.759   9.576 -0.4098  0.4809 -1.2466
  129TMC2    C1 2003   1.583   3.952   0.726  0.4234 -0.0658 -0.0339
  129TMC2    C2 2004   1.698   3.966   0.794 -0.3236 -0.3924  0.7351
  129TMC2    C3 2005   1.766   3.841   0.806 -0.3503  0.1675  0.0943
  129TMC2    C4 2006   1.532   3.835   0.695 -0.6167 -0.1050  0.5201
  129TMC2    C5 2007   1.590   3.723   0.735 -0.2780  0.7789 -0.3670
  129TMC2    C6 2008   1.717   3.720   0.785  0.3492 -0.1012  0.1806
  129TMC2     C 2009   1.490   4.063   0.733 -0.5604  0.6510 -0.5790
  129TMC2     O 2010   1.375   4.045   0.700  0.0607 -0.5382 -0.5481
  129TMC2     H 2011   1.754   4.058   0.799  0.1595 -0.6317 -0.2532
  129TMC2    H1 2012   1.428   3.825   0.666 -0.3464  0.8891 -0.8020
  129TMC2    H2 2013   1.758   3.624   0.815 -1.6144 -1.4892 -1.6038
  129TMC2    C7 2014   1.526   3.595   0.722 -0.2032 -0.2442  0.2842
  129TMC2    C8 2015   1.908   3.844   0.844  0.6330 -0.0053  0.1159
  129TMC2    O1 2016   1.408   3.597   0.706 -0.4576  0.0070 -0.1690
  129TMC2    O2 2017   1.956   3.929   0.920  0.3252  0.3184  0.0550
  129TMC2    O5 2018   1.983   3.743   0.800  0.2822  0.3941 -0.1305
  129TMC2    H5 2019   1.931   3.686   0.740 -0.5882  0.1414  0.8440
  130MPD2     C 2020   1.318   4.286   0.845  0.0978  0.1635  0.0478
  130MPD2    C1 2021   1.457   4.259   0.874 -1.1296 -0.4537 -0.4926
  130MPD2    C2 2022   1.510   4.329   0.983 -0.5002  0.0472 -0.3315
  130MPD2    C3 2023   1.437   4.419   1.060 -0.0949  0.1327 -0.0055
  130MPD2    C4 2024   1.303   4.442   1.025 -0.0134 -0.8017  0.3648
  130MPD2    C5 2025   1.245   4.365   0.929  0.2669 -0.0808 -0.7087
  130MPD2     H 2026   1.608   4.290   1.008 -0.8150  0.9637  2.3422
  130MPD2    H1 2027   1.235   4.507   1.079  0.6452 -0.1461  0.4028
  130MPD2    H2 2028   1.272   4.230   0.765 -1.2731  0.9546  0.2919
  130MPD2    H3 2029   1.143   4.384   0.897 -0.5184  1.7252  2.8810
  130MPD2     N 2030   1.498   4.470   1.178  0.1145  0.0023  0.4132
  130MPD2    H5 2031   1.584   4.428   1.210  0.2981  0.4513  0.5102
  130MPD2    N1 2032   1.537   4.160   0.810 -0.4738  0.2225  0.2908
  130MPD2    H7 2033   1.635   4.149   0.833 -0.7290 -3.5333 -0.3572
  131TMC2    C1 2034   0.610   2.850   9.908 -0.3976 -0.2630  0.7235
  131TMC2    C2 2035   0.544   2.954   9.965  0.1018 -0.5060 -0.2669
  131TMC2    C3 2036   0.563   3.077   9.914  0.8068 -0.5739  0.4232
  131TMC2    C4 2037   0.703   2.863   9.813  0.1948 -0.0169 -0.3936
  131TMC2    C5 2038   0.724   2.993   9.767  0.4206  0.0437 -0.5901
  131TMC2    C6 2039   0.650   3.094   9.806 -0.3538  0.2989  0.4262
  131TMC2     C 2040   0.585   2.719   9.966 -0.2953  0.8015 -0.0359
  131TMC2     O 2041   0.550   2.718  10.081  0.2512  0.1037  0.5992
  131TMC2     H 2042   0.470   2.920  10.037  0.2367  0.2112  0.2027
  131TMC2    H1 2043   0.756   2.779   9.769 -0.1469 -1.5601  2.1463
  131TMC2    H2 2044   0.642   3.193   9.762 -3.0869 -1.0093 -2.0410
  131TMC2    C7 2045   0.843   3.019   9.690  0.1790 -0.1092 -0.5216
  131TMC2    C8 2046   0.451   3.170   9.935 -0.5844 -0.1667 -0.5614
  131TMC2    O1 2047   0.893   2.919   9.636 -0.0077 -0.1528 -0.3345
  131TMC2    O2 2048   0.402   3.237   9.846 -0.1104  0.0205  0.2309
  131TMC2    O5 2049   0.395   3.159  10.057  0.0915 -0.0273  0.3231
  131TMC2    H5 2050   0.456   3.115  10.120  1.0257  0.1476 -0.4645
  132MPD2     C 2051   0.593   2.382   9.810 -0.7384  0.4271 -0.7011
  132MPD2    C1 2052   0.568   2.480   9.905  0.1856 -0.6880  0.6664
  132MPD2    C2 2053   0.530   2.427  10.031  0.1176 -0.7158 -0.5000
  132MPD2    C3 2054   0.507   2.297  10.067  0.0171  0.9575 -0.2442
  132MPD2    C4 2055   0.536   2.204   9.965  0.7581 -0.2154  0.1389
  132MPD2    C5 2056   0.581   2.247   9.841  0.5472  0.5499  0.2677
  132MPD2     H 2057   0.531   2.490  10.119 -1.8561 -0.7317 -0.4649
  132MPD2    H1 2058   0.530   2.096   9.971 -3.8665  0.0526 -0.0001
  132MPD2    H2 2059   0.640   2.407   9.715  0.3177 -0.8722 -0.5227
  132MPD2    H3 2060   0.617   2.171   9.773  0.1525 -0.5798  1.3197
  132MPD2     N 2061   0.478   2.258  10.201  0.2126 -0.3465 -0.7139
  132MPD2    H5 2062   0.494   2.322  10.278 -3.4858 -0.0034 -0.2472
  132MPD2    N1 2063   0.599   2.617   9.877  0.6258 -0.5542 -0.0997
  132MPD2    H7 2064   0.639   2.632   9.785  2.6215 -0.6376  0.7432
  133TMC2    C1 2065   4.206   2.530  10.208  0.0998 -0.4303 -0.0581
  133TMC2    C2 2066   4.333   2.525  10.169 -0.1391 -0.0941  0.5335
  133TMC2    C3 2067   4.422   2.434  10.229 -0.1173  0.1572  0.7628
  133TMC2    C4 2068   4.160   2.457  10.316 -0.0758 -0.3414  1.0833
  133TMC2    C5 2069   4.248   2.385  10.386 -0.9999 -0.3423  0.2689
  133TMC2    C6 2070   4.376   2.377  10.341  0.0906  0.3625  0.2088
  133TMC2     C 2071   4.135   2.650  10.165 -0.2383 -0.2153 -0.3793
  133TMC2     O 2072   4.201   2.750  10.137 -0.1256  0.0211 -0.1343
  133TMC2     H 2073   4.369   2.587  10.087 -0.5217  1.3521  1.4638
  133TMC2    H1 2074   4.061   2.479  10.355 -1.2305  0.1030 -2.1352
  133TMC2    H2 2075   4.444   2.304  10.383 -3.1443 -1.9310  1.4413
  133TMC2    C7 2076   4.207   2.267  10.463 -0.7927 -0.5867 -0.0691
  133TMC2    C8 2077   4.498   2.351  10.146 -0.2997  0.5435 -0.2982
  133TMC2    O1 2078   4.284   2.199  10.529  0.9084  0.2786 -0.1205
  133TMC2    O2 2079   4.476   2.228  10.133  0.3120  0.0239 -0.2112
  133TMC2    O5 2080   4.557   2.431  10.052  0.3875  0.4867  0.5577
  133TMC2    H5 2081   4.549   2.525  10.077  1.0548  0.6277  0.2463
  134MPD2     C 2082   3.772   2.708  10.164  0.2851 -0.3882 -0.2750
  134MPD2    C1 2083   3.903   2.740  10.143  0.3802 -0.7900 -0.8240
  134MPD2    C2 2084   3.932   2.869  10.102 -0.2917  0.1060  0.1149
  134MPD2    C3 2085   3.832   2.964  10.083  0.2612 -0.3025  0.9457
  134MPD2    C4 2086   3.705   2.935  10.108 -0.2022  1.0182 -0.0459
  134MPD2    C5 2087   3.671   2.801  10.140 -0.2265 -0.4464  0.2421
  134MPD2     H 2088   4.035   2.901  10.090 -0.5024  1.3908  1.7186
  134MPD2    H1 2089   3.618   3.000  10.102 -1.8841 -1.0609  1.7637
  134MPD2    H2 2090   3.745   2.611  10.204 -0.8380 -0.4192 -1.1457
  134MPD2    H3 2091   3.568   2.772  10.161  0.0962 -0.6143  1.5962
  134MPD2     N 2092   3.856   3.085  10.022 -0.2201  0.3881 -0.4486
  134MPD2    H5 2093   3.771   3.139  10.014  1.8728  3.7180 -0.1112
  134MPD2    N1 2094   4.000   2.639  10.172 -0.2293 -0.1802  0.0399
  134MPD2    H7 2095   3.960   2.546  10.183  1.1884 -1.0746 -2.1642
  135TMC2    C1 2096   2.022   0.535   9.462  0.6954 -0.0053 -0.1190
  135TMC2    C2 2097   2.134   0.456   9.505  0.4483 -0.3648  0.1431
  135TMC2    C3 2098   2.120   0.370   9.609 -0.0732 -0.6795  0.1151
  135TMC2    C4 2099   1.903   0.520   9.525 -0.0933 -0.2834  0.1144
  135TMC2    C5 2100   1.900   0.440   9.640 -0.2981 -0.3377 -0.2908
  135TMC2    C6 2101   2.005   0.357   9.678 -0.0360  0.4025  0.4846
  135TMC2     C 2102   2.034   0.633   9.355 -0.2402 -0.7792  0.8300
  135TMC2     O 2103   1.931   0.694   9.323  0.0882  0.7322 -0.3023
  135TMC2     H 2104   2.236   0.462   9.471 -0.1622 -0.7903 -1.7959
  135TMC2    H1 2105   1.815   0.568   9.485  1.8893 -0.7681 -4.8431
  135TMC2    H2 2106   1.982   0.284   9.755  1.1219  2.6623  2.9804
  135TMC2    C7 2107   1.768   0.394   9.701  0.6218 -0.4728 -1.2998
  135TMC2    C8 2108   2.211   0.255   9.612 -0.5536  0.5494 -0.2842
  135TMC2    O1 2109   1.765   0.289   9.767  0.5369  0.5977  0.2201
  135TMC2    O2 2110   2.221   0.196   9.507 -0.3427  0.3643  0.4890
  135TMC2    O5 2111   2.205   0.202   9.733  0.0573 -0.0916  0.4732
  135TMC2    H5 2112   2.217   0.273   9.800  2.3353  0.5801 -0.6268
  136MPD2     C 2113   2.113   0.783   9.121 -0.1925 -0.4811  0.1546
  136MPD2    C1 2114   2.200   0.724   9.211 -0.2404  0.3435  0.4319
  136MPD2    C2 2115   2.337   0.737   9.189 -0.3360 -0.8901 -0.3440
  136MPD2    C3 2116   2.386   0.801   9.079  0.1277  0.1544  0.1647
  136MPD2    C4 2117   2.300   0.855   8.988 -0.6943  0.0191 -0.0776
  136MPD2    C5 2118   2.164   0.847   9.009  0.3001 -0.1770  0.2300
  136MPD2     H 2119   2.401   0.691   9.264 -0.1785  2.2600  1.4517
  136MPD2    H1 2120   2.337   0.890   8.892  0.2537 -2.2590 -0.5406
  136MPD2    H2 2121   2.007   0.765   9.131 -0.3562  1.0004  1.0992
  136MPD2    H3 2122   2.096   0.874   8.929  1.4889 -0.7234 -0.9583
  136MPD2     N 2123   2.525   0.818   9.056  0.0585  0.4921 -0.6333
  136MPD2    H5 2124   2.555   0.869   8.974  0.3256 -0.3545 -1.0646
  136MPD2    N1 2125   2.163   0.642   9.318 -0.7413 -0.3217 -0.1344
  136MPD2    H7 2126   2.231   0.602   9.382  1.3219  0.1692 -1.9947
  137TMC2    C1 2127   1.997   3.395  10.354  0.3659 -0.1258 -0.2257
  137TMC2    C2 2128   2.034   3.447  10.471 -0.6596 -0.0647  0.3326
  137TMC2    C3 2129   2.126   3.547  10.473 -0.6625  0.2546 -0.3444
  137TMC2    C4 2130   2.056   3.441  10.245 -0.2896 -0.7684 -0.2193
  137TMC2    C5 2131   2.160   3.528  10.245 -0.1704 -0.0888 -0.1504
  137TMC2    C6 2132   2.196   3.584  10.359  0.1080 -0.5101 -0.6435
  137TMC2     C 2133   1.853   3.408  10.335  0.2305  0.1266 -0.2217
  137TMC2     O 2134   1.819   3.478  10.239  0.0404  0.3911  0.3411
  137TMC2     H 2135   1.989   3.408  10.562 -2.0106  0.5430 -0.0840
  137TMC2    H1 2136   2.030   3.394  10.151 -2.8155 -2.2485  1.2102
  137TMC2    H2 2137   2.273   3.661  10.363  0.4922 -0.9968  1.3138
  137TMC2    C7 2138   2.162   3.617  10.133 -0.2540  0.4688  0.1544
  137TMC2    C8 2139   2.182   3.578  10.603 -0.6813 -0.5694 -0.6828
  137TMC2    O1 2140   2.259   3.689  10.122 -0.2088 -0.1170 -0.6199
  137TMC2    O2 2141   2.304   3.582  10.623  0.6580  0.4538  0.2963
  137TMC2    O5 2142   2.093   3.675  10.640  0.1942 -0.4163 -0.4597
  137TMC2    H5 2143   2.008   3.656  10.595  0.6472  1.4147 -2.0876
  138MPD2     C 2144   1.590   3.254  10.548  0.3797 -0.0478 -0.1580
  138MPD2    C1 2145   1.650   3.344  10.463 -0.6748 -0.5876  0.6213
  138MPD2    C2 2146   1.579   3.451  10.422  0.1536 -0.1669  0.1306
  138MPD2    C3 2147   1.445   3.468  10.451  0.4954 -0.1626  0.9748
  138MPD2    C4 2148   1.383   3.372  10.524  0.0775  0.3086 -0.0871
  138MPD2    C5 2149   1.456   3.269  10.577  0.5557 -0.2494  0.1952
  138MPD2     H 2150   1.625   3.529  10.362 -1.2266 -0.2878 -1.0699
  138MPD2    H1 2151   1.275   3.359  10.528 -0.4876  4.1678 -2.8317
  138MPD2    H2 2152   1.640   3.166  10.587  0.3640  0.7033  1.5852
  138MPD2    H3 2153   1.411   3.182  10.623 -0.0975  1.4336  2.7521
  138MPD2     N 2154   1.376   3.582  10.402  0.1113 -0.5868 -0.0503
  138MPD2    H5 2155   1.430   3.647  10.346  0.6996 -1.2039 -0.2061
  138MPD2    N1 2156   1.788   3.336  10.431  0.6250 -0.0030  0.7028
  138MPD2    H7 2157   1.845   3.264  10.475 -1.6327 -1.7384  0.8177
  139TMC2    C1 2158   2.539   2.327  13.358  0.0121  0.2061 -0.5262
  139TMC2    C2 2159   2.614   2.378  13.255  0.3617  0.1194  0.1049
  139TMC2    C3 2160   2.573   2.493  13.205 -0.3781  0.2206 -0.5917
  139TMC2    C4 2161   2.432   2.386  13.417  0.1595  0.7075  0.1059
  139TMC2    C5 2162   2.392   2.501  13.353  0.1654  0.4963  0.2587
  139TMC2    C6 2163   2.459   2.546  13.250  0.5103 -0.8446 -0.2605
  139TMC2     C 2164   2.583   2.193  13.408  0.2529 -0.9500 -0.3060
  139TMC2     O 2165   2.666   2.139  13.338  0.3873 -0.4443 -0.2608
  139TMC2     H 2166   2.698   2.323  13.216  0.7679  0.5656  0.3517
  139TMC2    H1 2167   2.367   2.342  13.492 -2.4479  1.5307 -1.6560
  139TMC2    H2 2168   2.423   2.638  13.204  2.1962  0.1726  0.4804
  139TMC2    C7 2169   2.298   2.587  13.419 -0.0399 -0.3446 -0.9064
  139TMC2    C8 2170   2.667   2.558  13.113  0.4473  0.2472  1.0622
  139TMC2    O1 2171   2.251   2.678  13.354  0.7269 -0.3050  0.0468
  139TMC2    O2 2172   2.765   2.498  13.075 -0.4385 -0.7298  0.2914
  139TMC2    O5 2173   2.604   2.665  13.059  0.3390 -0.0185  0.5590
  139TMC2    H5 2174   2.641   2.694  12.973 -1.6720  1.2458  0.1114
  140MPD2     C 2175   2.475   1.994  13.692 -0.2866  0.6822  0.4086
  140MPD2    C1 2176   2.547   2.030  13.581 -0.0627  0.1495 -0.8608
  140MPD2    C2 2177   2.653   1.952  13.553 -0.3756 -0.2458  0.0151
  140MPD2    C3 2178   2.673   1.831  13.610  0.3183  0.7264 -0.0549
  140MPD2    C4 2179   2.587   1.788  13.708  0.1929 -1.0026  0.1005
  140MPD2    C5 2180   2.489   1.873  13.755 -0.0482  0.3196 -0.0876
  140MPD2     H 2181   2.728   1.976  13.477 -0.8719 -0.7825 -0.6413
  140MPD2    H1 2182   2.595   1.696  13.766  0.8696  0.4405  2.2838
  140MPD2    H2 2183   2.385   2.052  13.708 -1.2895 -1.1651  1.4155
  140MPD2    H3 2184   2.432   1.848  13.844  0.0300 -1.2578 -0.4791
  140MPD2     N 2185   2.774   1.741  13.567  0.7661  0.3796  0.4390
  140MPD2    H5 2186   2.859   1.787  13.535  1.1571 -1.0757 -0.6006
  140MPD2    N1 2187   2.517   2.154  13.518 -0.5211  0.2596 -0.0277
  140MPD2    H7 2188   2.451   2.207  13.573 -0.8753  0.7699 -0.9651
  141TMC2    C1 2189   2.679   3.664  14.755  0.0676  0.0372 -0.2566
  141TMC2    C2 2190   2.544   3.659  14.775  0.3880  0.2214 -0.1589
  141TMC2    C3 2191   2.496   3.736  14.879 -0.3227 -0.3722 -0.5998
  141TMC2    C4 2192   2.759   3.763  14.818 -0.4417 -0.0210 -0.0901
  141TMC2    C5 2193   2.698   3.844  14.910 -0.1343  0.2985 -0.0725
  141TMC2    C6 2194   2.569   3.830  14.944  0.0488 -0.9605  0.0849
  141TMC2     C 2195   2.738   3.625  14.627  0.2679 -0.5265 -0.4300
  141TMC2     O 2196   2.688   3.672  14.525  0.2076  0.5146 -0.3930
  141TMC2     H 2197   2.475   3.606  14.711  1.1919 -0.6506 -0.2969
  141TMC2    H1 2198   2.860   3.771  14.780  0.6970  2.6686  3.5519
  141TMC2    H2 2199   2.520   3.881  15.026  0.4419  1.4974 -1.2180
  141TMC2    C7 2200   2.744   3.975  14.898  0.5199  0.3684 -0.1141
  141TMC2    C8 2201   2.382   3.682  14.939  0.3253  0.3947  0.1020
  141TMC2    O1 2202   2.655   4.056  14.901  0.3459 -0.1691  0.7487
  141TMC2    O2 2203   2.360   3.564  14.917 -0.1564  0.0530  0.4267
  141TMC2    O5 2204   2.300   3.777  14.990 -0.0811 -0.3792 -0.1684
  141TMC2    H5 2205   2.309   3.874  14.984 -0.1017 -0.4195 -0.7935
  142TMC2    C1 2206   0.885   2.194   9.926  0.0867  0.7150 -0.5229
  142TMC2    C2 2207   0.970   2.183   9.818  0.6134  0.6455  0.5897
  142TMC2    C3 2208   1.032   2.300   9.783 -0.4152 -0.6153 -0.1188
  142TMC2    C4 2209   0.870   2.302   9.999 -0.4984 -0.8501  0.1611
  142TMC2    C5 2210   0.934   2.415   9.959  0.7571 -0.0257  0.4020
  142TMC2    C6 2211   1.018   2.416   9.853 -0.5226  0.7787  0.0784
  142TMC2     C 2212   0.837   2.072   9.976 -0.2426 -0.4948  0.3349
  142TMC2     O 2213   0.803   1.991   9.891 -0.0177  0.3374  0.8125
  142TMC2     H 2214   0.987   2.085   9.775  1.1458  1.8685 -2.0255
  142TMC2    H1 2215   0.811   2.305  10.090  1.4935 -1.6148  1.4824
  142TMC2    H2 2216   1.075   2.504   9.825  1.0966 -0.7112 -1.3272
  142TMC2    C7 2217   0.911   2.539  10.036  0.3037 -0.1736 -0.0608
  142TMC2    C8 2218   1.147   2.300   9.695  0.3623  0.1979  0.2363
  142TMC2    O1 2219   0.859   2.523  10.145  0.1473  0.5325  0.1425
  142TMC2    O2 2220   1.256   2.333   9.738 -0.0146 -0.4535  0.1681
  142TMC2    O5 2221   1.135   2.198   9.610 -0.5154  0.2812 -0.3849
  142TMC2    H5 2222   1.042   2.175   9.593 -1.0598  1.1903  1.3409
  143MPD2     C 2223   0.641   1.815  10.364  0.1081  0.8983 -0.5672
  143MPD2    C1 2224   0.632   1.789  10.229  0.4944  0.3917 -0.4352
  143MPD2    C2 2225   0.697   1.872  10.143 -0.4303  0.4949  0.4009
  143MPD2    C3 2226   0.771   1.983  10.194  0.4014  0.2746  0.4066
  143MPD2    C4 2227   0.789   1.999  10.331 -0.6087  0.2771 -0.1258
  143MPD2    C5 2228   0.717   1.920  10.410 -0.3970  0.4917 -0.7959
  143MPD2     H 2229   0.693   1.854  10.036 -1.1944 -1.2707  0.7255
  143MPD2    H1 2230   0.836   2.087  10.373  3.4348 -2.1040  0.3865
  143MPD2    H2 2231   0.595   1.758  10.444  1.7592  1.5432  0.8378
  143MPD2    H3 2232   0.705   1.937  10.516 -1.9319 -1.4238 -0.6620
  143MPD2     N 2233   0.831   2.081  10.115 -0.2064  0.2203 -0.2126
  143MPD2    H5 2234   0.869   2.156  10.172 -0.8757  0.8159 -0.5602
  143MPD2    N1 2235   0.559   1.679  10.185  0.5704 -0.2071 -0.1995
  143MPD2    H7 2236   0.531   1.613  10.257 -1.1426  0.0863 -0.6009
  144TMC2    C1 2237   3.682   0.816   0.708 -0.2850  0.1216 -0.0963
  144TMC2    C2 2238   3.704   0.684   0.705 -0.4481  0.5684  0.2098
  144TMC2    C3 2239   3.814   0.647   0.781  0.3029  0.3484 -0.2595
  144TMC2    C4 2240   3.757   0.911   0.774 -0.1247 -0.0623 -0.3602
  144TMC2    C5 2241   3.874   0.870   0.843 -0.0516 -0.5930  0.2628
  144TMC2    C6 2242   3.900   0.733   0.845 -0.4910 -0.1971 -0.5745
  144TMC2     C 2243   3.595   0.858   0.602  0.2655 -0.2860  0.2375
  144TMC2     O 2244   3.567   0.777   0.516 -0.1552 -0.6718 -0.2522
  144TMC2     H 2245   3.629   0.616   0.666  0.0783 -0.7702  1.5210
  144TMC2    H1 2246   3.753   1.015   0.745 -2.6231 -0.2159 -0.6183
  144TMC2    H2 2247   3.999   0.699   0.872  0.4596  0.6109 -3.0370
  144TMC2    C7 2248   3.973   0.966   0.881 -0.3351 -0.3471 -0.6922
  144TMC2    C8 2249   3.843   0.503   0.772 -0.6667  0.4031 -0.5052
  144TMC2    O1 2250   4.087   0.923   0.892  0.0991 -0.2471 -0.3573
  144TMC2    O2 2251   3.793   0.441   0.680  0.0862 -0.2842  0.3624
  144TMC2    O5 2252   3.847   0.466   0.906  0.5956 -0.1822 -0.2429
  144TMC2    H5 2253   3.872   0.546   0.956 -0.7849  0.3733 -0.4291
  145MPD2     C 2254   3.315   1.228   0.377  0.4551 -0.3276 -0.9004
  145MPD2    C1 2255   3.339   1.094   0.337  0.1356  0.9475  0.3921
  145MPD2    C2 2256   3.422   1.017   0.417 -0.0434  0.2062 -0.6053
  145MPD2    C3 2257   3.469   1.062   0.534 -0.2957 -0.0931 -0.1008
  145MPD2    C4 2258   3.446   1.196   0.568  0.0193  0.1517  0.8875
  145MPD2    C5 2259   3.377   1.279   0.485  0.3286  0.0000  0.2591
  145MPD2     H 2260   3.437   0.913   0.391  0.1360  0.4505 -1.5058
  145MPD2    H1 2261   3.494   1.237   0.656  4.2125 -2.4779 -0.1868
  145MPD2    H2 2262   3.251   1.297   0.323  0.7557 -0.0913 -0.9483
  145MPD2    H3 2263   3.376   1.382   0.519 -0.2562  0.1325 -0.1625
  145MPD2     N 2264   3.551   0.990   0.620  0.0030  0.5818  0.0375
  145MPD2    H5 2265   3.585   1.040   0.701  2.1813  0.2867 -0.6966
  145MPD2    N1 2266   3.298   1.053   0.206  0.3978  0.2407 -0.1118
  145MPD2    H7 2267   3.328   0.962   0.172  0.4660  0.7053 -1.2901
  146TMC2    C1 2268   4.389   0.202  13.032  0.4243  0.0953 -0.1995
  146TMC2    C2 2269   4.268   0.252  12.982 -0.4060 -1.1424  0.6640
  146TMC2    C3 2270   4.246   0.238  12.846  0.3855  0.4291  0.9135
  146TMC2    C4 2271   4.465   0.109  12.958  0.4133  0.4339  0.0182
  146TMC2    C5 2272   4.439   0.108  12.820 -0.5971  0.1892  1.2560
  146TMC2    C6 2273   4.332   0.171  12.766 -0.7561 -0.0472  0.3534
  146TMC2     C 2274   4.427   0.234  13.167  0.2882 -0.5025  0.4210
  146TMC2     O 2275   4.386   0.337  13.209  0.2575  0.2929 -0.0322
  146TMC2     H 2276   4.195   0.297  13.049  0.4352  0.5555  0.4552
  146TMC2    H1 2277   4.547   0.052  13.000  1.7491  1.1656 -1.6222
  146TMC2    H2 2278   4.298   0.166  12.663 -1.4933  0.9936  0.5332
  146TMC2    C7 2279   4.493   4.736  12.750  0.4076 -0.7879  0.0957
  146TMC2    C8 2280   4.106   0.232  12.800  0.5468  0.2282 -0.0447
  146TMC2    O1 2281   4.437   4.706  12.647 -0.2388  0.4408  0.2768
  146TMC2    O2 2282   4.078   0.241  12.683  0.7224  0.1394 -0.1144
  146TMC2    O5 2283   4.038   0.170  12.896 -0.4655 -0.3307 -0.6876
  146TMC2    H5 2284   4.080   0.146  12.982 -2.4306  1.4705  0.7739
  147MPD2     C 2285   0.142   4.424  12.605 -0.0646 -0.1095 -0.5612
  147MPD2    C1 2286   0.174   4.486  12.725 -0.0173 -0.5548  0.5528
  147MPD2    C2 2287   0.087   4.577  12.782 -0.0228 -0.2704 -0.0674
  147MPD2    C3 2288   4.704   4.600  12.720  0.9199  0.4508  0.1866
  147MPD2    C4 2289   4.673   4.534  12.601  0.0545  0.5661  0.7374
  147MPD2    C5 2290   0.020   4.441  12.550 -0.7945 -0.6987 -0.1985
  147MPD2     H 2291   0.105   4.627  12.877  2.3534 -2.8567  0.8363
  147MPD2    H1 2292   4.579   4.540  12.547  0.7655 -0.0912 -0.5875
  147MPD2    H2 2293   0.205   4.351  12.556 -0.0179  0.0529 -0.7421
  147MPD2    H3 2294   4.737   4.398  12.454  1.0286 -0.6562 -0.6537
  147MPD2     N 2295   4.620   4.701  12.785  0.1587  0.3299 -0.2030
  147MPD2    H5 2296   4.659   0.021  12.857  0.7110 -1.3605  0.9196
  147MPD2    N1 2297   0.292   4.447  12.791  0.1118  0.3654  0.0103
  147MPD2    H7 2298   0.358   4.382  12.748  0.0721 -0.7490  1.6220
  148TMC2    C1 2299   0.520   3.590  10.536  0.2365  0.0025 -0.3161
  148TMC2    C2 2300   0.638   3.665  10.527 -0.8346 -0.2997  0.3444
  148TMC2    C3 2301   0.760   3.589  10.514 -0.5344  0.2687  0.3063
  148TMC2    C4 2302   0.519   3.453  10.539  0.0920 -0.1618  0.1992
  148TMC2    C5 2303   0.637   3.393  10.538  0.4485  0.3311  0.4012
  148TMC2    C6 2304   0.763   3.453  10.518  0.2988  0.0065 -0.4703
  148TMC2     C 2305   0.397   3.664  10.510  1.0503  0.6178 -0.0923
  148TMC2     O 2306   0.399   3.778  10.559 -0.5151  0.3075 -0.1771
  148TMC2     H 2307   0.644   3.773  10.533  0.3169 -0.3210 -0.3185
  148TMC2    H1 2308   0.420   3.409  10.548 -0.5164  1.0173 -0.7266
  148TMC2    H2 2309   0.850   3.394  10.492 -0.4875 -0.4881 -1.9674
  148TMC2    C7 2310   0.630   3.247  10.557 -0.0411 -0.4066  0.2201
  148TMC2    C8 2311   0.869   3.662  10.453 -0.7158  0.3781 -0.0372
  148TMC2    O1 2312   0.685   3.169  10.479  0.5611  0.6718 -0.2155
  148TMC2    O2 2313   0.895   3.780  10.475 -0.5605 -0.0344 -0.5554
  148TMC2    O5 2314   0.853   3.608  10.326  0.4258 -0.3661  0.2063
  148TMC2    H5 2315   0.808   3.521  10.326  0.7521 -0.5450  1.7127
  149MPD2     C 2316   0.107   3.707  10.502  0.4920  0.1094 -0.6319
  149MPD2    C1 2317   0.173   3.616  10.422  0.0397  0.5350  0.2863
  149MPD2    C2 2318   0.104   3.535  10.330  0.5534  0.0838  0.1830
  149MPD2    C3 2319   4.701   3.540  10.320  0.4528 -0.2186  0.1396
  149MPD2    C4 2320   4.639   3.627  10.405  0.1657 -0.2448 -0.1853
  149MPD2    C5 2321   4.708   3.705  10.496 -0.2204  0.5623 -0.1603
  149MPD2     H 2322   0.161   3.463  10.272 -0.3649 -1.6831  1.4895
  149MPD2    H1 2323   4.532   3.646  10.405 -0.0561 -1.6215  1.9472
  149MPD2    H2 2324   0.148   3.754  10.591 -0.4289  0.8327 -0.5891
  149MPD2    H3 2325   4.650   3.756  10.572  0.6169 -1.0712  1.5786
  149MPD2     N 2326   4.621   3.453  10.245  0.0398  0.0695  0.1971
  149MPD2    H5 2327   4.525   3.486  10.246 -0.2827 -0.9239  1.0179
  149MPD2    N1 2328   0.311   3.595  10.432  0.0741  0.2804 -0.2800
  149MPD2    H7 2329   0.349   3.511  10.390  1.5143  0.2277  1.1170
  150TMC2    C1 2330   2.609   2.796  12.157 -0.4469  0.1669  0.4212
  150TMC2    C2 2331   2.577   2.908  12.092 -0.2336  0.8683  0.2442
  150TMC2    C3 2332   2.667   3.012  12.085  0.2587 -0.7225  0.5885
  150TMC2    C4 2333   2.707   2.791  12.246 -0.2414  0.2739  0.6736
  150TMC2    C5 2334   2.784   2.910  12.256 -0.2160  0.0010 -0.0154
  150TMC2    C6 2335   2.769   3.018  12.169  0.2312  0.0683 -0.3404
  150TMC2     C 2336   2.521   2.679  12.152 -0.4347 -0.4257  0.4755
  150TMC2     O 2337   2.539   2.583  12.223  0.2714 -0.4812  0.0984
  150TMC2     H 2338   2.482   2.912  12.039  0.8517 -0.3956 -1.7826
  150TMC2    H1 2339   2.725   2.705  12.309 -1.9281 -0.4485  0.1841
  150TMC2    H2 2340   2.835   3.104  12.172  0.2647  0.0073  0.7624
  150TMC2    C7 2341   2.901   2.926  12.353  0.4726 -0.0725  0.2089
  150TMC2    C8 2342   2.629   3.140  12.015  0.5120 -0.1196  0.0316
  150TMC2    O1 2343   2.973   3.020  12.323  0.2675 -0.6920  0.2167
  150TMC2    O2 2344   2.701   3.240  12.023  0.0403  0.7283  0.2043
  150TMC2    O5 2345   2.580   3.090  11.898 -0.0010 -0.0359 -0.7502
  150TMC2    H5 2346   2.537   3.002  11.894  0.7491 -0.3367 -2.5238
  151MPD2     C 2347   2.121   2.395  12.003  0.3872 -0.0021 -0.1056
  151MPD2    C1 2348   2.110   2.521  11.949 -0.6912 -0.6981 -0.2197
  151MPD2    C2 2349   2.212   2.615  11.970  0.3033 -0.0684 -0.2140
  151MPD2    C3 2350   2.317   2.587  12.054 -0.0216  0.1866 -0.1977
  151MPD2    C4 2351   2.326   2.453  12.106  0.4188  0.4226 -1.0404
  151MPD2    C5 2352   2.232   2.363  12.081 -0.7318  0.1309  0.0851
  151MPD2     H 2353   2.211   2.710  11.917  1.7209  0.1138  0.0691
  151MPD2    H1 2354   2.413   2.415  12.158  0.3532  0.1970 -1.0931
  151MPD2    H2 2355   2.043   2.322  11.984  1.0529 -0.0101 -2.7436
  151MPD2    H3 2356   2.243   2.265  12.127 -0.4960  0.9870  1.8126
  151MPD2     N 2357   2.417   2.688  12.067 -0.3463  0.2801 -0.1706
  151MPD2    H5 2358   2.394   2.781  12.030 -1.6496 -0.1311 -0.4156
  151MPD2    N1 2359   1.989   2.547  11.871 -0.7999  0.1378 -0.3223
  151MPD2    H7 2360   1.928   2.468  11.854 -0.0793 -0.3480 -0.5988
  152TMC2    C1 2361   2.141   2.257  12.465 -0.0981  0.0456  0.0601
  152TMC2    C2 2362   2.248   2.181  12.507 -0.4478  0.3210  0.2220
  152TMC2    C3 2363   2.369   2.236  12.532  0.1565 -0.4392 -0.9074
  152TMC2    C4 2364   2.162   2.391  12.440 -0.4156 -0.5106 -0.6037
  152TMC2    C5 2365   2.280   2.451  12.467  0.4223  0.1088 -0.6001
  152TMC2    C6 2366   2.386   2.376  12.515 -0.5592  0.2036 -0.0653
  152TMC2     C 2367   2.004   2.211  12.454  0.4164 -0.4387  0.3010
  152TMC2     O 2368   1.930   2.277  12.377  0.0129  0.0587 -0.0724
  152TMC2     H 2369   2.240   2.073  12.518  2.5508  0.1007  0.2293
  152TMC2    H1 2370   2.076   2.454  12.423 -0.5890 -1.1608 -2.2077
  152TMC2    H2 2371   2.489   2.410  12.514 -0.7250  0.6755 -1.7867
  152TMC2    C7 2372   2.296   2.595  12.448  1.0376 -1.1478 -0.1432
  152TMC2    C8 2373   2.477   2.156  12.578 -0.6712 -0.7958 -0.8532
  152TMC2    O1 2374   2.209   2.653  12.383  0.4751 -0.1882  0.2365
  152TMC2    O2 2375   2.590   2.201  12.595  0.2344 -0.2857  0.2453
  152TMC2    O5 2376   2.435   2.045  12.649 -0.0727 -1.0237  1.0052
  152TMC2    H5 2377   2.337   2.044  12.655  0.0291 -2.6885  2.3730
  153MPD2     C 2378   1.856   1.931  12.643  0.6084 -0.4827  0.4347
  153MPD2    C1 2379   1.851   2.048  12.566 -0.4542 -0.4283  0.3608
  153MPD2    C2 2380   1.729   2.094  12.521  0.3675  0.9069 -0.4063
  153MPD2    C3 2381   1.605   2.036  12.568 -0.3931 -0.7763 -0.6647
  153MPD2    C4 2382   1.611   1.928  12.651  0.0591  0.1505  0.2989
  153MPD2    C5 2383   1.733   1.881  12.688 -0.6266  0.2579 -0.6764
  153MPD2     H 2384   1.721   2.168  12.443  0.7573  1.3932  0.0091
  153MPD2    H1 2385   1.525   1.869  12.681 -1.8119  2.7144  0.0047
  153MPD2    H2 2386   1.946   1.875  12.666  2.6695  1.8279 -1.9898
  153MPD2    H3 2387   1.734   1.792  12.751 -1.9292  1.5631  1.2070
  153MPD2     N 2388   1.484   2.089  12.521 -0.3909  0.0586 -0.5485
  153MPD2    H5 2389   1.488   2.178  12.471  0.1812 -0.4926 -1.4939
  153MPD2    N1 2390   1.976   2.110  12.543  0.6766  0.0743  0.3669
  153MPD2    H7 2391   2.060   2.072  12.586  0.0467 -1.5745  0.1111
  154TMC2    C1 2392   3.982   3.295  17.582  0.2576 -0.1219  0.2554
  154TMC2    C2 2393   4.016   3.379  17.482  0.3395  0.3746 -0.2563
  154TMC2    C3 2394   3.938   3.393  17.363 -0.1621  0.0499  0.3438
  154TMC2    C4 2395   3.869   3.217  17.565  0.1705 -0.5033  0.2127
  154TMC2    C5 2396   3.797   3.213  17.447  0.2492  0.0993  0.1420
  154TMC2    C6 2397   3.834   3.303  17.354 -0.3204  0.0220  0.3086
  154TMC2     C 2398   4.018   3.329  17.717 -0.2158  0.8305  0.3256
  154TMC2     O 2399   3.935   3.292   0.046  0.2545 -0.3949  0.1690
  154TMC2     H 2400   4.097   3.449  17.495 -0.4076  1.4967 -1.5969
  154TMC2    H1 2401   3.846   3.156  17.651  0.0588 -1.8987 -0.8046
  154TMC2    H2 2402   3.763   3.334  17.278 -1.8131  2.5712  2.7778
  154TMC2    C7 2403   3.677   3.136  17.432  0.0513  0.1579 -0.3356
  154TMC2    C8 2404   3.908   3.531  17.310  0.4735  0.1882 -0.8950
  154TMC2    O1 2405   3.612   3.173  17.334  0.6218  0.1990  0.1918
  154TMC2    O2 2406   3.805   3.591  17.334 -0.1792  0.0236 -0.1943
  154TMC2    O5 2407   4.027   3.583  17.310  1.1969 -0.4424 -0.0160
  154TMC2    H5 2408   4.096   3.516  17.288  1.0588 -0.8366  0.7648
  155MPD2     C 2409   4.308   3.480   0.130 -0.4028 -0.0599  0.1617
  155MPD2    C1 2410   4.177   3.451   0.108 -0.0451 -0.2417 -0.1774
  155MPD2    C2 2411   4.089   3.472   0.207  0.9061 -0.1841  0.4570
  155MPD2    C3 2412   4.115   3.538   0.326 -0.0183 -0.1430 -0.5107
  155MPD2    C4 2413   4.247   3.566   0.338 -0.4559 -0.3537  0.0368
  155MPD2    C5 2414   4.339   3.543   0.243 -0.0367 -0.1672 -0.0936
  155MPD2     H 2415   3.985   3.454   0.179  0.5714 -0.6364  1.9893
  155MPD2    H1 2416   4.282   3.612   0.430  2.1034  1.4384 -1.8398
  155MPD2    H2 2417   4.386   3.466   0.055  0.7171 -0.2862  1.3720
  155MPD2    H3 2418   4.445   3.560   0.255 -0.0378 -0.5266  0.4356
  155MPD2     N 2419   4.011   3.565   0.420 -0.3599  0.5426 -0.9481
  155MPD2    H5 2420   3.914   3.539   0.406 -0.1373 -1.3337  0.8973
  155MPD2    N1 2421   4.133   3.397  17.739 -0.1651  0.0872 -0.0395
  155MPD2    H7 2422   4.197   3.394  17.660  1.4794  0.6214  1.2613
  156TMC2    C1 2423   1.396   4.652  11.986 -0.3801  0.7180  0.4307
  156TMC2    C2 2424   1.348   4.563  11.891 -0.1215 -0.2846  0.5526
  156TMC2    C3 2425   1.322   4.597  11.767  0.1159 -0.4382  0.5715
  156TMC2    C4 2426   1.408   0.048  11.949 -0.1005 -0.3960  0.3286
  156TMC2    C5 2427   1.370   0.087  11.826 -0.0343  0.2690  0.3040
  156TMC2    C6 2428   1.336   4.734  11.730  0.0011  0.1007  0.4545
  156TMC2     C 2429   1.478   4.611  12.100 -0.1755 -0.5907 -0.2122
  156TMC2     O 2430   1.554   4.695  12.146 -0.6649  0.4491 -0.4549
  156TMC2     H 2431   1.350   4.459  11.921  1.3126 -0.2991  0.4037
  156TMC2    H1 2432   1.440   0.117  12.026 -1.7652 -1.2350  1.7503
  156TMC2    H2 2433   1.318   0.025  11.627  0.0632 -0.3051  0.3246
  156TMC2    C7 2434   1.364   0.232  11.804 -0.0713  0.1604  0.2881
  156TMC2    C8 2435   1.290   4.497  11.677 -0.4189  0.0361 -0.1026
  156TMC2    O1 2436   1.400   0.286  11.700  0.6694  0.2558 -0.1731
  156TMC2    O2 2437   1.266   4.382  11.707 -0.4843  0.9442  0.5285
  156TMC2    O5 2438   1.322   4.531  11.551 -0.1834  0.0305 -0.6995
  156TMC2    H5 2439   1.359   4.622  11.545  1.0160 -0.3015  1.6761
  157MPD2     C 2440   1.449   4.348  12.348 -0.4317 -0.0334  0.2008
  157MPD2    C1 2441   1.510   4.438  12.271 -0.5287  0.7544  0.1881
  157MPD2    C2 2442   1.650   4.461  12.288  0.7386 -0.7211  0.0215
  157MPD2    C3 2443   1.710   4.409  12.399  0.0232  0.0472 -0.5859
  157MPD2    C4 2444   1.639   4.317  12.480 -0.2893  0.5497  0.4255
  157MPD2    C5 2445   1.513   4.282  12.448 -0.4489 -0.4885  0.3411
  157MPD2     H 2446   1.712   4.530  12.233  0.9125  0.0639  1.1848
  157MPD2    H1 2447   1.680   4.280  12.573  1.2130 -1.8254 -1.1542
  157MPD2    H2 2448   1.343   4.331  12.331  0.4109 -2.4704 -2.6234
  157MPD2    H3 2449   1.457   4.215  12.512 -0.4500 -1.6166 -0.8604
  157MPD2     N 2450   1.838   4.463  12.443  0.0203 -0.1680  0.0611
  157MPD2    H5 2451   1.885   4.530  12.383  1.4008 -1.0560  0.1474
  157MPD2    N1 2452   1.439   4.494  12.158 -0.6153  0.1612 -0.0108
  157MPD2    H7 2453   1.347   4.461  12.131 -0.8352 -0.7926  1.8876
  158TMC2    C1 2454   2.804   3.651  13.292 -0.4996 -0.0863 -0.8883
  158TMC2    C2 2455   2.892   3.759  13.262 -0.2597  0.9057  0.8313
  158TMC2    C3 2456   2.837   3.870  13.203  0.1565 -0.3557  0.4920
  158TMC2    C4 2457   2.677   3.645  13.235 -1.0721 -0.4272 -0.6700
  158TMC2    C5 2458   2.626   3.754  13.173  0.4008 -0.4484  0.1780
  158TMC2    C6 2459   2.697   3.873  13.170  0.2351  0.3998 -0.2292
  158TMC2     C 2460   2.861   3.533  13.354 -0.1493  0.1470 -0.1085
  158TMC2     O 2461   2.982   3.529  13.353 -0.3575 -0.1437  0.2422
  158TMC2     H 2462   2.994   3.755  13.297  0.4914  1.1066 -1.3106
  158TMC2    H1 2463   2.635   3.546  13.230 -0.1380 -0.9330  2.0115
  158TMC2    H2 2464   2.652   3.965  13.134  0.3787  0.1545 -1.0365
  158TMC2    C7 2465   2.486   3.764  13.143  0.1886 -0.3797 -0.5777
  158TMC2    C8 2466   2.919   3.988  13.189  0.3162  0.5401  0.3341
  158TMC2    O1 2467   2.445   3.810  13.037  0.2276 -0.0561 -0.2561
  158TMC2    O2 2468   3.034   3.989  13.230  0.4924 -0.4315 -0.1508
  158TMC2    O5 2469   2.837   4.093  13.235 -0.1422  0.3849  0.3297
  158TMC2    H5 2470   2.756   4.101  13.181  1.1049 -3.7856 -2.2187
  159MPD2     C 2471   2.865   3.109  13.647 -0.3209 -0.0009 -0.0383
  159MPD2    C1 2472   2.737   3.141  13.620 -0.1363 -0.1507 -1.2517
  159MPD2    C2 2473   2.707   3.249  13.534 -0.2378 -0.2145  0.2571
  159MPD2    C3 2474   2.807   3.317  13.472 -0.3117  0.1267 -0.5468
  159MPD2    C4 2475   2.939   3.276  13.483  0.0918 -0.0919 -0.5264
  159MPD2    C5 2476   2.965   3.183  13.586  0.1100 -0.2075 -0.7003
  159MPD2     H 2477   2.604   3.281  13.530 -0.8255 -2.1771 -0.4389
  159MPD2    H1 2478   3.025   3.323  13.437 -1.3655  1.9424 -1.1368
  159MPD2    H2 2479   2.899   3.021  13.701  0.3227  0.9801  1.1560
  159MPD2    H3 2480   3.065   3.156  13.618  1.3213  2.3259 -2.3499
  159MPD2     N 2481   2.769   3.439  13.408 -0.0922  0.1248  0.8942
  159MPD2    H5 2482   2.670   3.461  13.416 -0.6841 -0.8305 -3.6832
  159MPD2    N1 2483   2.639   3.071  13.693  0.0204  0.0562 -0.2590
  159MPD2    H7 2484   2.678   3.000  13.754 -1.4459 -0.4966  0.0391
  160TMC2    C1 2485   2.575   1.556   1.289  0.2757 -0.1024  0.1969
  160TMC2    C2 2486   2.568   1.440   1.357  0.1024  0.3225 -0.5658
  160TMC2    C3 2487   2.597   1.335   1.284  0.0111 -0.4635 -0.1882
  160TMC2    C4 2488   2.628   1.576   1.168  0.7227 -0.1884 -0.1089
  160TMC2    C5 2489   2.675   1.463   1.100 -0.6568 -0.2873 -0.5577
  160TMC2    C6 2490   2.654   1.345   1.163 -0.1682 -0.1414 -0.0426
  160TMC2     C 2491   2.514   1.670   1.363 -0.8374 -0.4136  0.0753
  160TMC2     O 2492   2.512   1.674   1.490 -0.6443 -0.2088 -0.4961
  160TMC2     H 2493   2.519   1.438   1.454 -1.3737  0.8896 -1.2923
  160TMC2    H1 2494   2.610   1.669   1.115 -1.2205 -0.2006  0.5472
  160TMC2    H2 2495   2.687   1.258   1.108 -1.8030 -0.1763 -0.9657
  160TMC2    C7 2496   2.707   1.461   0.959 -0.3285  0.0841 -1.0946
  160TMC2    C8 2497   2.552   1.202   1.328  0.2000 -0.0926 -0.3963
  160TMC2    O1 2498   2.676   1.365   0.889  0.3699 -0.3731  0.0564
  160TMC2    O2 2499   2.627   1.106   1.317  0.1923 -0.4074  0.3112
  160TMC2    O5 2500   2.420   1.184   1.307 -0.2028  0.2357 -0.3760
  160TMC2    H5 2501   2.396   1.276   1.285 -1.5826 -0.1612 -0.5500
  161MPD2     C 2502   2.430   1.950   1.431 -0.2386  0.6971 -0.3062
  161MPD2    C1 2503   2.411   1.888   1.309 -0.2692 -0.3750  0.1271
  161MPD2    C2 2504   2.339   1.968   1.212  0.3502 -0.6169  0.3231
  161MPD2    C3 2505   2.295   2.098   1.240 -0.0391 -0.4975 -0.4743
  161MPD2    C4 2506   2.320   2.152   1.367  0.1686 -0.6905 -0.1913
  161MPD2    C5 2507   2.389   2.076   1.460  0.5206  1.0228 -0.1042
  161MPD2     H 2508   2.327   1.925   1.113 -1.0875  1.1176 -0.2697
  161MPD2    H1 2509   2.284   2.251   1.394  0.3849 -0.2123 -1.6730
  161MPD2    H2 2510   2.483   1.905   1.514 -0.3575  1.2905  0.0880
  161MPD2    H3 2511   2.412   2.118   1.557 -0.4454 -4.2505  2.4248
  161MPD2     N 2512   2.216   2.175   1.146 -0.3603 -0.0915 -0.5668
  161MPD2    H5 2513   2.211   2.274   1.168  0.4282 -0.6058  1.8886
  161MPD2    N1 2514   2.456   1.757   1.275  0.0568 -0.9909  0.3723
  161MPD2    H7 2515   2.439   1.725   1.181 -0.3444 -3.7413  1.3891
  162TMC2    C1 2516   0.400   4.012   0.863  0.0337  0.2596  0.2285
  162TMC2    C2 2517   0.357   4.114   0.939 -0.6529 -0.3462  0.1263
  162TMC2    C3 2518   0.414   4.121   1.061 -0.6243  0.2546  0.3497
  162TMC2    C4 2519   0.469   3.904   0.918  0.1124 -0.6764  0.3266
  162TMC2    C5 2520   0.498   3.905   1.052 -0.1182 -0.0359 -0.3050
  162TMC2    C6 2521   0.474   4.017   1.127 -0.5176  0.3927  0.9762
  162TMC2     C 2522   0.348   3.979   0.726 -0.3159 -0.5613 -0.3310
  162TMC2     O 2523   0.381   3.872   0.684 -0.2620  0.6060  0.0236
  162TMC2     H 2524   0.314   4.199   0.889 -0.3101 -0.4594 -0.3617
  162TMC2    H1 2525   0.509   3.829   0.851 -1.0373 -1.4426  0.4980
  162TMC2    H2 2526   0.481   4.006   1.235 -0.5547  0.0966  0.9458
  162TMC2    C7 2527   0.598   3.818   1.107 -0.1173 -0.0643  0.0446
  162TMC2    C8 2528   0.356   4.220   1.149  0.1738 -0.2312  0.1151
  162TMC2    O1 2529   0.659   3.863   1.207  0.4719  0.1248  0.5700
  162TMC2    O2 2530   0.242   4.264   1.133  0.0045 -0.3640  0.3729
  162TMC2    O5 2531   0.446   4.276   1.234  0.5817  0.0693  0.4584
  162TMC2    H5 2532   0.531   4.229   1.223  1.1354  0.7294  2.0138
  163MPD2     C 2533   0.178   4.070   0.249 -0.5534 -0.4586  0.3419
  163MPD2    C1 2534   0.232   3.958   0.310  0.6932  0.3346  0.4544
  163MPD2    C2 2535   0.262   3.959   0.448 -0.2707  0.1859 -0.0520
  163MPD2    C3 2536   0.251   4.077   0.521 -0.2979  0.4847  0.2402
  163MPD2    C4 2537   0.194   4.187   0.466  0.0709  0.0442 -0.1744
  163MPD2    C5 2538   0.168   4.187   0.325 -0.0667 -0.0113  0.3290
  163MPD2     H 2539   0.276   3.861   0.491  1.0673  0.6294  0.5384
  163MPD2    H1 2540   0.175   4.278   0.523 -1.4559 -0.0248 -0.5818
  163MPD2    H2 2541   0.162   4.079   0.142  0.9020  0.5681  0.2232
  163MPD2    H3 2542   0.135   4.278   0.277  0.7742  0.6929  1.0905
  163MPD2     N 2543   0.282   4.078   0.659 -0.2434 -0.4382  0.1188
  163MPD2    H5 2544   0.265   4.163   0.712  2.3731  0.7129 -0.9118
  163MPD2    N1 2545   0.253   3.838   0.233 -0.2436  0.7140 -0.3687
  163MPD2    H7 2546   0.223   3.852   0.138 -2.8326  1.1037  0.5057
  164TMC2    C1 2547   1.092   3.086  11.220  0.5017 -0.4017  0.0875
  164TMC2    C2 2548   1.216   3.126  11.179  0.1826  0.9655  0.0475
  164TMC2    C3 2549   1.230   3.257  11.182  0.0110 -0.4513 -0.7141
  164TMC2    C4 2550   0.986   3.174  11.250 -0.0065 -0.3559 -0.5348
  164TMC2    C5 2551   1.003   3.305  11.241 -0.1170  0.3210  0.2579
  164TMC2    C6 2552   1.133   3.348  11.214 -0.8716 -0.4588  0.6765
  164TMC2     C 2553   1.059   2.943  11.206  0.3517 -0.2197  0.0340
  164TMC2     O 2554   0.958   2.918  11.270  0.1126  0.5576 -0.1407
  164TMC2     H 2555   1.303   3.065  11.155  0.8062  1.5736  0.7541
  164TMC2    H1 2556   0.885   3.135  11.255 -0.7511  1.6084 -0.4635
  164TMC2    H2 2557   1.158   3.449  11.242  0.6125 -0.6336 -0.0171
  164TMC2    C7 2558   0.898   3.399  11.256 -0.1051 -0.6559  0.2868
  164TMC2    C8 2559   1.360   3.319  11.161 -0.0540  0.2879  0.2287
  164TMC2    O1 2560   0.793   3.349  11.281  0.2541  0.4094 -0.3610
  164TMC2    O2 2561   1.397   3.380  11.064 -0.3186  0.7113 -0.2641
  164TMC2    O5 2562   1.397   3.336  11.292 -0.5214  0.5156 -1.0757
  164TMC2    H5 2563   1.334   3.287  11.349  1.2756  1.2964  1.6016
  165TMC2    C1 2564   2.194   0.657   1.310  0.5363  0.0388  0.5208
  165TMC2    C2 2565   2.075   0.610   1.268  0.4132 -0.3775  0.5006
  165TMC2    C3 2566   2.053   0.597   1.136 -0.1014  1.1456  0.0641
  165TMC2    C4 2567   2.301   0.672   1.223 -0.0655  0.1020 -0.0504
  165TMC2    C5 2568   2.275   0.651   1.086 -0.4268 -1.1075 -0.4661
  165TMC2    C6 2569   2.148   0.625   1.040  0.6887  0.8806  0.4670
  165TMC2     C 2570   2.217   0.672   1.454 -0.0850  0.2865 -0.1839
  165TMC2     O 2571   2.117   0.652   1.519  0.2506 -0.0236  0.3385
  165TMC2     H 2572   2.001   0.584   1.343  2.1443 -0.2536  2.2441
  165TMC2    H1 2573   2.404   0.685   1.255 -0.0074  0.1204 -0.2479
  165TMC2    H2 2574   2.126   0.631   0.934 -1.3835  2.1998  0.9805
  165TMC2    C7 2575   2.389   0.695   1.004  0.7184 -0.2799  0.3979
  165TMC2    C8 2576   1.955   0.505   1.085  0.1596 -0.0710  0.0298
  165TMC2    O1 2577   2.480   0.759   1.054  0.4056 -0.5875  0.1118
  165TMC2    O2 2578   1.963   0.457   0.972 -0.5438  0.0541  0.4051
  165TMC2    O5 2579   1.837   0.535   1.156 -0.6754  0.8527  0.0281
  165TMC2    H5 2580   1.856   0.608   1.218 -0.1573 -1.0764  2.1343
  166MPD2     C 2581   2.412   0.945   1.837 -0.2705 -0.2430  0.6203
  166MPD2    C1 2582   2.322   0.845   1.837  0.2220 -0.3189  0.0928
  166MPD2    C2 2583   2.302   0.774   1.718 -1.2828 -0.0503 -0.0038
  166MPD2    C3 2584   2.357   0.817   1.599  0.2339 -1.1792 -0.2571
  166MPD2    C4 2585   2.448   0.921   1.601 -0.3127  0.4999  0.5556
  166MPD2    C5 2586   2.482   0.977   1.722  0.2789 -0.2138 -0.1001
  166MPD2     H 2587   2.230   0.693   1.722  0.8296 -1.9462 -0.5257
  166MPD2    H1 2588   2.503   0.950   1.512 -1.6427  0.3426 -0.3168
  166MPD2    H2 2589   2.428   1.000   1.929  0.4195 -0.3821  0.5810
  166MPD2    H3 2590   2.557   1.056   1.718 -1.7547  1.6982 -0.6832
  166MPD2     N 2591   2.320   0.758   1.476  0.2240  0.2804  0.2394
  166MPD2    H5 2592   2.370   0.802   1.399  0.5120 -1.7348 -0.7182
  166MPD2    N1 2593   2.255   0.821   1.959 -0.1845  0.1194  0.0610
  166MPD2    H7 2594   2.272   0.885   2.036  1.7853  0.8850 -1.0045
  167TMC2    C1 2595   0.169   3.012  12.771  0.0007  0.0031  0.0018
  167TMC2    C2 2596   0.079   3.038  12.872 -0.2889 -0.2780 -0.2553
  167TMC2    C3 2597   0.052   2.933  12.957  0.3873  0.4349 -0.5029
  167TMC2    C4 2598   0.233   2.888  12.754  0.5697  0.3434 -0.2321
  167TMC2    C5 2599   0.204   2.790  12.847  0.5167  0.8033 -0.9709
  167TMC2    C6 2600   0.116   2.816  12.953 -0.0458  0.0006 -0.1897
  167TMC2     C 2601   0.215   3.134  12.709  0.2124 -0.1445 -0.6780
  167TMC2     O 2602   0.177   3.235  12.756  0.1367 -0.0089  0.5643
  167TMC2     H 2603   0.024   3.130  12.880 -2.4571 -1.3792 -2.1775
  167TMC2    H1 2604   0.316   2.886  12.684  0.4576  0.4206 -0.3680
  167TMC2    H2 2605   0.115   2.753  13.042  0.3323  1.3374  0.7542
  167TMC2    C7 2606   0.274   2.667  12.853  0.2224  0.8140  0.0322
  167TMC2    C8 2607   4.737   2.986  13.088 -0.2874 -0.2091 -0.1866
  167TMC2    O1 2608   0.274   2.609  12.962  0.2222 -0.2360  0.2371
  167TMC2    O2 2609   4.722   3.101  13.109 -0.7128 -0.0241 -0.2548
  167TMC2    O5 2610   4.728   2.887  13.182  0.3406 -0.4616 -0.2461
  167TMC2    H5 2611   4.717   2.798  13.143 -0.6598 -0.7104  0.5978
  168MPD2     C 2612   0.362   3.330  12.547  0.0729  0.2143 -0.7967
  168MPD2    C1 2613   0.333   3.201  12.508 -0.0069  0.6050  0.7928
  168MPD2    C2 2614   0.361   3.165  12.380 -0.3090 -0.2061 -0.2604
  168MPD2    C3 2615   0.397   3.259  12.287 -0.3508  0.2946  0.5602
  168MPD2    C4 2616   0.412   3.392  12.327  1.3827 -0.1496  0.5630
  168MPD2    C5 2617   0.408   3.424  12.459 -0.0229  0.7229 -0.1337
  168MPD2     H 2618   0.340   3.065  12.343 -1.7175  0.8222 -2.2255
  168MPD2    H1 2619   0.445   3.471  12.260 -1.7413  0.7646  0.0844
  168MPD2    H2 2620   0.358   3.361  12.651 -0.1614 -0.7237 -0.5296
  168MPD2    H3 2621   0.418   3.528  12.489  0.9511  0.0517  1.8759
  168MPD2     N 2622   0.407   3.230  12.153  0.0683 -0.3601  0.3287
  168MPD2    H5 2623   0.408   3.302  12.082  1.1417  0.2661  0.9812
  168MPD2    N1 2624   0.265   3.106  12.582  0.0081  0.4206  0.0640
  168MPD2    H7 2625   0.272   3.012  12.544  0.1218  0.3026  0.3747
  169MPD1     C 2626   1.753   3.355   9.240  0.1051  0.6939 -0.1791
  169MPD1    C1 2627   1.885   3.356   9.205  0.2298  0.0291 -0.2277
  169MPD1    C2 2628   1.951   3.247   9.255 -0.2823 -0.3649 -0.6482
  169MPD1    C3 2629   1.897   3.154   9.349 -0.4049  0.7282  0.1891
  169MPD1    C4 2630   1.773   3.188   9.400 -0.1939 -0.7057  0.1382
  169MPD1    C5 2631   1.702   3.279   9.343  0.1056 -1.3672 -0.1706
  169MPD1     H 2632   2.045   3.231   9.203  1.0801  0.9293  1.4158
  169MPD1    H1 2633   1.734   3.140   9.489 -0.0228  0.0980  0.6485
  169MPD1    H2 2634   1.683   3.420   9.188 -2.8420 -2.1906  0.2113
  169MPD1    H3 2635   1.600   3.300   9.370  0.2973  1.1270 -1.3727
  169MPD1     N 2636   1.976   3.049   9.396 -0.3454  0.1500  0.9732
  169MPD1    H5 2637   2.072   3.044   9.364 -0.2125 -0.4614  1.4745
  169MPD1    N1 2638   1.942   3.430   9.102  0.3020 -0.0126 -0.1539
  169MPD1    H6 2639   1.907   3.525   9.101  1.0047  0.2346 -1.0854
  169MPD1    H7 2640   2.041   3.442   9.119  0.2094  0.0401  0.3394
  170MPD1     C 2641   1.586   0.716  13.082  0.1611  0.6241  0.4885
  170MPD1    C1 2642   1.457   0.660  13.073  0.4507 -0.3712  0.2550
  170MPD1    C2 2643   1.361   0.678  13.169  0.2321 -0.0480  0.1523
  170MPD1    C3 2644   1.397   0.742  13.289  0.0610  0.2630 -0.0108
  170MPD1    C4 2645   1.524   0.791  13.296 -0.0018  0.5747 -0.2764
  170MPD1    C5 2646   1.616   0.788  13.193 -0.2236  0.4611  0.5070
  170MPD1     H 2647   1.266   0.626  13.158  0.3736 -0.3593  0.4229
  170MPD1    H1 2648   1.551   0.852  13.382 -0.3943 -0.3395  0.4923
  170MPD1    H2 2649   1.657   0.711  13.001 -0.6306 -1.6826 -0.0645
  170MPD1    H3 2650   1.716   0.830  13.199  0.4131 -0.6417 -2.7085
  170MPD1     N 2651   1.306   0.753  13.396 -0.1156 -0.3544 -0.2522
  170MPD1    H5 2652   1.210   0.725  13.378 -0.5941 -0.4853  2.5070
  170MPD1    N1 2653   1.415   0.586  12.961 -0.0243  0.0278 -0.1531
  170MPD1    H6 2654   1.482   0.524  12.916 -0.5376 -1.5891  1.3254
  170MPD1    H7 2655   1.334   0.528  12.978  1.5500 -1.8550  0.9055
  171MPD1     C 2656   3.978   1.768  15.244 -0.2728  0.1650  0.2384
  171MPD1    C1 2657   3.968   1.639  15.189 -0.0718 -0.3547 -0.1890
  171MPD1    C2 2658   4.005   1.539  15.285  0.4711 -0.4086 -0.0394
  171MPD1    C3 2659   4.068   1.565  15.406  0.2164 -0.1148  0.2657
  171MPD1    C4 2660   4.074   1.695  15.451  0.5650  0.0699  0.5473
  171MPD1    C5 2661   4.025   1.792  15.373  0.7632  0.8739  0.6755
  171MPD1     H 2662   3.988   1.437  15.252 -2.6686  0.1975 -0.2361
  171MPD1    H1 2663   4.117   1.731  15.544 -2.3899  1.6385  1.3014
  171MPD1    H2 2664   3.946   1.853  15.185  0.6997 -1.3776 -2.5163
  171MPD1    H3 2665   4.041   1.896  15.402  0.0912  1.3257 -0.5781
  171MPD1     N 2666   4.110   1.461  15.494  0.0605  0.1371 -0.6780
  171MPD1    H5 2667   4.147   1.489  15.584  2.2689 -0.6270 -1.3628
  171MPD1    N1 2668   3.871   1.619  15.087 -0.4130  0.3578 -0.4203
  171MPD1    H6 2669   3.877   1.520  15.061  3.3023  0.2896  0.5899
  171MPD1    H7 2670   3.875   1.672  15.000 -0.9278  1.2858  0.1256
  172MPD1     C 2671   3.705   0.796  17.471 -0.8171 -0.1315 -0.2777
  172MPD1    C1 2672   3.617   0.900  17.467  0.7113 -0.1956  0.6419
  172MPD1    C2 2673   3.589   0.966  17.582  0.0154 -0.1082  0.1944
  172MPD1    C3 2674   3.654   0.938  17.694  0.4546 -0.3353  0.3238
  172MPD1    C4 2675   3.736   0.827  17.704  0.0615  0.4680 -0.0498
  172MPD1    C5 2676   3.764   0.760  17.590 -0.5003 -0.3017 -0.7719
  172MPD1     H 2677   3.532   1.056  17.565  0.3743 -0.4511 -3.0198
  172MPD1    H1 2678   3.780   0.803   0.044  2.0207  0.8552 -0.8663
  172MPD1    H2 2679   3.739   0.729  17.392 -0.4854 -1.1119  0.6903
  172MPD1    H3 2680   3.834   0.679  17.605  1.2541  1.6521  1.6744
  172MPD1     N 2681   3.644   1.018   0.054 -0.4055 -0.3565 -0.4873
  172MPD1    H5 2682   3.694   0.984   0.136 -0.2950 -0.6078 -0.6585
  172MPD1    N1 2683   3.578   0.959  17.348  0.2932  0.4103 -0.0855
  172MPD1    H6 2684   3.570   0.886  17.278 -0.6148  0.4036  0.0244
  172MPD1    H7 2685   3.496   1.020  17.355 -0.8722 -0.9409 -2.0078
  173MPD1     C 2686   0.460   1.675  14.302  0.3203 -0.6675  0.4507
  173MPD1    C1 2687   0.524   1.555  14.310  0.0600  0.3038 -0.2892
  173MPD1    C2 2688   0.453   1.441  14.288 -1.1541 -0.2708  0.7636
  173MPD1    C3 2689   0.317   1.451  14.286  0.0300 -0.6848 -0.0488
  173MPD1    C4 2690   0.252   1.574  14.290  0.0223  0.0768 -0.6869
  173MPD1    C5 2691   0.324   1.686  14.279  0.0983 -0.1507 -0.0129
  173MPD1     H 2692   0.501   1.344  14.277 -3.4349 -1.4569  1.2742
  173MPD1    H1 2693   0.149   1.582  14.260 -0.8825  2.6355  3.1585
  173MPD1    H2 2694   0.525   1.761  14.291  1.1739 -1.0856  2.0973
  173MPD1    H3 2695   0.281   1.783  14.258 -0.8706 -0.7779 -0.8764
  173MPD1     N 2696   0.244   1.333  14.264 -0.5077 -0.3533 -0.8245
  173MPD1    H5 2697   0.298   1.253  14.232  0.1450 -0.4642  0.5622
  173MPD1    N1 2698   0.665   1.561  14.284  0.5663 -0.2882  0.3013
  173MPD1    H6 2699   0.711   1.643  14.322  2.3376  0.2733 -3.0161
  173MPD1    H7 2700   0.698   1.475  14.326  0.9123 -0.5084 -0.4136
  174MPD1     C 2701   0.653   0.711  14.071  0.5138 -0.2822  0.7660
  174MPD1    C1 2702   0.567   0.648  14.158 -0.5634  0.2171  0.3154
  174MPD1    C2 2703   0.441   0.703  14.168  0.3493 -0.0830  0.6751
  174MPD1    C3 2704   0.405   0.817  14.097  0.5666 -0.1270 -0.9422
  174MPD1    C4 2705   0.487   0.874  14.008  0.0294  0.0435 -0.2298
  174MPD1    C5 2706   0.609   0.820  13.996 -0.1661 -0.9462 -0.7880
  174MPD1     H 2707   0.375   0.649  14.235 -0.8113 -0.3488 -0.6884
  174MPD1    H1 2708   0.459   0.969  13.963  2.9315  1.5308  1.1341
  174MPD1    H2 2709   0.759   0.694  14.053  0.7168  0.5614  1.1598
  174MPD1    H3 2710   0.677   0.878  13.934 -0.5565 -1.4187 -1.6570
  174MPD1     N 2711   0.284   0.886  14.110 -0.1219 -0.1580  0.7421
  174MPD1    H5 2712   0.267   0.965  14.048  1.6895  1.9904  2.9470
  174MPD1    N1 2713   0.615   0.555  14.250 -0.1929 -0.1459  0.4125
  174MPD1    H6 2714   0.697   0.498  14.227  0.9987  1.8410 -0.2492
  174MPD1    H7 2715   0.542   0.494  14.286 -0.2355 -0.9659 -1.0686
  175MPD1     C 2716   3.264   1.674  15.142 -0.0318  0.5074 -0.4993
  175MPD1    C1 2717   3.364   1.612  15.207  0.1933 -0.6363  0.5375
  175MPD1    C2 2718   3.374   1.624  15.336 -0.3523 -0.8561  0.5966
  175MPD1    C3 2719   3.272   1.686  15.406 -0.9284 -0.1002 -0.7771
  175MPD1    C4 2720   3.173   1.754  15.337  0.7826 -0.6434 -1.1690
  175MPD1    C5 2721   3.170   1.747  15.205 -0.5122 -0.4625  0.0842
  175MPD1     H 2722   3.465   1.589  15.384 -1.2242 -1.1898  1.9998
  175MPD1    H1 2723   3.106   1.820  15.391  3.3858 -0.3749  1.7801
  175MPD1    H2 2724   3.257   1.680  15.034  0.4146  1.2015 -0.4896
  175MPD1    H3 2725   3.094   1.797  15.146  0.8315  2.7573  1.0612
  175MPD1     N 2726   3.272   1.696  15.546 -0.2822 -0.3228 -0.1541
  175MPD1    H5 2727   3.205   1.756  15.592  0.7145  0.6088  0.0805
  175MPD1    N1 2728   3.468   1.554  15.134 -0.4102 -0.0791 -0.0833
  175MPD1    H6 2729   3.488   1.462  15.174 -1.0382 -0.0630  0.2723
  175MPD1    H7 2730   3.453   1.549  15.034 -0.4537 -1.5883  0.0008
  176MPD1     C 2731   0.674   3.655  17.677  0.3784  0.3529  1.0197
  176MPD1    C1 2732   0.572   3.704  17.605 -0.3771 -0.2810  0.2186
  176MPD1    C2 2733   0.514   3.827  17.632 -0.5637 -0.4107 -0.6760
  176MPD1    C3 2734   0.555   3.887  17.751  0.1558 -0.1173 -0.3884
  176MPD1    C4 2735   0.665   3.840   0.066 -0.0490 -0.1979  0.1739
  176MPD1    C5 2736   0.721   3.718   0.028  0.8171 -0.0126 -0.3549
  176MPD1     H 2737   0.438   3.866  17.566  1.6432 -0.3253 -3.1733
  176MPD1    H1 2738   0.710   3.890   0.151  1.3655  1.6612 -1.6595
  176MPD1    H2 2739   0.708   3.554  17.657 -3.0363 -1.0711  2.4000
  176MPD1    H3 2740   0.807   3.677   0.080  0.2021 -0.8114  0.0352
  176MPD1     N 2741   0.498   4.015   0.018  0.3237  0.4784  0.4377
  176MPD1    H5 2742   0.445   4.064  17.703 -1.2292 -1.6095  0.1692
  176MPD1    N1 2743   0.523   3.630  17.500 -0.2217 -0.2203  0.5670
  176MPD1    H6 2744   0.518   3.528  17.502 -3.3529 -0.0894 -1.1039
  176MPD1    H7 2745   0.438   3.663  17.454 -0.4252 -1.4345  0.0750
  177MPD1     C 2746   3.767   4.530   9.590  0.2263  0.5706 -0.4188
  177MPD1    C1 2747   3.744   4.609   9.483 -0.2204 -0.9208 -0.5923
  177MPD1    C2 2748   3.616   4.617   9.426  0.4009  0.4549  0.0600
  177MPD1    C3 2749   3.511   4.557   9.489 -0.1777 -0.3116  0.4908
  177MPD1    C4 2750   3.531   4.492   9.608 -0.1162  0.1416 -0.0033
  177MPD1    C5 2751   3.657   4.472   9.647  0.1656 -0.1777 -0.2465
  177MPD1     H 2752   3.604   4.682   9.340 -1.2276 -2.3282 -1.8453
  177MPD1    H1 2753   3.455   4.453   9.675  2.1161 -3.4456  0.4122
  177MPD1    H2 2754   3.866   4.500   9.621 -0.4195  0.0071  1.0806
  177MPD1    H3 2755   3.669   4.417   9.740 -1.4504  2.6793  1.6403
  177MPD1     N 2756   3.381   4.576   9.433 -0.1550 -0.8287 -0.4417
  177MPD1    H5 2757   3.386   4.629   9.346 -0.1208 -0.9511 -0.5144
  177MPD1    N1 2758   3.852   4.668   9.423  0.8732  0.5984  0.3848
  177MPD1    H6 2759   3.926   4.681   9.492  0.9414 -0.6596  0.5389
  177MPD1    H7 2760   3.843   0.022   9.383  0.7265  1.0293  1.4093
  178MPD1     C 2761   0.156   4.351  17.145 -0.1816 -0.0656  0.2786
  178MPD1    C1 2762   0.261   4.385  17.222 -0.6784  1.0303 -0.4105
  178MPD1    C2 2763   0.375   4.442  17.163  0.7400 -0.1099 -0.7307
  178MPD1    C3 2764   0.388   4.449  17.024 -0.2852 -0.1462 -0.3252
  178MPD1    C4 2765   0.275   4.419  16.956 -0.1696 -0.7092  1.0878
  178MPD1    C5 2766   0.159   4.376  17.013  0.8264  0.6409 -0.3778
  178MPD1     H 2767   0.458   4.469  17.227 -0.2465  0.4832  0.3005
  178MPD1    H1 2768   0.263   4.433  16.849 -2.9988  0.1300  1.5332
  178MPD1    H2 2769   0.074   4.291  17.183  1.3246 -1.5261  1.2283
  178MPD1    H3 2770   0.085   4.343  16.941  1.0414  0.3282 -0.4533
  178MPD1     N 2771   0.509   4.475  16.957 -1.0553 -0.4442 -0.2508
  178MPD1    H5 2772   0.497   4.474  16.856 -0.2405 -0.1693 -0.3463
  178MPD1    N1 2773   0.263   4.344  17.358 -0.4349  0.2167 -0.0660
  178MPD1    H6 2774   0.176   4.359  17.410 -0.5525  0.3936 -0.3173
  178MPD1    H7 2775   0.333   4.388  17.418 -0.8660  2.6179 -1.3555
  179MPD1     C 2776   0.552   3.118  15.708  0.0451 -0.2488  1.0595
  179MPD1    C1 2777   0.541   3.061  15.581  0.1458 -0.1206 -0.4917
  179MPD1    C2 2778   0.569   2.924  15.570  0.8009 -0.4024 -0.0529
  179MPD1    C3 2779   0.601   2.839  15.675  0.1042  0.2127 -0.9230
  179MPD1    C4 2780   0.620   2.903  15.801 -0.2134 -0.2146 -0.3178
  179MPD1    C5 2781   0.588   3.039  15.815  1.0410 -0.4804 -0.5158
  179MPD1     H 2782   0.562   2.879  15.472 -1.1353  1.4743 -0.7648
  179MPD1    H1 2783   0.650   2.840  15.885 -0.0678  0.3324  0.0391
  179MPD1    H2 2784   0.546   3.225  15.723  0.6602 -0.1584  0.6758
  179MPD1    H3 2785   0.608   3.099  15.903 -0.0248  0.3602 -0.8484
  179MPD1     N 2786   0.644   2.704  15.675 -0.3585  0.4891 -0.3633
  179MPD1    H5 2787   0.669   2.660  15.763  0.9766 -2.9700 -2.4742
  179MPD1    N1 2788   0.530   3.140  15.468 -0.6616  0.0589 -0.2556
  179MPD1    H6 2789   0.485   3.230  15.487  1.0346  0.3807  2.2390
  179MPD1    H7 2790   0.471   3.098  15.397 -0.8574  1.2077 -0.7794
  180MPD1     C 2791   0.572   3.514  15.203 -0.4717  0.0233  0.1403
  180MPD1    C1 2792   0.593   3.646  15.181 -0.8629  0.3336 -0.1603
  180MPD1    C2 2793   0.510   3.705  15.094  0.5001 -0.0186  0.0900
  180MPD1    C3 2794   0.434   3.632  15.000 -0.1784  1.0813  0.1761
  180MPD1    C4 2795   0.418   3.495  15.010 -0.5982  0.6034 -1.2053
  180MPD1    C5 2796   0.494   3.442  15.109  0.0851  0.2953  0.1615
  180MPD1     H 2797   0.513   3.811  15.071 -0.3757 -0.8584 -4.0370
  180MPD1    H1 2798   0.358   3.434  14.944 -0.0536 -0.9689 -0.2563
  180MPD1    H2 2799   0.616   3.455  15.283  1.3979 -0.0231 -0.9212
  180MPD1    H3 2800   0.478   3.336  15.125  0.2321 -0.0386 -1.9340
  180MPD1     N 2801   0.366   3.710  14.901  0.0715  0.0395 -1.0345
  180MPD1    H5 2802   0.371   3.811  14.889 -1.4152  0.0635 -1.4690
  180MPD1    N1 2803   0.663   3.719  15.276 -0.2017  0.5504  0.6140
  180MPD1    H6 2804   0.741   3.664  15.310 -0.2261 -0.1396 -0.4583
  180MPD1    H7 2805   0.698   3.808  15.241  1.3407  0.3141  1.5703
  181MPD1     C 2806   1.416   1.068  10.542 -0.1748 -0.0573  0.1318
  181MPD1    C1 2807   1.452   1.195  10.585  0.4323 -0.8041  0.2064
  181MPD1    C2 2808   1.560   1.251  10.523 -0.9327 -0.0883 -0.6788
  181MPD1    C3 2809   1.637   1.183  10.429 -0.3965  0.8904  0.0314
  181MPD1    C4 2810   1.606   1.055  10.391 -0.3505 -0.0528 -0.4413
  181MPD1    C5 2811   1.489   1.002  10.448 -0.6487  0.2123 -0.2131
  181MPD1     H 2812   1.596   1.344  10.568 -2.0322 -1.3158  2.7422
  181MPD1    H1 2813   1.659   1.006  10.309  2.2468 -3.3817  3.2471
  181MPD1    H2 2814   1.323   1.022  10.573 -0.4804  0.5219  0.0762
  181MPD1    H3 2815   1.458   0.903  10.418 -0.4251  0.0762  0.0062
  181MPD1     N 2816   1.773   1.231  10.391 -0.5112  0.4134 -0.3395
  181MPD1    H5 2817   1.827   1.161  10.341  1.2417  0.5997  1.2970
  181MPD1    N1 2818   1.366   1.271  10.667  0.3059  0.0921 -0.0656
  181MPD1    H6 2819   1.426   1.350  10.689 -2.6829  2.0546  1.0100
  181MPD1    H7 2820   1.363   1.227  10.759 -1.2462 -2.9367 -1.5662
  182MPD1     C 2821   3.170   0.544   0.704 -0.5658 -0.0140 -0.4576
  182MPD1    C1 2822   3.243   0.595   0.600  0.3177 -0.0563 -0.2777
  182MPD1    C2 2823   3.226   0.534   0.477 -0.5713 -0.3512  0.1912
  182MPD1    C3 2824   3.145   0.426   0.461 -0.2911  0.0051 -0.2796
  182MPD1    C4 2825   3.089   0.368   0.570 -0.4721  0.4126 -0.1436
  182MPD1    C5 2826   3.094   0.433   0.689  0.8717 -0.0206  0.1972
  182MPD1     H 2827   3.276   0.580   0.393  2.4914  0.9544  2.7567
  182MPD1    H1 2828   3.024   0.282   0.562 -0.1476  0.2768 -1.2140
  182MPD1    H2 2829   3.171   0.586   0.804  1.2798  0.4720 -0.6722
  182MPD1    H3 2830   3.045   0.387   0.774  2.2911 -0.7824  0.5968
  182MPD1     N 2831   3.118   0.367   0.335  0.1835  0.2221  0.2229
  182MPD1    H5 2832   3.068   0.278   0.334  1.2603 -0.3767 -0.1085
  182MPD1    N1 2833   3.317   0.714   0.616  0.1844  0.4988 -0.4975
  182MPD1    H6 2834   3.390   0.729   0.548  0.2834  0.8103 -0.3249
  182MPD1    H7 2835   3.358   0.704   0.709  0.8547 -0.9142 -0.9589
  183MPD1     C 2836   3.697   1.684   9.676 -0.2224 -0.4140  0.0371
  183MPD1    C1 2837   3.742   1.558   9.698  0.8094 -0.5935 -0.1122
  183MPD1    C2 2838   3.642   1.458   9.699  0.2659  0.1277 -0.3716
  183MPD1    C3 2839   3.520   1.480   9.638 -0.0872 -0.2514  0.1991
  183MPD1    C4 2840   3.497   1.605   9.585 -0.5772 -0.0381 -0.2320
  183MPD1    C5 2841   3.588   1.709   9.601 -0.5338 -0.4031  0.1068
  183MPD1     H 2842   3.656   1.359   9.741 -1.9921  0.3684  0.9624
  183MPD1    H1 2843   3.408   1.641   9.536 -0.2345  0.7137 -0.3063
  183MPD1    H2 2844   3.772   1.761   9.688  0.4237 -0.7701 -1.8669
  183MPD1    H3 2845   3.554   1.807   9.569  0.6954  0.5978  1.8693
  183MPD1     N 2846   3.416   1.381   9.643  0.3439  0.0085 -0.1696
  183MPD1    H5 2847   3.435   1.295   9.694  2.3229  0.1522 -0.6503
  183MPD1    N1 2848   3.855   1.546   9.776  0.0225  0.4212  0.2821
  183MPD1    H6 2849   3.928   1.612   9.750 -0.7757  1.0481 -0.3569
  183MPD1    H7 2850   3.901   1.458   9.756  0.0764  0.5400 -0.1103
  184MPD1     C 2851   2.407   3.690   9.783  0.5108 -0.5210  0.5226
  184MPD1    C1 2852   2.350   3.689   9.657 -0.2715  0.6439 -0.3772
  184MPD1    C2 2853   2.332   3.819   9.596  0.2535  0.7208 -0.1969
  184MPD1    C3 2854   2.383   3.934   9.656  0.0686 -0.1133  0.2285
  184MPD1    C4 2855   2.443   3.927   9.774  0.4794 -0.1967  0.1766
  184MPD1    C5 2856   2.443   3.809   9.842  0.8483 -0.1554  0.4948
  184MPD1     H 2857   2.285   3.818   9.498 -0.6117 -2.5681  0.2651
  184MPD1    H1 2858   2.484   4.012   9.828 -0.5050 -0.9040  2.0173
  184MPD1    H2 2859   2.415   3.595   9.835 -1.0382 -1.7655 -1.4819
  184MPD1    H3 2860   2.496   3.799   9.936  1.4630 -1.4515  0.0187
  184MPD1     N 2861   2.386   4.063   9.586 -0.2924  0.4091  0.1201
  184MPD1    H5 2862   2.429   4.140   9.638  1.9442  0.2730 -1.5004
  184MPD1    N1 2863   2.314   3.567   9.598  0.0080 -0.6014  0.2902
  184MPD1    H6 2864   2.268   3.513   9.671 -2.2179 -0.1097 -0.7773
  184MPD1    H7 2865   2.241   3.581   9.529  0.7158  1.9480  0.0374
  185MPD1     C 2866   1.656   4.521   9.187 -0.2980 -0.1692 -0.5879
  185MPD1    C1 2867   1.749   4.618   9.189  0.1540  0.2188 -0.1511
  185MPD1    C2 2868   1.888   4.579   9.202  0.2645 -0.9112 -0.8874
  185MPD1    C3 2869   1.921   4.449   9.228 -0.0502 -0.6147  0.2248
  185MPD1    C4 2870   1.823   4.352   9.222 -0.0323 -0.0747 -0.1251
  185MPD1    C5 2871   1.693   4.387   9.203  0.1973  0.5407  0.0663
  185MPD1     H 2872   1.971   4.647   9.185 -1.5086  0.8403 -2.4528
  185MPD1    H1 2873   1.838   4.247   9.243  2.0407 -0.2824 -2.6269
  185MPD1    H2 2874   1.555   4.554   9.163  0.7493  2.1220 -1.8940
  185MPD1    H3 2875   1.625   4.304   9.187 -1.6476  2.1307 -0.3190
  185MPD1     N 2876   2.046   4.405   9.264  0.7701 -0.3556  0.4784
  185MPD1    H5 2877   2.060   4.309   9.292 -0.2650 -0.2928  1.2054
  185MPD1    N1 2878   1.717   0.006   9.147 -0.4569  0.3780 -0.3960
  185MPD1    H6 2879   1.787   0.072   9.181 -0.3323 -0.4477  0.9435
  185MPD1    H7 2880   1.629   0.041   9.183  0.1878  0.7030  0.8754
  186MPD1     C 2881   1.181   2.230  15.740  0.3839  0.3727 -0.9724
  186MPD1    C1 2882   1.192   2.341  15.650 -0.2943  0.1029  0.2773
  186MPD1    C2 2883   1.161   2.465  15.702  0.0492  0.6409 -0.9024
  186MPD1    C3 2884   1.108   2.481  15.829  0.0941  0.0042 -0.3242
  186MPD1    C4 2885   1.093   2.372  15.912  0.1663 -0.4055  0.6373
  186MPD1    C5 2886   1.132   2.247  15.863  0.4166 -0.2349 -0.1898
  186MPD1     H 2887   1.185   2.547  15.634  0.6288  1.1186 -0.1197
  186MPD1    H1 2888   1.055   2.378  16.013  1.1926  3.1512  0.8277
  186MPD1    H2 2889   1.219   2.134  15.705  1.2012 -0.7547  2.9227
  186MPD1    H3 2890   1.120   2.161  15.927  0.9791 -0.6966 -0.7055
  186MPD1     N 2891   1.079   2.610  15.897  0.3710  0.0400 -0.2513
  186MPD1    H5 2892   1.050   2.604  15.994  0.4045  0.3302 -0.2222
  186MPD1    N1 2893   1.250   2.334  15.520 -0.6604 -0.0460 -0.2503
  186MPD1    H6 2894   1.209   2.404  15.458  0.7830  1.3161  0.3111
  186MPD1    H7 2895   1.245   2.240  15.481 -0.6060  0.2780 -1.0500
  187MPD1     C 2896   0.849   0.169   0.211  0.3214 -0.4614 -0.0482
  187MPD1    C1 2897   0.714   0.118   0.224 -0.1616 -0.0842  0.1278
  187MPD1    C2 2898   0.619   0.147   0.133  0.2968 -0.3136 -0.2195
  187MPD1    C3 2899   0.659   0.246   0.033  0.0423 -0.2369 -0.2999
  187MPD1    C4 2900   0.788   0.293   0.026 -0.0306  0.2449 -0.5241
  187MPD1    C5 2901   0.884   0.249   0.108 -0.1588  0.0543 -0.5172
  187MPD1     H 2902   0.517   0.112   0.150 -0.2032  2.4024  2.3258
  187MPD1    H1 2903   0.825   0.348  17.696  0.2867  0.8555 -0.0010
  187MPD1    H2 2904   0.928   0.138   0.277  1.4035  1.0063 -0.6656
  187MPD1    H3 2905   0.981   0.296   0.097 -1.0093  1.4603 -1.9300
  187MPD1     N 2906   0.577   0.302  17.691 -0.0056 -0.3312 -0.7061
  187MPD1    H5 2907   0.604   0.380  17.632  0.0250 -2.1167 -3.0549
  187MPD1    N1 2908   0.693   0.020   0.324 -0.1783 -0.6577 -0.6111
  187MPD1    H6 2909   0.755   0.029   0.404 -0.5424 -0.0204 -0.3958
  187MPD1    H7 2910   0.597   0.016   0.359 -0.2134  1.6630 -0.4633
  188MPD1     C 2911   0.196   0.497  10.216  0.4069  0.5097 -0.3544
  188MPD1    C1 2912   0.103   0.464  10.119 -0.5695 -0.1668 -0.0537
  188MPD1    C2 2913   0.074   0.327  10.106  0.8720 -0.7151 -0.4940
  188MPD1    C3 2914   0.122   0.237  10.197  0.2762  0.1197 -0.1241
  188MPD1    C4 2915   0.219   0.272  10.286  0.3382  0.4897 -1.0428
  188MPD1    C5 2916   0.245   0.406  10.305 -0.2959 -0.3163 -0.0868
  188MPD1     H 2917   0.017   0.300  10.018 -1.5689 -1.3627  1.2805
  188MPD1    H1 2918   0.262   0.202  10.357  1.5129  0.5136 -1.7342
  188MPD1    H2 2919   0.211   0.602  10.242  0.6617  0.7100 -1.3068
  188MPD1    H3 2920   0.302   0.438  10.392  1.5917  0.0241 -1.4562
  188MPD1     N 2921   0.092   0.099  10.193  0.0007  0.3915  0.3016
  188MPD1    H5 2922   0.143   0.042  10.259  1.0368 -0.3957 -1.1853
  188MPD1    N1 2923   0.053   0.556  10.022 -0.0395 -0.0429 -0.2208
  188MPD1    H6 2924   4.706   0.524   9.979 -1.4875  1.3629  1.6695
  188MPD1    H7 2925   0.040   0.645  10.070  0.4518 -0.9652  1.6076
  189MPD1     C 2926   2.135   1.160   0.194  0.2334  0.2616  0.3775
  189MPD1    C1 2927   2.029   1.086   0.239 -0.4096  0.0538  0.3210
  189MPD1    C2 2928   1.908   1.137   0.230 -0.7093 -0.1912  0.5133
  189MPD1    C3 2929   1.891   1.275   0.209  0.8135  0.6266 -0.0437
  189MPD1    C4 2930   2.002   1.346   0.181  0.4508 -0.6692  0.2157
  189MPD1    C5 2931   2.121   1.291   0.154  0.0438  0.1782  0.0551
  189MPD1     H 2932   1.815   1.084   0.248 -0.8930 -0.1427 -0.2892
  189MPD1    H1 2933   1.990   1.451   0.155  1.2684 -0.2007  1.7553
  189MPD1    H2 2934   2.233   1.114   0.189  0.5330  1.1079 -1.4844
  189MPD1    H3 2935   2.201   1.353   0.114  0.5475 -0.2688  0.3626
  189MPD1     N 2936   1.761   1.329   0.208  0.6373 -0.2130  0.1225
  189MPD1    H5 2937   1.680   1.267   0.216 -0.7972  1.5181 -0.9714
  189MPD1    N1 2938   2.041   0.945   0.263 -0.5810 -0.5369  0.5228
  189MPD1    H6 2939   1.961   0.907   0.313  0.0621 -1.7726  0.6167
  189MPD1    H7 2940   2.135   0.930   0.299 -0.1085  0.0927 -0.4446
  190MPD1     C 2941   4.722   0.186  15.436  0.4432 -0.0498 -0.6481
  190MPD1    C1 2942   4.691   0.058  15.477 -0.3881  0.3813  0.4149
  190MPD1    C2 2943   0.057   4.711  15.500 -0.3785 -1.0320 -0.7708
  190MPD1    C3 2944   0.191   0.008  15.485 -0.2545  0.7304 -0.2422
  190MPD1    C4 2945   0.216   0.136  15.431  0.0565 -0.4806  0.1833
  190MPD1    C5 2946   0.111   0.227  15.416 -0.4603 -0.3468 -0.6139
  190MPD1     H 2947   0.021   4.613  15.529 -0.7787 -0.3637  0.9995
  190MPD1    H1 2948   0.315   0.173  15.406  0.6193 -0.8971  1.8165
  190MPD1    H2 2949   4.642   0.255  15.413 -0.2348 -1.0496 -1.2942
  190MPD1    H3 2950   0.121   0.329  15.382  3.2156  0.9239  4.2428
  190MPD1     N 2951   0.288   4.647  15.509  0.0114 -0.7454  0.0563
  190MPD1    H5 2952   0.247   4.562  15.546 -0.1512 -0.6089  0.1848
  190MPD1    N1 2953   4.561   0.018  15.518  0.1418  0.0692  0.6683
  190MPD1    H6 2954   4.561   4.656  15.508 -2.0076 -0.3496  4.7998
  190MPD1    H7 2955   4.483   0.056  15.465  2.8681  0.7326 -2.8691
  191MPD1     C 2956   0.268   0.763  13.417 -0.2755  0.3331 -0.3729
  191MPD1    C1 2957   0.276   0.786  13.279  0.1784  1.3225  0.6754
  191MPD1    C2 2958   0.161   0.836  13.213  0.1065  0.2244 -0.2505
  191MPD1    C3 2959   0.043   0.869  13.280  0.6443 -1.1909  0.4843
  191MPD1    C4 2960   0.044   0.835  13.412 -0.0958  0.1172 -0.1942
  191MPD1    C5 2961   0.156   0.796  13.477 -0.3849  0.1423  0.4338
  191MPD1     H 2962   0.158   0.865  13.109  3.3485 -0.7166 -0.6086
  191MPD1    H1 2963   4.694   0.860  13.467 -1.0628  3.6601 -3.4162
  191MPD1    H2 2964   0.355   0.740  13.478 -0.5242  1.8746  0.5604
  191MPD1    H3 2965   0.151   0.780  13.584  4.8105 -0.2846  0.5908
  191MPD1     N 2966   4.674   0.929  13.210  0.3847 -0.2026 -0.0963
  191MPD1    H5 2967   4.684   0.931  13.109  0.0815  1.7099 -0.0844
  191MPD1    N1 2968   0.397   0.749  13.211  0.0049  0.0026  0.0981
  191MPD1    H6 2969   0.476   0.756  13.274 -0.0486 -3.5392  0.5780
  191MPD1    H7 2970   0.422   0.802  13.127 -1.5917  2.7172  1.3568
  192MPD1     C 2971   3.693   0.964  13.355  0.3276 -0.3137  0.0429
  192MPD1    C1 2972   3.714   0.944  13.220  0.2070 -0.1463  0.5852
  192MPD1    C2 2973   3.838   0.985  13.173 -0.5346 -0.1339 -0.2091
  192MPD1    C3 2974   3.939   1.029  13.261  0.0753 -0.0292 -0.8408
  192MPD1    C4 2975   3.916   1.036  13.395  0.5133  0.3309  0.2882
  192MPD1    C5 2976   3.793   1.010  13.437 -0.5528 -0.4875  0.1485
  192MPD1     H 2977   3.854   0.991  13.066  1.4563 -2.2699 -0.0240
  192MPD1    H1 2978   3.984   1.076  13.470  1.1604  0.9866 -0.6361
  192MPD1    H2 2979   3.597   0.939  13.399  0.8415 -0.2979  1.1725
  192MPD1    H3 2980   3.775   1.024  13.543  1.0790 -1.6978  0.5844
  192MPD1     N 2981   4.074   1.054  13.229 -1.1869  0.0599 -0.0001
  192MPD1    H5 2982   4.130   1.095  13.302 -1.0678 -0.4052  0.1653
  192MPD1    N1 2983   3.611   0.915  13.129  0.2600 -0.0623  0.4941
  192MPD1    H6 2984   3.650   0.878  13.042 -2.2250 -1.1168 -0.1603
  192MPD1    H7 2985   3.554   0.838  13.163 -0.3499 -0.4068 -1.3078
  193MPD1     C 2986   3.879   1.502  16.569  0.5927  0.5252  0.1644
  193MPD1    C1 2987   3.816   1.609  16.624 -0.3810  0.8060 -0.3534
  193MPD1    C2 2988   3.898   1.714  16.672 -0.2045  0.0782  0.0401
  193MPD1    C3 2989   4.037   1.710  16.660 -0.2385  0.1241 -1.0449
  193MPD1    C4 2990   4.091   1.592  16.619  0.6375 -0.7460  0.1701
  193MPD1    C5 2991   4.020   1.492  16.567  0.6253 -0.8679  0.6607
  193MPD1     H 2992   3.837   1.797  16.706  0.7622  0.4875  0.7923
  193MPD1    H1 2993   4.199   1.594  16.614  0.5005  0.7405 -2.2873
  193MPD1    H2 2994   3.820   1.423  16.524  2.0988 -2.1983  2.9419
  193MPD1    H3 2995   4.077   1.403  16.541 -0.1243 -0.2937 -2.8868
  193MPD1     N 2996   4.128   1.818  16.688 -0.3595  0.1620  0.2565
  193MPD1    H5 2997   4.222   1.795  16.658 -0.0655  0.5320  0.8874
  193MPD1    N1 2998   3.678   1.624  16.623  0.0484  0.1879 -0.0065
  193MPD1    H6 2999   3.645   1.612  16.527  1.4622 -0.6402 -0.3823
  193MPD1    H7 3000   3.643   1.711  16.662 -0.0611  0.2111 -0.1556
  194MPD1     C 3001   1.957   3.949  16.439 -0.3667 -0.4809 -0.5658
  194MPD1    C1 3002   1.945   3.843  16.353 -0.8780  0.1809 -0.2164
  194MPD1    C2 3003   1.959   3.710  16.400 -0.7979  0.2236  0.1016
  194MPD1    C3 3004   1.969   3.686  16.535  0.3470 -0.2189 -0.0201
  194MPD1    C4 3005   1.945   3.796  16.611  0.9544 -0.3675  0.0283
  194MPD1    C5 3006   1.941   3.928  16.571  0.8503  0.3518  0.2750
  194MPD1     H 3007   1.956   3.624  16.335  0.2130  1.5711 -1.7290
  194MPD1    H1 3008   1.950   3.786  16.719  0.8196 -0.1230  0.0582
  194MPD1    H2 3009   1.972   4.051  16.406 -0.7584 -0.3648 -0.3852
  194MPD1    H3 3010   1.942   4.008  16.643 -1.8655  1.0903 -0.4968
  194MPD1     N 3011   1.995   3.562  16.599  0.5280  0.1267  0.2531
  194MPD1    H5 3012   2.022   3.562  16.696  0.0301 -1.5974  0.3832
  194MPD1    N1 3013   1.962   3.869  16.219  0.7865 -0.0697 -0.8757
  194MPD1    H6 3014   1.909   3.811  16.154  0.3455 -1.8241  1.0515
  194MPD1    H7 3015   1.957   3.969  16.198  0.0736  0.2877  0.9482
  195MPD1     C 3016   4.518   1.015   0.017  0.0438  0.5127  0.4718
  195MPD1    C1 3017   4.407   0.992   0.104 -0.5595  0.3984 -0.2772
  195MPD1    C2 3018   4.396   0.862   0.160  0.0570 -0.1255  0.9117
  195MPD1    C3 3019   4.481   0.760   0.128 -0.6590 -0.0180 -0.1482
  195MPD1    C4 3020   4.581   0.788   0.042 -0.7720  0.2497 -0.1028
  195MPD1    C5 3021   4.591   0.908  17.739  0.7539  0.1665 -0.3455
  195MPD1     H 3022   4.325   0.839   0.238  0.7170  0.3084  1.6276
  195MPD1    H1 3023   4.645   0.705   0.015  0.1322  1.3414 -1.2848
  195MPD1    H2 3024   4.525   1.114  17.728 -1.0085  0.7832  0.8899
  195MPD1    H3 3025   4.674   0.921  17.670 -0.5383 -1.9775 -2.2671
  195MPD1     N 3026   4.471   0.631   0.187 -0.2989  0.5783 -0.2451
  195MPD1    H5 3027   4.550   0.569   0.172 -0.2261  0.8099 -0.7984
  195MPD1    N1 3028   4.351   1.103   0.168  0.0613 -0.2674 -0.1926
  195MPD1    H6 3029   4.350   1.183   0.105  0.4878  1.4377  1.9558
  195MPD1    H7 3030   4.259   1.097   0.210  0.4022 -1.5653  0.3710
  196MPD1     C 3031   3.754   3.806   0.209  0.7992 -0.0715 -0.1379
  196MPD1    C1 3032   3.885   3.810   0.239 -0.2628  0.8561  0.6743
  196MPD1    C2 3033   3.914   3.914   0.326 -0.3724  0.8208  1.1217
  196MPD1    C3 3034   3.813   3.983   0.398  0.2200  0.3203  0.1078
  196MPD1    C4 3035   3.683   3.949   0.380 -0.2839  0.0899 -0.3162
  196MPD1    C5 3036   3.656   3.869   0.277 -0.1710 -0.0433 -0.5976
  196MPD1     H 3037   4.016   3.939   0.355  0.4912 -1.5525  0.1319
  196MPD1    H1 3038   3.604   3.986   0.445  0.5885  0.6344  0.4381
  196MPD1    H2 3039   3.724   3.727   0.141 -1.6046  0.2915  0.4973
  196MPD1    H3 3040   3.554   3.840   0.255 -0.9074  1.1865  1.1729
  196MPD1     N 3041   3.829   4.080   0.497 -0.2067  0.1065  0.0436
  196MPD1    H5 3042   3.740   4.114   0.533  0.6700  0.8280  1.5102
  196MPD1    N1 3043   3.977   3.757   0.150  0.0057 -0.7833  0.1881
  196MPD1    H6 3044   4.065   3.744   0.199  0.7310 -0.1132 -0.9521
  196MPD1    H7 3045   3.956   3.661   0.124 -0.4239 -0.6546  0.0550
  197MPD1     C 3046   4.315   1.696  17.171  0.7201 -0.1483 -0.2991
  197MPD1    C1 3047   4.273   1.804  17.253 -0.3715 -0.9395 -0.5027
  197MPD1    C2 3048   4.161   1.867  17.215 -0.0871 -0.2838 -0.7485
  197MPD1    C3 3049   4.076   1.819  17.118 -0.5899 -0.2544 -0.1199
  197MPD1    C4 3050   4.121   1.712  17.043 -0.0463 -0.3955 -0.3050
  197MPD1    C5 3051   4.237   1.649  17.071  0.4578  0.5420 -0.7859
  197MPD1     H 3052   4.137   1.960  17.265  2.0012 -0.1789  0.0157
  197MPD1    H1 3053   4.069   1.671  16.957 -0.2332  1.8819 -1.2760
  197MPD1    H2 3054   4.408   1.642  17.188  0.2055 -0.8606  0.1924
  197MPD1    H3 3055   4.284   1.572  17.011  0.3317 -0.0934 -0.0662
  197MPD1     N 3056   3.958   1.878  17.079  0.4403  0.0454  0.0223
  197MPD1    H5 3057   3.922   1.833  16.995 -1.7849  2.5150 -0.3647
  197MPD1    N1 3058   4.360   1.852  17.351  0.8112  0.6243 -0.4301
  197MPD1    H6 3059   4.303   1.892  17.425 -0.0648  0.3799 -0.9698
  197MPD1    H7 3060   4.421   1.781  17.390  1.8625  1.2337 -0.9533
  198MPD1     C 3061   0.169   0.318  14.966 -0.4364  0.3105 -0.4504
  198MPD1    C1 3062   0.268   0.364  14.885 -0.0468 -0.1299  0.0496
  198MPD1    C2 3063   0.339   0.474  14.931  0.9854  1.3704 -0.0482
  198MPD1    C3 3064   0.300   0.537  15.041 -0.6736  0.1769  0.0220
  198MPD1    C4 3065   0.190   0.499  15.117  0.2919  0.5066 -0.4157
  198MPD1    C5 3066   0.128   0.383  15.078 -0.2335 -0.3995  0.6765
  198MPD1     H 3067   0.424   0.504  14.870  1.1981 -0.5226 -0.7062
  198MPD1    H1 3068   0.155   0.548  15.207 -0.5841  2.0325 -1.5850
  198MPD1    H2 3069   0.118   0.223  14.956 -2.8907  1.3379  2.0728
  198MPD1    H3 3070   0.051   0.338  15.139  1.2329 -2.5624  0.9365
  198MPD1     N 3071   0.369   0.655  15.074  0.1398  0.1476  0.1076
  198MPD1    H5 3072   0.463   0.656  15.035  0.0199  0.1781 -0.1792
  198MPD1    N1 3073   0.315   0.271  14.795 -0.7701  0.2884 -0.4232
  198MPD1    H6 3074   0.370   0.309  14.718 -1.8134 -1.1106 -1.8601
  198MPD1    H7 3075   0.247   0.206  14.756 -0.8804  0.1116  0.0645
  199MPD1     C 3076   3.134   1.435   9.933 -0.2882  0.7414 -0.7778
  199MPD1    C1 3077   3.119   1.559   9.875  0.0105  0.3348 -0.0602
  199MPD1    C2 3078   2.999   1.618   9.871  0.3135 -0.7443 -0.1601
  199MPD1    C3 3079   2.887   1.545   9.911 -0.3481 -0.1214 -0.5077
  199MPD1    C4 3080   2.900   1.421   9.972  0.5892  0.3543 -0.6038
  199MPD1    C5 3081   3.020   1.369   9.978 -0.3572 -0.2197 -0.1535
  199MPD1     H 3082   2.990   1.721   9.839 -0.4783 -1.4750 -2.2897
  199MPD1    H1 3083   2.823   1.363  10.022  0.4929  1.4518  0.5224
  199MPD1    H2 3084   3.234   1.393   9.941 -0.9205 -0.7168 -0.4841
  199MPD1    H3 3085   3.032   1.271  10.022 -0.0113  0.3712  1.0563
  199MPD1     N 3086   2.751   1.584   9.891  0.4655  0.7214  0.4585
  199MPD1    H5 3087   2.681   1.516   9.922 -0.4373  1.0819 -0.8299
  199MPD1    N1 3088   3.230   1.635   9.841  0.6153 -0.6900  0.2321
  199MPD1    H6 3089   3.320   1.590   9.833  1.1575  0.4142  0.1142
  199MPD1    H7 3090   3.204   1.699   9.766  0.7992 -1.0018 -0.0959
  200MPD1     C 3091   1.826   1.442  14.833  0.9636  0.2995  0.1621
  200MPD1    C1 3092   1.748   1.481  14.728  0.5825  0.0380  0.9666
  200MPD1    C2 3093   1.810   1.527  14.618 -0.3503 -0.1654  0.5038
  200MPD1    C3 3094   1.950   1.536  14.609  0.0008  0.4231 -0.2630
  200MPD1    C4 3095   2.025   1.495  14.714  0.3832 -0.3347 -0.7644
  200MPD1    C5 3096   1.962   1.446  14.823  0.2154 -0.8043 -0.3679
  200MPD1     H 3097   1.753   1.555  14.530  0.1073 -0.2780  0.1749
  200MPD1    H1 3098   2.133   1.509  14.710  0.3618  0.0404 -0.1255
  200MPD1    H2 3099   1.780   1.398  14.921  0.2508  1.6798  0.4804
  200MPD1    H3 3100   2.026   1.395  14.894  0.3574  0.0932  0.1521
  200MPD1     N 3101   2.003   1.575  14.486 -0.6265 -0.4310 -0.1586
  200MPD1    H5 3102   1.939   1.597  14.410  0.7037  2.2891 -0.5197
  200MPD1    N1 3103   1.622   1.437  14.722 -0.2767 -0.7111  0.2296
  200MPD1    H6 3104   1.589   1.451  14.818  2.4542 -0.4233  1.1192
  200MPD1    H7 3105   1.573   1.510  14.670 -0.0460 -1.2025 -0.6781
  201MPD1     C 3106   3.842   0.605  13.058  0.3990 -0.0248 -0.2106
  201MPD1    C1 3107   3.967   0.559  13.021  0.5444 -0.1174 -0.4961
  201MPD1    C2 3108   4.054   0.520  13.122  0.1685  0.6713  0.2078
  201MPD1    C3 3109   4.032   0.542  13.250  0.2091 -1.2008 -0.1500
  201MPD1    C4 3110   3.908   0.598  13.283  0.5971  0.3694  0.1094
  201MPD1    C5 3111   3.811   0.621  13.189  0.3445  0.3928 -0.0543
  201MPD1     H 3112   4.149   0.480  13.090 -1.4415 -2.1671 -1.0102
  201MPD1    H1 3113   3.889   0.616  13.389  1.4818  0.3247  0.2709
  201MPD1    H2 3114   3.775   0.626  12.975 -1.5837 -2.2736  0.8414
  201MPD1    H3 3115   3.715   0.657  13.226  0.2134  1.0621 -1.0479
  201MPD1     N 3116   4.130   0.491  13.338  0.3896 -0.0638 -0.6068
  201MPD1    H5 3117   4.205   0.434  13.299  0.7775  2.2548 -3.2327
  201MPD1    N1 3118   4.008   0.535  12.891 -0.3002 -0.5282  0.1788
  201MPD1    H6 3119   3.953   0.578  12.817  0.4762  1.5521  0.8068
  201MPD1    H7 3120   4.107   0.523  12.866  0.7060  1.5695  3.2443
  202MPD1     C 3121   4.154   1.031   9.439  0.0868 -0.5004 -0.4044
  202MPD1    C1 3122   4.246   0.940   9.488 -0.7119  0.3770 -0.3569
  202MPD1    C2 3123   4.198   0.878   9.603  0.1417  0.5873  0.6378
  202MPD1    C3 3124   4.063   0.863   9.628 -0.0402 -0.1984 -0.3821
  202MPD1    C4 3125   3.971   0.946   9.569 -0.5089  0.1434  0.3138
  202MPD1    C5 3126   4.020   1.040   9.481  0.3756 -0.4698 -0.3363
  202MPD1     H 3127   4.277   0.828   9.659 -0.9889  0.9958  2.5852
  202MPD1    H1 3128   3.866   0.936   9.594 -0.7110 -0.0904 -0.6221
  202MPD1    H2 3129   4.180   1.101   9.360  2.2232 -1.0060 -0.1408
  202MPD1    H3 3130   3.964   1.122   9.438  1.2178  0.2413 -0.0729
  202MPD1     N 3131   4.006   0.767   9.719  0.7043  0.4673 -0.0292
  202MPD1    H5 3132   3.905   0.763   9.728  0.4861 -1.8279 -3.7012
  202MPD1    N1 3133   4.383   0.971   9.489  0.5114  0.0756 -0.2135
  202MPD1    H6 3134   4.400   1.001   9.393  1.9128 -0.4979 -0.1530
  202MPD1    H7 3135   4.431   0.884   9.510 -2.5927 -1.1552  1.7075
  203MPD1     C 3136   2.831   1.286  12.833 -0.7905  0.2289 -0.4723
  203MPD1    C1 3137   2.761   1.234  12.728  0.4643 -0.6831 -0.6895
  203MPD1    C2 3138   2.815   1.128  12.665 -0.0091  0.0948  0.4014
  203MPD1    C3 3139   2.923   1.062  12.713  0.8398 -0.3025  0.2714
  203MPD1    C4 3140   2.986   1.102  12.827  0.2956  0.4919  0.5852
  203MPD1    C5 3141   2.943   1.220  12.880  0.5561  0.0343 -0.1475
  203MPD1     H 3142   2.784   1.101  12.565 -0.3801  1.6507  0.0973
  203MPD1    H1 3143   3.070   1.050  12.872 -1.9622 -0.9689  3.1268
  203MPD1    H2 3144   2.798   1.374  12.887  1.1065 -0.2684  1.5097
  203MPD1    H3 3145   2.988   1.260  12.971  0.6443  0.6609 -0.4656
  203MPD1     N 3146   2.953   0.938  12.647  1.2083  0.3240 -0.1855
  203MPD1    H5 3147   2.884   0.897  12.584  0.4366  2.6972 -0.9074
  203MPD1    N1 3148   2.641   1.295  12.690 -0.5157 -0.0058  0.2980
  203MPD1    H6 3149   2.588   1.345  12.762  1.4158  1.6278  0.5915
  203MPD1    H7 3150   2.584   1.238  12.629  3.0827 -2.3330 -0.9035
  204MPD1     C 3151   1.697   2.805  17.271 -0.0950  0.2909 -0.1628
  204MPD1    C1 3152   1.761   2.786  17.153  0.8202  0.5797 -0.7264
  204MPD1    C2 3153   1.846   2.671  17.151 -0.0541  0.5010  0.7685
  204MPD1    C3 3154   1.862   2.588  17.255 -0.2667 -0.0313 -0.1486
  204MPD1    C4 3155   1.796   2.609  17.364 -0.0012 -0.0470  0.9790
  204MPD1    C5 3156   1.717   2.721  17.375  0.2635 -0.4791  0.4571
  204MPD1     H 3157   1.893   2.649  17.056 -0.7891 -0.4808  0.6375
  204MPD1    H1 3158   1.799   2.547  17.453 -3.0496  0.7505  1.6430
  204MPD1    H2 3159   1.635   2.893  17.281  1.4964  1.2936  0.9107
  204MPD1    H3 3160   1.676   2.741  17.473  1.0074 -1.0177  0.8716
  204MPD1     N 3161   1.958   2.482  17.243 -0.2549 -0.1221 -0.4551
  204MPD1    H5 3162   2.006   2.468  17.155  3.0178 -0.7811  1.4250
  204MPD1    N1 3163   1.741   2.877  17.040 -0.0790 -0.3071 -0.3093
  204MPD1    H6 3164   1.645   2.911  17.029 -0.1525 -0.2576  0.4456
  204MPD1    H7 3165   1.773   2.846  16.949  0.6555  0.4694 -0.3094
  205MPD1     C 3166   1.438   1.019  17.224  0.3984  0.5699  0.2712
  205MPD1    C1 3167   1.540   0.922  17.230 -0.6260  0.0756 -0.3065
  205MPD1    C2 3168   1.671   0.952  17.260 -0.0395  0.1748  0.6198
  205MPD1    C3 3169   1.703   1.081  17.281 -0.4899  0.6033  0.0830
  205MPD1    C4 3170   1.605   1.176  17.268 -0.1454  0.1995 -0.3416
  205MPD1    C5 3171   1.476   1.149  17.238  1.3891  0.4374 -0.1957
  205MPD1     H 3172   1.739   0.868  17.252 -0.4340  0.1299 -2.1261
  205MPD1    H1 3173   1.636   1.280  17.268  0.3613  0.0583  1.0052
  205MPD1    H2 3174   1.334   0.995  17.204  0.0307  1.0337  1.6750
  205MPD1    H3 3175   1.407   1.232  17.229 -0.4840 -0.8318  2.3242
  205MPD1     N 3176   1.839   1.130  17.295  0.1753 -0.1969 -0.9680
  205MPD1    H5 3177   1.852   1.231  17.288  2.1781 -0.2301  2.6231
  205MPD1    N1 3178   1.506   0.790  17.183  0.2258  0.3180  0.0314
  205MPD1    H6 3179   1.409   0.762  17.190  0.4272 -1.2436 -3.5016
  205MPD1    H7 3180   1.569   0.713  17.207  2.7182  1.2597 -3.5770
  206MPD1     C 3181   2.258   4.392  16.835  0.1895  0.4456  0.0137
  206MPD1    C1 3182   2.252   4.263  16.874  0.0982  0.0375  0.8271
  206MPD1    C2 3183   2.275   4.163  16.782 -0.0724 -0.6837 -0.1297
  206MPD1    C3 3184   2.295   4.197  16.650 -0.6127  0.2184 -0.2197
  206MPD1    C4 3185   2.286   4.326  16.605  1.3755  0.3604  0.5173
  206MPD1    C5 3186   2.261   4.424  16.700 -0.3847 -0.3917  0.4060
  206MPD1     H 3187   2.280   4.060  16.816  0.6931 -0.1403  1.3713
  206MPD1    H1 3188   2.306   4.358  16.503  2.4681 -0.6700  0.4017
  206MPD1    H2 3189   2.245   4.467  16.913  0.2096  1.8701 -1.3526
  206MPD1    H3 3190   2.256   4.529  16.674  0.6295 -0.4512 -0.0456
  206MPD1     N 3191   2.316   4.097  16.548  0.8147  0.1871 -0.2836
  206MPD1    H5 3192   2.328   4.139  16.457 -0.8397 -2.4954 -1.7295
  206MPD1    N1 3193   2.236   4.218  17.006  0.2339  0.4263 -0.4398
  206MPD1    H6 3194   2.198   4.125  17.021 -1.5693  1.0191 -1.3315
  206MPD1    H7 3195   2.190   4.281  17.071 -2.5939 -0.0369 -2.0180
  207MPD1     C 3196   4.720   1.115   9.443 -0.0418  0.6795  0.3606
  207MPD1    C1 3197   4.685   1.236   9.494 -0.1676  0.5117 -0.3080
  207MPD1    C2 3198   0.010   1.278   9.613 -0.5411  0.0612  0.1058
  207MPD1    C3 3199   0.106   1.204   9.675 -0.2918 -0.5392 -0.4585
  207MPD1    C4 3200   0.135   1.079   9.624 -0.1534 -0.2902  0.3779
  207MPD1    C5 3201   0.069   1.034   9.512 -0.6630 -0.2124  0.2536
  207MPD1     H 3202   4.732   1.378   9.651 -1.4922 -0.0050 -0.1551
  207MPD1    H1 3203   0.215   1.016   9.661  0.2653 -0.4569 -0.8070
  207MPD1    H2 3204   4.676   1.065   9.358  0.7224 -2.4469  1.8079
  207MPD1    H3 3205   0.087   0.936   9.470 -1.0594 -1.1219  2.2159
  207MPD1     N 3206   0.183   1.250   9.779  0.0530 -0.2555 -0.7232
  207MPD1    H5 3207   0.251   1.185   9.816 -0.4901 -0.0992  0.5486
  207MPD1    N1 3208   4.582   1.319   9.437  0.5751 -0.3102 -0.1030
  207MPD1    H6 3209   4.569   1.306   9.337  0.3007 -0.7363 -0.0095
  207MPD1    H7 3210   4.600   1.419   9.447  2.7101 -0.7605  0.6630
  208MPD1     C 3211   1.456   4.530  17.242  0.1354  0.8247 -0.6216
  208MPD1    C1 3212   1.499   4.522  17.377 -0.4260  0.0163 -0.2977
  208MPD1    C2 3213   1.625   4.572  17.404 -0.2876 -1.0056 -0.0131
  208MPD1    C3 3214   1.713   4.622  17.307  0.5704  0.2478 -0.3968
  208MPD1    C4 3215   1.675   4.611  17.177 -0.5647 -0.6384 -0.2969
  208MPD1    C5 3216   1.554   4.573  17.145  0.9356 -0.2606  0.3930
  208MPD1     H 3217   1.656   4.569  17.508 -1.8814 -3.5782  0.3801
  208MPD1    H1 3218   1.744   4.649  17.102 -0.1889  3.6851  2.2192
  208MPD1    H2 3219   1.353   4.503  17.223  0.2883 -0.7235  0.7412
  208MPD1    H3 3220   1.518   4.582  17.043 -1.9514  2.1784  1.6099
  208MPD1     N 3221   1.843   4.667  17.344  0.1051  0.0180  0.9095
  208MPD1    H5 3222   1.867   4.650  17.441  3.2140 -5.1213 -0.7784
  208MPD1    N1 3223   1.409   4.486  17.486  0.3815  0.5317  0.0421
  208MPD1    H6 3224   1.342   4.417  17.452  0.3476  1.2832 -1.4261
  208MPD1    H7 3225   1.472   4.442  17.552 -0.5419 -0.0376  0.5413
  209MPD1     C 3226   0.364   0.052  11.155 -0.0482  0.4801  0.0210
  209MPD1    C1 3227   0.329   0.159  11.235  0.7014  0.3541 -0.5039
  209MPD1    C2 3228   0.359   0.283  11.195  0.3583 -0.0844  0.1374
  209MPD1    C3 3229   0.433   0.305  11.080  1.0935 -0.9419 -0.6255
  209MPD1    C4 3230   0.475   0.198  11.005 -0.0586 -0.4504  0.1396
  209MPD1    C5 3231   0.436   0.072  11.039  0.3102  0.1798 -0.5647
  209MPD1     H 3232   0.324   0.379  11.233 -0.6609  0.8210 -3.0754
  209MPD1    H1 3233   0.532   0.209  10.914 -0.2325 -2.2181 -0.1843
  209MPD1    H2 3234   0.338   4.688  11.171  1.0171  0.2573  0.3345
  209MPD1    H3 3235   0.461   4.728  10.976 -2.5957 -1.7171  0.7824
  209MPD1     N 3236   0.452   0.446  11.047 -0.0603 -0.6770 -0.4597
  209MPD1    H5 3237   0.425   0.507  11.123  0.6374 -2.5547  1.3140
  209MPD1    N1 3238   0.238   0.138  11.342  0.1560 -0.1983 -0.7534
  209MPD1    H6 3239   0.265   0.210  11.410 -0.6537  0.6343 -1.3098
  209MPD1    H7 3240   0.257   0.049  11.387 -0.7223  1.1712  2.3055
  210MPD1     C 3241   0.513   1.333  11.455  0.6243 -0.1456 -0.4179
  210MPD1    C1 3242   0.571   1.208  11.464 -0.4263 -0.4956 -0.2010
  210MPD1    C2 3243   0.553   1.114  11.362  0.6034 -0.0896  0.8074
  210MPD1    C3 3244   0.500   1.152  11.242  0.4589 -0.0070 -0.1956
  210MPD1    C4 3245   0.444   1.278  11.235  0.0814  0.3827  0.2502
  210MPD1    C5 3246   0.441   1.366  11.336 -0.5093 -0.4153  0.3698
  210MPD1     H 3247   0.609   1.022  11.369  1.6734  0.4626 -0.5076
  210MPD1    H1 3248   0.399   1.312  11.142 -0.3448 -2.6895 -0.6635
  210MPD1    H2 3249   0.521   1.405  11.535 -0.4089  0.1132 -0.5453
  210MPD1    H3 3250   0.381   1.456  11.332 -1.6367 -1.1528  0.6884
  210MPD1     N 3251   0.495   1.057  11.125  0.3963  0.0290  0.0700
  210MPD1    H5 3252   0.461   1.096  11.037  3.1949  0.5556 -0.7744
  210MPD1    N1 3253   0.645   1.179  11.575  0.1575  0.2517  0.2411
  210MPD1    H6 3254   0.701   1.095  11.562  0.4904  0.6284 -0.7262
  210MPD1    H7 3255   0.704   1.257  11.602  2.6196 -0.3219 -3.4060
  211MPD1     C 3256   2.987   0.031  16.406 -0.2235 -0.3846  0.2740
  211MPD1    C1 3257   2.940   0.142  16.471 -0.2637  0.1907 -0.3150
  211MPD1    C2 3258   2.808   0.179  16.456 -0.3044  0.2178 -0.6665
  211MPD1    C3 3259   2.724   0.131  16.355 -0.7383 -0.0380  0.2918
  211MPD1    C4 3260   2.784   0.026  16.282 -0.1914 -0.1213 -0.7872
  211MPD1    C5 3261   2.905   4.722  16.307  0.7428  0.0388 -0.2480
  211MPD1     H 3262   2.760   0.251  16.522  0.2434 -1.6024  1.7210
  211MPD1    H1 3263   2.727   4.709  16.210  0.2050  0.1713 -1.3312
  211MPD1    H2 3264   3.085   4.729  16.428 -0.7567 -1.8537 -0.1286
  211MPD1    H3 3265   2.942   4.640  16.247  1.1406 -0.3504  0.5177
  211MPD1     N 3266   2.594   0.185  16.342 -0.2394  0.4777 -0.0040
  211MPD1    H5 3267   2.573   0.265  16.400  0.9422  1.5583 -1.0618
  211MPD1    N1 3268   3.008   0.199  16.575  0.1711 -0.3719  0.0114
  211MPD1    H6 3269   2.991   0.298  16.593 -1.6958 -0.0493 -3.5178
  211MPD1    H7 3270   3.109   0.183  16.571  0.5431  1.8202  0.3266
  212MPD1     C 3271   1.826   3.821  15.805  0.6565 -0.2288  0.5332
  212MPD1    C1 3272   1.755   3.906  15.882 -0.0601 -0.5481  0.1221
  212MPD1    C2 3273   1.713   3.868  16.010  0.2137  0.0303  0.4729
  212MPD1    C3 3274   1.738   3.731  16.050 -0.0920 -0.3259  0.2392
  212MPD1    C4 3275   1.813   3.651  15.973  0.2163 -0.9440 -0.6881
  212MPD1    C5 3276   1.855   3.696  15.851  0.1740  0.2921  0.1363
  212MPD1     H 3277   1.646   3.927  16.070 -0.6143  0.9389 -1.3359
  212MPD1    H1 3278   1.853   3.556  16.008  0.9185 -0.7862 -1.0628
  212MPD1    H2 3279   1.861   3.846  15.706 -1.0482 -1.9676 -0.4927
  212MPD1    H3 3280   1.918   3.636  15.786 -0.3662  0.0932 -0.2030
  212MPD1     N 3281   1.686   3.668  16.167  0.3069 -0.1575 -0.5556
  212MPD1    H5 3282   1.696   3.568  16.178  0.9280  0.2324  2.4824
  212MPD1    N1 3283   1.700   4.022  15.827 -0.0490 -0.0025 -0.2555
  212MPD1    H6 3284   1.749   4.069  15.751  1.5946 -2.1700 -0.5333
  212MPD1    H7 3285   1.692   4.098  15.894 -1.4511 -0.2830 -0.1093
  213MPD1     C 3286   0.175   4.313  15.798  0.0346  0.4974  0.8142
  213MPD1    C1 3287   0.196   4.215  15.705 -0.2970  0.0098 -0.2931
  213MPD1    C2 3288   0.100   4.217  15.604 -0.5593  0.3104  0.2588
  213MPD1    C3 3289   4.739   4.312  15.586 -0.2763 -0.6178 -0.6503
  213MPD1    C4 3290   4.723   4.411  15.681  0.2125  0.7209  0.2791
  213MPD1    C5 3291   0.073   4.406  15.786 -0.3759  0.0673  0.4633
  213MPD1     H 3292   0.093   4.129  15.541  0.7836 -0.2420  0.8733
  213MPD1    H1 3293   4.642   4.483  15.682 -0.8680 -0.4855 -0.4607
  213MPD1    H2 3294   0.233   4.313  15.890 -1.9566  2.3612  2.0717
  213MPD1    H3 3295   0.067   4.475  15.870 -1.1991 -1.4523  1.6483
  213MPD1     N 3296   4.651   4.289  15.476 -0.2998  0.5799 -0.2632
  213MPD1    H5 3297   4.677   4.209  15.420  0.9249  0.6136  0.2546
  213MPD1    N1 3298   0.253   4.094  15.749 -0.8905 -0.5071 -0.4233
  213MPD1    H6 3299   0.334   4.095  15.811 -2.4259  3.6016  1.5438
  213MPD1    H7 3300   0.291   4.036  15.675  0.4738 -0.4564  0.2250
  214MPD1     C 3301   4.266   3.549  15.459  0.4009 -0.1495  0.0293
  214MPD1    C1 3302   4.318   3.565  15.336 -0.2690  0.2164 -0.0039
  214MPD1    C2 3303   4.345   3.695  15.288 -0.4677 -0.0062 -0.0547
  214MPD1    C3 3304   4.315   3.804  15.364 -0.2235 -0.1922 -0.4649
  214MPD1    C4 3305   4.253   3.786  15.488 -0.4502 -0.9382 -0.4665
  214MPD1    C5 3306   4.232   3.659  15.533 -0.6368 -1.0419 -0.0119
  214MPD1     H 3307   4.392   3.702  15.191 -3.6567  2.2494 -1.4381
  214MPD1    H1 3308   4.234   3.866  15.558 -0.2920 -0.3080 -1.1432
  214MPD1    H2 3309   4.245   3.451  15.501 -0.8689 -0.2285 -0.7691
  214MPD1    H3 3310   4.185   3.645  15.630  0.7783 -0.6061  0.7430
  214MPD1     N 3311   4.349   3.936  15.333 -0.0075 -0.1211  0.0847
  214MPD1    H5 3312   4.322   4.006  15.402 -1.8160  0.3971 -1.1565
  214MPD1    N1 3313   4.340   3.461  15.250 -0.7339 -0.0191 -0.8948
  214MPD1    H6 3314   4.288   3.376  15.273 -0.7880  0.2888  0.1383
  214MPD1    H7 3315   4.333   3.473  15.150  0.5200  0.2372 -0.9551
  215MPD1     C 3316   0.168   0.104  10.749 -0.2772 -0.6451 -0.0145
  215MPD1    C1 3317   0.110   0.144  10.864  0.2800 -0.4149 -0.5592
  215MPD1    C2 3318   0.078   0.273  10.885  0.1708 -0.4922 -1.0594
  215MPD1    C3 3319   0.133   0.370  10.797  0.2859 -0.0288 -0.0733
  215MPD1    C4 3320   0.209   0.332  10.691 -0.2924 -0.1144 -0.3241
  215MPD1    C5 3321   0.221   0.196  10.666 -0.8102  0.5575  0.5349
  215MPD1     H 3322   0.037   0.304  10.980 -0.4308 -0.7134 -1.2473
  215MPD1    H1 3323   0.258   0.406  10.629 -0.2406 -0.4745 -0.7143
  215MPD1    H2 3324   0.183   4.739  10.722  1.5015 -1.0163  2.4429
  215MPD1    H3 3325   0.284   0.166  10.583  0.8469  1.5159  1.4264
  215MPD1     N 3326   0.116   0.509  10.838  0.5041 -0.9166  0.3845
  215MPD1    H5 3327   0.067   0.515  10.927  0.9241 -0.3653  0.5803
  215MPD1    N1 3328   0.060   0.044  10.948  0.1954 -0.2357 -0.6913
  215MPD1    H6 3329   0.126   4.711  10.975 -0.4102 -0.5854 -0.1197
  215MPD1    H7 3330   0.041   0.084  11.040  1.7368  1.3312 -1.0659
  216MPD1     C 3331   1.316   3.812  17.171  0.1779 -0.0013  0.6633
  216MPD1    C1 3332   1.284   3.761  17.292 -0.4497 -0.3781  0.3416
  216MPD1    C2 3333   1.275   3.624  17.310 -0.6683  0.1893  0.2096
  216MPD1    C3 3334   1.306   3.540  17.213  0.2217  0.5400  0.0190
  216MPD1    C4 3335   1.335   3.593  17.086  0.0932  0.1903  0.6344
  216MPD1    C5 3336   1.339   3.725  17.070  0.0446  1.0902 -0.5256
  216MPD1     H 3337   1.237   3.588  17.404 -2.7436  0.0875 -0.6625
  216MPD1    H1 3338   1.372   3.523  17.011 -2.3102 -1.3425  0.8899
  216MPD1    H2 3339   1.312   3.918  17.150  0.4936  0.1025  1.1171
  216MPD1    H3 3340   1.376   3.767  16.977 -0.7948  1.4960 -0.6808
  216MPD1     N 3341   1.310   3.403  17.250  0.3232  0.1816 -0.0777
  216MPD1    H5 3342   1.278   3.379  17.343  0.2353  0.1854 -0.1074
  216MPD1    N1 3343   1.239   3.845  17.396  0.7144 -0.0479 -0.2747
  216MPD1    H6 3344   1.250   3.815  17.492 -2.0550  0.6080  0.2411
  216MPD1    H7 3345   1.266   3.942  17.380  0.4256 -0.1352 -1.3365
  217MPD1     C 3346   2.880   1.444   8.611 -0.5029  0.2556 -0.7332
  217MPD1    C1 3347   2.993   1.383   8.660 -0.1285  0.1949 -0.4277
  217MPD1    C2 3348   2.980   1.255   8.712 -0.3461 -0.0462  0.6736
  217MPD1    C3 3349   2.854   1.201   8.730 -0.3915 -1.3754 -0.2117
  217MPD1    C4 3350   2.747   1.266   8.686  0.2604  0.7254  1.0335
  217MPD1    C5 3351   2.758   1.381   8.616  0.4187  0.9345  1.0411
  217MPD1     H 3352   3.070   1.197   8.729 -1.4017 -1.8842 -0.0043
  217MPD1    H1 3353   2.648   1.221   8.691  0.6822  0.2010  4.9375
  217MPD1    H2 3354   2.884   1.533   8.549  2.4660  0.2541 -0.5456
  217MPD1    H3 3355   2.665   1.416   8.575 -0.1537 -0.5157  1.0755
  217MPD1     N 3356   2.835   1.077   8.793  0.1417 -0.1365  0.3046
  217MPD1    H5 3357   2.739   1.052   8.815 -0.6771  1.3229 -1.6086
  217MPD1    N1 3358   3.117   1.435   8.630  0.4104  0.4170  0.2064
  217MPD1    H6 3359   3.119   1.537   8.630  1.7021  0.3835 -3.1236
  217MPD1    H7 3360   3.175   1.402   8.706  0.9969  0.1550 -0.3527
  218MPD1     C 3361   0.502   1.055  11.862  0.2805 -0.8440 -0.2183
  218MPD1    C1 3362   0.371   1.053  11.807 -0.4434 -0.1033  0.4961
  218MPD1    C2 3363   0.277   1.032  11.897 -0.1661  0.3806 -0.7930
  218MPD1    C3 3364   0.292   1.047  12.036 -0.2464  0.0950  0.3423
  218MPD1    C4 3365   0.419   1.066  12.086 -0.1016  0.1175  0.1464
  218MPD1    C5 3366   0.519   1.067  11.997  0.2593 -0.1934  0.0115
  218MPD1     H 3367   0.180   1.006  11.855 -0.9083  3.3222 -0.9422
  218MPD1    H1 3368   0.434   1.082  12.192 -1.4491  2.3324 -0.0062
  218MPD1    H2 3369   0.591   1.040  11.802 -0.1002 -3.2975 -0.1801
  218MPD1    H3 3370   0.617   1.075  12.042  0.4993  0.3388 -0.6179
  218MPD1     N 3371   0.179   1.037  12.129  0.6007 -0.7528 -0.5272
  218MPD1    H5 3372   0.088   1.019  12.088 -1.6633  1.1484  3.7071
  218MPD1    N1 3373   0.351   1.027  11.671  0.1101  1.2690 -0.2205
  218MPD1    H6 3374   0.426   1.074  11.621 -0.0646  2.2232  0.4173
  218MPD1    H7 3375   0.262   1.052  11.628  0.8197  2.2045 -1.1588
  219MPD1     C 3376   4.018   0.890  11.958  0.2615 -0.6288  0.6379
  219MPD1    C1 3377   4.108   0.992  11.925 -0.8342  0.1341 -0.9751
  219MPD1    C2 3378   4.213   1.009  12.012  0.8605  0.1733  0.5044
  219MPD1    C3 3379   4.251   0.920  12.110 -0.0909 -0.2044 -0.4002
  219MPD1    C4 3380   4.175   0.808  12.127 -0.2733 -0.1506 -0.1220
  219MPD1    C5 3381   4.056   0.796  12.055  0.2032  0.5257 -0.9558
  219MPD1     H 3382   4.271   1.099  11.992  2.5274 -0.3491  2.9480
  219MPD1    H1 3383   4.182   0.732  12.204 -0.2126  0.1656  0.1875
  219MPD1    H2 3384   3.931   0.874  11.895  0.2572 -2.3670  1.0907
  219MPD1    H3 3385   3.983   0.717  12.069  0.1122  1.3430  3.1334
  219MPD1     N 3386   4.369   0.931  12.188 -0.0769 -0.1622 -0.1907
  219MPD1    H5 3387   4.403   0.849  12.237 -1.4248 -2.1025 -2.4660
  219MPD1    N1 3388   4.084   1.082  11.820  0.2727 -0.4330 -0.2343
  219MPD1    H6 3389   4.168   1.125  11.780  3.0957 -3.7448  2.1355
  219MPD1    H7 3390   4.038   1.027  11.748 -1.4309  0.0153  0.5249
  220MPD1     C 3391   4.123   1.577   9.365 -0.6109  1.1586 -0.4287
  220MPD1    C1 3392   4.251   1.539   9.418  0.0661  0.4663 -0.2488
  220MPD1    C2 3393   4.263   1.424   9.505 -0.7806 -0.3974  0.0023
  220MPD1    C3 3394   4.155   1.362   9.554 -0.2396 -0.3213  0.4060
  220MPD1    C4 3395   4.032   1.408   9.521  0.6894  0.1082  0.2096
  220MPD1    C5 3396   4.021   1.507   9.427 -0.6651 -0.0018 -0.2987
  220MPD1     H 3397   4.362   1.389   9.531 -1.4720 -2.4579 -0.1222
  220MPD1    H1 3398   3.945   1.356   9.557  0.7718 -0.2767 -0.1440
  220MPD1    H2 3399   4.108   1.654   9.290 -0.6162  0.7410 -0.8566
  220MPD1    H3 3400   3.919   1.516   9.392  0.2588  1.0566 -2.7100
  220MPD1     N 3401   4.179   1.275   9.666 -0.5247  0.2872  0.4646
  220MPD1    H5 3402   4.270   1.231   9.677 -0.0040  1.4603  0.8441
  220MPD1    N1 3403   4.368   1.594   9.361  0.5172  0.2452  0.8789
  220MPD1    H6 3404   4.443   1.582   9.429  1.2788 -2.8367 -0.5138
  220MPD1    H7 3405   4.358   1.693   9.338 -0.3223 -0.1887 -0.6097
  221MPD1     C 3406   2.057   0.278  16.720 -0.7119 -0.5833  0.0926
  221MPD1    C1 3407   2.164   0.271  16.803 -0.4866  0.0751 -0.2045
  221MPD1    C2 3408   2.260   0.174  16.769  0.3385 -0.1139  0.2197
  221MPD1    C3 3409   2.260   0.117  16.637  0.6405  0.1540 -0.7410
  221MPD1    C4 3410   2.156   0.144  16.554 -0.1017  0.8379  0.6954
  221MPD1    C5 3411   2.059   0.228  16.595  0.8890  0.2387 -0.0283
  221MPD1     H 3412   2.343   0.149  16.834  0.0325 -1.3111  0.1469
  221MPD1    H1 3413   2.154   0.119  16.449  1.0243  0.5191  0.7486
  221MPD1    H2 3414   1.965   0.326  16.750 -1.7111 -1.2289 -1.9866
  221MPD1    H3 3415   1.972   0.240  16.532  1.0545 -0.9857 -0.4834
  221MPD1     N 3416   2.364   0.029  16.584  0.1569  0.5157  0.4593
  221MPD1    H5 3417   2.351   0.003  16.487  1.1642 -0.4223  0.5817
  221MPD1    N1 3418   2.158   0.319  16.935  0.6387 -0.1793 -0.5485
  221MPD1    H6 3419   2.247   0.314  16.985 -0.7280 -1.6317  1.7890
  221MPD1    H7 3420   2.132   0.417  16.944 -3.1076 -1.2607  0.7036
  222MPD1     C 3421   2.085   3.355  17.580  0.4168  0.0957 -0.1164
  222MPD1    C1 3422   2.124   3.380  17.713 -0.4741  0.1230 -0.4709
  222MPD1    C2 3423   2.076   3.501   0.015 -0.3573 -1.1653 -0.3835
  222MPD1    C3 3424   2.011   3.595  17.700 -0.5502  0.1730 -0.0516
  222MPD1    C4 3425   1.978   3.572  17.572 -0.1340  0.1864  0.3139
  222MPD1    C5 3426   2.023   3.452  17.510  0.1102  0.3992 -0.2684
  222MPD1     H 3427   2.105   3.508   0.119 -0.5091 -0.4705 -0.3835
  222MPD1    H1 3428   1.918   3.641  17.514  1.1848  0.4662 -0.7248
  222MPD1    H2 3429   2.107   3.264  17.525 -0.7744 -0.2910  0.0344
  222MPD1    H3 3430   1.989   3.434  17.409 -0.9544  2.1928 -0.2437
  222MPD1     N 3431   1.964   3.715  17.752  0.4273 -0.5624 -0.6309
  222MPD1    H5 3432   1.911   3.771  17.686  0.5277  1.1285  0.7219
  222MPD1    N1 3433   2.172   3.273   0.037 -0.1560 -0.2445  0.2560
  222MPD1    H6 3434   2.232   3.218  17.732  1.4725  2.1447 -0.2664
  222MPD1    H7 3435   2.244   3.291   0.107 -0.1802  0.5590  0.0690
  223MPD1     C 3436   1.304   4.497   0.095 -0.5688  0.6844  0.3883
  223MPD1    C1 3437   1.421   4.557   0.069  0.0424  0.3337  0.1361
  223MPD1    C2 3438   1.532   4.479   0.047  0.2778 -0.2639  0.0453
  223MPD1    C3 3439   1.530   4.339   0.048 -0.1742  0.0799 -0.1485
  223MPD1    C4 3440   1.405   4.279   0.059 -0.6033  0.2130 -0.2078
  223MPD1    C5 3441   1.295   4.356   0.088 -0.2543 -0.4943 -1.0051
  223MPD1     H 3442   1.626   4.529   0.031  1.3032 -2.0009  0.5983
  223MPD1    H1 3443   1.402   4.171   0.065  0.5686  0.1125 -1.5319
  223MPD1    H2 3444   1.210   4.543   0.124 -1.2594  0.2555 -1.1876
  223MPD1    H3 3445   1.199   4.307   0.101 -0.7455  1.1335  1.4338
  223MPD1     N 3446   1.657   4.277   0.039 -0.3170 -0.4187  0.3656
  223MPD1    H5 3447   1.734   4.343   0.036  0.2378 -0.9753  2.1404
  223MPD1    N1 3448   1.428   4.701   0.079 -0.5833  0.2529 -0.5837
  223MPD1    H6 3449   1.341   0.012   0.066 -1.1208  0.3045  3.1419
  223MPD1    H7 3450   1.502   4.732   0.016  0.7997  0.2996  1.0603
  224MPD1     C 3451   2.954   1.193   9.112 -0.1358 -0.2644  0.4105
  224MPD1    C1 3452   2.822   1.185   9.157 -0.4895  0.0941  0.4690
  224MPD1    C2 3453   2.782   1.098   9.262  0.7872 -0.1929 -0.0582
  224MPD1    C3 3454   2.876   1.021   9.327  0.2198  0.6289  0.1934
  224MPD1    C4 3455   3.008   1.044   9.292  0.5075 -0.9937 -0.4696
  224MPD1    C5 3456   3.043   1.131   9.191 -0.8730 -0.9183  0.8417
  224MPD1     H 3457   2.678   1.092   9.293 -0.0651 -1.5609 -3.1276
  224MPD1    H1 3458   3.093   0.998   9.340  1.3640  0.1885 -0.8320
  224MPD1    H2 3459   2.983   1.259   9.032 -1.1795  0.2693  0.4638
  224MPD1    H3 3460   3.148   1.142   9.164 -0.4468 -2.4372  1.8576
  224MPD1     N 3461   2.847   0.934   9.440 -0.0813 -0.0097 -0.5332
  224MPD1    H5 3462   2.927   0.887   9.481  0.1400  0.9024  0.0769
  224MPD1    N1 3463   2.728   1.251   9.078 -0.1500  0.3493  0.1817
  224MPD1    H6 3464   2.649   1.277   9.137  0.1812  0.6430  0.4980
  224MPD1    H7 3465   2.758   1.335   9.030  0.1866 -0.3709 -0.8815
  225MPD1     C 3466   3.393   2.566  12.010 -0.5976 -0.0924 -0.2853
  225MPD1    C1 3467   3.386   2.471  11.911  0.7420 -0.1122 -0.4802
  225MPD1    C2 3468   3.428   2.343  11.948  0.0367 -0.1814 -0.0707
  225MPD1    C3 3469   3.489   2.318  12.071  0.3393 -0.6068 -0.0736
  225MPD1    C4 3470   3.502   2.421  12.162  0.5356  0.3355 -0.3120
  225MPD1    C5 3471   3.439   2.540  12.134 -0.2906  0.0533 -0.1126
  225MPD1     H 3472   3.424   2.272  11.866 -0.8577 -1.5193  1.1269
  225MPD1    H1 3473   3.547   2.418  12.260 -1.5599 -2.0980  0.5667
  225MPD1    H2 3474   3.349   2.664  11.995 -1.1068 -0.4110 -0.8598
  225MPD1    H3 3475   3.438   2.615  12.212  0.1271 -2.6054  2.4592
  225MPD1     N 3476   3.525   2.184  12.104 -0.1314 -0.2911 -0.2190
  225MPD1    H5 3477   3.583   2.169  12.187 -1.1506 -0.3514  0.4782
  225MPD1    N1 3478   3.325   2.487  11.785  0.3075  0.0150 -0.2211
  225MPD1    H6 3479   3.330   2.580  11.743  1.1121 -0.0622 -0.2858
  225MPD1    H7 3480   3.340   2.416  11.714 -0.7681 -1.3510  0.9189
  226MPD1     C 3481   2.267   0.648   9.716 -0.2884 -0.3300  0.2004
  226MPD1    C1 3482   2.320   0.719   9.613 -0.1878  0.1340  0.0161
  226MPD1    C2 3483   2.257   0.841   9.578 -0.1453  0.5739 -0.1657
  226MPD1    C3 3484   2.152   0.895   9.657 -0.2499 -0.0188  0.0253
  226MPD1    C4 3485   2.117   0.832   9.774  0.2566 -0.2711 -0.8637
  226MPD1    C5 3486   2.168   0.705   9.797  0.1371 -0.0085 -0.1847
  226MPD1     H 3487   2.273   0.890   9.483  2.0889  1.7776  0.8441
  226MPD1    H1 3488   2.049   0.884   9.840  0.6584  0.6339 -1.1598
  226MPD1    H2 3489   2.295   0.545   9.734  0.9653  0.1292  0.8203
  226MPD1    H3 3490   2.140   0.654   9.889  1.4610 -1.9541 -0.8647
  226MPD1     N 3491   2.097   1.016   9.611  0.3365  0.1648  0.0472
  226MPD1    H5 3492   2.131   1.061   9.527 -0.4908 -1.1221 -0.9774
  226MPD1    N1 3493   2.405   0.652   9.516 -0.0921  0.2290  0.6849
  226MPD1    H6 3494   2.456   0.572   9.555 -0.1945 -0.6799 -1.0589
  226MPD1    H7 3495   2.469   0.724   9.483 -1.1036  1.4320  1.3453
  227MPD1     C 3496   1.254   1.463   9.900 -0.8045 -0.0528 -1.0208
  227MPD1    C1 3497   1.275   1.349   9.825 -0.0985  0.0241  0.2621
  227MPD1    C2 3498   1.379   1.343   9.744  0.4813  0.3719 -0.2636
  227MPD1    C3 3499   1.486   1.433   9.768 -0.0785 -0.0942 -0.4297
  227MPD1    C4 3500   1.470   1.534   9.858 -0.0234 -0.3190  0.2163
  227MPD1    C5 3501   1.353   1.548   9.923 -0.2077 -0.1215  0.8090
  227MPD1     H 3502   1.375   1.269   9.665  0.6744  2.1627 -1.9156
  227MPD1    H1 3503   1.546   1.609   9.878  0.6275 -0.2044 -2.7444
  227MPD1    H2 3504   1.159   1.488   9.945 -0.2737 -0.1174  0.1445
  227MPD1    H3 3505   1.359   1.627   9.997  0.1648  1.9390 -1.4148
  227MPD1     N 3506   1.608   1.408   9.696  0.8715  0.5735 -0.3695
  227MPD1    H5 3507   1.595   1.324   9.641 -0.6364  2.3716 -2.7777
  227MPD1    N1 3508   1.172   1.259   9.801  0.4877  0.1230 -0.0261
  227MPD1    H6 3509   1.112   1.246   9.883  1.4227  1.2513  0.8323
  227MPD1    H7 3510   1.204   1.164   9.783  0.3314  0.4744 -2.1595
  228MPD1     C 3511   1.286   4.481  12.674  0.2437 -0.7390  0.4897
  228MPD1    C1 3512   1.266   4.440  12.805 -0.2876  0.3281  0.3105
  228MPD1    C2 3513   1.141   4.404  12.841 -0.1796  0.5504  0.5523
  228MPD1    C3 3514   1.027   4.419  12.761  0.8715  0.2723  0.2957
  228MPD1    C4 3515   1.047   4.473  12.635 -0.3243 -0.5187  0.5121
  228MPD1    C5 3516   1.175   4.495  12.591 -0.2766 -0.7059  0.6300
  228MPD1     H 3517   1.128   4.355  12.937 -1.0757 -1.2865 -0.4984
  228MPD1    H1 3518   0.967   4.502  12.568  0.3738  0.1769 -0.0125
  228MPD1    H2 3519   1.383   4.502  12.631  0.1293 -1.1829  0.0214
  228MPD1    H3 3520   1.177   4.537  12.491 -0.0300 -1.1059  0.4656
  228MPD1     N 3521   0.903   4.402  12.821  0.0762 -0.3499  0.1311
  228MPD1    H5 3522   0.912   4.379  12.919 -1.0281 -0.1199  0.2863
  228MPD1    N1 3523   1.373   4.415  12.888 -0.0008 -0.3916  0.8226
  228MPD1    H6 3524   1.446   4.486  12.879 -0.4876 -0.1236 -1.0303
  228MPD1    H7 3525   1.342   4.418  12.985 -0.5517 -0.4825  0.6486
  229MPD1     C 3526   0.722   3.035  15.076 -0.5370  0.6810  0.1072
  229MPD1    C1 3527   0.763   2.979  14.957  0.7468 -0.2451  0.4896
  229MPD1    C2 3528   0.765   2.842  14.952  0.8734 -0.0189  0.6164
  229MPD1    C3 3529   0.755   2.765  15.069  0.2164  0.7853 -0.9906
  229MPD1    C4 3530   0.708   2.825  15.181 -0.6111 -0.4463 -0.2200
  229MPD1    C5 3531   0.698   2.963  15.190 -0.4779  0.8626 -0.2870
  229MPD1     H 3532   0.792   2.797  14.858  0.3229 -0.2977  0.5882
  229MPD1    H1 3533   0.688   2.761  15.266 -1.4659  0.8003  0.5155
  229MPD1    H2 3534   0.699   3.139  15.094 -2.2393  0.2887  0.1837
  229MPD1    H3 3535   0.655   3.013  15.276  1.9056 -2.1196  2.6478
  229MPD1     N 3536   0.759   2.623  15.070  0.0144 -0.6264  0.9985
  229MPD1    H5 3537   0.747   2.576  15.159 -0.3904  0.5444  1.5715
  229MPD1    N1 3538   0.778   3.054  14.840 -0.4787  0.2993  0.6828
  229MPD1    H6 3539   0.814   3.148  14.855  0.8127 -0.5990  3.2263
  229MPD1    H7 3540   0.829   3.004  14.767 -0.3991 -0.8797  1.5399
  230MPD1     C 3541   1.067   1.911  15.663  0.0617 -0.0931 -0.0474
  230MPD1    C1 3542   1.109   1.879  15.536  0.0059  0.7079  0.4852
  230MPD1    C2 3543   1.044   1.929  15.426 -0.2071  0.5914  0.7180
  230MPD1    C3 3544   0.944   2.022  15.435 -0.5993 -1.1848  0.0552
  230MPD1    C4 3545   0.918   2.064  15.569  0.1366 -0.1568 -0.4279
  230MPD1    C5 3546   0.977   2.008  15.678  0.3529 -0.2193  0.6815
  230MPD1     H 3547   1.067   1.895  15.325 -1.5667 -1.0571  0.9684
  230MPD1    H1 3548   0.840   2.137  15.588  0.5292  0.5139 -1.3690
  230MPD1    H2 3549   1.103   1.868  15.755 -1.3639 -0.3455  0.3978
  230MPD1    H3 3550   0.946   2.047  15.774  2.3999 -0.0583  1.2655
  230MPD1     N 3551   0.888   2.081  15.320 -0.0545  0.0438  0.0085
  230MPD1    H5 3552   0.936   2.064  15.232 -1.8988 -0.8663 -0.8207
  230MPD1    N1 3553   1.195   1.762  15.524  0.8508 -0.2271 -0.6850
  230MPD1    H6 3554   1.250   1.769  15.439  2.1102 -2.2803 -0.0406
  230MPD1    H7 3555   1.265   1.753  15.598  0.8492 -2.0691 -0.9194
  231MPD1     C 3556   4.118   4.285  15.192  0.3332  0.2325  0.5590
  231MPD1    C1 3557   4.049   4.263  15.073 -1.1175  0.4529  0.4376
  231MPD1    C2 3558   4.030   4.381  14.998 -0.0886 -0.1360  0.7492
  231MPD1    C3 3559   4.073   4.505  15.035 -0.1541  0.6455  0.1835
  231MPD1    C4 3560   4.128   4.527  15.156 -0.4239  0.5035 -0.6499
  231MPD1    C5 3561   4.152   4.413  15.236 -0.2236 -0.3617  0.4110
  231MPD1     H 3562   3.997   4.362  14.896  0.9371 -0.7196  0.5296
  231MPD1    H1 3563   4.162   4.624  15.192 -2.1202  1.1124 -0.6911
  231MPD1    H2 3564   4.137   4.198  15.254  1.0804  0.6242  0.8757
  231MPD1    H3 3565   4.184   4.423  15.339 -1.9970 -1.5155  1.0788
  231MPD1     N 3566   4.058   4.613  14.938  0.7513 -0.6433  0.1714
  231MPD1    H5 3567   4.015   4.590  14.849 -1.2529  1.6334  0.5573
  231MPD1    N1 3568   4.034   4.137  15.017  0.0812  0.0678 -0.0076
  231MPD1    H6 3569   3.950   4.138  14.959  0.3917 -1.1480 -0.4732
  231MPD1    H7 3570   4.005   4.073  15.091 -1.4699  0.3475 -0.3844
  232MPD1     C 3571   1.088   2.855  17.717  0.3142  0.9197 -0.4474
  232MPD1    C1 3572   1.012   2.903  17.613  0.1595  0.7728 -0.2590
  232MPD1    C2 3573   0.918   2.815  17.560  0.3110  0.4787  0.1526
  232MPD1    C3 3574   0.875   2.701  17.621 -0.1508 -0.1830  0.0420
  232MPD1    C4 3575   0.949   2.659  17.727 -0.2522 -0.6001  0.2030
  232MPD1    C5 3576   1.060   2.731   0.006  0.1458  0.1942  0.2761
  232MPD1     H 3577   0.864   2.834  17.468 -2.4733 -1.3642  1.4132
  232MPD1    H1 3578   0.936   2.566   0.024 -2.7536 -0.2416  0.2326
  232MPD1    H2 3579   1.163   2.920   0.004  0.6977  0.1544  0.0457
  232MPD1    H3 3580   1.117   2.685   0.086  3.1664 -1.0860 -2.6207
  232MPD1     N 3581   0.763   2.623  17.570  0.0106 -0.1609  0.3761
  232MPD1    H5 3582   0.732   2.657  17.479 -0.2516 -0.8135  0.2234
  232MPD1    N1 3583   1.050   3.018  17.542  0.1218  0.1183 -0.6378
  232MPD1    H6 3584   0.972   3.044  17.481  0.8257 -2.2953 -2.5845
  232MPD1    H7 3585   1.090   3.091  17.601 -3.7206  0.0368  2.0781
  233MPD1     C 3586   2.438   4.455  17.238 -0.0430 -0.4722  0.1914
  233MPD1    C1 3587   2.465   4.508  17.361  0.0385 -0.0337  0.5107
  233MPD1    C2 3588   2.519   4.635  17.366  0.0523 -0.3534  0.3214
  233MPD1    C3 3589   2.557   4.701  17.245  0.1512  0.2643  0.6082
  233MPD1    C4 3590   2.542   4.639  17.123  0.0830 -0.0881  0.3015
  233MPD1    C5 3591   2.487   4.515  17.121  0.1194 -0.2187 -0.0555
  233MPD1     H 3592   2.526   4.680  17.464 -1.5041  3.7697 -1.4478
  233MPD1    H1 3593   2.583   4.669  17.027  1.2170  1.3209  1.2393
  233MPD1    H2 3594   2.397   4.356  17.217  1.0907 -0.7508 -0.7156
  233MPD1    H3 3595   2.463   4.453  17.034 -0.8590 -0.8553  0.6692
  233MPD1     N 3596   2.608   0.091  17.242 -0.3218 -0.0041 -0.0920
  233MPD1    H5 3597   2.639   0.122  17.150  1.9930 -2.9927 -0.3267
  233MPD1    N1 3598   2.422   4.436  17.476  0.0860 -0.3729 -0.0073
  233MPD1    H6 3599   2.472   4.452  17.563 -0.7631  0.0197  0.4057
  233MPD1    H7 3600   2.420   4.336  17.454 -0.0448 -0.1380 -1.0734
  234MPD1     C 3601   4.180   4.678   9.910  0.2668 -0.0692  0.0426
  234MPD1    C1 3602   4.070   4.604   9.953  0.1845  0.4640 -0.1276
  234MPD1    C2 3603   3.942   4.642   9.899 -0.0646  0.1551  0.3922
  234MPD1    C3 3604   3.924   0.011   9.818 -0.4742 -0.3005 -0.5151
  234MPD1    C4 3605   4.034   0.087   9.787  0.5901 -0.2016 -0.1854
  234MPD1    C5 3606   4.157   0.041   9.825  0.2176 -0.3047  0.4045
  234MPD1     H 3607   3.864   4.569   9.910  0.3288 -0.5462 -1.4968
  234MPD1    H1 3608   4.027   0.162   9.710  1.7133  0.4108  0.3144
  234MPD1    H2 3609   4.281   4.648   9.935  0.3592  0.0594 -0.1704
  234MPD1    H3 3610   4.248   0.090   9.793  0.6329  0.1347  2.2998
  234MPD1     N 3611   3.787   0.036   9.774 -0.5232  0.2677 -0.4305
  234MPD1    H5 3612   3.718   4.706   9.799 -0.7304  0.1359 -1.3587
  234MPD1    N1 3613   4.086   4.490  10.029 -0.3694 -0.3287  0.0012
  234MPD1    H6 3614   4.170   4.490  10.086 -1.7767  0.4216  2.0638
  234MPD1    H7 3615   4.012   4.448  10.084 -0.8832  0.7429  0.1239
  235MPD1     C 3616   4.556   1.600  10.485 -0.2175  0.9284  0.1235
  235MPD1    C1 3617   4.563   1.690  10.381 -0.4410 -0.6408  0.1424
  235MPD1    C2 3618   4.654   1.794  10.389 -0.7825 -0.1944  0.0394
  235MPD1    C3 3619   4.739   1.813  10.489  0.3305 -0.9714  0.8201
  235MPD1    C4 3620   4.736   1.722  10.591  0.3826  0.1809 -0.3988
  235MPD1    C5 3621   4.648   1.613  10.586  0.0220  0.7313  0.5741
  235MPD1     H 3622   4.667   1.866  10.309 -2.7164 -0.7369 -0.7776
  235MPD1    H1 3623   0.051   1.735  10.683 -0.1060  2.3243 -0.4213
  235MPD1    H2 3624   4.489   1.516  10.488  0.2591  0.4417 -3.4201
  235MPD1    H3 3625   4.625   1.562  10.679 -3.1675 -0.7744 -1.0313
  235MPD1     N 3626   0.084   1.923  10.485 -0.7460  0.3784  0.2813
  235MPD1    H5 3627   0.095   1.981  10.402 -2.1296 -1.0246 -0.8711
  235MPD1    N1 3628   4.507   1.672  10.250 -0.0601 -0.6064  0.2650
  235MPD1    H6 3629   4.472   1.757  10.207  0.7068  0.3712  1.5648
  235MPD1    H7 3630   4.427   1.609  10.258 -0.3771 -0.3899 -1.2771
  236MPD1     C 3631   3.728   3.335  10.391  0.7545 -0.0039  0.2231
  236MPD1    C1 3632   3.817   3.436  10.367  0.1506  0.2886 -0.2777
  236MPD1    C2 3633   3.943   3.399  10.319 -0.2966  0.0755 -0.2616
  236MPD1    C3 3634   3.978   3.264  10.304 -0.3009  0.2568 -0.9373
  236MPD1    C4 3635   3.893   3.164  10.348 -1.4790 -0.6751 -0.0627
  236MPD1    C5 3636   3.775   3.206  10.396  0.0974  0.2722 -0.5788
  236MPD1     H 3637   4.019   3.472  10.295  1.7051 -1.1628  2.1932
  236MPD1    H1 3638   3.922   3.060  10.345 -0.3985 -0.3625 -0.5160
  236MPD1    H2 3639   3.623   3.353  10.410  0.9678  0.6956  0.7377
  236MPD1    H3 3640   3.701   3.129  10.418 -1.5035  2.4398  1.6162
  236MPD1     N 3641   4.104   3.221  10.258  0.3287  0.2159  0.4395
  236MPD1    H5 3642   4.118   3.121  10.249  1.0224  0.2806  0.7827
  236MPD1    N1 3643   3.776   3.567  10.405 -0.7054 -0.3009 -0.3375
  236MPD1    H6 3644   3.674   3.560  10.411 -0.8436  0.5303 -1.8528
  236MPD1    H7 3645   3.797   3.640  10.338  0.1958 -0.1399  0.1165
  237MPD1     C 3646   4.613   1.187  14.930  0.3376  0.8235  0.8549
  237MPD1    C1 3647   4.599   1.083  15.021 -0.3395 -0.6405  1.0787
  237MPD1    C2 3648   4.475   1.051  15.069  0.3378  0.3945 -0.0941
  237MPD1    C3 3649   4.365   1.104  15.008  0.0331  0.0282  0.0441
  237MPD1    C4 3650   4.377   1.199  14.908  0.0384  0.0343 -0.2372
  237MPD1    C5 3651   4.498   1.253  14.879 -0.1405  0.5778  0.2144
  237MPD1     H 3652   4.471   0.979  15.149 -2.4077  2.1595  1.3553
  237MPD1    H1 3653   4.291   1.239  14.855  1.2027  0.8504 -1.4987
  237MPD1    H2 3654   4.712   1.209  14.893 -0.4496  2.8518 -0.0297
  237MPD1    H3 3655   4.523   1.327  14.804 -1.4386  0.5973 -0.1996
  237MPD1     N 3656   4.235   1.058  15.040  0.9471 -0.2516 -0.2432
  237MPD1    H5 3657   4.154   1.104  14.999 -0.1523  0.4369  2.7210
  237MPD1    N1 3658   4.713   1.029  15.081  0.4903  0.1205 -0.5963
  237MPD1    H6 3659   4.699   0.933  15.113  0.5021  1.1284  2.3668
  237MPD1    H7 3660   0.057   1.043  15.025  0.3073 -0.4867 -1.0256
  238MPD1     C 3661   1.592   3.976  14.989 -0.5822  0.2186 -0.7206
  238MPD1    C1 3662   1.551   4.069  15.084 -0.6843 -0.6142  0.6612
  238MPD1    C2 3663   1.432   4.136  15.066 -0.2573 -0.0883 -0.2700
  238MPD1    C3 3664   1.339   4.086  14.976 -0.1796 -0.4753 -0.0493
  238MPD1    C4 3665   1.386   3.995  14.885 -0.4779  0.1667 -0.2025
  238MPD1    C5 3666   1.511   3.949  14.887 -0.2218  0.5131 -0.2948
  238MPD1     H 3667   1.408   4.209  15.142 -0.0232 -0.1364 -0.1520
  238MPD1    H1 3668   1.318   3.963  14.808 -2.7978 -1.1880  2.4049
  238MPD1    H2 3669   1.690   3.930  14.983 -0.7653 -0.3394  0.5579
  238MPD1    H3 3670   1.544   3.886  14.805  1.2971  0.3569  0.4445
  238MPD1     N 3671   1.210   4.131  14.966 -0.1714 -0.1127 -1.0061
  238MPD1    H5 3672   1.156   4.093  14.889  2.0442 -3.9181 -0.6652
  238MPD1    N1 3673   1.653   4.107  15.171  0.4496 -0.2192 -0.6159
  238MPD1    H6 3674   1.708   4.029  15.208 -1.0946 -1.6807 -1.3946
  238MPD1    H7 3675   1.628   4.167  15.249 -0.8549 -0.1061 -1.1241
  239MPD1     C 3676   1.259   0.283  14.525  0.4441  0.2446  0.0124
  239MPD1    C1 3677   1.163   0.341  14.596  0.1156 -0.3225  0.7360
  239MPD1    C2 3678   1.103   0.447  14.532  0.0326  0.2342  0.2793
  239MPD1    C3 3679   1.138   0.494  14.403 -0.0190  0.1111 -0.2456
  239MPD1    C4 3680   1.232   0.425  14.333  0.5074  0.1891 -0.0621
  239MPD1    C5 3681   1.299   0.321  14.398  1.1757 -0.0295 -0.2183
  239MPD1     H 3682   1.029   0.502  14.589 -1.7991 -1.3224 -0.5948
  239MPD1    H1 3683   1.275   0.458  14.239  0.5852 -1.7630 -0.7085
  239MPD1    H2 3684   1.311   0.195  14.561  0.6686 -0.2251 -1.4611
  239MPD1    H3 3685   1.374   0.263  14.345  1.7236 -0.1040  0.6410
  239MPD1     N 3686   1.054   0.593  14.346  0.2392 -0.6654 -0.3379
  239MPD1    H5 3687   1.064   0.621  14.249 -0.2102 -2.6531 -0.9535
  239MPD1    N1 3688   1.107   0.281  14.711  0.5549 -0.1711  0.4322
  239MPD1    H6 3689   1.071   0.348  14.779  2.5018  0.2635  1.0424
  239MPD1    H7 3690   1.162   0.203  14.744  1.1947 -1.6102 -4.0214
  240MPD1     C 3691   0.893   0.390  13.888  0.1712  0.1237  0.4336
  240MPD1    C1 3692   0.763   0.336  13.888  0.3196  0.7120  0.3561
  240MPD1    C2 3693   0.729   0.276  14.010  0.0723  0.4508  0.2292
  240MPD1    C3 3694   0.814   0.276  14.124 -0.7223  0.3242 -0.2040
  240MPD1    C4 3695   0.936   0.334  14.117 -0.1996  0.8320 -0.3287
  240MPD1    C5 3696   0.980   0.384  13.996 -0.7023  0.0737  0.2380
  240MPD1     H 3697   0.628   0.237  14.020  0.0912  0.1678 -0.6887
  240MPD1    H1 3698   0.995   0.355  14.205  0.4524  2.2276 -1.1110
  240MPD1    H2 3699   0.923   0.450  13.803  1.0349  1.8693  1.9607
  240MPD1    H3 3700   1.078   0.429  14.000 -0.0761 -1.1260 -1.9967
  240MPD1     N 3701   0.767   0.232  14.246  0.0086 -0.2997 -0.1493
  240MPD1    H5 3702   0.667   0.213  14.248 -0.1118  0.5342  2.4199
  240MPD1    N1 3703   0.674   0.337  13.775 -0.1891  0.5553  0.4149
  240MPD1    H6 3704   0.573   0.336  13.784 -0.1242  1.6952  1.2506
  240MPD1    H7 3705   0.700   0.393  13.694 -2.0473 -0.0998 -0.6421
  241MPD1     C 3706   1.227   4.569  15.097 -0.2136 -0.4231  0.6822
  241MPD1    C1 3707   1.117   4.631  15.137  0.4320  0.1854 -0.0457
  241MPD1    C2 3708   1.033   4.699  15.052 -0.2593 -0.0772  0.4831
  241MPD1    C3 3709   1.068   4.699  14.913  0.1787  0.3757 -0.1789
  241MPD1    C4 3710   1.185   4.640  14.876  0.2945 -0.1600  0.1135
  241MPD1    C5 3711   1.261   4.574  14.968  0.0656  0.8744  0.8265
  241MPD1     H 3712   0.942   0.009  15.085  0.7178 -0.4026  3.5935
  241MPD1    H1 3713   1.218   4.631  14.773  2.1962 -4.1554  1.0511
  241MPD1    H2 3714   1.292   4.513  15.162 -1.4419 -1.7467  0.7674
  241MPD1    H3 3715   1.349   4.520  14.933 -1.0349  1.1717 -2.4420
  241MPD1     N 3716   0.992   4.737  14.809 -0.3710 -0.5230 -0.0856
  241MPD1    H5 3717   1.030   0.000  14.715 -2.5234 -2.1791 -1.0201
  241MPD1    N1 3718   1.088   4.644  15.273  0.2123  0.0092  0.1174
  241MPD1    H6 3719   1.124   4.573  15.337  0.8900 -0.0266 -0.2995
  241MPD1    H7 3720   0.989   4.638  15.298 -0.1057 -0.1223 -1.1782
  242MPD1     C 3721   0.712   3.407  15.910 -0.2611  0.0153  0.1603
  242MPD1    C1 3722   0.702   3.506  15.816  0.1061  0.1693 -0.2939
  242MPD1    C2 3723   0.769   3.482  15.696 -0.1513 -0.4883  0.2175
  242MPD1    C3 3724   0.845   3.367  15.677  0.2064  0.0094 -0.4998
  242MPD1    C4 3725   0.858   3.268  15.772  0.2321  0.5965 -0.9787
  242MPD1    C5 3726   0.789   3.290  15.889 -0.5368  0.4959 -0.3748
  242MPD1     H 3727   0.753   3.559  15.621 -0.2529  0.1361  0.8728
  242MPD1    H1 3728   0.924   3.182  15.766 -0.5569 -0.1139  0.3752
  242MPD1    H2 3729   0.660   3.403  16.005 -1.3858  2.0584 -0.3604
  242MPD1    H3 3730   0.795   3.210  15.962 -1.4758  0.8984  0.1462
  242MPD1     N 3731   0.910   3.348  15.549 -0.0360  0.1644 -0.4136
  242MPD1    H5 3732   0.963   3.262  15.539  0.6670  0.4505  0.7566
  242MPD1    N1 3733   0.645   3.633  15.838 -0.5535 -0.7648 -0.6266
  242MPD1    H6 3734   0.649   3.691  15.755  0.9367  0.0730  0.0293
  242MPD1    H7 3735   0.554   3.618  15.881 -0.0421 -2.8492 -0.3094
  243MPD1     C 3736   2.200   1.471  17.004 -0.1171 -0.4000  0.0673
  243MPD1    C1 3737   2.083   1.495  16.937 -0.0664 -0.4882 -0.4731
  243MPD1    C2 3738   2.051   1.424  16.828  0.1847  0.0199  0.1001
  243MPD1    C3 3739   2.141   1.345  16.764  0.0540  0.8184  0.1386
  243MPD1    C4 3740   2.266   1.329  16.823 -0.0625 -0.0536 -0.0711
  243MPD1    C5 3741   2.286   1.395  16.941  0.0764 -0.6480  0.3472
  243MPD1     H 3742   1.951   1.427  16.785 -0.6063 -1.7692  1.8261
  243MPD1    H1 3743   2.347   1.267  16.787 -0.5188  0.0455 -1.2663
  243MPD1    H2 3744   2.228   1.515  17.099  0.3226 -1.4089  0.4041
  243MPD1    H3 3745   2.378   1.366  16.991  0.9733  0.4850 -0.6513
  243MPD1     N 3746   2.114   1.276  16.647 -0.2790 -0.0313 -0.3846
  243MPD1    H5 3747   2.018   1.267  16.615 -0.4281  0.4529 -0.0594
  243MPD1    N1 3748   1.987   1.572  16.997  0.5073 -0.0232  0.4863
  243MPD1    H6 3749   2.026   1.642  17.060 -3.5076  1.5569  1.2394
  243MPD1    H7 3750   1.907   1.604  16.943  1.7960  2.6913  0.2200
  244MPD1     C 3751   2.645   0.547  16.201 -0.2936 -0.0569  0.1671
  244MPD1    C1 3752   2.654   0.621  16.315 -0.8482  0.1069 -0.2045
  244MPD1    C2 3753   2.548   0.696  16.351 -0.3125 -0.4751  1.0667
  244MPD1    C3 3754   2.434   0.708  16.274  0.7435 -0.3526 -0.4395
  244MPD1    C4 3755   2.422   0.628  16.162  0.1537  0.5159 -0.4780
  244MPD1    C5 3756   2.528   0.547  16.128  0.0536  1.0267  0.5288
  244MPD1     H 3757   2.563   0.776  16.422  1.1404  0.9870 -0.9067
  244MPD1    H1 3758   2.341   0.641  16.091 -0.6423  0.7473  0.4835
  244MPD1    H2 3759   2.719   0.474  16.170 -1.6873 -0.2965 -2.5609
  244MPD1    H3 3760   2.516   0.476  16.047  2.0234  1.2570  0.0416
  244MPD1     N 3761   2.337   0.803  16.311  0.0184 -0.1699 -0.2504
  244MPD1    H5 3762   2.355   0.859  16.393  0.9356 -2.2825  0.9921
  244MPD1    N1 3763   2.767   0.636  16.394  0.2860  0.4362 -0.5270
  244MPD1    H6 3764   2.849   0.654  16.336 -0.0397  0.3244 -1.0184
  244MPD1    H7 3765   2.758   0.720  16.451 -0.0388  0.8661 -1.2250
  245MPD1     C 3766   3.715   2.651  12.804  0.7292  0.9594  0.5814
  245MPD1    C1 3767   3.734   2.790  12.824  0.3683  0.0998 -0.4265
  245MPD1    C2 3768   3.779   2.832  12.952  0.1970 -0.3884  0.3844
  245MPD1    C3 3769   3.838   2.742  13.042  0.2605 -0.7107 -0.5875
  245MPD1    C4 3770   3.825   2.608  13.017  0.1522 -0.1181 -0.1523
  245MPD1    C5 3771   3.764   2.562  12.900  0.2611 -0.6486 -0.3106
  245MPD1     H 3772   3.768   2.940  12.960 -1.6909 -0.6861  1.7596
  245MPD1    H1 3773   3.880   2.539  13.080  0.3878  0.1488 -0.0680
  245MPD1    H2 3774   3.652   2.610  12.725 -0.3623  2.6798  0.5620
  245MPD1    H3 3775   3.752   2.454  12.900  0.4240 -0.6660  0.3959
  245MPD1     N 3776   3.873   2.794  13.174  0.3653 -0.5030 -0.6171
  245MPD1    H5 3777   3.867   2.895  13.181 -2.8154 -0.7036 -0.7183
  245MPD1    N1 3778   3.647   2.874  12.751 -0.7864  0.3051  0.1968
  245MPD1    H6 3779   3.701   2.959  12.739 -0.9493  0.5227  0.9925
  245MPD1    H7 3780   3.632   2.841  12.656  1.8103  1.9202 -0.7591
  246MPD1     C 3781   3.841   1.934  10.591  0.3129  0.5513 -0.5780
  246MPD1    C1 3782   3.829   1.966  10.458  0.4496 -0.7791 -0.1579
  246MPD1    C2 3783   3.912   2.066  10.404  0.3965  0.2580 -0.1895
  246MPD1    C3 3784   4.009   2.126  10.479 -0.0295  0.2249 -0.0152
  246MPD1    C4 3785   4.021   2.094  10.612 -0.2558  0.4324 -0.8764
  246MPD1    C5 3786   3.943   1.990  10.663  0.1174  0.1188  0.4268
  246MPD1     H 3787   3.891   2.090  10.301  0.9322  1.2150 -0.0802
  246MPD1    H1 3788   4.103   2.140  10.666 -1.8699  1.3290  0.7929
  246MPD1    H2 3789   3.780   1.864  10.649  2.6283 -0.0060  1.1693
  246MPD1    H3 3790   3.935   1.988  10.771  4.0184  0.9766  0.7293
  246MPD1     N 3791   4.079   2.234  10.421 -0.3028  0.2522 -0.2474
  246MPD1    H5 3792   4.042   2.274  10.336 -0.1920  0.8219 -0.0272
  246MPD1    N1 3793   3.724   1.914  10.387 -0.3255  0.1333  0.2311
  246MPD1    H6 3794   3.748   1.912  10.288 -0.0604  1.6069  0.2715
  246MPD1    H7 3795   3.697   1.819  10.413  0.3850  0.5098  2.3372
  247MPD1     C 3796   3.083   2.364  16.640 -0.1190  0.1629 -0.2206
  247MPD1    C1 3797   3.145   2.246  16.610 -0.2403  0.6799 -0.9118
  247MPD1    C2 3798   3.169   2.220  16.475 -0.2177 -0.5042 -0.5282
  247MPD1    C3 3799   3.165   2.317  16.375  0.4552  0.1836 -0.1294
  247MPD1    C4 3800   3.089   2.428  16.407  0.5914  0.3724  0.6458
  247MPD1    C5 3801   3.048   2.446  16.537  0.2852  0.0810  1.0773
  247MPD1     H 3802   3.194   2.116  16.458  1.1316 -0.4031  0.7822
  247MPD1    H1 3803   3.069   2.506  16.335  0.8809 -0.1936 -0.0433
  247MPD1    H2 3804   3.046   2.378  16.741 -6.7555 -2.3823 -2.2743
  247MPD1    H3 3805   2.993   2.537  16.558 -1.4414 -0.6870 -0.1115
  247MPD1     N 3806   3.218   2.305  16.245 -1.1535  0.3253  0.5023
  247MPD1    H5 3807   3.203   2.384  16.182  1.3895  0.9153  0.6405
  247MPD1    N1 3808   3.151   2.141  16.700 -0.2906 -0.6757  0.1022
  247MPD1    H6 3809   3.163   2.171  16.797 -1.9389 -1.2142  0.4732
  247MPD1    H7 3810   3.225   2.072  16.683  0.2057 -0.1180 -0.0086
  248MPD1     C 3811   3.322   2.817  17.601 -0.3897 -0.3667 -0.0171
  248MPD1    C1 3812   3.445   2.768  17.650 -0.6442 -0.1899  0.5012
  248MPD1    C2 3813   3.552   2.854  17.630 -0.9213  0.1721  0.5451
  248MPD1    C3 3814   3.544   2.959  17.541 -0.0502 -0.6202  0.2443
  248MPD1    C4 3815   3.418   3.001  17.488  0.3750  1.1095  0.0361
  248MPD1    C5 3816   3.309   2.928  17.518  0.5668 -0.5836 -0.0575
  248MPD1     H 3817   3.644   2.830  17.681 -1.3803  1.5501  2.0472
  248MPD1    H1 3818   3.401   3.097  17.440 -1.5254 -0.0066 -1.4854
  248MPD1    H2 3819   3.233   2.764  17.634  0.9606 -1.8013  1.2988
  248MPD1    H3 3820   3.213   2.970  17.489  1.9980  3.7368  1.4660
  248MPD1     N 3821   3.659   3.041  17.528  0.2306  0.2145  0.1674
  248MPD1    H5 3822   3.736   3.028  17.593 -1.0490 -0.5228  1.5504
  248MPD1    N1 3823   3.443   2.671  17.748  0.0427  0.2041 -0.0443
  248MPD1    H6 3824   3.369   2.603  17.736 -1.1453  1.3809  0.6036
  248MPD1    H7 3825   3.526   2.613  17.745  1.1537  1.7478  1.1170
  249MPD1     C 3826   0.671   1.453   9.753 -0.9683  0.1793  0.0822
  249MPD1    C1 3827   0.701   1.579   9.696  0.2684  0.7609 -0.0062
  249MPD1    C2 3828   0.777   1.666   9.774  0.6382  0.3380  1.2573
  249MPD1    C3 3829   0.836   1.627   9.897 -0.9525  0.5248  0.6581
  249MPD1    C4 3830   0.818   1.498   9.937 -0.5609  1.1373  0.4137
  249MPD1    C5 3831   0.732   1.417   9.867  0.6583 -0.4718 -0.1058
  249MPD1     H 3832   0.804   1.762   9.732 -0.5957 -0.1720 -0.6896
  249MPD1    H1 3833   0.869   1.450  10.020 -0.6959 -0.3552 -0.3786
  249MPD1    H2 3834   0.606   1.379   9.708 -0.3233 -0.7380  0.6729
  249MPD1    H3 3835   0.719   1.311   9.888  1.0283  0.0722  2.9059
  249MPD1     N 3836   0.916   1.720   9.963 -0.2265 -0.1279 -0.2109
  249MPD1    H5 3837   0.911   1.815   9.929 -1.1873 -0.3482 -0.6643
  249MPD1    N1 3838   0.639   1.620   9.575  0.0033 -0.3298  0.3003
  249MPD1    H6 3839   0.624   1.547   9.506  1.3900  0.0482 -0.4003
  249MPD1    H7 3840   0.685   1.707   9.545  0.3233 -1.0234 -1.2358
  250MPD2     C 3841   2.615   1.157  13.059 -0.9086  0.3411 -0.4009
  250MPD2    C1 3842   2.537   1.260  13.009  0.9453  0.4798 -0.4113
  250MPD2    C2 3843   2.432   1.214  12.925  1.1741  0.2436 -0.1494
  250MPD2    C3 3844   2.425   1.077  12.886 -0.2190 -0.0466 -0.6567
  250MPD2    C4 3845   2.514   0.989  12.935 -0.5023  0.7695  0.0054
  250MPD2    C5 3846   2.602   1.030  13.025  0.3060 -0.2586 -1.0617
  250MPD2     H 3847   2.351   1.279  12.894  0.1635 -2.2545 -2.7374
  250MPD2    H1 3848   2.502   0.883  12.917  0.2220  0.3729  1.9526
  250MPD2    H2 3849   2.684   1.183  13.139 -1.0060  1.6055 -0.7234
  250MPD2    H3 3850   2.671   0.955  13.061 -0.6979 -1.6465 -1.9812
  250MPD2     N 3851   2.329   1.017  12.799 -0.2053  0.1628  0.2374
  250MPD2    H5 3852   2.353   0.925  12.762  1.0080  0.3061  0.6472
  250MPD2    N1 3853   2.552   1.390  13.052  0.5117 -0.0678  0.1060
  250MPD2    H7 3854   2.610   1.395  13.135 -0.4980 -4.0497  1.0356
  251TMC3    C1 3855   2.520   1.630  13.062  0.1304  0.5194 -0.5331
  251TMC3    C2 3856   2.443   1.741  13.042  0.4430 -0.2369 -0.1753
  251TMC3    C3 3857   2.494   1.869  13.060 -0.5477 -0.0206 -0.5083
  251TMC3    C4 3858   2.633   1.642  13.138 -0.3824  0.1729 -0.0453
  251TMC3    C5 3859   2.667   1.775  13.180  0.3233 -0.1493  0.4586
  251TMC3    C6 3860   2.603   1.886  13.138 -0.1480 -0.5592 -0.6220
  251TMC3     C 3861   2.494   1.503  12.990 -0.1441  0.0488 -0.4089
  251TMC3     O 3862   2.433   1.513  12.884  0.0126 -0.1622  0.6557
  251TMC3     H 3863   2.352   1.730  12.984  0.7846 -0.3834 -0.6901
  251TMC3    H1 3864   2.695   1.555  13.158 -0.2389  0.7520  2.0738
  251TMC3    H2 3865   2.632   1.982  13.180  0.4022 -0.6440 -0.8041
  251TMC3    C7 3866   2.809   1.792  13.212 -0.3161 -0.8875  0.2299
  251TMC3    C8 3867   2.414   1.989  13.016 -0.2515  0.5548 -0.0602
  251TMC3    O1 3868   2.872   1.690  13.204 -0.5910 -0.4802 -0.2580
  251TMC3    O2 3869   2.305   1.958  12.971  0.0501 -0.5326  0.3367
  252TMC3    C1 3870   2.028   2.844   9.489  0.4631  0.2976  0.0272
  252TMC3    C2 3871   2.157   2.876   9.490  0.1825 -0.7871 -0.3503
  252TMC3    C3 3872   2.252   2.777   9.472  0.2706 -0.1446  0.2803
  252TMC3    C4 3873   1.989   2.713   9.472 -0.2700 -0.7390 -0.0106
  252TMC3    C5 3874   2.078   2.609   9.465  0.4553  0.0073  0.1507
  252TMC3    C6 3875   2.211   2.646   9.452  0.1559  0.0652 -0.3373
  252TMC3     C 3876   1.925   2.937   9.457 -0.3702 -0.0055  0.4714
  252TMC3     O 3877   1.805   2.915   9.472 -0.3165  0.0691 -0.0178
  252TMC3     H 3878   2.187   2.978   9.509 -1.5897  0.0305 -1.9358
  252TMC3    H1 3879   1.884   2.687   9.457  0.2214 -1.2948 -2.6482
  252TMC3    H2 3880   2.294   2.578   9.436  2.2498  2.8411 -1.1980
  252TMC3    C7 3881   2.037   2.476   9.436  0.2094  0.4887  0.7020
  252TMC3    C8 3882   2.393   2.806   9.496  0.2401  0.0938 -0.5201
  252TMC3    O1 3883   1.930   2.467   9.380  0.1584 -0.3506  0.3520
  252TMC3    O2 3884   2.477   2.751   9.421 -0.3081  0.1839  0.4055
  253MPD2     C 3885   3.654   1.242  15.076  0.5329  0.0500  0.9593
  253MPD2    C1 3886   3.515   1.225  15.097 -0.2969 -0.5949  0.1986
  253MPD2    C2 3887   3.465   1.223  15.231  0.4690  0.3657  0.0462
  253MPD2    C3 3888   3.550   1.243  15.339  0.1079 -0.0084  0.3872
  253MPD2    C4 3889   3.681   1.264  15.316  0.7642 -1.0111 -0.2694
  253MPD2    C5 3890   3.727   1.273  15.187 -0.0581 -0.4667 -0.5378
  253MPD2     H 3891   3.357   1.218  15.232  0.4396  0.7559 -0.8275
  253MPD2    H1 3892   3.750   1.285  15.398 -0.2468  0.4053  0.2196
  253MPD2    H2 3893   3.696   1.235  14.977  2.9272  3.2504  1.7554
  253MPD2    H3 3894   3.834   1.292  15.178 -0.0657  0.8197  2.1261
  253MPD2     N 3895   3.497   1.257  15.471 -0.0179 -0.2629 -0.0709
  253MPD2    H5 3896   3.569   1.266  15.542  0.1955 -1.4669 -0.1392
  253MPD2    N1 3897   3.425   1.234  14.991  0.1279 -0.5518 -0.1189
  253MPD2    H7 3898   3.329   1.212  15.017 -0.0791  2.2839  1.5682
  254TMC3    C1 3899   3.338   1.258  15.642 -0.0626  0.2423 -0.0516
  254TMC3    C2 3900   3.218   1.325  15.665  0.4186  0.0830  0.5035
  254TMC3    C3 3901   3.161   1.312  15.790  0.0990  1.2198  0.3332
  254TMC3    C4 3902   3.421   1.205  15.744  0.5356  0.1247  0.0982
  254TMC3    C5 3903   3.359   1.207  15.860  0.3175  0.2064  0.8391
  254TMC3    C6 3904   3.232   1.253  15.888  0.8003 -0.0662  0.2462
  254TMC3     C 3905   3.368   1.234  15.498 -0.3385  0.0925  0.3573
  254TMC3     O 3906   3.265   1.242  15.432 -0.3076 -0.6338 -0.3245
  254TMC3     H 3907   3.159   1.368  15.585 -2.2975 -4.3173  0.1265
  254TMC3    H1 3908   3.510   1.144  15.729  0.1123 -0.6436  0.7215
  254TMC3    H2 3909   3.198   1.240  15.990  0.4731  0.8042  0.2487
  254TMC3    C7 3910   3.447   1.197  15.979  0.1003  0.3697  0.4139
  254TMC3    C8 3911   3.068   1.420  15.833 -0.2252 -0.3555  0.0533
  254TMC3    O1 3912   3.399   1.163  16.088 -0.7968  0.4743 -0.4953
  254TMC3    O2 3913   3.038   1.417  15.952  0.0376  0.0006 -0.0773
  255MPD2     C 3914   0.925   4.130   9.606 -0.9257  0.3104 -0.3275
  255MPD2    C1 3915   0.960   4.222   9.711 -0.2481  0.4657 -0.4882
  255MPD2    C2 3916   0.988   4.171   9.835 -0.0451  0.4440  0.4166
  255MPD2    C3 3917   0.986   4.034   9.861 -0.2281  1.0309 -1.1168
  255MPD2    C4 3918   0.942   3.949   9.762  0.2600  0.5477 -0.4895
  255MPD2    C5 3919   0.911   3.998   9.638 -0.0238 -0.7179  0.0446
  255MPD2     H 3920   1.029   4.236   9.912 -0.5417  0.3854  0.7299
  255MPD2    H1 3921   0.947   3.842   9.778 -1.5843  0.3429 -1.2693
  255MPD2    H2 3922   0.905   4.170   9.507 -1.7979  0.1528 -0.2138
  255MPD2    H3 3923   0.884   3.929   9.558 -0.7705  1.6009 -1.7143
  255MPD2     N 3924   1.028   3.994   9.995  0.5540  0.1273 -0.8008
  255MPD2    H5 3925   1.077   4.067  10.045  1.7238 -0.9835 -0.3306
  255MPD2    N1 3926   0.951   4.357   9.665 -0.0632  0.0209 -0.8447
  255MPD2    H7 3927   0.918   4.378   9.572  0.1965 -1.6304 -1.3144
  256TMC3    C1 3928   0.982   4.584   9.669  0.7569  0.0264 -0.5334
  256TMC3    C2 3929   1.023   4.689   9.742  0.2142 -0.5432  0.0697
  256TMC3    C3 3930   1.133   0.022   9.707 -0.4857  0.5485 -0.2985
  256TMC3    C4 3931   1.037   4.568   9.551  0.7349 -0.6024  0.6686
  256TMC3    C5 3932   1.152   4.636   9.513  0.1244  0.1114  0.2179
  256TMC3    C6 3933   1.208   4.732   9.590  0.3492  0.2519 -0.0982
  256TMC3     C 3934   0.972   4.464   9.745  0.1667 -0.0173 -0.2225
  256TMC3     O 3935   0.990   4.472   9.864  0.0359  0.0248 -0.7801
  256TMC3     H 3936   0.985   4.706   9.842  0.0456 -0.6341  0.0205
  256TMC3    H1 3937   1.004   4.493   9.480 -0.5851  0.6016  0.0078
  256TMC3    H2 3938   1.308   0.030   9.572  0.8656 -0.5631  1.0754
  256TMC3    C7 3939   1.256   4.547   9.465  0.0765 -0.4394 -0.4186
  256TMC3    C8 3940   1.159   0.153   9.760  1.0907  0.0225  0.1267
  256TMC3    O1 3941   1.318   4.503   9.560 -0.0909 -0.0244  0.5418
  256TMC3    O2 3942   1.065   0.222   9.799 -0.0236 -0.6506  0.3627
  257MPD2     C 3943   0.498   1.032  13.421  0.3545  0.2498 -0.5226
  257MPD2    C1 3944   0.620   1.061  13.363 -0.6174  0.3142  0.6074
  257MPD2    C2 3945   0.734   1.017  13.419 -0.3882  0.0905  0.4191
  257MPD2    C3 3946   0.738   0.952  13.532  0.1244 -0.2134 -0.1754
  257MPD2    C4 3947   0.619   0.938  13.604 -0.1115 -0.1412 -0.1499
  257MPD2    C5 3948   0.503   0.973  13.546  0.1148  0.7680  0.9035
  257MPD2     H 3949   0.830   1.040  13.375  1.3059 -2.1796  2.9780
  257MPD2    H1 3950   0.623   0.898  13.704 -0.8758  0.5517  0.1579
  257MPD2    H2 3951   0.402   1.044  13.372  0.0815 -2.6349 -0.6675
  257MPD2    H3 3952   0.410   0.955  13.597 -0.3572  0.8799  0.0939
  257MPD2     N 3953   0.865   0.906  13.580  0.3135 -0.0907 -0.2586
  257MPD2    H5 3954   0.954   0.937  13.541 -0.4245  0.8777 -1.1878
  257MPD2    N1 3955   0.614   1.109  13.233 -0.1692 -0.2360 -0.3370
  257MPD2    H7 3956   0.523   1.112  13.188 -0.2810 -0.9516 -0.1459
  258TMC3    C1 3957   1.017   0.768  13.685  0.5721 -0.3921 -0.1765
  258TMC3    C2 3958   1.105   0.790  13.585 -0.4215 -0.5806 -0.0640
  258TMC3    C3 3959   1.234   0.755  13.609  0.2981  0.4097 -0.1632
  258TMC3    C4 3960   1.046   0.713  13.804  0.0117 -0.7292 -0.1148
  258TMC3    C5 3961   1.177   0.667  13.827 -0.3356 -0.1625  0.3528
  258TMC3    C6 3962   1.273   0.704  13.728 -0.0106  0.1825  0.8872
  258TMC3     C 3963   0.879   0.805  13.666  0.4833  0.1047  0.2897
  258TMC3     O 3964   0.792   0.738  13.722 -0.4525 -0.6400 -0.7092
  258TMC3     H 3965   1.085   0.825  13.485 -0.7153 -2.9129 -0.8334
  258TMC3    H1 3966   0.967   0.711  13.878 -0.7449 -1.7712 -0.9253
  258TMC3    H2 3967   1.376   0.669  13.735 -0.3522 -0.9527  0.1797
  258TMC3    C7 3968   1.230   0.663  13.964 -0.4167 -0.4852 -0.5119
  258TMC3    C8 3969   1.340   0.786  13.520  0.9123 -0.1388 -0.1855
  258TMC3    O1 3970   1.153   0.638  14.055 -0.2943 -0.3785 -0.7335
  258TMC3    O2 3971   1.449   0.800  13.573  0.6645  0.4408  0.2561
  259MPD2     C 3972   4.214   3.041  17.708  0.4087  0.1926  0.6275
  259MPD2    C1 3973   4.346   3.053  17.755  0.8354 -0.6085  0.2386
  259MPD2    C2 3974   4.449   3.099  17.667 -0.9181 -0.4165  0.4450
  259MPD2    C3 3975   4.413   3.119  17.532  0.1187 -0.1522  0.0714
  259MPD2    C4 3976   4.288   3.106  17.484 -0.5145 -1.0062 -0.0023
  259MPD2    C5 3977   4.188   3.060  17.573  0.4902 -0.2220 -0.2994
  259MPD2     H 3978   4.551   3.122  17.695 -1.0115  1.1672 -0.5209
  259MPD2    H1 3979   4.264   3.116  17.378  2.5040 -0.5708 -0.6407
  259MPD2    H2 3980   4.134   3.007   0.017 -0.1236  0.7317  0.2583
  259MPD2    H3 3981   4.089   3.041  17.533 -0.1732  2.5071 -0.0202
  259MPD2     N 3982   4.519   3.144  17.434  0.0844 -0.2994 -0.0436
  259MPD2    H5 3983   4.615   3.146  17.468  0.5025  1.7484 -1.3420
  259MPD2    N1 3984   4.369   3.032   0.134 -0.3830  0.1677 -0.0084
  259MPD2    H7 3985   4.295   2.990   0.190 -0.4299 -0.3974 -0.4954
  260TMC3    C1 3986   4.639   3.196  17.242  0.1460  0.1816  0.5489
  260TMC3    C2 3987   4.664   3.143  17.119 -0.3296 -0.5488  0.0450
  260TMC3    C3 3988   0.056   3.132  17.080 -0.6980 -0.4328  0.2391
  260TMC3    C4 3989   0.002   3.221  17.332  0.7104  0.0250  0.3737
  260TMC3    C5 3990   0.132   3.204  17.290 -0.5465 -0.2783  0.4268
  260TMC3    C6 3991   0.159   3.170  17.161 -0.5995  0.1751  0.5138
  260TMC3     C 3992   4.506   3.175  17.297  0.0772  0.8261 -0.1952
  260TMC3     O 3993   4.409   3.200  17.233  0.4192  0.6967  0.3243
  260TMC3     H 3994   4.586   3.130  17.044 -0.2805  0.8057 -0.2484
  260TMC3    H1 3995   4.716   3.257  17.431 -0.4462  1.2838 -0.3792
  260TMC3    H2 3996   0.252   3.150  17.110  1.0825  0.3602  3.5336
  260TMC3    C7 3997   0.205   3.114  17.376 -0.6683  1.0994  0.1502
  260TMC3    C8 3998   0.079   3.001  17.015 -0.3406 -0.0695 -0.3025
  260TMC3    O1 3999   0.272   3.027  17.322  0.9009  0.2402  0.6303
  260TMC3    O2 4000   0.012   2.976  16.917  0.1259 -0.0582 -0.3538
  261MPD2     C 4001   1.607   1.142  12.314  0.0308 -0.1560 -0.3784
  261MPD2    C1 4002   1.739   1.190  12.317 -0.0385 -0.5381 -0.2396
  261MPD2    C2 4003   1.772   1.297  12.235  0.7140  0.0499  0.5408
  261MPD2    C3 4004   1.681   1.339  12.137 -0.5702 -0.0996 -0.3202
  261MPD2    C4 4005   1.547   1.287  12.134  0.2011  0.4989 -0.8433
  261MPD2    C5 4006   1.517   1.188  12.222 -0.2003  0.5951  0.0605
  261MPD2     H 4007   1.875   1.332  12.229  0.2751  1.3230  0.4963
  261MPD2    H1 4008   1.482   1.323  12.055  1.1918 -0.7030 -2.2148
  261MPD2    H2 4009   1.568   1.060  12.374 -0.2333  0.7820  0.7226
  261MPD2    H3 4010   1.412   1.161  12.221 -0.4527  1.3749  3.4778
  261MPD2     N 4011   1.727   1.430  12.038 -0.4826 -0.5751  0.3745
  261MPD2    H5 4012   1.824   1.457  12.043 -0.5162 -0.6911  1.6408
  261MPD2    N1 4013   1.840   1.146  12.414 -0.0393  0.1047 -0.6927
  261MPD2    H7 4014   1.926   1.199  12.417  0.2885 -0.5398  1.5254
  262TMC3    C1 4015   1.712   1.615  11.889 -0.5238  0.0000  0.2488
  262TMC3    C2 4016   1.646   1.733  11.874  0.2958  0.2948 -0.4851
  262TMC3    C3 4017   1.715   1.829  11.810  0.4473  0.3048  0.8779
  262TMC3    C4 4018   1.828   1.589  11.828  0.1440  0.2095 -0.4673
  262TMC3    C5 4019   1.893   1.686  11.751 -0.0163 -0.4168  0.4044
  262TMC3    C6 4020   1.834   1.811  11.747 -0.0762 -0.5869 -0.0096
  262TMC3     C 4021   1.648   1.500  11.947 -0.5949 -0.8595  0.1585
  262TMC3     O 4022   1.530   1.504  11.953  0.4183 -0.0957 -0.3458
  262TMC3     H 4023   1.570   1.752  11.949  1.6286  0.9087  0.7050
  262TMC3    H1 4024   1.875   1.492  11.831 -0.4754 -0.2161 -3.8291
  262TMC3    H2 4025   1.869   1.892  11.684 -0.8441 -1.2186 -1.2543
  262TMC3    C7 4026   1.976   1.639  11.640 -0.7412  0.0267 -0.6061
  262TMC3    C8 4027   1.679   1.966  11.827  0.1293 -0.2297  0.0162
  262TMC3    O1 4028   2.016   1.523  11.654  0.4946 -0.0731 -0.3702
  262TMC3    O2 4029   1.756   2.057  11.807 -0.0124 -0.2150  0.3494
  263MPD2     C 4030   2.375   0.369  11.286 -0.9892  0.1884  0.9486
  263MPD2    C1 4031   2.487   0.440  11.252 -0.1208 -0.0801  0.4229
  263MPD2    C2 4032   2.484   0.514  11.136 -0.0988  0.2743 -0.1278
  263MPD2    C3 4033   2.378   0.497  11.039 -0.6779  0.4218  0.1118
  263MPD2    C4 4034   2.263   0.435  11.079 -0.1028  0.0514  0.4047
  263MPD2    C5 4035   2.264   0.363  11.199 -0.2822 -0.0945  0.1386
  263MPD2     H 4036   2.569   0.578  11.112  0.8465 -0.9221  0.0001
  263MPD2    H1 4037   2.173   0.437  11.019  0.9084 -1.4873 -1.1707
  263MPD2    H2 4038   2.382   0.288  11.358  2.2461  1.6002  2.2105
  263MPD2    H3 4039   2.187   0.291  11.225  1.9439 -2.0456  1.2922
  263MPD2     N 4040   2.371   0.589  10.934  0.3148  0.0415 -0.4829
  263MPD2    H5 4041   2.429   0.671  10.946  2.8874 -1.5669 -1.9417
  263MPD2    N1 4042   2.595   0.436  11.341 -0.4461  0.2070 -0.4812
  263MPD2    H7 4043   2.575   0.378  11.422  0.6726 -1.4839 -1.4326
  264TMC3    C1 4044   2.330   0.681  10.727 -0.0764  0.2704  0.6594
  264TMC3    C2 4045   2.316   0.803  10.780  0.6154  0.3565 -0.5609
  264TMC3    C3 4046   2.368   0.909  10.714  0.3032 -0.1731  0.5993
  264TMC3    C4 4047   2.404   0.661  10.611  0.5576 -0.2966  0.2895
  264TMC3    C5 4048   2.457   0.767  10.542 -0.1934  0.0347 -0.4973
  264TMC3    C6 4049   2.426   0.895  10.588 -0.2903 -0.2858  0.6521
  264TMC3     C 4050   2.310   0.565  10.817  0.3784  0.1105  0.2442
  264TMC3     O 4051   2.257   0.464  10.785  0.1770  0.3545 -0.4310
  264TMC3     H 4052   2.271   0.808  10.879 -0.3278 -0.6608 -0.9331
  264TMC3    H1 4053   2.440   0.562  10.590  0.0103 -0.6545  1.0143
  264TMC3    H2 4054   2.458   0.979  10.527 -1.0651  0.4469  1.2559
  264TMC3    C7 4055   2.555   0.746  10.433 -0.6184 -0.1516  0.2193
  264TMC3    C8 4056   2.374   1.043  10.765 -0.6779  0.1280 -0.0695
  264TMC3    O1 4057   2.587   0.632  10.404  0.3253  0.6184 -0.4146
  264TMC3    O2 4058   2.391   1.130  10.677  0.1767 -0.8089  0.1344
  265MPD2     C 4059   4.325   0.609  15.536 -0.2023 -0.3041 -0.0154
  265MPD2    C1 4060   4.388   0.718  15.480  0.6476  0.1574 -0.2018
  265MPD2    C2 4061   4.463   0.706  15.366  0.1391 -1.0515  0.6847
  265MPD2    C3 4062   4.473   0.579  15.300  0.1259  0.0484 -0.8796
  265MPD2    C4 4063   4.415   0.466  15.355 -0.1427  0.4968  0.0957
  265MPD2    C5 4064   4.347   0.488  15.474  0.0883  0.4150  0.3609
  265MPD2     H 4065   4.495   0.800  15.322  1.0113 -2.6318 -2.0681
  265MPD2    H1 4066   4.423   0.375  15.297 -1.7574  0.2405  0.2753
  265MPD2    H2 4067   4.259   0.625  15.620  0.6393  3.1388  0.0212
  265MPD2    H3 4068   4.275   0.410  15.500 -1.6293  1.8638 -0.0124
  265MPD2     N 4069   4.527   0.557  15.173  0.2090 -0.8478 -0.4011
  265MPD2    H5 4070   4.530   0.463  15.135  0.4935 -0.6567 -0.8532
  265MPD2    N1 4071   4.358   0.852  15.504  0.3338  0.2244 -0.5958
  265MPD2    H7 4072   4.385   0.917  15.432  0.9822  0.7179  0.0843
  266TMC3    C1 4073   4.272   1.040  15.647 -0.6747 -0.2720  0.1515
  266TMC3    C2 4074   4.254   1.071  15.776 -0.1189 -0.4984 -0.3661
  266TMC3    C3 4075   4.191   1.193  15.807 -0.0734 -0.1717  0.5823
  266TMC3    C4 4076   4.234   1.126  15.538 -0.2744 -0.6161  0.4753
  266TMC3    C5 4077   4.182   1.247  15.570  0.0334  0.9005 -0.1047
  266TMC3    C6 4078   4.163   1.280  15.700  0.3877  0.1333  0.8023
  266TMC3     C 4079   4.310   0.896  15.627 -0.4570  0.2888 -0.1994
  266TMC3     O 4080   4.304   0.830  15.735  0.8705  0.8496  0.3464
  266TMC3     H 4081   4.291   1.008  15.856 -0.5598  0.7360  0.8030
  266TMC3    H1 4082   4.249   1.092  15.437  0.3247  1.3626 -0.0932
  266TMC3    H2 4083   4.123   1.378  15.722 -2.4119 -0.5695 -1.1430
  266TMC3    C7 4084   4.122   1.327  15.465 -0.0969 -0.3332 -0.4311
  266TMC3    C8 4085   4.208   1.235  15.943 -0.1634 -0.9216  0.0246
  266TMC3    O1 4086   4.116   1.276  15.351 -0.0333  0.2803  0.0511
  266TMC3    O2 4087   4.216   1.143  16.027  0.1038  0.4549 -0.1139
  267MPD2     C 4088   1.620   2.658   0.102  0.7834  0.6790  0.1440
  267MPD2    C1 4089   1.660   2.774   0.037 -0.6898  0.0801  0.5042
  267MPD2    C2 4090   1.576   2.844  17.706 -0.2589 -0.5273 -0.3090
  267MPD2    C3 4091   1.457   2.782  17.656  0.7432 -0.7545  0.0015
  267MPD2    C4 4092   1.430   2.658  17.704  0.2685 -0.4275  0.7111
  267MPD2    C5 4093   1.504   2.604   0.052  0.0631 -0.5762 -0.9812
  267MPD2     H 4094   1.606   2.943  17.671  0.7829 -1.2026 -1.3212
  267MPD2    H1 4095   1.340   2.605  17.676  1.6872 -2.2328 -0.4337
  267MPD2    H2 4096   1.683   2.611   0.176  0.2883 -0.6432 -0.2868
  267MPD2    H3 4097   1.478   2.503   0.079  1.8916 -1.0131 -0.8303
  267MPD2     N 4098   1.384   2.844  17.553 -0.2276 -0.8041  0.2565
  267MPD2    H5 4099   1.306   2.787  17.525 -1.8740  1.7926 -0.4276
  267MPD2    N1 4100   1.796   2.812   0.059 -0.0969 -0.0676  0.4481
  267MPD2    H7 4101   1.839   2.772   0.142 -1.1920 -0.5553  0.7953
  268TMC3    C1 4102   2.000   2.891  17.753 -0.5900  0.1966  0.1612
  268TMC3    C2 4103   2.080   2.924  17.647  0.0032 -0.5115 -0.3008
  268TMC3    C3 4104   2.218   2.927  17.678  0.0595  0.4942  0.8247
  268TMC3    C4 4105   2.042   2.868   0.129 -0.5305  1.1270  0.5305
  268TMC3    C5 4106   2.179   2.863   0.141 -0.3505 -0.5451 -1.2036
  268TMC3    C6 4107   2.273   2.895   0.045 -0.0533 -0.8457  0.2289
  268TMC3     C 4108   1.864   2.877  17.718  0.5649  0.5564  0.4031
  268TMC3     O 4109   1.829   2.893  17.600 -0.2630 -0.4656 -0.1444
  268TMC3     H 4110   2.034   2.983  17.569  1.9426  0.9578 -0.3386
  268TMC3    H1 4111   1.973   2.872   0.212 -0.6343 -0.4708  0.5197
  268TMC3    H2 4112   2.380   2.886   0.056  0.2805  3.2549  0.3613
  268TMC3    C7 4113   2.218   2.844   0.276  0.1768  0.9191 -1.1605
  268TMC3    C8 4114   2.296   3.015  17.601  0.1267 -0.6697 -0.9146
  268TMC3    O1 4115   2.138   2.888   0.361  0.3771  0.0879  0.3378
  268TMC3    O2 4116   2.399   3.057  17.653 -0.1948 -0.0316  0.2729
  269MPD2     C 4117   2.328   1.734  15.861 -0.3460 -0.4865 -0.8533
  269MPD2    C1 4118   2.223   1.702  15.773  0.5275 -0.0903 -0.0760
  269MPD2    C2 4119   2.196   1.785  15.663 -0.0432 -1.0724 -0.2627
  269MPD2    C3 4120   2.275   1.898  15.635  0.4726  0.8440  0.1045
  269MPD2    C4 4121   2.393   1.911  15.713 -0.1468 -0.2839  0.4285
  269MPD2    C5 4122   2.417   1.832  15.827 -0.0998 -0.6257 -0.4397
  269MPD2     H 4123   2.115   1.755  15.597 -0.8240 -0.3243  0.3574
  269MPD2    H1 4124   2.463   1.990  15.687  1.5409 -1.8515  0.2695
  269MPD2    H2 4125   2.344   1.664  15.942 -1.7037 -0.2651 -0.4035
  269MPD2    H3 4126   2.506   1.849  15.886  0.7847 -0.8699 -1.6847
  269MPD2     N 4127   2.247   1.990  15.529 -0.8031 -0.0282 -0.0574
  269MPD2    H5 4128   2.150   1.983  15.499 -0.2155  3.4869 -2.7203
  269MPD2    N1 4129   2.148   1.584  15.809  0.1398  0.2651  0.5774
  269MPD2    H7 4130   2.170   1.536  15.895 -0.0090 -0.7878  0.0241
  270TMC3    C1 4131   1.985   1.412  15.789 -0.2021 -0.5591 -0.0424
  270TMC3    C2 4132   1.939   1.319  15.696 -0.0878 -0.9547  0.1947
  270TMC3    C3 4133   1.949   1.186  15.720  0.2471  0.1569 -0.4751
  270TMC3    C4 4134   2.032   1.369  15.906 -0.4886  0.4164  0.1126
  270TMC3    C5 4135   2.053   1.234  15.924 -0.2560 -0.1800  0.1994
  270TMC3    C6 4136   2.006   1.141  15.833  0.2026  0.0201  0.2157
  270TMC3     C 4137   2.038   1.534  15.736 -0.0233 -0.4216 -0.3729
  270TMC3     O 4138   2.000   1.565  15.624  0.4340 -0.1701 -0.1439
  270TMC3     H 4139   1.920   1.351  15.594  0.8046 -2.7926 -0.5498
  270TMC3    H1 4140   2.059   1.434  15.989 -0.7081  1.9349 -0.9992
  270TMC3    H2 4141   2.023   1.035  15.843  0.5249  0.2683  2.2573
  270TMC3    C7 4142   2.178   1.205  16.000 -0.3961  0.1643 -0.1679
  270TMC3    C8 4143   1.980   1.092  15.621 -1.0764 -0.5671 -0.8623
  270TMC3    O1 4144   2.198   1.281  16.095 -0.1107 -0.1998  0.4354
  270TMC3    O2 4145   1.904   0.998  15.618  0.0029 -0.2706  0.7284
  271MPD2     C 4146   2.013   1.238  14.189 -0.1545 -0.1291 -0.4857
  271MPD2    C1 4147   1.918   1.244  14.295 -0.7423 -0.0798  0.1564
  271MPD2    C2 4148   1.787   1.277  14.274 -0.2669  0.5590 -0.1390
  271MPD2    C3 4149   1.748   1.310  14.141  0.0794  0.2971  0.2577
  271MPD2    C4 4150   1.840   1.312  14.038 -0.6582  0.0895  0.1527
  271MPD2    C5 4151   1.965   1.276  14.068 -0.1735 -0.3204  0.0117
  271MPD2     H 4152   1.711   1.274  14.352  0.9570 -1.1583  1.0081
  271MPD2    H1 4153   1.816   1.344  13.937  0.3394 -2.6003 -0.9146
  271MPD2    H2 4154   2.118   1.226  14.212  0.1357 -0.0993 -1.7587
  271MPD2    H3 4155   2.040   1.296  13.993  0.3367 -2.4036 -0.0185
  271MPD2     N 4156   1.616   1.337  14.107  0.0807  0.2244  0.2501
  271MPD2    H5 4157   1.598   1.348  14.008 -0.2597  1.4978  0.4570
  271MPD2    N1 4158   1.952   1.233  14.434 -0.0446  0.7658  0.1076
  271MPD2    H7 4159   1.880   1.222  14.504  1.1366 -0.6649  1.1035
  272TMC3    C1 4160   2.093   1.187  14.623  0.3759 -0.3560 -0.0646
  272TMC3    C2 4161   2.226   1.195  14.665 -0.0091  0.5105  0.1043
  272TMC3    C3 4162   2.252   1.137  14.785 -0.4401  0.1478  0.1127
  272TMC3    C4 4163   1.988   1.125  14.695 -0.0908  0.6913  0.1101
  272TMC3    C5 4164   2.026   1.060  14.809 -0.5288 -0.0784  0.6479
  272TMC3    C6 4165   2.159   1.058  14.853  0.5516 -0.2064 -0.4286
  272TMC3     C 4166   2.078   1.229  14.479  0.5859 -0.8053  0.2113
  272TMC3     O 4167   2.179   1.249  14.412  0.1729  0.0320 -0.1018
  272TMC3     H 4168   2.297   1.257  14.610  0.4318  0.1752  0.2994
  272TMC3    H1 4169   1.883   1.131  14.669 -0.2240 -1.0957  0.2193
  272TMC3    H2 4170   2.174   0.995  14.940 -1.3612  0.6457  0.5130
  272TMC3    C7 4171   1.926   1.061  14.912  0.3211  0.9736  0.4570
  272TMC3    C8 4172   2.388   1.083  14.782 -0.0131 -0.3485  0.2307
  272TMC3    O1 4173   1.811   1.070  14.874 -0.1760  0.2198 -0.3583
  272TMC3    O2 4174   2.452   1.120  14.687  0.4102  0.1019 -0.2101
  273MPD2     C 4175   2.983   4.010  11.801 -0.5398  0.4605  0.4279
  273MPD2    C1 4176   3.076   4.057  11.710 -0.6872 -0.0528 -0.4035
  273MPD2    C2 4177   3.050   4.071  11.575 -0.3522 -0.6887  0.0350
  273MPD2    C3 4178   2.922   4.047  11.525 -0.2840 -0.1579 -0.1136
  273MPD2    C4 4179   2.829   3.982  11.608 -0.1857 -0.2400 -0.1507
  273MPD2    C5 4180   2.859   3.978  11.745 -0.7487  0.5306  0.0787
  273MPD2     H 4181   3.125   4.106  11.504 -1.8464  1.0475 -0.6756
  273MPD2    H1 4182   2.732   3.945  11.576 -0.3270  0.0663 -0.0751
  273MPD2    H2 4183   3.001   4.002  11.908  0.1589 -1.1360  0.1907
  273MPD2    H3 4184   2.782   3.936  11.809 -0.9445  2.0983  0.8750
  273MPD2     N 4185   2.889   4.068  11.389 -0.3871 -0.6393  0.1141
  273MPD2    H5 4186   2.794   4.050  11.358 -0.6120  2.9549 -1.3149
  273MPD2    N1 4187   3.206   4.089  11.756  0.0310  0.7101  0.3621
  273MPD2    H7 4188   3.223   4.077  11.856  0.4609 -0.6373  0.1333
  274TMC3    C1 4189   2.900   4.197  11.182  0.8328  0.2481 -0.2041
  274TMC3    C2 4190   2.765   4.220  11.173  0.2439 -0.1278  0.3331
  274TMC3    C3 4191   2.730   4.314  11.074  0.0956 -0.6525  0.5710
  274TMC3    C4 4192   2.993   4.272  11.111 -0.1596  0.0601  0.0742
  274TMC3    C5 4193   2.954   4.382  11.049 -0.1859 -0.2006 -0.9254
  274TMC3    C6 4194   2.827   4.389  11.004  0.8002 -0.2672  0.6909
  274TMC3     C 4195   2.966   4.141  11.304 -0.5299 -0.4905 -0.1821
  274TMC3     O 4196   3.084   4.174  11.303 -0.0571  0.4296  0.5569
  274TMC3     H 4197   2.687   4.162  11.221 -2.1393  3.2704  0.5707
  274TMC3    H1 4198   3.092   4.232  11.089  0.1635  1.5443 -1.2067
  274TMC3    H2 4199   2.787   4.489  10.989 -0.0785 -0.5591  1.0894
  274TMC3    C7 4200   2.989   4.493  11.134  0.2757 -0.1548 -0.1352
  274TMC3    C8 4201   2.586   4.351  11.068  0.7069  0.0478  0.0371
  274TMC3    O1 4202   2.990   4.611  11.092  0.4149  0.8601 -0.5643
  274TMC3    O2 4203   2.524   4.300  11.158  0.2842  0.2752  0.2653
  275MPD2     C 4204   3.077   2.453  14.465  0.6052 -0.5787  0.7181
  275MPD2    C1 4205   3.133   2.328  14.501  0.2524  0.0290 -0.2580
  275MPD2    C2 4206   3.052   2.218  14.509 -0.7048 -0.2323  1.1337
  275MPD2    C3 4207   2.918   2.230  14.474 -0.0682 -0.8912  0.0635
  275MPD2    C4 4208   2.861   2.352  14.458 -0.0715  0.1737  0.2404
  275MPD2    C5 4209   2.941   2.464  14.453  0.4199 -0.0247 -0.5494
  275MPD2     H 4210   3.089   2.122  14.543  3.1486  0.8864  0.0578
  275MPD2    H1 4211   2.754   2.373  14.453 -0.2665 -0.7559  0.3796
  275MPD2    H2 4212   3.128   2.548  14.468  3.2985 -1.9413 -1.7234
  275MPD2    H3 4213   2.894   2.560  14.435  0.9833  0.4203  0.3513
  275MPD2     N 4214   2.827   2.123  14.475  0.1598 -0.0264  0.4741
  275MPD2    H5 4215   2.732   2.148  14.450  0.1488 -1.0905 -0.5140
  275MPD2    N1 4216   3.268   2.320  14.545 -0.0741 -0.1909 -0.0878
  275MPD2    H7 4217   3.294   2.235  14.594 -2.8345 -2.0974 -1.9512
  276TMC3    C1 4218   3.469   2.388  14.633  0.0340 -0.0246  0.4319
  276TMC3    C2 4219   3.522   2.266  14.619  0.0901 -0.0645 -0.1324
  276TMC3    C3 4220   3.659   2.264  14.643  0.2771 -0.0469  0.3790
  276TMC3    C4 4221   3.541   2.497  14.665 -0.4192  0.3477 -0.0184
  276TMC3    C5 4222   3.675   2.493  14.676 -0.1190 -0.5978  0.2511
  276TMC3    C6 4223   3.742   2.376  14.661  0.2785  0.1926  0.5014
  276TMC3     C 4224   3.357   2.422  14.547  0.3661  0.0525 -0.7008
  276TMC3     O 4225   3.362   2.523  14.478  0.3218  0.1752  0.3934
  276TMC3     H 4226   3.469   2.180  14.580  1.2304 -1.9845  2.6104
  276TMC3    H1 4227   3.493   2.594  14.673  0.2986  0.6477  0.6516
  276TMC3    H2 4228   3.850   2.376  14.675  0.6952 -0.2790 -2.7190
  276TMC3    C7 4229   3.733   2.590  14.769  0.3125 -0.0781  0.1077
  276TMC3    C8 4230   3.715   2.141  14.693 -0.0406  0.8519 -0.4373
  276TMC3    O1 4231   3.666   2.664  14.842 -0.4265  0.0963 -0.2968
  276TMC3    O2 4232   3.831   2.142  14.713  0.1084 -0.5906  0.2641
  277MPD2     C 4233   0.058   1.692  12.929  0.2277 -0.1711 -0.2405
  277MPD2    C1 4234   4.736   1.739  13.048  0.0280  0.1983 -0.0386
  277MPD2    C2 4235   4.706   1.644  13.146 -0.2282  0.3576 -0.1165
  277MPD2    C3 4236   0.018   1.515  13.145  0.6822 -0.5825  0.6769
  277MPD2    C4 4237   0.080   1.473  13.032 -0.1265 -0.2029  0.2333
  277MPD2    C5 4238   0.099   1.561  12.921  0.0010  0.4273 -0.1475
  277MPD2     H 4239   4.658   1.675  13.238  0.3021 -1.8163  0.8769
  277MPD2    H1 4240   0.124   1.375  13.020 -1.4565 -0.4564 -2.7304
  277MPD2    H2 4241   0.086   1.768  12.857  1.0109 -1.1753 -0.9978
  277MPD2    H3 4242   0.151   1.525  12.833  1.5344  1.4949  0.3303
  277MPD2     N 4243   4.717   1.436  13.257  0.2831 -0.1622 -0.1522
  277MPD2    H5 4244   4.664   1.476  13.333  0.5552 -0.5550  0.2478
  277MPD2    N1 4245   4.684   1.870  13.046 -0.3360  0.8858 -0.1588
  277MPD2    H7 4246   4.679   1.915  12.955 -1.7480  0.3356 -0.3461
  278TMC3    C1 4247   4.699   1.276  13.412  0.8748 -0.1318  0.1921
  278TMC3    C2 4248   0.038   1.193  13.486 -0.1900 -0.4995 -0.2919
  278TMC3    C3 4249   4.738   1.187  13.618 -0.1357 -0.0277 -0.6123
  278TMC3    C4 4250   4.577   1.333  13.446 -0.4740  0.0683 -0.6796
  278TMC3    C5 4251   4.542   1.315  13.571  0.6657  0.2882  0.1680
  278TMC3    C6 4252   4.616   1.239  13.659 -0.9061  0.1746 -0.0689
  278TMC3     C 4253   0.007   1.308  13.283  0.7043  0.1279 -0.3033
  278TMC3     O 4254   0.088   1.233  13.231  0.1588  0.2342 -0.1734
  278TMC3     H 4255   0.131   1.162  13.439 -0.7481  1.6475 -2.8275
  278TMC3    H1 4256   4.522   1.396  13.377 -0.8061 -0.6413 -1.0540
  278TMC3    H2 4257   4.588   1.228  13.763  3.0900 -0.3982  0.9551
  278TMC3    C7 4258   4.417   1.374  13.622  0.0349 -0.7967 -0.3090
  278TMC3    C8 4259   0.040   1.069  13.691  0.2856  0.1273  0.2692
  278TMC3    O1 4260   4.377   1.481  13.577  0.2830 -0.6299 -0.3198
  278TMC3    O2 4261   0.155   1.037  13.670  0.8340 -0.0533 -0.3265
  279MPD2     C 4262   4.003   0.979   0.264  0.3599 -0.0589  0.3787
  279MPD2    C1 4263   3.968   1.100   0.316 -0.9426 -0.0610 -0.0574
  279MPD2    C2 4264   3.983   1.206   0.233  0.2300  0.1494  0.3967
  279MPD2    C3 4265   4.033   1.195   0.104  0.1696 -0.5893  1.1068
  279MPD2    C4 4266   4.068   1.069   0.049 -0.2486  0.6667 -0.6178
  279MPD2    C5 4267   4.048   0.961   0.137 -1.4195  0.1766 -0.0658
  279MPD2     H 4268   3.955   1.304   0.270 -0.5540  0.6724 -1.5870
  279MPD2    H1 4269   4.115   1.052  17.710 -0.1797 -2.2979 -0.0526
  279MPD2    H2 4270   3.995   0.892   0.328  0.7763  0.4900  1.1788
  279MPD2    H3 4271   4.067   0.860   0.104 -0.6787 -0.3618  2.0430
  279MPD2     N 4272   4.045   1.305   0.015  0.1623  0.1908  0.7346
  279MPD2    H5 4273   4.092   1.292  17.683 -1.7225  1.4701 -0.4400
  279MPD2    N1 4274   3.912   1.103   0.444 -0.0834  0.4847  0.0588
  279MPD2    H7 4275   3.958   1.036   0.505  1.9763  0.2917 -1.6876
  280TMC3    C1 4276   3.736   1.251   0.376 -0.5060  0.2138  0.6929
  280TMC3    C2 4277   3.688   1.171   0.274  0.3815 -0.0073 -0.1892
  280TMC3    C3 4278   3.620   1.229   0.168  0.0536 -0.4511 -0.3097
  280TMC3    C4 4279   3.720   1.387   0.374 -0.4143 -0.3947  0.0840
  280TMC3    C5 4280   3.647   1.438   0.266  0.2647  0.0439 -0.3430
  280TMC3    C6 4281   3.593   1.363   0.162  0.2606  0.6752  0.6353
  280TMC3     C 4282   3.827   1.198   0.481 -0.0532  0.3158  0.0396
  280TMC3     O 4283   3.800   1.226   0.600 -0.3568  0.3445 -0.5321
  280TMC3     H 4284   3.701   1.064   0.289 -1.6084 -0.1090  0.7848
  280TMC3    H1 4285   3.779   1.450   0.439 -0.2323 -1.1932  0.6935
  280TMC3    H2 4286   3.537   1.410   0.081  0.2536 -0.7541 -0.1874
  280TMC3    C7 4287   3.650   1.588   0.241  0.3601 -0.5307  0.0869
  280TMC3    C8 4288   3.587   1.145   0.059  0.0377  0.2219 -0.3990
  280TMC3    O1 4289   3.721   1.649   0.317  0.0404 -0.1466  0.2983
  280TMC3    O2 4290   3.518   1.205  17.733  0.3358 -0.5690 -0.0573
  281TMC3    C1 4291   2.885   1.537  13.529  0.2951  0.0663  0.1464
  281TMC3    C2 4292   3.005   1.605  13.535 -0.0689 -0.1060 -0.0995
  281TMC3    C3 4293   3.110   1.566  13.451 -0.4449 -0.0423 -0.4666
  281TMC3    C4 4294   2.871   1.429  13.449 -0.1583 -0.5625 -0.6069
  281TMC3    C5 4295   2.976   1.392  13.368 -0.0838  0.2312  0.1277
  281TMC3    C6 4296   3.106   1.448  13.377 -0.0313 -0.0157  0.7595
  281TMC3     C 4297   2.763   1.604  13.579  0.8946  0.1441 -0.0719
  281TMC3     O 4298   2.664   1.536  13.602  0.2868 -0.2989  0.0512
  281TMC3     H 4299   3.011   1.697  13.590  0.0058 -0.9807  1.3489
  281TMC3    H1 4300   2.776   1.383  13.427 -0.5773  0.6171 -1.2331
  281TMC3    H2 4301   3.193   1.419  13.319  1.0419 -0.6595  2.6962
  281TMC3    C7 4302   2.956   1.269  13.298 -0.1828  0.7902  0.5666
  281TMC3    C8 4303   3.240   1.634  13.455  0.1795 -0.3912  0.6015
  281TMC3    O1 4304   2.869   1.195  13.339  0.1694 -0.1102  0.0891
  281TMC3    O2 4305   3.336   1.559  13.448 -0.2356  0.0161  0.0061
  282MPD2     C 4306   0.051   2.657  14.922 -0.3321  0.0948  0.0114
  282MPD2    C1 4307   4.692   2.721  14.989  0.1747  0.0327 -0.7880
  282MPD2    C2 4308   4.592   2.788  14.918  0.1946  0.5356 -0.6743
  282MPD2    C3 4309   4.584   2.776  14.783 -0.3127  0.3719  0.0524
  282MPD2    C4 4310   4.682   2.708  14.711 -0.1450 -0.4603  0.7442
  282MPD2    C5 4311   0.042   2.648  14.786 -0.2911 -0.0007 -0.4534
  282MPD2     H 4312   4.529   2.849  14.980 -0.6397  1.5662 -2.5298
  282MPD2    H1 4313   4.694   2.699  14.603 -0.7817  2.6642  0.4090
  282MPD2    H2 4314   0.137   2.619  14.975 -0.1262 -0.9511 -1.0793
  282MPD2    H3 4315   0.131   2.612  14.736 -0.9271 -1.0631 -0.7961
  282MPD2     N 4316   4.470   2.838  14.723  0.4485 -0.3522 -0.4433
  282MPD2    H5 4317   4.407   2.896  14.777  0.1159  0.3095 -1.5547
  282MPD2    N1 4318   4.695   2.744  15.129  0.7627  0.0153  0.5530
  282MPD2    H7 4319   4.630   2.806  15.178  2.1520  0.3670  1.9627
  283TMC3    C1 4320   0.019   2.704  15.352  0.0572 -0.5741  0.3616
  283TMC3    C2 4321   0.073   2.825  15.395 -0.1226 -0.4795 -0.3968
  283TMC3    C3 4322   0.071   2.838  15.533 -0.0777 -0.4394  0.0390
  283TMC3    C4 4323   4.693   2.617  15.425 -0.7126  0.7218  0.2388
  283TMC3    C5 4324   4.685   2.642  15.559 -0.2460 -0.1730  0.9106
  283TMC3    C6 4325   0.006   2.754  15.616  0.0829 -0.2065  0.1698
  283TMC3     C 4326   0.034   2.667  15.208  0.0141 -0.7508 -0.5733
  283TMC3     O 4327   0.067   2.550  15.186  0.6169 -0.1694  0.1922
  283TMC3     H 4328   0.113   2.897  15.325  1.5413 -1.0995 -0.0806
  283TMC3    H1 4329   4.651   2.531  15.374 -1.3389  0.8605  0.5185
  283TMC3    H2 4330   0.006   2.766  15.724  2.8357  0.8932  0.0420
  283TMC3    C7 4331   4.561   2.602  15.623 -0.4551 -0.4250 -0.1798
  283TMC3    C8 4332   0.139   2.948  15.602  0.2386 -0.0348 -0.6655
  283TMC3    O1 4333   4.521   2.667  15.721 -0.3223 -0.6145 -0.4205
  283TMC3    O2 4334   0.164   2.937  15.720 -0.2635  0.6177 -0.3166
  284MPD2     C 4335   2.283   2.125  11.804  0.4907  0.0337  0.0123
  284MPD2    C1 4336   2.393   2.074  11.735 -0.0708 -0.0518  0.0961
  284MPD2    C2 4337   2.411   1.941  11.715 -0.0695  0.1742  0.1218
  284MPD2    C3 4338   2.322   1.854  11.773  1.1019  0.3190  0.0380
  284MPD2    C4 4339   2.209   1.901  11.848  0.1538  0.5931 -0.3735
  284MPD2    C5 4340   2.205   2.039  11.875 -0.0739 -0.2352 -0.3462
  284MPD2     H 4341   2.493   1.911  11.650  0.3512  1.0549  0.2460
  284MPD2    H1 4342   2.144   1.835  11.904 -0.4334 -0.0521 -1.8065
  284MPD2    H2 4343   2.258   2.231  11.809 -0.0817 -0.0331 -1.4466
  284MPD2    H3 4344   2.131   2.084  11.940  0.5604  0.3584 -0.0204
  284MPD2     N 4345   2.338   1.717  11.749 -1.0659 -0.4025 -0.3643
  284MPD2    H5 4346   2.411   1.692  11.683  1.1916  1.4219  1.4600
  284MPD2    N1 4347   2.483   2.159  11.669  0.6169  0.0604 -0.1069
  284MPD2    H7 4348   2.545   2.113  11.603 -0.5196 -0.8991 -0.5037
  285TMC3    C1 4349   2.598   2.338  11.598  0.3233 -0.6691 -0.1237
  285TMC3    C2 4350   2.648   2.269  11.490 -0.4342  0.2369 -0.1970
  285TMC3    C3 4351   2.728   2.329  11.404 -0.3923  0.0401 -0.1563
  285TMC3    C4 4352   2.638   2.468  11.615 -0.5784  0.5693 -0.3162
  285TMC3    C5 4353   2.738   2.519  11.535 -0.2329  0.4978  0.4675
  285TMC3    C6 4354   2.775   2.455  11.412 -0.1092  0.2528  1.1297
  285TMC3     C 4355   2.499   2.289  11.685 -0.5241  0.4294  0.9728
  285TMC3     O 4356   2.442   2.361  11.763  0.5759 -0.0264 -0.4127
  285TMC3     H 4357   2.616   2.170  11.459  2.7691 -0.7026 -0.4329
  285TMC3    H1 4358   2.593   2.532  11.691  0.0917  0.6037  0.0501
  285TMC3    H2 4359   2.847   2.498  11.344 -0.5121  0.5994  0.9227
  285TMC3    C7 4360   2.787   2.653  11.559  0.3505  0.2824 -0.0830
  285TMC3    C8 4361   2.778   2.249  11.302 -0.3687  0.1957 -0.1331
  285TMC3    O1 4362   2.813   2.722  11.465 -0.0042  0.1766 -0.4026
  285TMC3    O2 4363   2.702   2.175  11.238  0.2226  0.9249  0.8974
  286MPD2     C 4364   3.276   1.154   1.030  0.3261  0.0787 -0.1032
  286MPD2    C1 4365   3.248   1.057   0.936  0.5634 -0.5978  0.1541
  286MPD2    C2 4366   3.309   0.931   0.944  0.6556  0.1014  0.4153
  286MPD2    C3 4367   3.382   0.893   1.059  0.5617  0.0072 -0.1483
  286MPD2    C4 4368   3.405   0.987   1.158  0.6030  0.5161 -0.3808
  286MPD2    C5 4369   3.359   1.119   1.134 -0.2299 -0.5965 -0.0792
  286MPD2     H 4370   3.286   0.868   0.859 -0.4176  1.2980 -0.1894
  286MPD2    H1 4371   3.460   0.961   1.248 -1.6314 -2.2864  0.1615
  286MPD2    H2 4372   3.239   1.256   1.027 -2.0758 -0.7498  0.9151
  286MPD2    H3 4373   3.379   1.201   1.202 -1.9162 -0.5789  0.3906
  286MPD2     N 4374   3.445   0.765   1.085 -0.3367  0.3419 -0.4593
  286MPD2    H5 4375   3.469   0.739   1.181  0.4868  2.7891  0.0011
  286MPD2    N1 4376   3.152   1.083   0.841  0.5399  0.0305  0.1343
  286MPD2    H7 4377   3.137   1.010   0.772 -0.0246  0.2340  0.0403
  287TMC3    C1 4378   3.515   0.542   1.026 -0.1097 -0.2175 -0.4621
  287TMC3    C2 4379   3.493   0.435   0.945  0.0267 -0.4401  0.0027
  287TMC3    C3 4380   3.553   0.316   0.975  0.7700 -0.2062  0.3490
  287TMC3    C4 4381   3.600   0.530   1.128  0.3923  0.9528 -0.6997
  287TMC3    C5 4382   3.654   0.412   1.162 -0.6709  0.3476 -0.0362
  287TMC3    C6 4383   3.638   0.299   1.083  0.4448  0.4548 -0.5238
  287TMC3     C 4384   3.464   0.674   0.984  0.6827  0.5595 -0.8125
  287TMC3     O 4385   3.425   0.679   0.865 -0.2050  0.5988 -0.1344
  287TMC3     H 4386   3.431   0.440   0.857  0.8814 -1.2049 -0.6400
  287TMC3    H1 4387   3.626   0.625   1.174  0.4933  0.5800  0.0131
  287TMC3    H2 4388   3.679   0.201   1.103 -0.3828  0.0665 -0.7267
  287TMC3    C7 4389   3.744   0.411   1.279 -0.0545 -0.1108  0.0224
  287TMC3    C8 4390   3.551   0.217   0.875 -0.5475  0.3676  0.1366
  287TMC3    O1 4391   3.743   0.517   1.347  0.2321 -0.2492  0.0457
  287TMC3    O2 4392   3.447   0.205   0.817 -0.2411  0.3797 -0.0522
  288TMC3    C1 4393   0.090   0.963  14.219  0.6309 -0.0265 -0.4796
  288TMC3    C2 4394   4.720   0.911  14.281  0.2566 -0.0518  0.2673
  288TMC3    C3 4395   4.657   1.015  14.352  0.0288 -0.1378 -0.1736
  288TMC3    C4 4396   0.143   1.094  14.213 -0.4681 -0.1526 -0.0487
  288TMC3    C5 4397   0.061   1.187  14.272 -0.0204  0.0736 -0.3401
  288TMC3    C6 4398   4.687   1.148  14.337  0.5665  0.0891  0.0288
  288TMC3     C 4399   0.191   0.860  14.210  0.4334  0.4099 -0.1024
  288TMC3     O 4400   0.193   0.768  14.288 -0.2614 -0.5248  0.0992
  288TMC3     H 4401   4.688   0.808  14.285 -1.1966  0.3318 -1.2108
  288TMC3    H1 4402   0.238   1.121  14.170  0.6650  0.0125  2.5231
  288TMC3    H2 4403   4.635   1.224  14.395 -0.6443 -0.2131 -0.6509
  288TMC3    C7 4404   0.109   1.320  14.291  0.0331 -0.4327 -0.2234
  288TMC3    C8 4405   4.576   0.978  14.470  0.1617 -0.1976 -0.3360
  288TMC3    O1 4406   0.038   1.389  14.357  0.3748  0.2387 -0.8779
  288TMC3    O2 4407   4.558   1.071  14.548 -0.2554  0.5397  0.2161
  289MPD2     C 4408   0.333   4.499  14.818  0.2207 -0.6967  0.1920
  289MPD2    C1 4409   0.330   4.584  14.713  0.5544 -0.5114  0.2072
  289MPD2    C2 4410   0.223   4.585  14.629  0.0531 -0.6935  0.5135
  289MPD2    C3 4411   0.131   4.482  14.627 -0.3462 -0.1623  0.0427
  289MPD2    C4 4412   0.139   4.393  14.732  0.2625 -0.5585 -0.2179
  289MPD2    C5 4413   0.230   4.407  14.834  1.2021 -0.3182 -0.1212
  289MPD2     H 4414   0.215   4.651  14.544  0.2746 -1.4475 -0.0962
  289MPD2    H1 4415   0.068   4.311  14.731  1.0183 -1.2290  0.4208
  289MPD2    H2 4416   0.417   4.492  14.887  1.0891  2.0881 -0.6073
  289MPD2    H3 4417   0.242   4.335  14.913  1.5174 -0.2937 -0.1464
  289MPD2     N 4418   0.036   4.463  14.522 -0.2769 -0.3759  0.6412
  289MPD2    H5 4419   4.735   4.371  14.508 -1.8304 -0.0580  3.0641
  289MPD2    N1 4420   0.438   4.673  14.691  0.0692  0.5633 -0.3782
  289MPD2    H7 4421   0.515   4.659  14.755 -0.5728  0.9443  0.4788
  290TMC3    C1 4422   4.599   4.555  14.388 -0.9576 -0.1004  0.6166
  290TMC3    C2 4423   4.544   4.664  14.319  0.4368 -0.3200 -0.3756
  290TMC3    C3 4424   4.432   4.637  14.239  0.2777  0.0880  0.5513
  290TMC3    C4 4425   4.528   4.435  14.405 -0.6674  0.0437  0.3963
  290TMC3    C5 4426   4.406   4.427  14.341 -0.1920 -0.5372  0.7691
  290TMC3    C6 4427   4.360   4.522  14.254 -0.1401 -0.5027 -0.3365
  290TMC3     C 4428   4.719   4.577  14.459  0.0555 -0.0111  0.5045
  290TMC3     O 4429   0.015   4.696  14.472 -0.4067  0.6082  0.1431
  290TMC3     H 4430   4.602   0.016  14.312 -0.5428  0.3274  0.0506
  290TMC3    H1 4431   4.558   4.350  14.465  0.9879  0.4332  0.1233
  290TMC3    H2 4432   4.261   4.522  14.211  0.5610  0.6162 -1.9487
  290TMC3    C7 4433   4.309   4.327  14.385  0.1167 -0.0678  0.8368
  290TMC3    C8 4434   4.376   4.723  14.136  0.1541 -0.9289  0.1477
  290TMC3    O1 4435   4.193   4.362  14.401  0.6604  0.0466 -0.3712
  290TMC3    O2 4436   4.324   4.665  14.041 -0.6258 -0.5041 -0.1048
  291MPD2     C 4437   3.778   4.652   0.285 -0.1913  0.4314 -0.2661
  291MPD2    C1 4438   3.901   4.598   0.276 -0.1744 -0.0893  0.2432
  291MPD2    C2 4439   4.015   4.673   0.294  0.0687 -0.0875 -0.2098
  291MPD2    C3 4440   3.997   0.071   0.325 -0.0885 -0.0913 -0.5052
  291MPD2    C4 4441   3.871   0.129   0.319 -0.5796  0.4593  0.6202
  291MPD2    C5 4442   3.758   0.045   0.309  0.1868 -0.0377  0.3604
  291MPD2     H 4443   4.108   4.616   0.293  0.1523  0.0703 -1.1562
  291MPD2    H1 4444   3.857   0.236   0.330  0.2894  0.6270  0.1352
  291MPD2    H2 4445   3.691   4.587   0.279 -1.0978  1.5288  1.0574
  291MPD2    H3 4446   3.655   0.078   0.312  0.1517 -0.2140  1.1432
  291MPD2     N 4447   4.113   0.152   0.355  0.1225 -0.4930 -0.5399
  291MPD2    H5 4448   4.093   0.243   0.394  0.4305 -1.3183  1.5415
  291MPD2    N1 4449   3.916   4.457   0.247  0.9514  0.1315 -0.5130
  291MPD2    H7 4450   4.012   4.424   0.243  0.3196 -1.8403  0.6606
  292TMC3    C1 4451   3.885   4.245   0.159  0.8038 -0.1284  0.1105
  292TMC3    C2 4452   4.017   4.214   0.180  0.3792 -0.1490  0.8131
  292TMC3    C3 4453   4.066   4.114   0.100  0.3107  0.1574  0.0485
  292TMC3    C4 4454   3.801   4.166   0.081 -0.3422  0.2003 -0.1160
  292TMC3    C5 4455   3.861   4.072   0.001  0.1881  0.3220 -0.0246
  292TMC3    C6 4456   3.991   4.043   0.016 -0.0901  0.0584  0.4974
  292TMC3     C 4457   3.821   4.367   0.206 -0.4677 -0.3615  0.3722
  292TMC3     O 4458   3.705   4.388   0.178 -0.2896  0.7104 -0.2654
  292TMC3     H 4459   4.081   4.273   0.245 -0.3694  1.2581  0.2891
  292TMC3    H1 4460   3.702   4.205   0.061  0.8705  2.8144 -1.0766
  292TMC3    H2 4461   4.025   3.953  17.723 -3.4272 -0.3173 -1.1447
  292TMC3    C7 4462   3.790   3.993  17.655  0.1446 -0.2031  0.1512
  292TMC3    C8 4463   4.199   4.057   0.122  0.8747 -0.3183  0.8364
  292TMC3    O1 4464   3.841   3.902  17.591  0.2782 -0.0497 -0.3342
  292TMC3    O2 4465   4.244   3.978   0.041 -0.2130 -0.4443  0.5581
  293MPD2     C 4466   0.962   0.694  12.811 -0.0343  0.0071  0.5217
  293MPD2    C1 4467   0.860   0.765  12.874  0.1812  0.3498  0.3721
  293MPD2    C2 4468   0.894   0.862  12.966  0.2072  0.2925 -0.4326
  293MPD2    C3 4469   1.027   0.893  12.990  0.8281 -0.2201 -1.0222
  293MPD2    C4 4470   1.126   0.827  12.919 -0.7337  1.1181  0.7687
  293MPD2    C5 4471   1.095   0.727  12.830  0.3476 -0.2640  0.3516
  293MPD2     H 4472   0.814   0.917  13.014 -1.2319 -1.7506 -0.5077
  293MPD2    H1 4473   1.230   0.846  12.939 -0.0426 -1.8863  0.1264
  293MPD2    H2 4474   0.934   0.614  12.744  2.0474 -1.2003  1.1082
  293MPD2    H3 4475   1.175   0.672  12.782 -1.0066 -1.6471 -0.3109
  293MPD2     N 4476   1.054   1.000  13.082  0.3133  0.2613 -0.0939
  293MPD2    H5 4477   0.971   1.032  13.131  0.2482 -3.7802  2.4222
  293MPD2    N1 4478   0.730   0.739  12.835 -0.1940  0.3624  0.4216
  293MPD2    H7 4479   0.721   0.693  12.745  2.5892  0.8461 -0.1007
  294TMC3    C1 4480   0.504   0.798  12.819  0.3685 -0.1181  0.4171
  294TMC3    C2 4481   0.390   0.742  12.860 -0.8454  0.7123  0.3406
  294TMC3    C3 4482   0.303   0.710  12.763 -0.6477  0.4007 -0.6351
  294TMC3    C4 4483   0.524   0.837  12.685  0.1114  0.3288 -0.5293
  294TMC3    C5 4484   0.421   0.818  12.596  0.0367  0.2538 -0.0972
  294TMC3    C6 4485   0.312   0.753  12.633 -0.1898  0.8295 -0.6940
  294TMC3     C 4486   0.618   0.790  12.904  0.1346 -0.4909  0.8823
  294TMC3     O 4487   0.615   0.820  13.020 -0.2361 -0.3241  0.3842
  294TMC3     H 4488   0.385   0.693  12.957 -1.1364 -0.1058 -0.0936
  294TMC3    H1 4489   0.622   0.876  12.658  0.3172 -0.8683 -1.5018
  294TMC3    H2 4490   0.240   0.729  12.554  1.0197 -1.4248 -1.1188
  294TMC3    C7 4491   0.463   0.790  12.459  0.2119  0.2963  0.0011
  294TMC3    C8 4492   0.195   0.615  12.789 -0.3128 -0.6401  0.4351
  294TMC3    O1 4493   0.439   0.676  12.415 -0.1777  0.0363 -0.0607
  294TMC3    O2 4494   0.151   0.604  12.901  0.6467  0.3365  0.6033
  295MPD2     C 4495   2.242   0.302   1.190 -0.5525 -0.2960 -1.4157
  295MPD2    C1 4496   2.172   0.213   1.124  0.1154 -0.0391  0.5122
  295MPD2    C2 4497   2.089   0.130   1.189 -0.3323 -0.3701 -0.0011
  295MPD2    C3 4498   2.063   0.158   1.325  0.1439  0.1773 -0.2650
  295MPD2    C4 4499   2.124   0.259   1.387  0.6001  0.0331 -0.2434
  295MPD2    C5 4500   2.222   0.324   1.322 -0.1980 -0.0882  0.4636
  295MPD2     H 4501   2.033   0.056   1.133  1.5266 -0.2155 -2.0518
  295MPD2    H1 4502   2.107   0.276   1.493  2.8148  1.5308 -0.1198
  295MPD2    H2 4503   2.319   0.363   1.143  0.1330 -0.1574 -0.1370
  295MPD2    H3 4504   2.276   0.393   1.385 -0.1252  0.3560 -0.0895
  295MPD2     N 4505   1.960   0.081   1.389 -0.5904 -0.0613 -0.0886
  295MPD2    H5 4506   1.928   0.116   1.479 -0.7642 -2.3031  0.7290
  295MPD2    N1 4507   2.180   0.194   0.985 -0.2792 -0.3234 -0.1368
  295MPD2    H7 4508   2.124   0.120   0.944  0.0155 -1.7716  2.0826
  296TMC3    C1 4509   1.772   4.676   1.405 -0.7203  0.0262 -0.2159
  296TMC3    C2 4510   1.728   0.013   1.514  0.2863  0.5067  0.6360
  296TMC3    C3 4511   1.593   0.022   1.535 -0.0534  0.3179  0.0582
  296TMC3    C4 4512   1.689   4.607   1.323 -0.0745  0.0722  0.4067
  296TMC3    C5 4513   1.554   4.616   1.349 -0.5285 -0.1688 -0.5439
  296TMC3    C6 4514   1.505   4.697   1.447 -0.6543 -0.0213  0.2600
  296TMC3     C 4515   1.899   4.706   1.337  0.5520  1.2133 -0.1782
  296TMC3     O 4516   1.938   4.624   1.262  0.2899  0.1609 -0.3074
  296TMC3     H 4517   1.798   0.066   1.577 -0.7350  2.3759  0.1844
  296TMC3    H1 4518   1.723   4.566   1.229 -0.4458  0.5432  0.0681
  296TMC3    H2 4519   1.397   4.701   1.459 -0.9485 -3.9790 -1.1244
  296TMC3    C7 4520   1.452   4.569   1.257 -0.2783  0.3783  0.2452
  296TMC3    C8 4521   1.537   0.087   1.651  0.4294  0.5541 -0.2224
  296TMC3    O1 4522   1.336   4.612   1.263  0.1750 -0.3503  0.0425
  296TMC3    O2 4523   1.421   0.057   1.664 -0.2473  0.4204 -0.1874
  297MPD2     C 4524   3.767   1.667  16.227  0.0962 -0.9913 -0.3600
  297MPD2    C1 4525   3.730   1.726  16.105 -0.6130  1.0479  0.4353
  297MPD2    C2 4526   3.808   1.832  16.050 -0.0833 -0.4952  0.3119
  297MPD2    C3 4527   3.908   1.881  16.131 -0.0782  0.4032  0.1150
  297MPD2    C4 4528   3.943   1.825  16.252 -0.3395 -0.0441  0.0398
  297MPD2    C5 4529   3.878   1.714  16.298  0.0902  0.2795  0.9146
  297MPD2     H 4530   3.785   1.889  15.961 -1.6147 -0.4367  0.7389
  297MPD2    H1 4531   4.027   1.856  16.313  0.1964 -2.2318  0.3839
  297MPD2    H2 4532   3.703   1.587  16.265  0.7241 -2.4507 -2.3532
  297MPD2    H3 4533   3.907   1.665  16.390  1.3085 -0.9385 -0.1267
  297MPD2     N 4534   3.972   2.006  16.094  0.3063  0.3117 -0.1204
  297MPD2    H5 4535   3.949   2.035  15.999 -1.5312  0.1561  0.2796
  297MPD2    N1 4536   3.618   1.677  16.035  0.1948  0.0291 -0.8821
  297MPD2    H7 4537   3.597   1.726  15.949  1.2985  2.7484  0.3583
  298TMC3    C1 4538   3.404   1.607  15.990 -0.4968  0.0451  0.9389
  298TMC3    C2 4539   3.435   1.611  15.855 -0.3422  0.3715  0.1274
  298TMC3    C3 4540   3.346   1.666  15.773  0.1984 -0.1871 -0.1980
  298TMC3    C4 4541   3.306   1.687  16.041  0.2797  0.8040 -0.0990
  298TMC3    C5 4542   3.223   1.757  15.956  0.2317 -0.0334 -0.0669
  298TMC3    C6 4543   3.236   1.748  15.816 -0.7430 -0.4114 -0.1455
  298TMC3     C 4544   3.513   1.598  16.084 -0.4608  0.0051 -0.3433
  298TMC3     O 4545   3.497   1.551  16.196  0.3169 -0.1313 -0.9382
  298TMC3     H 4546   3.502   1.532  15.821 -2.7150 -0.9554 -1.4857
  298TMC3    H1 4547   3.298   1.705  16.147  1.0375  0.8435 -0.0522
  298TMC3    H2 4548   3.176   1.804  15.746  1.2691 -0.1541 -1.6793
  298TMC3    C7 4549   3.133   1.854  16.014  0.2539 -0.0485 -0.1984
  298TMC3    C8 4550   3.361   1.633  15.631  0.0138 -0.4200 -0.4781
  298TMC3    O1 4551   3.114   1.850  16.133 -0.1402  0.0756  0.1469
  298TMC3    O2 4552   3.460   1.566  15.603 -0.1178  0.6456 -0.0885
  299MPD2     C 4553   4.162   1.438  10.284 -0.2128  0.3782 -0.3413
  299MPD2    C1 4554   4.140   1.575  10.310 -0.4452 -0.4284  0.2779
  299MPD2    C2 4555   4.055   1.657  10.235 -0.3123 -0.4231 -0.2618
  299MPD2    C3 4556   3.989   1.599  10.127 -0.0683 -0.1428  0.0775
  299MPD2    C4 4557   4.024   1.470  10.090  0.4244 -0.1661 -0.6164
  299MPD2    C5 4558   4.110   1.392  10.167  0.4758  0.1266 -0.6203
  299MPD2     H 4559   4.035   1.755  10.275 -1.5476 -1.0896  0.7646
  299MPD2    H1 4560   3.981   1.427  10.001 -2.6130  2.8588 -0.6014
  299MPD2    H2 4561   4.238   1.378  10.333  0.1439  0.4111 -0.8542
  299MPD2    H3 4562   4.137   1.301  10.115 -3.3136 -0.7785 -0.9837
  299MPD2     N 4563   3.885   1.657  10.047  0.0019 -0.4173  0.7479
  299MPD2    H5 4564   3.844   1.601   9.973  1.1698 -1.1458  0.6543
  299MPD2    N1 4565   4.208   1.626  10.420 -0.7440  0.2630 -0.4998
  299MPD2    H7 4566   4.232   1.555  10.488  0.4269  1.4890  0.3505
  300TMC3    C1 4567   3.697   1.790  10.035 -0.4354  0.2027 -0.0705
  300TMC3    C2 4568   3.643   1.915  10.063  0.0859  0.2736  0.3889
  300TMC3    C3 4569   3.511   1.912  10.090 -0.3000  0.1305 -0.6388
  300TMC3    C4 4570   3.625   1.676  10.047 -0.0215  0.1649  0.2530
  300TMC3    C5 4571   3.496   1.680  10.086 -0.6434 -0.2986 -0.5605
  300TMC3    C6 4572   3.440   1.795  10.120  0.3859  0.1635  0.1109
  300TMC3     C 4573   3.834   1.774  10.080  0.0870  0.1174  0.6569
  300TMC3     O 4574   3.887   1.874  10.129  0.2590 -0.0865 -0.0017
  300TMC3     H 4575   3.709   2.000  10.048  1.4214 -0.2962  2.9722
  300TMC3    H1 4576   3.668   1.577  10.043  2.3203  1.1403  1.1902
  300TMC3    H2 4577   3.334   1.802  10.142  0.3249  0.3645 -0.2530
  300TMC3    C7 4578   3.423   1.553  10.107 -0.2659  0.4448  0.1828
  300TMC3    C8 4579   3.443   2.028  10.139  0.1583  0.1638 -0.1003
  300TMC3    O1 4580   3.449   1.465  10.026 -0.1026 -0.2591 -0.0725
  300TMC3    O2 4581   3.331   2.042  10.099  0.3366  0.0081 -0.5327
  301MPD2     C 4582   2.248   3.059   0.978 -0.0050 -0.0150 -0.5221
  301MPD2    C1 4583   2.201   3.006   0.858  0.3817  0.3386  0.2267
  301MPD2    C2 4584   2.175   2.870   0.854 -0.9934 -0.1363  0.2976
  301MPD2    C3 4585   2.189   2.782   0.960  0.4857  0.1491 -0.4028
  301MPD2    C4 4586   2.232   2.841   1.079  0.0376 -0.8874 -1.0800
  301MPD2    C5 4587   2.261   2.974   1.083 -0.6537 -0.0023  0.1163
  301MPD2     H 4588   2.128   2.830   0.765 -1.4180  0.2593  0.3429
  301MPD2    H1 4589   2.232   2.783   1.170 -0.2786 -1.6158 -1.5488
  301MPD2    H2 4590   2.275   3.161   1.003  0.0279 -0.7577  2.3965
  301MPD2    H3 4591   2.292   3.009   1.182  1.6213  1.0189 -0.9556
  301MPD2     N 4592   2.160   2.643   0.953  0.5445 -0.4137  0.3021
  301MPD2    H5 4593   2.167   2.597   1.043 -0.7708 -1.5438 -0.1742
  301MPD2    N1 4594   2.162   3.083   0.744  0.6764  0.1336 -0.0119
  301MPD2    H7 4595   2.122   3.024   0.672  0.2506 -1.1478  1.2814
  302TMC3    C1 4596   2.055   2.445   0.872 -0.0634  0.2769 -0.3977
  302TMC3    C2 4597   2.118   2.358   0.950  0.5051  0.6219 -0.5118
  302TMC3    C3 4598   2.083   2.230   0.957  1.0466 -0.9033  0.4178
  302TMC3    C4 4599   1.949   2.405   0.798  0.6452 -0.1253 -0.9897
  302TMC3    C5 4600   1.923   2.267   0.791  0.4091  0.4384 -0.5831
  302TMC3    C6 4601   1.985   2.180   0.877  0.6321  0.0433  0.0988
  302TMC3     C 4602   2.105   2.580   0.846 -0.6949  0.1328 -0.4984
  302TMC3     O 4603   2.067   2.617   0.732 -0.0395  0.0320  0.0456
  302TMC3     H 4604   2.190   2.396   1.022 -0.7604  1.5723  0.2557
  302TMC3    H1 4605   1.906   2.479   0.731  1.6379  0.5740 -0.8485
  302TMC3    H2 4606   1.954   2.077   0.873 -1.1109  0.6774 -2.2647
  302TMC3    C7 4607   1.818   2.218   0.703  0.1628 -0.1875  0.4411
  302TMC3    C8 4608   2.157   2.130   1.030 -0.4635 -0.0328 -0.4836
  302TMC3    O1 4609   1.820   2.103   0.662 -0.4484 -0.6442  0.5130
  302TMC3    O2 4610   2.156   2.015   0.995  0.6029 -0.3896  0.0006
  303MPD2     C 4611   1.600   2.066  10.531 -0.5701 -0.4611 -0.0137
  303MPD2    C1 4612   1.524   1.983  10.603  0.1497  0.4492 -0.3402
  303MPD2    C2 4613   1.488   1.861  10.546 -0.3454  0.5992 -0.0269
  303MPD2    C3 4614   1.533   1.815  10.422  0.4520  0.4105 -0.2155
  303MPD2    C4 4615   1.591   1.907  10.345  0.4924 -0.1888  0.3728
  303MPD2    C5 4616   1.624   2.033  10.395 -0.3828  0.4338 -0.8093
  303MPD2     H 4617   1.438   1.794  10.615  0.9057  0.0466  0.3570
  303MPD2    H1 4618   1.620   1.875  10.246 -2.2979  2.6730 -1.3596
  303MPD2    H2 4619   1.619   2.166  10.567 -3.0252  0.3989 -1.0957
  303MPD2    H3 4620   1.681   2.110  10.344 -1.0134  0.2280 -1.8225
  303MPD2     N 4621   1.499   1.688  10.368  0.0484 -0.2496 -0.7850
  303MPD2    H5 4622   1.519   1.667  10.271  0.7891 -0.2566 -0.6368
  303MPD2    N1 4623   1.493   2.022  10.731  0.0964  0.0176  0.5103
  303MPD2    H7 4624   1.542   2.103  10.767 -0.1689 -0.2887  1.5922
  304TMC3    C1 4625   1.400   1.999  10.948 -0.1040  0.5323 -0.2569
  304TMC3    C2 4626   1.281   2.006  11.012  0.3106  0.0088 -0.4281
  304TMC3    C3 4627   1.274   1.964  11.143  0.3974 -0.6244 -0.2498
  304TMC3    C4 4628   1.510   1.950  11.006 -0.1343  0.1839 -0.1346
  304TMC3    C5 4629   1.500   1.902  11.127 -0.0930 -0.7537  0.0364
  304TMC3    C6 4630   1.390   1.925  11.209  0.4937 -0.6089  0.2134
  304TMC3     C 4631   1.387   1.963  10.811  0.7601 -0.1093 -0.2159
  304TMC3     O 4632   1.322   1.863  10.790  0.1124  0.5272 -0.1429
  304TMC3     H 4633   1.190   2.032  10.960  0.0221  0.7705  0.4530
  304TMC3    H1 4634   1.583   1.908  10.938  0.1321 -0.8343  0.7710
  304TMC3    H2 4635   1.375   1.901  11.313  0.0672 -2.0366 -0.1623
  304TMC3    C7 4636   1.549   1.757  11.135  1.0334 -0.8649  0.5239
  304TMC3    C8 4637   1.158   1.885  11.192  0.2902  0.1136 -0.1704
  304TMC3    O1 4638   1.643   1.719  11.066  0.5180 -0.0009 -0.0610
  304TMC3    O2 4639   1.181   1.793  11.267  0.3616 -0.1641 -0.2299
  305MPD2     C 4640   0.223   3.436  13.884 -0.2075  0.0082  0.6573
  305MPD2    C1 4641   0.217   3.319  13.956  0.1485  0.1053 -0.7542
  305MPD2    C2 4642   0.199   3.202  13.886  0.4642  0.2933 -0.4801
  305MPD2    C3 4643   0.169   3.210  13.747 -0.2188 -0.0737  0.7571
  305MPD2    C4 4644   0.185   3.330  13.677  0.0606 -0.0033 -0.3407
  305MPD2    C5 4645   0.213   3.442  13.745 -0.3710  0.3307 -0.2847
  305MPD2     H 4646   0.192   3.107  13.938 -0.4913  0.1807 -0.8038
  305MPD2    H1 4647   0.181   3.333  13.569  1.1837  1.3155 -0.3490
  305MPD2    H2 4648   0.246   3.526  13.939 -0.3905 -0.1415  0.9824
  305MPD2    H3 4649   0.221   3.532  13.685  1.7556  0.3418  0.0264
  305MPD2     N 4650   0.140   3.096  13.671 -0.4944 -0.1655 -0.0112
  305MPD2    H5 4651   0.142   3.099  13.569  0.2172 -1.0914 -0.0219
  305MPD2    N1 4652   0.229   3.342  14.095 -0.2437  0.4983 -0.7601
  305MPD2    H7 4653   0.243   3.436  14.130  1.4803 -0.3941  0.9823
  306TMC3    C1 4654   0.246   3.311  14.318 -0.6510 -0.0031  0.4952
  306TMC3    C2 4655   0.197   3.239  14.421  0.1566 -0.6808 -0.0633
  306TMC3    C3 4656   0.229   3.270  14.549 -0.6803  0.2589  0.0700
  306TMC3    C4 4657   0.345   3.401  14.336  0.2817 -0.0709  0.7058
  306TMC3    C5 4658   0.375   3.427  14.467  0.0474  0.1011 -0.5141
  306TMC3    C6 4659   0.316   3.369  14.575  0.1575 -0.6621 -0.9266
  306TMC3     C 4660   0.227   3.245  14.189  0.3987 -0.4730  0.2514
  306TMC3     O 4661   0.179   3.133  14.182  0.2963  0.0292 -0.1375
  306TMC3     H 4662   0.131   3.153  14.413  0.4613 -0.9450  0.2386
  306TMC3    H1 4663   0.395   3.453  14.255  2.6776  0.4488  2.5051
  306TMC3    H2 4664   0.349   3.378  14.677  0.0123 -0.2917 -0.9122
  306TMC3    C7 4665   0.485   3.521  14.498  0.0352  0.1876  0.4117
  306TMC3    C8 4666   0.190   3.183  14.657 -0.0909  0.3270 -0.0320
  306TMC3    O1 4667   0.509   3.606  14.414  0.0865  0.4278  0.4528
  306TMC3    O2 4668   0.173   3.069  14.624  0.1392  0.1718  0.1423
  307MPD2     C 4669   2.535   1.319   0.139 -0.1162  0.1748 -0.4091
  307MPD2    C1 4670   2.508   1.461   0.140 -0.3202 -0.2084  0.6340
  307MPD2    C2 4671   2.469   1.522   0.256 -0.3417  0.0412 -0.0662
  307MPD2    C3 4672   2.455   1.442   0.368  0.2218  0.3478 -0.0468
  307MPD2    C4 4673   2.486   1.307   0.372 -0.1226 -0.3520 -0.0546
  307MPD2    C5 4674   2.518   1.252   0.256 -0.2375  0.2144 -1.2333
  307MPD2     H 4675   2.443   1.628   0.256  0.4062  0.2247  0.6284
  307MPD2    H1 4676   2.494   1.248   0.462 -1.0735 -0.3102  0.0644
  307MPD2    H2 4677   2.567   1.259   0.054  1.3642 -0.5151  0.6438
  307MPD2    H3 4678   2.551   1.149   0.265 -0.6572  0.1835 -0.0392
  307MPD2     N 4679   2.408   1.507   0.487 -0.3969  0.6665 -0.8573
  307MPD2    H5 4680   2.398   1.608   0.482 -0.6188  0.7891  1.8979
  307MPD2    N1 4681   2.512   1.543   0.022 -0.2924  0.2838  0.1147
  307MPD2    H7 4682   2.475   1.636   0.036  0.5510  0.7350 -0.6816
  308TMC3    C1 4683   2.081   1.643   0.721 -0.4726 -0.4269 -0.3945
  308TMC3    C2 4684   2.136   1.773   0.727  0.8951  0.7259  0.6266
  308TMC3    C3 4685   2.267   1.785   0.722  0.0321  0.8683  0.6184
  308TMC3    C4 4686   2.164   1.535   0.701  0.4885 -0.9480  0.5931
  308TMC3    C5 4687   2.297   1.554   0.691 -0.5668 -0.1264  0.4396
  308TMC3    C6 4688   2.354   1.682   0.700 -0.1736 -1.1181  0.4642
  308TMC3     C 4689   1.946   1.630   0.765 -0.2342 -0.1874  0.5407
  308TMC3     O 4690   1.926   1.519   0.810 -0.3026 -0.1672  0.1141
  308TMC3     H 4691   2.077   1.857   0.761 -0.4714 -0.2254  0.6423
  308TMC3    H1 4692   2.124   1.437   0.680  1.1095 -0.8421 -1.0901
  308TMC3    H2 4693   2.461   1.696   0.685 -1.1576  2.4344 -3.2384
  308TMC3    C7 4694   2.363   1.451   0.605 -0.2011  0.0891  0.4649
  308TMC3    C8 4695   2.320   1.921   0.710 -0.5526 -0.0188  0.9552
  308TMC3    O1 4696   2.334   1.336   0.639 -0.3747  0.6179  0.6475
  308TMC3    O2 4697   2.433   1.940   0.758 -0.5661  0.2689  0.5532
  309MPD2     C 4698   1.599   1.467  16.989  0.0691  0.5527 -0.2522
  309MPD2    C1 4699   1.474   1.436  16.938  0.2466  0.0863  0.3081
  309MPD2    C2 4700   1.358   1.491  16.996  0.1077 -0.3538 -0.4182
  309MPD2    C3 4701   1.363   1.570  17.105  0.3033 -0.4913 -0.0491
  309MPD2    C4 4702   1.491   1.616  17.147  0.2614 -0.5402 -0.3911
  309MPD2    C5 4703   1.607   1.565  17.092  0.8468  0.1923  0.1119
  309MPD2     H 4704   1.263   1.453  16.957  0.0723 -0.5351 -0.1560
  309MPD2    H1 4705   1.495   1.699  17.216  0.5700 -1.9997  1.3467
  309MPD2    H2 4706   1.696   1.425  16.964 -1.1180 -0.2255 -3.4592
  309MPD2    H3 4707   1.703   1.610  17.113  1.4309 -0.9773 -0.0498
  309MPD2     N 4708   1.245   1.617  17.157 -0.0232 -0.0706 -0.4927
  309MPD2    H5 4709   1.161   1.565  17.133 -0.6949  0.2702  1.1112
  309MPD2    N1 4710   1.463   1.338  16.835 -0.3113  0.2903 -0.8879
  309MPD2    H7 4711   1.371   1.324  16.794 -0.4213  4.9521 -2.1718
  310TMC3    C1 4712   1.522   1.163  16.689 -0.2267  0.4519 -0.5638
  310TMC3    C2 4713   1.457   1.214  16.581 -0.6041  0.1529  0.2264
  310TMC3    C3 4714   1.469   1.138  16.463  0.0511  0.3373 -0.1798
  310TMC3    C4 4715   1.601   1.052  16.683  0.4501  0.1866  0.0699
  310TMC3    C5 4716   1.607   0.982  16.566 -0.2307 -0.0969  0.0007
  310TMC3    C6 4717   1.544   1.022  16.453 -0.2671  0.0658  0.0765
  310TMC3     C 4718   1.563   1.245  16.803 -0.0434  0.2736  0.0102
  310TMC3     O 4719   1.682   1.229  16.833  0.5524 -0.1998  0.4917
  310TMC3     H 4720   1.391   1.298  16.600  1.4371  1.5594  1.1515
  310TMC3    H1 4721   1.653   1.027  16.774 -1.2267 -0.5302  0.8439
  310TMC3    H2 4722   1.545   0.959  16.365  2.0102 -0.4733  0.4816
  310TMC3    C7 4723   1.722   0.903  16.546 -0.9326  0.4048 -0.9497
  310TMC3    C8 4724   1.398   1.191  16.344 -0.9636 -0.1010  0.0351
  310TMC3    O1 4725   1.711   0.823  16.453 -0.0267  0.0339 -0.2687
  310TMC3    O2 4726   1.353   1.119  16.251  0.0470 -0.2405 -0.0115
  311MPD2     C 4727   3.597   3.208  12.564  0.1355 -0.2708  0.6407
  311MPD2    C1 4728   3.607   3.198  12.701 -0.2529 -0.4264  0.3442
  311MPD2    C2 4729   3.497   3.173  12.778  0.5716 -0.2424  0.3185
  311MPD2    C3 4730   3.373   3.180  12.720 -0.7290  0.4790  0.1914
  311MPD2    C4 4731   3.364   3.165  12.577  0.2050 -0.2646  0.1380
  311MPD2    C5 4732   3.479   3.167  12.505 -0.4153  0.5332 -0.0307
  311MPD2     H 4733   3.500   3.157  12.885 -0.1838  0.3477  0.4246
  311MPD2    H1 4734   3.270   3.148  12.524  1.3777 -0.7442 -1.7846
  311MPD2    H2 4735   3.686   3.229  12.504 -0.8230  1.4714 -0.1598
  311MPD2    H3 4736   3.481   3.164  12.397 -0.0837 -0.3889  0.0053
  311MPD2     N 4737   3.260   3.159  12.805  0.7269  0.0921  0.1199
  311MPD2    H5 4738   3.287   3.127  12.897 -2.7659 -1.9538  0.4167
  311MPD2    N1 4739   3.734   3.228  12.766  0.1589 -0.7402 -0.1650
  311MPD2    H7 4740   3.739   3.275  12.856 -1.3369  1.1691 -1.0714
  312TMC3    C1 4741   3.033   3.151  12.870 -0.0255  0.6680  0.0444
  312TMC3    C2 4742   2.927   3.087  12.808  0.3028  0.2862  0.9922
  312TMC3    C3 4743   2.872   2.973  12.865  0.1996 -0.2500 -0.0498
  312TMC3    C4 4744   3.088   3.102  12.988 -0.3217  0.6457 -0.8227
  312TMC3    C5 4745   3.023   2.993  13.045  0.7193  0.5234  0.7558
  312TMC3    C6 4746   2.920   2.930  12.982  0.0429 -0.6879  0.1804
  312TMC3     C 4747   3.129   3.190  12.770 -0.6490  0.6653 -0.6462
  312TMC3     O 4748   3.080   3.228  12.666  0.6232  0.1424  0.0808
  312TMC3     H 4749   2.899   3.125  12.711  0.1140  0.0681  0.9606
  312TMC3    H1 4750   3.174   3.144  13.040  0.9771 -0.2498 -2.2354
  312TMC3    H2 4751   2.868   2.849  13.031  1.5013 -1.5382  0.3173
  312TMC3    C7 4752   3.070   2.938  13.173 -0.3801 -0.7238 -0.0301
  312TMC3    C8 4753   2.776   2.899  12.795  0.2608  0.3515 -0.0055
  312TMC3    O1 4754   3.053   2.816  13.180 -0.0237 -0.1141  0.4766
  312TMC3    O2 4755   2.751   2.791  12.846  0.2753 -0.0853  0.5710
  313MPD2     C 4756   3.475   2.135  10.817 -0.1010 -0.6870  0.2280
  313MPD2    C1 4757   3.347   2.181  10.782 -0.7019  0.7566 -0.1092
  313MPD2    C2 4758   3.289   2.132  10.668  0.1946 -0.4461 -1.0051
  313MPD2    C3 4759   3.353   2.039  10.581 -0.4660 -0.6753  0.1687
  313MPD2    C4 4760   3.483   2.008  10.611  0.2374 -0.1423  0.0043
  313MPD2    C5 4761   3.537   2.046  10.732  0.4895  0.4108  0.1253
  313MPD2     H 4762   3.187   2.164  10.647  0.1978  0.8622  0.9359
  313MPD2    H1 4763   3.533   1.935  10.547 -0.7242 -0.3051 -0.5616
  313MPD2    H2 4764   3.530   2.164  10.906  0.5569 -2.7034  0.4816
  313MPD2    H3 4765   3.642   2.022  10.744  0.0249 -2.1035 -1.0226
  313MPD2     N 4766   3.297   1.977  10.470  0.2827 -0.2482  0.1944
  313MPD2    H5 4767   3.335   1.884  10.450  0.8637  0.1010 -0.3343
  313MPD2    N1 4768   3.282   2.275  10.865 -0.3622  0.3656  0.0475
  313MPD2    H7 4769   3.191   2.302  10.827  0.6654  1.0099 -1.9711
  314TMC3    C1 4770   3.233   2.432  11.035  0.2822 -0.3150 -0.0961
  314TMC3    C2 4771   3.296   2.533  11.099 -0.0638  0.0265  0.5717
  314TMC3    C3 4772   3.225   2.641  11.131 -0.7313 -0.2786  0.0648
  314TMC3    C4 4773   3.103   2.442  10.997 -0.3050  0.3212 -0.2652
  314TMC3    C5 4774   3.034   2.556  11.035  0.6262 -0.1800  0.5513
  314TMC3    C6 4775   3.092   2.663  11.095 -1.0006  0.0228 -0.0202
  314TMC3     C 4776   3.321   2.325  10.986 -0.1033 -0.2429 -0.4863
  314TMC3     O 4777   3.422   2.302  11.049  0.0149  0.0680 -0.2896
  314TMC3     H 4778   3.404   2.531  11.115  0.2213 -0.2081 -1.4141
  314TMC3    H1 4779   3.049   2.351  10.975 -0.1521  0.2658 -0.4139
  314TMC3    H2 4780   3.046   2.758  11.119  0.5045  0.7262  0.0975
  314TMC3    C7 4781   2.896   2.569  10.988  0.0517 -0.4109  0.4419
  314TMC3    C8 4782   3.279   2.724  11.238 -0.2955 -0.0753  0.6295
  314TMC3    O1 4783   2.841   2.462  10.992  0.6834 -0.4303  0.2754
  314TMC3    O2 4784   3.244   2.841  11.233  0.2913 -0.0374  0.4840
  315MPD2     C 4785   2.838   1.297  17.294  0.2772 -0.6145  0.3285
  315MPD2    C1 4786   2.946   1.314  17.378 -0.6853  0.1447 -0.3606
  315MPD2    C2 4787   2.999   1.442  17.396  0.4653  0.7044 -0.4958
  315MPD2    C3 4788   2.962   1.546  17.315 -0.4200 -0.2538  0.4998
  315MPD2    C4 4789   2.869   1.528  17.216 -0.4626  0.5609  0.0855
  315MPD2    C5 4790   2.804   1.404  17.210 -0.2181  0.1922 -0.0563
  315MPD2     H 4791   3.080   1.457  17.467 -0.5354  1.5587  0.4603
  315MPD2    H1 4792   2.846   1.604  17.142  2.8302  1.1026 -0.3915
  315MPD2    H2 4793   2.781   1.205  17.289 -0.0946 -0.3894  0.4487
  315MPD2    H3 4794   2.720   1.388  17.144 -1.1877 -0.4020  1.3105
  315MPD2     N 4795   3.018   1.670  17.348 -0.2068 -0.4653 -0.3298
  315MPD2    H5 4796   3.080   1.676  17.428 -1.4051 -1.8211  0.6939
  315MPD2    N1 4797   3.005   1.218  17.468 -0.2497  0.3815  0.3637
  315MPD2    H7 4798   3.069   1.249  17.541  1.7458 -0.3139 -1.0619
  316TMC3    C1 4799   3.055   1.911  17.321 -0.3762  0.3543  0.0897
  316TMC3    C2 4800   3.149   1.914  17.423  0.9338  0.1408  0.3520
  316TMC3    C3 4801   3.170   2.030  17.487 -0.2501 -0.7151 -0.2250
  316TMC3    C4 4802   2.972   2.017  17.291  0.0025  0.3023 -0.0803
  316TMC3    C5 4803   2.998   2.133  17.360 -0.2953 -0.1521 -0.2115
  316TMC3    C6 4804   3.099   2.145  17.456  0.3690 -0.0733  0.1409
  316TMC3     C 4805   2.994   1.784  17.271 -0.5209 -0.1672  0.2716
  316TMC3     O 4806   2.947   1.792  17.158 -0.2129  0.5003 -0.3528
  316TMC3     H 4807   3.222   1.834  17.436  0.4316 -0.3386  0.2188
  316TMC3    H1 4808   2.891   2.009  17.219 -0.1163  2.0737 -0.1303
  316TMC3    H2 4809   3.120   2.239  17.505  0.7049  0.0919 -0.3236
  316TMC3    C7 4810   2.908   2.245  17.332 -0.6384 -0.5471  0.3988
  316TMC3    C8 4811   3.249   2.055  17.606 -0.1473 -0.0516 -0.0851
  316TMC3    O1 4812   2.891   2.338  17.418 -0.3793  0.4177  0.7367
  316TMC3    O2 4813   3.288   2.167  17.622 -0.5250  0.2336  0.3831
  317MPD2     C 4814   4.553   0.267  13.438  0.5626  0.4984  0.0640
  317MPD2    C1 4815   4.572   0.158  13.352 -1.3542 -0.1768 -0.1094
  317MPD2    C2 4816   4.653   0.054  13.398  0.2297 -0.0056  0.9711
  317MPD2    C3 4817   4.716   0.056  13.521  0.0525 -0.0198 -0.0032
  317MPD2    C4 4818   4.694   0.165  13.603 -0.7129  0.2235  0.8933
  317MPD2    C5 4819   4.627   0.274  13.556 -0.1750  0.8002  0.5332
  317MPD2     H 4820   4.664   4.709  13.331  0.9166  1.7598 -1.1294
  317MPD2    H1 4821   0.004   0.172  13.699 -0.4783  1.7515  0.6552
  317MPD2    H2 4822   4.493   0.350  13.403  0.1205 -0.5774 -1.7031
  317MPD2    H3 4823   4.622   0.365  13.614  1.6614  1.5537 -0.4993
  317MPD2     N 4824   0.050   4.679  13.557 -1.0732 -0.3061  0.0447
  317MPD2    H5 4825   0.049   4.599  13.494 -0.9398 -0.8300  0.7018
  317MPD2    N1 4826   4.511   0.141  13.222 -0.2174  0.1849 -0.5133
  317MPD2    H7 4827   4.539   0.055  13.176  0.8998 -0.0904  0.6810
  318TMC3    C1 4828   0.187   4.535  13.667 -0.5073 -0.6208 -0.1191
  318TMC3    C2 4829   0.149   4.438  13.573 -0.4835  0.1461  0.2845
  318TMC3    C3 4830   0.220   4.323  13.563 -0.3265 -0.4981 -0.2818
  318TMC3    C4 4831   0.295   4.509  13.750  0.5678  0.2348  0.1428
  318TMC3    C5 4832   0.362   4.390  13.746 -0.6214 -0.5174 -0.1282
  318TMC3    C6 4833   0.323   4.296  13.655  0.0156 -1.0618  0.3750
  318TMC3     C 4834   0.122   4.665  13.666  0.4099  0.0886  0.0024
  318TMC3     O 4835   0.142   4.731  13.768  0.0843  0.1559 -0.2540
  318TMC3     H 4836   0.051   4.439  13.526 -0.5259  1.6677  0.4113
  318TMC3    H1 4837   0.331   4.590  13.813 -0.9511  0.0636  1.2310
  318TMC3    H2 4838   0.381   4.205  13.646  1.3530 -0.1711  0.0890
  318TMC3    C7 4839   0.490   4.393  13.821 -0.1955 -0.4346 -0.3307
  318TMC3    C8 4840   0.210   4.240  13.443  0.1818  1.2802  0.0133
  318TMC3    O1 4841   0.508   4.498  13.885  0.2285  0.1507  0.0681
  318TMC3    O2 4842   0.270   4.133  13.436  0.1710  0.3462 -0.5685
  319MPD2     C 4843   0.922   1.424  16.807  0.0895  0.4411  0.0136
  319MPD2    C1 4844   0.881   1.304  16.862  0.3762  0.7095  0.2659
  319MPD2    C2 4845   0.806   1.215  16.794  0.4765  0.1172 -0.3403
  319MPD2    C3 4846   0.764   1.248  16.666 -0.9073  0.1507 -0.1797
  319MPD2    C4 4847   0.809   1.358  16.603 -0.3453  0.7436 -0.6017
  319MPD2    C5 4848   0.895   1.441  16.674 -0.5929  0.2354 -0.2928
  319MPD2     H 4849   0.779   1.119  16.837  1.6171 -0.8176 -1.6811
  319MPD2    H1 4850   0.781   1.378  16.501  2.2402  1.4496 -1.1482
  319MPD2    H2 4851   0.996   1.491  16.848 -0.9851  1.3519  0.4660
  319MPD2    H3 4852   0.947   1.525  16.629 -0.3484  0.5500  0.5656
  319MPD2     N 4853   0.677   1.164  16.588 -0.8337 -1.0108  0.0592
  319MPD2    H5 4854   0.640   1.200  16.501  2.1229  1.2138 -0.2671
  319MPD2    N1 4855   0.922   1.259  16.989  0.2863 -0.6255 -0.1995
  319MPD2    H7 4856   0.910   1.160  17.007 -0.3725 -0.4566  0.2949
  320TMC3    C1 4857   0.556   0.983  16.525 -0.2567 -0.0552 -0.1669
  320TMC3    C2 4858   0.477   1.069  16.448 -0.6425 -0.0915 -0.5638
  320TMC3    C3 4859   0.403   1.018  16.349 -1.0722 -0.0096  0.7160
  320TMC3    C4 4860   0.569   0.845  16.501  0.1318 -0.5706  0.1784
  320TMC3    C5 4861   0.509   0.802  16.389  0.1699 -0.4892  0.2610
  320TMC3    C6 4862   0.420   0.884  16.316  0.7107  0.5904  0.6152
  320TMC3     C 4863   0.643   1.037  16.625 -0.6039  0.5284  0.5977
  320TMC3     O 4864   0.698   0.962  16.704  0.5600  0.0038 -0.2825
  320TMC3     H 4865   0.461   1.171  16.482  1.0028 -0.0136  0.0259
  320TMC3    H1 4866   0.638   0.786  16.561  1.7461  0.4703 -0.6454
  320TMC3    H2 4867   0.377   0.838  16.228 -0.1565 -1.0904  1.9324
  320TMC3    C7 4868   0.518   0.660  16.347 -0.4458 -0.4161 -0.1185
  320TMC3    C8 4869   0.317   1.106  16.269  0.3107 -0.1051  0.4713
  320TMC3    O1 4870   0.461   0.631  16.240  0.5464  0.2268 -0.1849
  320TMC3    O2 4871   0.286   1.216  16.318  0.3469  0.0226 -0.5428
  321TMC3    C1 4872   1.013   1.261  17.202  0.4084 -0.0742 -0.8341
  321TMC3    C2 4873   0.959   1.133  17.224 -0.4057  0.2371 -0.6513
  321TMC3    C3 4874   0.970   1.071  17.346  0.4927 -1.1273  0.0678
  321TMC3    C4 4875   1.081   1.323  17.301  0.0473  0.4734  0.4989
  321TMC3    C5 4876   1.083   1.269  17.430 -0.3246 -0.4153  0.2822
  321TMC3    C6 4877   1.026   1.147  17.448  0.1845 -0.4014 -0.1524
  321TMC3     C 4878   0.980   1.336  17.086  0.3938 -0.1505 -0.0293
  321TMC3     O 4879   1.013   1.452  17.081  0.5669  0.1344 -0.2805
  321TMC3     H 4880   0.912   1.077  17.144 -0.2751  1.5920 -1.6748
  321TMC3    H1 4881   1.111   1.420  17.265  0.1232 -0.2630 -1.4398
  321TMC3    H2 4882   1.028   1.111  17.550  0.7510 -0.1742 -0.0851
  321TMC3    C7 4883   1.213   1.270  17.500 -0.4798  0.0912 -0.5094
  321TMC3    C8 4884   1.027   0.934  17.339  0.4823 -0.0015 -0.8297
  321TMC3    O1 4885   1.231   1.187  17.591 -0.0257  0.1551 -0.0397
  321TMC3    O2 4886   0.998   0.871  17.242  0.3806  0.1766  0.1988
  322MPD2     C 4887   0.228   2.165  13.034  0.9379  0.3202 -0.3689
  322MPD2    C1 4888   0.231   2.120  13.164  0.7155  0.5254  0.1842
  322MPD2    C2 4889   0.253   1.983  13.179  0.2086  0.0431 -0.4371
  322MPD2    C3 4890   0.298   1.901  13.075 -0.0861 -0.7791 -0.1419
  322MPD2    C4 4891   0.294   1.954  12.948  0.6112 -0.0069 -0.1033
  322MPD2    C5 4892   0.264   2.089  12.928 -0.6083  0.2419  0.6011
  322MPD2     H 4893   0.259   1.946  13.280  0.9603 -0.8277 -0.8033
  322MPD2    H1 4894   0.314   1.899  12.857  2.4180 -0.5094  0.5932
  322MPD2    H2 4895   0.197   2.267  13.015  1.9282  0.5604 -0.7036
  322MPD2    H3 4896   0.268   2.137  12.831 -0.6416 -1.9948 -0.4992
  322MPD2     N 4897   0.357   1.782  13.107 -0.0419 -0.7751  0.2926
  322MPD2    H5 4898   0.351   1.759  13.206 -0.3997  0.1280  0.4803
  322MPD2    N1 4899   0.209   2.216  13.267  0.2067 -0.2650  0.3378
  322MPD2    H7 4900   0.212   2.314  13.241 -0.6688 -0.0273  1.1743
  323TMC3    C1 4901   0.188   2.306  13.483  0.0175  0.3938 -0.5125
  323TMC3    C2 4902   0.308   2.362  13.465 -0.5934  0.1647 -0.7940
  323TMC3    C3 4903   0.368   2.425  13.569  0.1743 -0.1735  0.4586
  323TMC3    C4 4904   0.141   2.291  13.605 -0.5346  0.5312  0.7350
  323TMC3    C5 4905   0.220   2.340  13.709  0.5699  0.2565 -0.0929
  323TMC3    C6 4906   0.322   2.416  13.697  0.7091  0.3177 -0.1835
  323TMC3     C 4907   0.170   2.190  13.397 -0.3018  0.0340 -1.2091
  323TMC3     O 4908   0.143   2.081  13.451 -0.0293 -0.3912  0.3051
  323TMC3     H 4909   0.363   2.366  13.371  1.0726 -0.2379  0.1567
  323TMC3    H1 4910   0.053   2.230  13.622  0.4815 -1.8610 -2.7549
  323TMC3    H2 4911   0.378   2.468  13.774  1.0162 -1.3721  0.7265
  323TMC3    C7 4912   0.184   2.303  13.844  0.3331  0.0374  0.0083
  323TMC3    C8 4913   0.510   2.441  13.573  0.3207  0.0011  0.1485
  323TMC3    O1 4914   0.110   2.203  13.846 -0.5324  0.3716 -0.3954
  323TMC3    O2 4915   0.578   2.382  13.656 -0.9132 -0.1996 -0.0619
  324MPD2     C 4916   1.810   3.286  14.322  0.4684 -0.3137  0.4347
  324MPD2    C1 4917   1.812   3.384  14.216 -0.3082  0.7698 -0.1407
  324MPD2    C2 4918   1.692   3.427  14.160 -0.0666 -0.1604 -0.7964
  324MPD2    C3 4919   1.575   3.378  14.213 -0.2499 -0.0512  0.0759
  324MPD2    C4 4920   1.582   3.280  14.309  0.3955 -0.4168 -0.2997
  324MPD2    C5 4921   1.695   3.224  14.358 -0.0549  0.6177  0.2032
  324MPD2     H 4922   1.699   3.512  14.093 -0.7966 -1.4719 -2.5360
  324MPD2    H1 4923   1.493   3.231  14.348  0.3890 -1.2837 -1.4022
  324MPD2    H2 4924   1.896   3.238  14.365  0.8347 -0.0114  0.0401
  324MPD2    H3 4925   1.707   3.146  14.433 -5.0179  0.1740  0.5617
  324MPD2     N 4926   1.446   3.422  14.185 -0.0843 -1.0677 -0.1735
  324MPD2    H5 4927   1.380   3.366  14.238 -1.4019  1.4379  0.8685
  324MPD2    N1 4928   1.933   3.442  14.165 -0.2307 -0.5724  0.1858
  324MPD2    H7 4929   1.925   3.506  14.086  3.1968  1.0753  1.1619
  325TMC3    C1 4930   1.264   3.556  14.108 -0.2760  0.4370 -0.3492
  325TMC3    C2 4931   1.191   3.446  14.117  0.0418  0.2531  0.6207
  325TMC3    C3 4932   1.060   3.459  14.158  0.1311  0.3804 -0.1240
  325TMC3    C4 4933   1.205   3.678  14.133 -0.6851 -0.5079 -0.2526
  325TMC3    C5 4934   1.073   3.684  14.153  0.6116 -0.0585  0.3883
  325TMC3    C6 4935   0.993   3.577  14.164 -0.0474  0.0266 -0.3776
  325TMC3     C 4936   1.409   3.535  14.110  0.7471 -0.0011 -0.3603
  325TMC3     O 4937   1.473   3.627  14.062  0.0149  1.0772  1.1202
  325TMC3     H 4938   1.231   3.347  14.097 -1.9627 -0.3108 -0.6546
  325TMC3    H1 4939   1.268   3.765  14.128 -0.8301 -0.3632  0.5613
  325TMC3    H2 4940   0.889   3.572  14.193  0.2412 -0.8927  0.5042
  325TMC3    C7 4941   1.024   3.808  14.203 -0.0012 -0.6272  0.3662
  325TMC3    C8 4942   0.999   3.339  14.191 -0.1245  0.1939 -0.2415
  325TMC3    O1 4943   1.107   3.894  14.205 -0.7671 -0.3421  0.0542
  325TMC3    O2 4944   1.044   3.243  14.132  0.2899  0.3222 -0.0136
  326MPD2     C 4945   2.451   0.055  11.483 -0.0667 -0.3884 -0.1171
  326MPD2    C1 4946   2.403   0.026  11.351  0.1922  0.1205 -0.2600
  326MPD2    C2 4947   2.497   0.026  11.251  0.3519  0.4912  0.0272
  326MPD2    C3 4948   2.631   0.038  11.267 -0.1194 -0.6053 -0.3045
  326MPD2    C4 4949   2.677   0.060  11.395 -0.0191  0.8934 -0.0434
  326MPD2    C5 4950   2.586   0.069  11.503  0.3347 -0.0185  0.1171
  326MPD2     H 4951   2.455   0.029  11.151 -2.5469  0.9918  1.2801
  326MPD2    H1 4952   2.783   0.077  11.411  0.3356 -0.7323 -0.6920
  326MPD2    H2 4953   2.380   0.068  11.564  0.3775 -0.0758  0.2200
  326MPD2    H3 4954   2.626   0.082  11.603  3.1904  0.1915 -1.0702
  326MPD2     N 4955   2.732   0.049  11.164 -0.4970  0.4524  0.0049
  326MPD2    H5 4956   2.827   0.062  11.198 -0.6036 -1.2682  0.9572
  326MPD2    N1 4957   2.268   0.026  11.327 -0.0189  0.0800  0.2431
  326MPD2    H7 4958   2.238   0.006  11.233  0.4143  0.9693 -0.0829
  327TMC3    C1 4959   2.048   0.006  11.381  0.4143  0.7179 -0.6620
  327TMC3    C2 4960   1.946   0.092  11.376  0.9888  0.7397 -0.1010
  327TMC3    C3 4961   1.843   0.061  11.296 -0.5172 -0.0271  0.5069
  327TMC3    C4 4962   2.050   4.635  11.305  0.2284 -0.4609 -0.4460
  327TMC3    C5 4963   1.942   4.598  11.229 -1.0894  0.2219  0.3263
  327TMC3    C6 4964   1.834   4.680  11.226 -0.7166  0.1047  0.0951
  327TMC3     C 4965   2.172   0.066  11.413 -0.7893  0.1466 -0.7590
  327TMC3     O 4966   2.170   0.147  11.501 -0.3394  0.2803  0.1723
  327TMC3     H 4967   1.966   0.194  11.407  1.0858  0.6652  0.0857
  327TMC3    H1 4968   2.131   4.565  11.319  1.4587  1.1800  0.5775
  327TMC3    H2 4969   1.764   4.655  11.147  0.6797 -1.6605 -0.5830
  327TMC3    C7 4970   1.983   4.581  11.093 -0.4150  0.3405 -0.8496
  327TMC3    C8 4971   1.794   0.178  11.224  0.0849 -0.3162  0.3034
  327TMC3    O1 4972   1.948   4.658  11.010 -0.3958  0.1204 -0.1626
  327TMC3    O2 4973   1.861   0.277  11.211 -0.4718 -0.1111  0.1759
  328MPD2     C 4974   0.712   0.036  17.568  0.4216 -0.2474 -0.6983
  328MPD2    C1 4975   0.602   4.698  17.554  0.1415  0.3643 -0.6013
  328MPD2    C2 4976   0.514   4.708  17.449  0.2290  0.4738 -0.0499
  328MPD2    C3 4977   0.543   0.058  17.345  0.0190 -0.1383 -0.5726
  328MPD2    C4 4978   0.657   0.135  17.354 -0.1079  0.1038  0.0539
  328MPD2    C5 4979   0.745   0.121  17.460 -1.0088 -0.2335  0.0021
  328MPD2     H 4980   0.423   4.649  17.454 -1.2264  2.5665 -1.6668
  328MPD2    H1 4981   0.688   0.207  17.279 -2.7188  1.2233  0.0378
  328MPD2    H2 4982   0.777   0.034  17.654  0.6550 -0.9751 -0.8950
  328MPD2    H3 4983   0.842   0.169  17.461 -0.2835 -1.7295  1.5796
  328MPD2     N 4984   0.459   0.079  17.232  0.3145  0.4253  0.5316
  328MPD2    H5 4985   0.488   0.142  17.159  1.7978 -0.2460  0.5412
  328MPD2    N1 4986   0.588   4.603  17.651  0.5424  0.4398 -0.1115
  328MPD2    H7 4987   0.647   4.608  17.733  2.5721  0.2391 -1.5680
  329TMC3    C1 4988   0.489   4.414   0.006  0.0536 -0.4803  0.5902
  329TMC3    C2 4989   0.486   4.487   0.119  0.2083  0.1244  0.3103
  329TMC3    C3 4990   0.501   4.412   0.234 -0.5633  0.2173 -0.1392
  329TMC3    C4 4991   0.485   4.277   0.005 -0.0595 -0.4979 -0.2017
  329TMC3    C5 4992   0.483   4.218   0.125  0.4012  0.2903 -0.1405
  329TMC3    C6 4993   0.493   4.279   0.244  0.2986 -0.5387  0.5190
  329TMC3     C 4994   0.516   4.487  17.637  0.5378  0.1479 -0.8289
  329TMC3     O 4995   0.477   4.429  17.534 -0.1860 -0.1621  0.5525
  329TMC3     H 4996   0.479   4.595   0.108 -3.5267 -0.0820  0.6530
  329TMC3    H1 4997   0.482   4.222  17.669  0.6758 -1.8055  0.5526
  329TMC3    H2 4998   0.473   4.231   0.339 -2.0943  1.4744  1.0080
  329TMC3    C7 4999   0.514   4.076   0.136  0.5764  0.3281 -0.6039
  329TMC3    C8 5000   0.442   4.473   0.354 -0.0676  0.2685 -0.3105
  329TMC3    O1 5001   0.565   4.034   0.244  0.1743  0.0888  0.2541
  329TMC3    O2 5002   0.485   4.450   0.470 -0.1053  0.7533 -0.3230
  330TMC3    C1 5003   3.063   4.661   9.211 -0.2535  0.5774  0.0133
  330TMC3    C2 5004   2.953   4.574   9.208  0.0527  0.3191  0.0235
  330TMC3    C3 5005   2.960   4.464   9.295  0.0426 -0.0488  0.5451
  330TMC3    C4 5006   3.154   4.653   9.312  0.0436  0.3472 -0.2399
  330TMC3    C5 5007   3.150   4.553   9.401  0.3212 -0.2035  0.3996
  330TMC3    C6 5008   3.061   4.454   9.388 -0.3519 -0.2381 -0.3158
  330TMC3     C 5009   3.074   0.049   9.143 -0.2037 -0.5731  0.1011
  330TMC3     O 5010   3.187   0.083   9.110 -0.4412  0.2160 -0.3875
  330TMC3     H 5011   2.883   4.576   9.125  1.0719 -2.2447 -0.8918
  330TMC3    H1 5012   3.199   0.010   9.335  2.0922 -0.7453  0.3355
  330TMC3    H2 5013   3.088   4.367   9.446 -0.4427 -1.3933 -1.9969
  330TMC3    C7 5014   3.261   4.515   9.481 -0.2773  0.6934 -0.5552
  330TMC3    C8 5015   2.862   4.358   9.266  0.4311  0.2429  0.1944
  330TMC3    O1 5016   3.239   4.454   9.585 -0.2298 -0.2484 -0.4111
  330TMC3    O2 5017   2.820   4.360   9.152  0.0196 -0.4820 -0.0160
  331MPD2     C 5018   0.838   2.691  13.048 -0.1725  0.4963  0.3340
  331MPD2    C1 5019   0.941   2.736  12.979  0.0801 -0.6640  0.4162
  331MPD2    C2 5020   0.994   2.657  12.876  0.0581  0.1796  0.3445
  331MPD2    C3 5021   0.950   2.525  12.863 -0.8450 -0.1170 -0.0027
  331MPD2    C4 5022   0.849   2.481  12.946 -0.3992 -0.1258  0.7553
  331MPD2    C5 5023   0.797   2.563  13.037  0.3391 -0.5395  0.3875
  331MPD2     H 5024   1.072   2.705  12.818  0.6012 -1.3007 -0.1548
  331MPD2    H1 5025   0.816   2.378  12.954 -0.1881 -0.3417 -1.1059
  331MPD2    H2 5026   0.781   2.758  13.113 -1.6294  0.9018 -1.3624
  331MPD2    H3 5027   0.715   2.532  13.101 -0.3126 -0.3203 -0.3456
  331MPD2     N 5028   0.995   2.447  12.760 -0.2261 -0.2609 -0.6619
  331MPD2    H5 5029   1.057   2.486  12.690  0.2684  0.1828  0.0215
  331MPD2    N1 5030   0.986   2.868  13.005 -0.7148  0.3412 -0.3295
  331MPD2    H7 5031   0.930   2.935  13.058 -1.0340 -0.5088  0.3997
  332TMC3    C1 5032   1.060   2.270  12.635 -0.1520  0.1951  0.6722
  332TMC3    C2 5033   1.057   2.355  12.529  0.5277 -0.0843 -0.3355
  332TMC3    C3 5034   1.169   2.362  12.451  0.1145  1.1745 -0.7591
  332TMC3    C4 5035   1.156   2.175  12.654 -0.6399 -0.5483  0.3685
  332TMC3    C5 5036   1.265   2.175  12.566  0.1620 -0.4633  0.7896
  332TMC3    C6 5037   1.269   2.265  12.461  0.1076  0.0147  0.5419
  332TMC3     C 5038   0.993   2.308  12.754 -0.5053  0.5209 -0.5051
  332TMC3     O 5039   0.950   2.228  12.832  0.0120 -0.1169 -0.0204
  332TMC3     H 5040   0.978   2.427  12.508 -0.1201 -0.6108  0.2676
  332TMC3    H1 5041   1.148   2.104  12.736  0.7327  0.3999  1.3308
  332TMC3    H2 5042   1.350   2.258  12.389  1.9254 -0.4172  2.5980
  332TMC3    C7 5043   1.363   2.070  12.580 -0.6497  0.2703 -0.5563
  332TMC3    C8 5044   1.172   2.452  12.342 -0.0333  0.6339  0.0395
  332TMC3    O1 5045   1.329   1.979  12.656 -0.3438  0.3670  0.0439
  332TMC3    O2 5046   1.065   2.479  12.284  0.7820 -0.3316  0.1503
  333MPD2     C 5047   1.668   3.125  11.316  0.0528  0.1751 -0.2539
  333MPD2    C1 5048   1.650   3.114  11.180 -0.0891  0.2101  0.0121
  333MPD2    C2 5049   1.576   3.002  11.141 -0.9038  0.1160  0.0877
  333MPD2    C3 5050   1.516   2.909  11.225  0.1926  0.2248  0.1764
  333MPD2    C4 5051   1.529   2.934  11.363  0.1516  0.1550  0.1084
  333MPD2    C5 5052   1.602   3.038  11.403  0.2249 -0.2451 -0.6561
  333MPD2     H 5053   1.557   2.988  11.036  1.1446 -1.3545 -0.0956
  333MPD2    H1 5054   1.479   2.869  11.433  0.0002  1.1682  0.9354
  333MPD2    H2 5055   1.722   3.209  11.359  3.2306 -0.6786 -2.5225
  333MPD2    H3 5056   1.610   3.066  11.507  3.5725 -1.6241 -0.5628
  333MPD2     N 5057   1.454   2.797  11.164 -0.4366 -0.1839 -0.3700
  333MPD2    H5 5058   1.448   2.797  11.063  2.0666  0.6480 -0.5268
  333MPD2    N1 5059   1.703   3.207  11.089  0.3512  0.1058 -0.2709
  333MPD2    H7 5060   1.760   3.278  11.133  1.0401 -0.5235 -0.1494
  334TMC3    C1 5061   1.720   3.352  10.907  0.4892 -0.3428 -0.6265
  334TMC3    C2 5062   1.836   3.411  10.945  0.7679  0.6856  0.7979
  334TMC3    C3 5063   1.851   3.545  10.917  0.2203 -0.3428  0.5804
  334TMC3    C4 5064   1.628   3.417  10.834 -0.1644 -0.4331 -0.0579
  334TMC3    C5 5065   1.646   3.551  10.813 -0.3178  0.2185  1.1803
  334TMC3    C6 5066   1.755   3.615  10.855 -0.0105 -0.3338 -0.1413
  334TMC3     C 5067   1.673   3.226  10.954 -0.0713 -0.6062 -0.4415
  334TMC3     O 5068   1.580   3.171  10.900 -1.0565  0.3105 -0.2434
  334TMC3     H 5069   1.915   3.364  11.002 -0.9692 -1.0216  1.8022
  334TMC3    H1 5070   1.534   3.378  10.798 -1.3581  1.2825  1.2077
  334TMC3    H2 5071   1.784   3.715  10.824 -0.5944  0.2801  1.2409
  334TMC3    C7 5072   1.543   3.634  10.764  0.2388  0.1140 -0.1323
  334TMC3    C8 5073   1.965   3.620  10.956  0.1723  0.3043 -0.1007
  334TMC3    O1 5074   1.576   3.734  10.698  0.1064  0.0717  0.2481
  334TMC3    O2 5075   1.940   3.733  10.995  0.5523 -0.3523 -0.3571
  335TMC3    C1 5076   0.753   4.492  16.937 -0.1683 -0.0874 -0.2560
  335TMC3    C2 5077   0.741   4.457  16.807 -0.2693 -0.1741 -0.8994
  335TMC3    C3 5078   0.853   4.413  16.742 -0.3062 -0.1514 -0.1380
  335TMC3    C4 5079   0.870   4.466  16.998  0.0100 -0.1077 -0.4422
  335TMC3    C5 5080   0.980   4.421  16.931 -0.5344 -0.5206  0.6616
  335TMC3    C6 5081   0.967   4.381  16.803  0.0249 -0.7647 -0.3354
  335TMC3     C 5082   0.627   4.513  17.019 -0.1046 -0.2890  0.6012
  335TMC3     O 5083   0.649   4.548  17.135  0.2352 -0.2772  0.3588
  335TMC3     H 5084   0.651   4.464  16.748 -1.3360 -1.7586  0.5351
  335TMC3    H1 5085   0.876   4.483  17.105 -0.6385  0.1425 -0.4469
  335TMC3    H2 5086   1.052   4.343  16.747  0.2064 -0.9856  0.0878
  335TMC3    C7 5087   1.104   4.369  17.002 -0.3406  0.5999  0.2625
  335TMC3    C8 5088   0.807   4.328  16.634  0.3100  1.1715 -0.6293
  335TMC3    O1 5089   1.200   4.355  16.934  0.1994 -0.5820  0.3982
  335TMC3    O2 5090   0.862   4.336  16.522 -0.1372 -0.0619  0.0665
  336MPD2     C 5091   0.745   2.360  16.246  0.3554  0.3674 -1.0482
  336MPD2    C1 5092   0.728   2.259  16.157  0.0618 -0.1681  0.2962
  336MPD2    C2 5093   0.692   2.130  16.193 -0.5827 -0.3528  0.2619
  336MPD2    C3 5094   0.673   2.106  16.329 -0.4824 -0.3975 -0.1032
  336MPD2    C4 5095   0.673   2.213  16.413 -0.2040 -0.7650 -0.0230
  336MPD2    C5 5096   0.713   2.338  16.374 -0.0256  0.2026  0.1709
  336MPD2     H 5097   0.681   2.054  16.116 -2.6325  0.5668 -0.3710
  336MPD2    H1 5098   0.643   2.199  16.516  0.6183  0.5443  0.4059
  336MPD2    H2 5099   0.771   2.463  16.225  1.2897  0.3738  0.1302
  336MPD2    H3 5100   0.705   2.424  16.440 -0.2473  0.6981 -0.4924
  336MPD2     N 5101   0.648   1.975  16.382 -0.4634  0.3193 -0.2125
  336MPD2    H5 5102   0.641   1.975  16.483  1.0532  0.4675 -0.1081
  336MPD2    N1 5103   0.719   2.285  16.028  0.6586  0.0594 -0.4489
  336MPD2    H7 5104   0.688   2.208  15.969  0.7537 -1.6184  1.6841
  337TMC3    C1 5105   0.688   2.387  15.822 -0.1532  0.2194 -0.8888
  337TMC3    C2 5106   0.581   2.306  15.801 -0.3749  1.1489 -0.3899
  337TMC3    C3 5107   0.522   2.313  15.678  0.7177 -0.6476  0.0705
  337TMC3    C4 5108   0.734   2.475  15.732  0.2077 -0.5954 -0.2711
  337TMC3    C5 5109   0.665   2.482  15.612 -0.6213 -0.2034 -0.1025
  337TMC3    C6 5110   0.559   2.400  15.582 -0.7237 -0.2836 -0.7174
  337TMC3     C 5111   0.741   2.404  15.956  0.0532  0.0892  0.1537
  337TMC3     O 5112   0.790   2.509  15.985  0.7084 -0.0362 -0.0550
  337TMC3     H 5113   0.546   2.234  15.875  2.7305 -0.1766 -0.2094
  337TMC3    H1 5114   0.819   2.542  15.743  0.3485 -0.5870 -1.4538
  337TMC3    H2 5115   0.511   2.395  15.484 -0.1911  2.1357 -1.1179
  337TMC3    C7 5116   0.641   2.616  15.561  0.5841  0.1549  0.0843
  337TMC3    C8 5117   0.399   2.232  15.661  0.3848  0.0228  0.2133
  337TMC3    O1 5118   0.589   2.632  15.453  0.2494  0.0744 -0.3987
  337TMC3    O2 5119   0.384   2.140  15.738 -0.2360 -0.8440 -0.0613
  338MPD2     C 5120   0.723   2.383   0.835  0.1855  0.2278  0.3564
  338MPD2    C1 5121   0.732   2.310   0.713  0.0279  0.5764  0.4833
  338MPD2    C2 5122   0.621   2.244   0.668 -0.7920  0.0607 -0.0075
  338MPD2    C3 5123   0.499   2.262   0.735  0.0593  0.4788  0.8529
  338MPD2    C4 5124   0.495   2.341   0.840  0.2278  0.4686  0.1608
  338MPD2    C5 5125   0.599   2.401   0.891 -0.2692 -0.6035  0.4527
  338MPD2     H 5126   0.641   2.173   0.589  1.9238 -0.5628  1.2217
  338MPD2    H1 5127   0.398   2.365   0.882 -0.8713 -0.7530 -1.6547
  338MPD2    H2 5128   0.800   2.448   0.876 -0.6032  0.0680  2.0845
  338MPD2    H3 5129   0.596   2.453   0.986 -0.2724  1.5582 -0.7315
  338MPD2     N 5130   0.389   2.190   0.676 -0.4491 -0.0671 -0.6372
  338MPD2    H5 5131   0.408   2.145   0.586 -1.5009 -1.5285 -0.1318
  338MPD2    N1 5132   0.858   2.284   0.641  0.6985  0.7687 -0.1000
  338MPD2    H7 5133   0.859   2.227   0.557  0.9272  0.1667  0.3074
  339TMC3    C1 5134   0.148   2.161   0.636  0.1879 -0.0657  0.1302
  339TMC3    C2 5135   0.044   2.078   0.679  0.4994  0.1045  0.0042
  339TMC3    C3 5136   4.718   2.001   0.587  0.0751 -0.1524 -0.3757
  339TMC3    C4 5137   0.188   2.151   0.504 -0.2217  0.8676  1.1681
  339TMC3    C5 5138   0.133   2.062   0.421 -0.0313  1.0183  0.0731
  339TMC3    C6 5139   0.025   1.985   0.457 -0.7293 -0.4773 -0.4165
  339TMC3     C 5140   0.256   2.195   0.728 -0.1112  0.0790 -0.4093
  339TMC3     O 5141   0.215   2.213   0.842 -0.1599 -0.0054 -0.3160
  339TMC3     H 5142   0.034   2.065   0.786 -1.0793 -3.3861 -0.5607
  339TMC3    H1 5143   0.263   2.218   0.464 -2.2667  1.5196 -1.5625
  339TMC3    H2 5144   4.708   1.920   0.391 -1.8734  0.1885 -0.0817
  339TMC3    C7 5145   0.179   2.071   0.285  0.2125  0.3140  0.1877
  339TMC3    C8 5146   4.639   1.902   0.640  0.2712 -0.2494 -0.5067
  339TMC3    O1 5147   0.196   2.178   0.224 -0.6250 -0.1278 -0.1556
  339TMC3    O2 5148   4.531   1.942   0.681  0.2265  0.3072  0.0085
  340MPD2     C 5149   1.264   4.086   9.258  0.1827 -0.1707 -0.3460
  340MPD2    C1 5150   1.277   4.120   9.390 -0.0130  0.2594 -0.3443
  340MPD2    C2 5151   1.269   4.253   9.417  0.5293 -0.3721  0.3803
  340MPD2    C3 5152   1.237   4.350   9.321  0.1327 -0.1938  0.4196
  340MPD2    C4 5153   1.227   4.309   9.188  0.4902  0.3903  0.4353
  340MPD2    C5 5154   1.238   4.177   9.155 -0.6371  0.0224  0.4945
  340MPD2     H 5155   1.258   4.280   9.522  2.4066  0.7975  0.2651
  340MPD2    H1 5156   1.196   4.382   9.113 -1.8849 -1.0084  0.0749
  340MPD2    H2 5157   1.279   3.984   9.228  0.1617 -1.0321  2.5307
  340MPD2    H3 5158   1.215   4.154   9.052 -0.4046  0.3734  0.3637
  340MPD2     N 5159   1.209   4.486   9.354  0.2358 -0.3354 -0.1686
  340MPD2    H5 5160   1.181   4.552   9.282  2.5441  1.5890  0.7061
  340MPD2    N1 5161   1.282   4.023   9.487  0.4916 -0.4950 -0.1489
  340MPD2    H7 5162   1.256   3.927   9.464  0.2530 -0.6919  0.9594
  341TMC3    C1 5163   1.319   3.938   9.710  0.5038  0.6198 -0.3945
  341TMC3    C2 5164   1.246   3.820   9.675  0.2086  0.0907  0.0848
  341TMC3    C3 5165   1.276   3.706   9.744  0.0172 -0.4930 -0.4008
  341TMC3    C4 5166   1.427   3.926   9.786 -0.0299  0.3324  0.4334
  341TMC3    C5 5167   1.453   3.809   9.843 -0.0083 -0.3118 -0.3206
  341TMC3    C6 5168   1.378   3.695   9.831 -0.3667  0.4542 -0.2624
  341TMC3     C 5169   1.324   4.051   9.617  0.4519  0.3367  0.0184
  341TMC3     O 5170   1.379   4.154   9.663 -0.0427  0.3202 -0.4797
  341TMC3     H 5171   1.161   3.816   9.607  0.8227  1.7075 -0.7879
  341TMC3    H1 5172   1.486   4.014   9.810  3.0731 -1.4246 -0.6574
  341TMC3    H2 5173   1.403   3.612   9.895 -2.6128  1.0316  1.3586
  341TMC3    C7 5174   1.574   3.788   9.917  0.1697 -0.0092  0.2731
  341TMC3    C8 5175   1.189   3.590   9.725  0.0354 -0.5973  0.6355
  341TMC3    O1 5176   1.577   3.706  10.005  0.0155 -0.0584 -0.4751
  341TMC3    O2 5177   1.078   3.608   9.675  0.6978  0.0953 -0.2498
  342MPD2     C 5178   3.097   2.851  17.227 -1.4074  0.5989 -0.1632
  342MPD2    C1 5179   3.228   2.846  17.187  0.3877  0.1225 -0.3873
  342MPD2    C2 5180   3.277   2.965  17.142 -0.1001  0.3652 -0.3984
  342MPD2    C3 5181   3.210   3.088  17.142  0.6679 -0.5811 -0.4824
  342MPD2    C4 5182   3.085   3.096  17.199  0.0598 -0.2594  0.5741
  342MPD2    C5 5183   3.035   2.971  17.232  0.4465 -0.4538  0.2919
  342MPD2     H 5184   3.376   2.949  17.100  0.0231  2.3694 -0.8435
  342MPD2    H1 5185   3.033   3.191  17.200  0.6040  0.0439  0.0664
  342MPD2    H2 5186   3.056   2.756  17.260  1.1049 -0.5995 -0.4717
  342MPD2    H3 5187   2.931   2.978  17.265  0.6658  0.7281  0.7094
  342MPD2     N 5188   3.277   3.210  17.117  0.0429 -0.2693  0.0520
  342MPD2    H5 5189   3.225   3.293  17.146  0.8293  0.7213 -1.3549
  342MPD2    N1 5190   3.312   2.733  17.212 -0.1225  0.5931 -0.4550
  342MPD2    H7 5191   3.411   2.750  17.194  0.2530 -0.8108  0.3174
  343TMC3    C1 5192   3.410   2.533  17.293  0.0665 -0.7453  0.4076
  343TMC3    C2 5193   3.517   2.594  17.354  0.1189  0.7909 -0.5459
  343TMC3    C3 5194   3.619   2.512  17.387  0.0928  0.1165 -0.9317
  343TMC3    C4 5195   3.401   2.397  17.301 -0.4610 -0.2601  0.1997
  343TMC3    C5 5196   3.498   2.320  17.359 -0.1069 -0.1051  1.0116
  343TMC3    C6 5197   3.615   2.374  17.396 -0.0343  0.1047  0.0946
  343TMC3     C 5198   3.287   2.609  17.274 -0.2728  0.1975 -0.5284
  343TMC3     O 5199   3.185   2.552  17.310 -0.0959  0.0909 -0.1072
  343TMC3     H 5200   3.517   2.701  17.369  0.5893  0.5390  1.2010
  343TMC3    H1 5201   3.309   2.354  17.263 -0.8534 -0.1709  1.0388
  343TMC3    H2 5202   3.707   2.317  17.406  0.7373  1.3537  0.1470
  343TMC3    C7 5203   3.489   2.175  17.341 -0.3022  0.3914 -0.5503
  343TMC3    C8 5204   3.748   2.561  17.387 -0.3774  0.5240 -0.0332
  343TMC3    O1 5205   3.421   2.138  17.250 -0.4616 -0.0032 -0.3010
  343TMC3    O2 5206   3.781   2.627  17.483 -0.6022 -0.4846 -0.2894
  344MPD2     C 5207   4.659   2.224  10.854  0.3936  0.6622  0.2360
  344MPD2    C1 5208   4.606   2.194  10.726  0.0451 -0.0360  0.4169
  344MPD2    C2 5209   4.655   2.258  10.608 -0.0822  0.2556 -0.3073
  344MPD2    C3 5210   0.024   2.347  10.625  0.1906  0.3974 -1.1939
  344MPD2    C4 5211   0.066   2.380  10.753 -0.5127  0.4037 -0.4983
  344MPD2    C5 5212   0.022   2.314  10.859  0.6046  0.1422 -0.2390
  344MPD2     H 5213   4.615   2.233  10.510  0.0122  0.7590 -0.4746
  344MPD2    H1 5214   0.148   2.448  10.769  0.0494 -0.8955  2.0553
  344MPD2    H2 5215   4.614   2.190  10.946 -0.1235  1.2244  0.1958
  344MPD2    H3 5216   0.067   2.331  10.956  1.5562  2.6381 -1.1098
  344MPD2     N 5217   0.087   2.423  10.524 -0.4485 -0.1673  0.7263
  344MPD2    H5 5218   0.156   2.495  10.541 -0.3547 -0.2811  0.8287
  344MPD2    N1 5219   4.498   2.098  10.707  0.0920  0.3542 -0.4055
  344MPD2    H7 5220   4.443   2.090  10.622 -2.5484 -3.1999  1.6500
  345TMC3    C1 5221   0.174   2.463  10.318  0.9231  0.6358 -0.1902
  345TMC3    C2 5222   0.289   2.480  10.388  0.8958 -0.2392  0.0241
  345TMC3    C3 5223   0.355   2.602  10.382  0.8579 -0.0368  0.1460
  345TMC3    C4 5224   0.121   2.566  10.244  0.5117  0.2502 -0.0687
  345TMC3    C5 5225   0.210   2.673  10.230  0.0458  0.1529 -0.2737
  345TMC3    C6 5226   0.321   2.698  10.299 -0.4238  0.5057 -0.4724
  345TMC3     C 5227   0.080   2.392  10.388 -0.7641 -0.4811  0.3197
  345TMC3     O 5228   4.733   2.328  10.335 -0.4091 -0.4150 -0.5842
  345TMC3     H 5229   0.320   2.404  10.458 -0.5200  0.2128  1.1275
  345TMC3    H1 5230   0.028   2.562  10.189  1.2195 -0.0419 -1.2555
  345TMC3    H2 5231   0.379   2.788  10.282  1.5473 -0.7783 -0.5302
  345TMC3    C7 5232   0.176   2.790  10.144  0.2092  1.0398 -0.1384
  345TMC3    C8 5233   0.367   2.649  10.519 -0.2247  0.1659  0.3139
  345TMC3    O1 5234   0.163   2.896  10.201 -0.0180  0.1022  0.1070
  345TMC3    O2 5235   0.286   2.598  10.599 -0.0111 -0.0015  0.7848
  346MPD2     C 5236   4.627   3.490  14.000 -0.1129  0.2225  0.4691
  346MPD2    C1 5237   4.625   3.627  13.986 -0.2959  0.1101 -0.8908
  346MPD2    C2 5238   4.659   3.702  14.101 -0.4691 -0.0160 -0.0012
  346MPD2    C3 5239   4.660   3.644  14.224 -0.0127  1.5108 -0.2166
  346MPD2    C4 5240   4.664   3.505  14.235  0.2547  0.9333  0.5876
  346MPD2    C5 5241   4.645   3.435  14.123 -0.2005 -0.1347 -0.2115
  346MPD2     H 5242   4.672   3.810  14.096  0.4601 -0.0605  1.3800
  346MPD2    H1 5243   4.680   3.456  14.330  1.6526  0.1279 -0.0572
  346MPD2    H2 5244   4.633   3.430  13.910 -1.7733 -1.0755  1.2097
  346MPD2    H3 5245   4.665   3.328  14.127 -3.9666 -0.8986 -1.2298
  346MPD2     N 5246   4.709   3.725  14.328  0.1956  0.6448  0.3443
  346MPD2    H5 5247   4.726   3.821  14.300 -1.9592  0.2695 -2.2366
  346MPD2    N1 5248   4.636   3.695  13.869 -0.1380  0.2344  0.7737
  346MPD2    H7 5249   4.653   3.795  13.881 -0.9098  0.5213 -0.5085
  347TMC3    C1 5250   0.092   3.760  14.531  0.2471 -0.1734  0.3717
  347TMC3    C2 5251   0.185   3.837  14.457  0.2589 -0.1637 -0.1448
  347TMC3    C3 5252   0.303   3.869  14.516  0.3839  0.1292 -0.7295
  347TMC3    C4 5253   0.115   3.710  14.650  0.0564 -0.3989 -0.5380
  347TMC3    C5 5254   0.234   3.743  14.710 -1.1658  0.0071 -0.2146
  347TMC3    C6 5255   0.329   3.813  14.638  0.0254  0.3445  0.1492
  347TMC3     C 5256   4.731   3.686  14.456  0.5548 -0.1859 -0.6781
  347TMC3     O 5257   4.689   3.585  14.505  0.5961 -0.5587 -0.3222
  347TMC3     H 5258   0.165   3.848  14.351  0.0881  1.7537  0.0973
  347TMC3    H1 5259   0.038   3.655  14.703 -0.6249 -0.5956 -1.7067
  347TMC3    H2 5260   0.429   3.820  14.677 -0.4618 -0.1889  1.4851
  347TMC3    C7 5261   0.268   3.646  14.820 -0.1985  0.4084 -0.3537
  347TMC3    C8 5262   0.411   3.900  14.419  0.0713  0.2228 -0.3474
  347TMC3    O1 5263   0.226   3.531  14.804  0.3151  0.0124 -0.0241
  347TMC3    O2 5264   0.403   3.846  14.308  0.1877 -0.2535 -0.0342
  348MPD2     C 5265   3.259   3.531  11.948  0.1659 -0.3549 -0.3262
  348MPD2    C1 5266   3.373   3.607  11.918  0.3020  0.6824  0.3456
  348MPD2    C2 5267   3.380   3.672  11.795  0.2169 -0.2280 -0.0900
  348MPD2    C3 5268   3.266   3.689  11.717 -0.0673  0.2359 -0.0901
  348MPD2    C4 5269   3.151   3.624  11.754  0.0258  0.3415  0.3310
  348MPD2    C5 5270   3.149   3.544  11.866  0.7201  0.2480 -0.3818
  348MPD2     H 5271   3.463   3.736  11.767 -0.9191  1.1180 -0.3574
  348MPD2    H1 5272   3.058   3.617  11.699 -0.5177  1.3640  1.1250
  348MPD2    H2 5273   3.242   3.473  12.038  1.7198  0.6784  0.6318
  348MPD2    H3 5274   3.060   3.487  11.891  0.8665 -0.2470 -0.9827
  348MPD2     N 5275   3.275   3.772  11.599  0.0778 -0.3258 -0.8763
  348MPD2    H5 5276   3.365   3.817  11.588 -0.7261  1.2626 -0.9938
  348MPD2    N1 5277   3.497   3.604  11.992 -0.0379 -0.1879 -0.3336
  348MPD2    H7 5278   3.582   3.639  11.948 -0.3201 -0.6707 -1.2599
  349TMC3    C1 5279   3.660   3.558  12.157 -0.2658 -0.2518 -0.4455
  349TMC3    C2 5280   3.685   3.433  12.215 -0.5108 -0.5069  0.4464
  349TMC3    C3 5281   3.799   3.361  12.179  0.5589  0.0491 -0.1292
  349TMC3    C4 5282   3.744   3.605  12.060 -0.2534  0.8179 -0.5856
  349TMC3    C5 5283   3.850   3.526  12.017 -1.0150 -0.0362  1.2949
  349TMC3    C6 5284   3.887   3.414  12.089  0.5008 -0.3077  0.2621
  349TMC3     C 5285   3.517   3.566  12.122 -0.0078  1.0972 -0.1314
  349TMC3     O 5286   3.438   3.533  12.209  0.2010 -0.0181 -0.3202
  349TMC3     H 5287   3.621   3.388  12.290 -1.0027 -1.0409 -0.2984
  349TMC3    H1 5288   3.724   3.702  12.016  1.1024  0.9217 -0.9637
  349TMC3    H2 5289   3.967   3.347  12.060 -0.3587 -1.0428 -0.4440
  349TMC3    C7 5290   3.848   3.503  11.873  0.5733 -0.2014  0.6301
  349TMC3    C8 5291   3.827   3.230  12.235 -0.4617 -0.0382 -0.6627
  349TMC3    O1 5292   3.848   3.391  11.825  0.2861 -0.0531  0.1763
  349TMC3    O2 5293   3.940   3.190  12.217 -0.0754  0.1292  0.2318
  350MPD2     C 5294   2.333   1.855  10.143  0.2844  0.4088  0.7991
  350MPD2    C1 5295   2.394   1.742  10.197 -0.3195  0.1304  0.1747
  350MPD2    C2 5296   2.532   1.720  10.196  0.5499  0.3506  0.9692
  350MPD2    C3 5297   2.615   1.815  10.153 -0.2624  0.6359  0.5812
  350MPD2    C4 5298   2.561   1.937  10.099  0.1073 -0.3213 -0.6478
  350MPD2    C5 5299   2.424   1.949  10.088  0.8390  0.2142  0.0516
  350MPD2     H 5300   2.570   1.623  10.223  1.4314  1.0187  2.1055
  350MPD2    H1 5301   2.628   2.016  10.069 -0.4386  0.2002 -0.5069
  350MPD2    H2 5302   2.227   1.871  10.123  0.1663 -0.3068  0.8589
  350MPD2    H3 5303   2.394   2.037  10.032 -1.1799 -0.5836 -0.1554
  350MPD2     N 5304   2.755   1.783  10.164 -0.0772  0.2260  0.6109
  350MPD2    H5 5305   2.766   1.688  10.198  1.6214 -0.8268 -2.8747
  350MPD2    N1 5306   2.326   1.632  10.261  0.1094  0.4013 -0.5010
  350MPD2    H7 5307   2.386   1.555  10.288  1.6858  1.6087 -0.5756
  351TMC3    C1 5308   2.148   1.505  10.324 -0.4761  0.0542 -0.3973
  351TMC3    C2 5309   2.231   1.394  10.310 -0.0809  0.1347  0.4498
  351TMC3    C3 5310   2.184   1.267  10.335  0.4820  0.1448  0.2424
  351TMC3    C4 5311   2.017   1.487  10.360 -0.0816  0.5512 -0.6849
  351TMC3    C5 5312   1.973   1.359  10.383 -0.1756  0.5730  0.3590
  351TMC3    C6 5313   2.053   1.245  10.379  0.2768  0.6243  0.9130
  351TMC3     C 5314   2.193   1.629  10.282  0.3715  0.5028 -0.6061
  351TMC3     O 5315   2.106   1.711  10.269 -0.6185 -0.3565 -0.3792
  351TMC3     H 5316   2.334   1.407  10.280 -0.4288 -1.3877 -1.4041
  351TMC3    H1 5317   1.945   1.568  10.368  0.2401  0.6302  1.3311
  351TMC3    H2 5318   2.003   1.149  10.385  1.6755 -0.1064  0.7826
  351TMC3    C7 5319   1.829   1.346  10.424  0.3813  0.1590 -0.0999
  351TMC3    C8 5320   2.258   1.157  10.274  0.6458 -1.2120 -0.0220
  351TMC3    O1 5321   1.767   1.450  10.458  0.3934  0.1220  0.2735
  351TMC3    O2 5322   2.362   1.189  10.212  0.5915  0.0697  0.3803
  352MPD2     C 5323   1.424   3.581   0.350  1.1522  0.5340  0.6247
  352MPD2    C1 5324   1.529   3.670   0.377  0.2710  0.2919  0.0337
  352MPD2    C2 5325   1.653   3.622   0.405  0.4840  0.1459 -0.2039
  352MPD2    C3 5326   1.687   3.492   0.393 -0.0389  0.1696 -0.4870
  352MPD2    C4 5327   1.588   3.402   0.358 -0.0057  0.7856 -0.2458
  352MPD2    C5 5328   1.455   3.449   0.328 -0.3398 -0.4541  0.0273
  352MPD2     H 5329   1.735   3.691   0.422 -0.0034  0.6445  0.1148
  352MPD2    H1 5330   1.600   3.295   0.369  0.5680  0.5691 -2.9174
  352MPD2    H2 5331   1.323   3.616   0.330  0.9641  1.0468  2.5378
  352MPD2    H3 5332   1.377   3.379   0.299  0.2778 -0.7795 -0.8489
  352MPD2     N 5333   1.825   3.455   0.403  0.4789  0.6611  0.3132
  352MPD2    H5 5334   1.848   3.361   0.372 -0.2499  0.3752  0.6186
  352MPD2    N1 5335   1.490   3.805   0.360  0.3127 -0.3638 -0.5741
  352MPD2    H7 5336   1.392   3.820   0.341  0.3950  1.1404  0.2185
  353TMC3    C1 5337   2.039   3.435   0.471  0.5367  0.0617  0.2692
  353TMC3    C2 5338   2.086   3.394   0.596  0.1641  1.4854  0.4037
  353TMC3    C3 5339   2.132   3.269   0.602 -0.3134 -0.7863  0.2814
  353TMC3    C4 5340   2.047   3.352   0.361  0.3644  0.1261  0.1158
  353TMC3    C5 5341   2.073   3.219   0.380 -0.8826 -0.2382 -0.6864
  353TMC3    C6 5342   2.133   3.185   0.497  0.2413 -0.3368  0.1540
  353TMC3     C 5343   1.919   3.514   0.480  0.1971 -0.2411 -0.0847
  353TMC3     O 5344   1.905   3.597   0.571  0.8351 -0.1304 -0.6307
  353TMC3     H 5345   2.065   3.454   0.684  0.2738 -0.5796  1.8437
  353TMC3    H1 5346   2.013   3.396   0.268 -0.5815  0.8853  0.8279
  353TMC3    H2 5347   2.142   3.078   0.509 -1.4855 -0.3517  1.3035
  353TMC3    C7 5348   1.967   3.132   0.331 -0.0479  0.6097  0.2949
  353TMC3    C8 5349   2.171   3.221   0.735  0.5029 -0.5827  0.2294
  353TMC3    O1 5350   1.904   3.072   0.417 -0.7915  0.0549  0.0712
  353TMC3    O2 5351   2.170   3.296   0.832  0.7722 -0.2192  0.0405
  354TMC3    C1 5352   2.766   4.471  13.246  0.1261 -0.3274  0.5153
  354TMC3    C2 5353   2.693   4.585  13.221 -0.5042  0.2721  0.0415
  354TMC3    C3 5354   2.745   4.662  13.119 -0.2608 -0.0792 -0.0660
  354TMC3    C4 5355   2.860   4.420  13.163  0.0999 -0.9769 -0.4541
  354TMC3    C5 5356   2.904   4.497  13.060 -0.0227 -0.0458 -0.4529
  354TMC3    C6 5357   2.847   4.621  13.039 -0.3118 -0.3353  0.3746
  354TMC3     C 5358   2.763   4.424  13.379 -0.3470  0.4688 -0.0017
  354TMC3     O 5359   2.652   4.421  13.424  0.2334  0.0717 -0.0338
  354TMC3     H 5360   2.613   4.609  13.290 -0.8504 -0.8924  0.0504
  354TMC3    H1 5361   2.919   4.338  13.202  3.0212  1.3908  0.0852
  354TMC3    H2 5362   2.861   4.682  12.951  1.2992 -2.1025 -0.5993
  354TMC3    C7 5363   2.992   4.439  12.962 -0.9058  0.2152 -0.1089
  354TMC3    C8 5364   2.704   0.063  13.123  0.0358 -0.0484 -0.2848
  354TMC3    O1 5365   2.991   4.316  12.970 -0.3474 -0.0626  0.5305
  354TMC3    O2 5366   2.596   0.086  13.178  0.2985  0.3014 -0.2654
  355MPD2     C 5367   2.484   0.788  11.527  0.0083  0.0164  0.3645
  355MPD2    C1 5368   2.555   0.814  11.412  0.1754  0.4687 -0.2898
  355MPD2    C2 5369   2.700   0.815  11.410 -1.0034  0.0432  0.4900
  355MPD2    C3 5370   2.760   0.820  11.529 -0.7515  0.1927  0.2679
  355MPD2    C4 5371   2.690   0.799  11.644  0.5980  0.5744 -0.0488
  355MPD2    C5 5372   2.554   0.778  11.645  0.1605 -0.6323 -0.5388
  355MPD2     H 5373   2.754   0.831  11.318 -0.4310 -2.4275  0.4139
  355MPD2    H1 5374   2.749   0.796  11.734 -0.5575  1.1787  0.7260
  355MPD2    H2 5375   2.376   0.776  11.527  0.0598 -0.5099  1.2027
  355MPD2    H3 5376   2.493   0.765  11.733 -1.6393 -1.1914 -1.8698
  355MPD2     N 5377   2.894   0.855  11.545  0.3699  0.0675 -0.0933
  355MPD2    H5 5378   2.929   0.859  11.640 -2.5298  0.5250  0.9570
  355MPD2    N1 5379   2.476   0.818  11.296 -0.1269 -0.2272  0.5801
  355MPD2    H7 5380   2.386   0.773  11.311  1.6737 -4.5289 -1.3857
  356TMC3    C1 5381   3.116   0.936  11.502  0.0796 -0.0991  0.8946
  356TMC3    C2 5382   3.168   1.029  11.416  0.1766  0.3923 -0.0649
  356TMC3    C3 5383   3.272   1.111  11.457  0.4542 -0.4629  0.6454
  356TMC3    C4 5384   3.157   0.922  11.629 -0.6224  0.0969 -0.5557
  356TMC3    C5 5385   3.257   1.010  11.667 -0.5929  0.6357 -0.6409
  356TMC3    C6 5386   3.316   1.103  11.585 -0.3650 -0.7608 -0.0232
  356TMC3     C 5387   2.990   0.887  11.448  0.0100 -0.0151  0.2178
  356TMC3     O 5388   2.966   0.893  11.325 -0.3468  0.6327  0.1814
  356TMC3     H 5389   3.128   1.049  11.317  1.9924  1.3993 -0.6088
  356TMC3    H1 5390   3.115   0.842  11.690  2.5423 -0.7095  0.5454
  356TMC3    H2 5391   3.392   1.163  11.635  1.5211 -0.5011 -3.2142
  356TMC3    C7 5392   3.273   1.009  11.812 -0.0861 -0.1312 -0.2891
  356TMC3    C8 5393   3.342   1.180  11.349  0.1647 -0.1847  1.2960
  356TMC3    O1 5394   3.231   0.915  11.876 -0.1530 -0.2559 -0.2495
  356TMC3    O2 5395   3.292   1.187  11.244  0.0530 -0.3975  0.6197
  357MPD2     C 5396   3.214   0.073  17.202 -0.2063 -0.0747 -0.5449
  357MPD2    C1 5397   3.156   0.172  17.280 -0.2663  0.1420  0.3833
  357MPD2    C2 5398   3.075   0.264  17.219 -0.2027 -0.0601  0.1802
  357MPD2    C3 5399   3.043   0.263  17.084 -0.5557  0.2841  0.4428
  357MPD2    C4 5400   3.116   0.170  17.008 -0.2373  0.0988  0.1723
  357MPD2    C5 5401   3.203   0.083  17.066 -0.7279 -0.1611 -0.2009
  357MPD2     H 5402   3.047   0.347  17.283  2.7880  0.8211  0.3352
  357MPD2    H1 5403   3.103   0.166  16.900  1.3573  0.1787 -0.0228
  357MPD2    H2 5404   3.284   4.738  17.238 -2.7451 -1.1134  2.2301
  357MPD2    H3 5405   3.262   0.016  17.004 -0.7232 -0.2994 -0.0481
  357MPD2     N 5406   2.980   0.374  17.023 -0.0547 -0.7406  0.9506
  357MPD2    H5 5407   2.999   0.398  16.926 -2.1456 -0.4567  0.6063
  357MPD2    N1 5408   3.178   0.160  17.415 -0.3854  0.7593  0.1222
  357MPD2    H7 5409   3.204   0.071  17.455  3.0591  2.2933  1.3411
  358TMC3    C1 5410   3.160   0.226  17.640  0.2164 -0.2061  0.3030
  358TMC3    C2 5411   3.068   0.133  17.652 -0.1629  0.2302 -0.8405
  358TMC3    C3 5412   3.006   0.144   0.018 -0.5146 -0.2010 -1.0940
  358TMC3    C4 5413   3.188   0.323  17.737  0.6199 -0.8304  0.4088
  358TMC3    C5 5414   3.127   0.314   0.106  0.3738  0.4062  0.2877
  358TMC3    C6 5415   3.040   0.219   0.129 -0.0360  0.1017  0.0460
  358TMC3     C 5416   3.169   0.268  17.503 -0.2547  1.0820  0.0076
  358TMC3     O 5417   3.160   0.388  17.476 -0.0815 -0.1668  0.4146
  358TMC3     H 5418   3.030   0.075  17.569  1.1405 -1.7581 -0.0604
  358TMC3    H1 5419   3.265   0.398  17.727  0.5177 -0.6929  0.6350
  358TMC3    H2 5420   2.962   0.242   0.201 -2.2821  0.4696 -2.4875
  358TMC3    C7 5421   3.169   0.409   0.208 -0.1793 -0.3357  0.1400
  358TMC3    C8 5422   2.865   0.150  17.756 -1.0276  0.0898 -0.1879
  358TMC3    O1 5423   3.251   0.499   0.179 -0.4106  0.6750  0.2956
  358TMC3    O2 5424   2.812   0.198  17.656 -0.3993 -0.0306  0.2668
  359MPD2     C 5425   3.582   3.880  12.346  0.3908 -0.2148 -0.2465
  359MPD2    C1 5426   3.483   3.941  12.281 -0.6701  0.2776 -0.0645
  359MPD2    C2 5427   3.363   3.965  12.340  0.5466 -0.1145 -0.6857
  359MPD2    C3 5428   3.350   3.945  12.474  0.3485 -0.1136  0.2010
  359MPD2    C4 5429   3.456   3.895  12.540 -0.1359  0.4268 -0.2756
  359MPD2    C5 5430   3.567   3.850  12.482  0.3071  0.3119 -0.2376
  359MPD2     H 5431   3.285   4.020  12.289  1.0993 -0.0838 -1.4968
  359MPD2    H1 5432   3.460   3.898  12.649  4.2522 -0.2378 -0.4161
  359MPD2    H2 5433   3.678   3.851  12.303  0.7845  2.9818 -1.5374
  359MPD2    H3 5434   3.657   3.820  12.533 -1.1117 -1.2718  1.3096
  359MPD2     N 5435   3.227   3.979  12.544  0.7442 -0.0249  0.2546
  359MPD2    H5 5436   3.230   3.976  12.646 -1.2369 -2.1435  0.2386
  359MPD2    N1 5437   3.487   3.984  12.143 -0.0239 -0.1393 -0.5039
  359MPD2    H7 5438   3.399   4.018  12.104  0.6165  2.6328  0.4660
  360TMC3    C1 5439   3.571   4.046  11.936  0.6185 -0.0930 -0.0576
  360TMC3    C2 5440   3.677   4.107  11.878 -0.6962 -0.2607  0.0932
  360TMC3    C3 5441   3.661   4.198  11.783  0.0332  0.0509  0.4646
  360TMC3    C4 5442   3.444   4.056  11.879  0.1991 -1.2923 -0.4555
  360TMC3    C5 5443   3.432   4.136  11.773  0.0498 -0.2545  0.4060
  360TMC3    C6 5444   3.539   4.206  11.719  0.4667 -0.0393 -0.7338
  360TMC3     C 5445   3.595   3.972  12.061 -0.5889 -0.4562  0.4581
  360TMC3     O 5446   3.705   3.943  12.095 -0.0165  0.2346  0.1477
  360TMC3     H 5447   3.767   4.094  11.937 -0.3958 -1.1492 -0.5465
  360TMC3    H1 5448   3.361   3.996  11.912 -0.7136 -1.0918 -2.4277
  360TMC3    H2 5449   3.525   4.272  11.634  2.4118  0.1656 -0.8942
  360TMC3    C7 5450   3.316   4.133  11.686  0.5503  0.1201 -0.5097
  360TMC3    C8 5451   3.777   4.213  11.696  0.3438 -0.3403 -0.2194
  360TMC3    O1 5452   3.346   4.143  11.566 -0.5057 -0.0666 -0.5761
  360TMC3    O2 5453   3.870   4.135  11.709 -0.5051  0.2763 -0.2163
  361MPD2     C 5454   0.382   3.132  16.241  1.5158  0.5462 -0.1051
  361MPD2    C1 5455   0.306   3.156  16.359  0.0896 -0.2109 -0.3611
  361MPD2    C2 5456   0.331   3.079  16.470  0.1837  0.8541  0.3614
  361MPD2    C3 5457   0.436   2.986  16.475 -0.2686  0.1892 -0.0006
  361MPD2    C4 5458   0.497   2.957  16.350 -0.7599 -0.4861 -0.9004
  361MPD2    C5 5459   0.467   3.023  16.236 -0.8306  0.4329  0.0882
  361MPD2     H 5460   0.265   3.094  16.554  0.7942 -1.3012  1.2356
  361MPD2    H1 5461   0.577   2.883  16.351 -2.0183 -1.7908  2.3744
  361MPD2    H2 5462   0.366   3.180  16.145  0.5867  0.3084 -0.0684
  361MPD2    H3 5463   0.520   2.995  16.146 -0.4872 -3.2747  1.4367
  361MPD2     N 5464   0.477   2.918  16.593  0.4475 -0.0913 -0.1567
  361MPD2    H5 5465   0.548   2.846  16.583 -0.2954 -0.9119  0.3758
  361MPD2    N1 5466   0.200   3.245  16.368  0.5255  0.3738  0.1139
  361MPD2    H7 5467   0.137   3.235  16.446  0.0776 -1.1635 -0.4400
  362TMC3    C1 5468   0.103   3.455  16.368  0.6699 -0.8834  0.3365
  362TMC3    C2 5469   0.116   3.468  16.503  0.2206 -0.3248 -0.2935
  362TMC3    C3 5470   0.018   3.543  16.572  0.0375  0.8077  0.6633
  362TMC3    C4 5471   0.020   3.537  16.296  0.0519 -0.5475  0.4038
  362TMC3    C5 5472   4.672   3.614  16.369  0.1331 -0.2895  0.0405
  362TMC3    C6 5473   4.670   3.619  16.507  0.0099 -0.2172 -0.3356
  362TMC3     C 5474   0.176   3.357  16.293  0.3683 -0.2086 -0.0928
  362TMC3     O 5475   0.229   3.382  16.188 -0.0805  0.2487  0.8830
  362TMC3     H 5476   0.199   3.412  16.545  0.9706 -0.5650 -2.0949
  362TMC3    H1 5477   0.013   3.528  16.189 -0.4853  1.5593  0.2677
  362TMC3    H2 5478   4.609   3.694  16.555 -1.3373 -0.9317 -0.9502
  362TMC3    C7 5479   4.600   3.727  16.299  0.1477 -1.3855  0.4219
  362TMC3    C8 5480   0.015   3.544  16.719 -0.2319  0.0638 -0.0731
  362TMC3    O1 5481   4.514   3.780  16.370  0.1517  0.1700 -0.1484
  362TMC3    O2 5482   0.106   3.478  16.769  0.1835  0.4760  0.4443
  363TMC3    C1 5483   3.188   1.309   9.638 -0.4524 -0.1592 -0.6660
  363TMC3    C2 5484   3.229   1.178   9.671 -0.9492 -0.1252  0.2357
  363TMC3    C3 5485   3.130   1.082   9.692 -0.0851  0.2023 -0.2794
  363TMC3    C4 5486   3.057   1.336   9.610  0.2661 -0.4364  0.1676
  363TMC3    C5 5487   2.960   1.241   9.631  0.1794 -0.4933  0.4271
  363TMC3    C6 5488   2.997   1.113   9.674  0.2090 -0.3533  0.4745
  363TMC3     C 5489   3.290   1.405   9.598 -0.3689 -0.6621 -0.4042
  363TMC3     O 5490   3.247   1.506   9.553  0.2890  0.1187 -0.2069
  363TMC3     H 5491   3.333   1.164   9.697 -0.8631  0.4313  0.2030
  363TMC3    H1 5492   3.027   1.437   9.586  0.0176 -0.4236  0.5340
  363TMC3    H2 5493   2.917   1.040   9.683 -0.4455  0.1659 -1.1356
  363TMC3    C7 5494   2.814   1.268   9.606 -0.7787  0.2778  0.3695
  363TMC3    C8 5495   3.159   0.946   9.662 -0.1452  0.3798 -0.3897
  363TMC3    O1 5496   2.729   1.206   9.665 -0.2221  0.1560 -0.2544
  363TMC3    O2 5497   3.074   0.881   9.599 -0.1783  0.1055 -0.3034
  364MPD2     C 5498   1.536   0.344  10.813  0.0076 -0.0099 -0.0320
  364MPD2    C1 5499   1.631   0.406  10.887 -0.3208  0.1776  0.7130
  364MPD2    C2 5500   1.666   0.355  11.008 -0.0582 -0.1498  0.0844
  364MPD2    C3 5501   1.630   0.229  11.044  0.2238  0.2636 -0.2883
  364MPD2    C4 5502   1.535   0.165  10.970 -0.2492 -0.0322  0.6876
  364MPD2    C5 5503   1.488   0.228  10.854 -0.3216 -0.1320 -0.1655
  364MPD2     H 5504   1.740   0.405  11.069 -1.2138  0.6594  0.8292
  364MPD2    H1 5505   1.502   0.064  10.991 -1.6685  0.4201  0.6408
  364MPD2    H2 5506   1.511   0.388  10.717  0.7116 -1.2692 -0.7840
  364MPD2    H3 5507   1.410   0.179  10.797 -0.3802  2.1901 -2.0941
  364MPD2     N 5508   1.682   0.150  11.153  0.4976  0.0132 -0.2199
  364MPD2    H5 5509   1.644   0.057  11.165  1.1713 -0.4016 -1.2944
  364MPD2    N1 5510   1.691   0.520  10.830 -0.7849  0.9714 -0.0509
  364MPD2    H7 5511   1.647   0.548  10.744  0.7942 -2.0006 -1.8297
  365TMC3    C1 5512   1.844   0.698  10.815 -0.2771  0.0910  0.4572
  365TMC3    C2 5513   1.823   0.709  10.678  0.4040 -0.0143  0.2150
  365TMC3    C3 5514   1.853   0.831  10.621 -0.0489 -0.2775 -0.1991
  365TMC3    C4 5515   1.891   0.801  10.885  0.1865 -0.1251  0.6402
  365TMC3    C5 5516   1.913   0.925  10.825 -0.3820  0.5047  0.2020
  365TMC3    C6 5517   1.896   0.943  10.692  0.7982 -0.3829  0.3291
  365TMC3     C 5518   1.808   0.578  10.883 -0.1628  0.0687 -0.1576
  365TMC3     O 5519   1.885   0.544  10.972  0.3035 -0.1199  0.1481
  365TMC3     H 5520   1.799   0.620  10.621 -2.7120  1.9298 -1.4936
  365TMC3    H1 5521   1.903   0.783  10.992 -0.9577  1.1574  0.9845
  365TMC3    H2 5522   1.905   1.039  10.642  0.3432 -1.6692 -2.2296
  365TMC3    C7 5523   1.948   1.038  10.908  0.0993  0.0898 -0.3133
  365TMC3    C8 5524   1.859   0.847  10.479 -0.3555  0.1093 -0.3280
  365TMC3    O1 5525   1.991   1.136  10.842 -0.3114 -0.2345  0.2811
  365TMC3    O2 5526   1.924   0.944  10.438 -0.3016  0.2341 -0.1172
  366MPD2     C 5527   4.470   1.391  15.555  0.3239 -0.3261  1.1237
  366MPD2    C1 5528   4.496   1.394  15.421 -0.3259  0.0728  0.1967
  366MPD2    C2 5529   4.562   1.291  15.349  0.5364 -0.3197  0.7100
  366MPD2    C3 5530   4.610   1.189  15.422 -0.8624 -0.5801  0.4263
  366MPD2    C4 5531   4.584   1.179  15.559 -0.0971  0.1158 -0.6470
  366MPD2    C5 5532   4.516   1.280  15.623 -0.4153  0.2317  0.2081
  366MPD2     H 5533   4.590   1.312  15.247  2.0656  0.4060  1.2687
  366MPD2    H1 5534   4.630   1.100  15.619 -1.2531  0.2197  0.3748
  366MPD2    H2 5535   4.414   1.464  15.613 -1.8578 -0.5299 -0.7459
  366MPD2    H3 5536   4.489   1.283  15.728  0.4986 -0.4136  0.4627
  366MPD2     N 5537   4.713   1.114  15.360 -0.0358  0.5084  0.2588
  366MPD2    H5 5538   4.729   1.152  15.267  1.4019  2.0389  1.1264
  366MPD2    N1 5539   4.469   1.521  15.364 -0.1101  0.4138  0.8690
  366MPD2    H7 5540   4.470   1.592  15.436  0.2053  0.2283  1.0477
  367TMC3    C1 5541   4.599   1.674  15.246  0.1925 -0.8334  0.8028
  367TMC3    C2 5542   4.716   1.645  15.329  0.0156  0.6951 -0.0989
  367TMC3    C3 5543   0.090   1.722  15.304  0.3751 -0.6156  0.3160
  367TMC3    C4 5544   4.609   1.751  15.139 -0.3807 -0.3580 -0.3710
  367TMC3    C5 5545   4.726   1.820  15.121  0.2289 -0.1954  0.4605
  367TMC3    C6 5546   0.095   1.817  15.207 -0.4710 -0.0112  0.2845
  367TMC3     C 5547   4.514   1.557  15.242 -0.4128  0.2917 -0.2811
  367TMC3     O 5548   4.481   1.515  15.132  0.1102  0.0141  0.2531
  367TMC3     H 5549   4.707   1.565  15.401  1.7915  0.9172  0.3770
  367TMC3    H1 5550   4.524   1.768  15.074 -1.1276  0.4851  0.8064
  367TMC3    H2 5551   0.180   1.881  15.184 -0.3382  0.1963  1.3525
  367TMC3    C7 5552   0.001   1.890  14.994  0.3328 -0.6276  0.0018
  367TMC3    C8 5553   0.192   1.705  15.407 -1.2345  0.7561  0.4718
  367TMC3    O1 5554   0.078   1.980  14.992 -0.0551 -0.2986 -0.4909
  367TMC3    O2 5555   0.194   1.593  15.462 -0.1738 -0.1020  0.2337
  368MPD2     C 5556   1.612   3.086  13.283  0.1034  0.2207  0.2431
  368MPD2    C1 5557   1.574   3.204  13.230 -0.0504 -0.0587 -0.5006
  368MPD2    C2 5558   1.663   3.285  13.164 -0.6094  0.6653 -0.1953
  368MPD2    C3 5559   1.793   3.242  13.146  0.1102 -0.1334 -0.5200
  368MPD2    C4 5560   1.832   3.118  13.194  0.3281 -0.3934  0.3072
  368MPD2    C5 5561   1.739   3.037  13.253  0.7806  0.5844  1.1540
  368MPD2     H 5562   1.636   3.376  13.111  0.4924  1.7303  1.0785
  368MPD2    H1 5563   1.932   3.082  13.178 -0.4408 -2.6165  0.5295
  368MPD2    H2 5564   1.548   3.015  13.335 -0.8907  1.4094  0.6231
  368MPD2    H3 5565   1.769   2.935  13.274 -1.6763 -0.6803 -1.5277
  368MPD2     N 5566   1.898   3.316  13.084  0.1756  0.6796  0.1529
  368MPD2    H5 5567   1.993   3.281  13.081 -0.3267 -0.6688 -0.2219
  368MPD2    N1 5568   1.437   3.239  13.251 -0.4343  0.0798 -0.5698
  368MPD2    H7 5569   1.373   3.172  13.292  0.4065  0.0085  0.6480
  369TMC3    C1 5570   1.240   3.378  13.242  0.2915  0.2410  1.2294
  369TMC3    C2 5571   1.199   3.509  13.209  0.3237 -0.1336  0.1348
  369TMC3    C3 5572   1.074   3.545  13.250 -0.0723 -0.4774  0.2035
  369TMC3    C4 5573   1.156   3.294  13.310  0.2641  0.5033  0.3393
  369TMC3    C5 5574   1.025   3.339  13.339 -0.2506  0.0911  0.3722
  369TMC3    C6 5575   0.984   3.463  13.304  0.4325  0.2389  0.0798
  369TMC3     C 5576   1.386   3.362  13.220  0.0409  0.2926 -0.1339
  369TMC3     O 5577   1.444   3.464  13.182  0.3964  0.2327 -0.6825
  369TMC3     H 5578   1.269   3.584  13.175 -0.6006  0.0819 -1.2999
  369TMC3    H1 5579   1.190   3.197  13.341 -4.7587 -1.2751  0.3454
  369TMC3    H2 5580   0.883   3.496  13.324 -0.1073 -0.1162 -2.0037
  369TMC3    C7 5581   0.937   3.237  13.389  0.4010  0.1721  0.2341
  369TMC3    C8 5582   1.019   3.668  13.180 -0.5381  0.1761 -0.0574
  369TMC3    O1 5583   0.987   3.127  13.408 -0.2098  0.1769  0.0211
  369TMC3    O2 5584   0.899   3.683  13.161  0.2275  0.5608  0.3308
  370TMC3    C1 5585   1.092   3.941  16.109  0.2740  0.8129 -0.3874
  370TMC3    C2 5586   1.033   3.845  16.188  1.3782  0.8748  0.3213
  370TMC3    C3 5587   0.971   3.736  16.126  0.6060 -0.3354 -0.1116
  370TMC3    C4 5588   1.103   3.925  15.973 -0.1982  0.1987 -0.0370
  370TMC3    C5 5589   1.029   3.827  15.915 -0.8251  0.5080  0.4591
  370TMC3    C6 5590   0.956   3.735  15.983 -0.0648 -0.3795  1.1854
  370TMC3     C 5591   1.199   4.018  16.167  0.0964 -0.0286 -0.6179
  370TMC3     O 5592   1.249   3.965  16.267 -0.1154 -0.2700 -0.0664
  370TMC3     H 5593   1.033   3.860  16.295 -2.0086 -1.5047  0.6456
  370TMC3    H1 5594   1.157   3.989  15.905 -1.4690  0.8031 -0.4674
  370TMC3    H2 5595   0.889   3.667  15.931  2.9590 -1.6585 -1.0100
  370TMC3    C7 5596   1.069   3.782  15.776  1.3780  1.1224  0.6494
  370TMC3    C8 5597   0.940   3.620  16.210 -0.3956  0.0682  0.0789
  370TMC3    O1 5598   1.098   3.875  15.700  0.9348  0.4011 -0.1591
  370TMC3    O2 5599   0.927   3.514  16.153  0.0946 -0.3627 -0.2964
  371TMC3    C1 5600   2.271   2.166  15.371  0.2879  0.7157 -0.2789
  371TMC3    C2 5601   2.140   2.153  15.342  0.0170 -0.4752 -0.1085
  371TMC3    C3 5602   2.075   2.257  15.289 -0.3614  0.1228 -0.1106
  371TMC3    C4 5603   2.337   2.275  15.322  0.2534 -0.6956 -0.0936
  371TMC3    C5 5604   2.268   2.384  15.285 -0.1894  0.3838  0.1658
  371TMC3    C6 5605   2.132   2.387  15.277  0.1737 -0.8877 -0.7467
  371TMC3     C 5606   2.336   2.076  15.468  0.7309  0.5825  0.7473
  371TMC3     O 5607   2.458   2.088  15.480 -0.1602  0.6050  0.8173
  371TMC3     H 5608   2.090   2.058  15.355  0.7443 -0.9333 -0.6396
  371TMC3    H1 5609   2.440   2.293  15.350 -0.2301  2.9299 -0.6559
  371TMC3    H2 5610   2.082   2.469  15.227  0.5606  0.3619  0.8943
  371TMC3    C7 5611   2.340   2.513  15.278 -0.2259  0.3064  0.1185
  371TMC3    C8 5612   1.932   2.253  15.280  0.3395 -0.0315 -0.3863
  371TMC3    O1 5613   2.447   2.516  15.217 -0.3274 -0.8082  0.0669
  371TMC3    O2 5614   1.881   2.145  15.274  0.3602  0.0425 -0.2852
  372MPD2     C 5615   2.195   3.778  13.202 -0.2283 -0.2897  0.9618
  372MPD2    C1 5616   2.277   3.682  13.252  0.2849 -0.1861  0.0803
  372MPD2    C2 5617   2.221   3.579  13.321  0.4998 -0.0775  0.2301
  372MPD2    C3 5618   2.090   3.552  13.317  0.2936  0.4638  0.6181
  372MPD2    C4 5619   2.010   3.639  13.252 -0.8909 -0.2740  1.0330
  372MPD2    C5 5620   2.063   3.752  13.198 -0.2298 -0.3129  0.1242
  372MPD2     H 5621   2.283   3.505  13.371 -1.6131 -2.1221 -0.1791
  372MPD2    H1 5622   1.902   3.636  13.238 -0.7094  0.0426 -0.5297
  372MPD2    H2 5623   2.231   3.867  13.152  2.2509 -0.1498  2.9846
  372MPD2    H3 5624   1.989   3.810  13.144 -0.8500 -0.6822  0.5702
  372MPD2     N 5625   2.042   3.447  13.398  0.0899 -0.1000  0.3242
  372MPD2    H5 5626   2.098   3.375  13.442 -0.1049 -0.7921 -0.5713
  372MPD2    N1 5627   2.419   3.690  13.234 -0.2837 -0.2855  0.0322
  372MPD2    H7 5628   2.478   3.647  13.305 -0.5801 -2.0487 -0.7798
  373TMC3    C1 5629   1.893   3.335  13.538 -0.1860 -0.3011  0.2394
  373TMC3    C2 5630   1.797   3.350  13.636 -0.0051 -0.1364  0.1120
  373TMC3    C3 5631   1.770   3.243  13.719  0.1806 -0.1247 -0.4391
  373TMC3    C4 5632   1.946   3.210  13.513  0.7662  0.0420 -0.9869
  373TMC3    C5 5633   1.897   3.103  13.580 -0.0189  0.2860 -0.2530
  373TMC3    C6 5634   1.813   3.118  13.681 -0.0170  0.2242 -0.2693
  373TMC3     C 5635   1.913   3.445  13.451 -0.4417  0.0099 -0.8655
  373TMC3     O 5636   1.827   3.530  13.443  0.3254 -0.2628 -0.5468
  373TMC3     H 5637   1.749   3.446  13.651  0.8946  0.0032  2.1216
  373TMC3    H1 5638   2.023   3.192  13.439  0.2305 -1.9874 -1.0371
  373TMC3    H2 5639   1.770   3.027  13.721  0.2917  0.1875 -0.0225
  373TMC3    C7 5640   1.984   2.989  13.571  0.3450  0.5974  0.3390
  373TMC3    C8 5641   1.644   3.258  13.792 -0.5112  0.5234  0.0645
  373TMC3    O1 5642   2.026   2.960  13.459  0.0697 -0.1971  0.1648
  373TMC3    O2 5643   1.568   3.343  13.745  0.4799  0.0171  0.6927
  374TMC3    C1 5644   2.365   4.225   9.421  1.1160  0.4801 -0.2473
  374TMC3    C2 5645   2.470   4.294   9.470 -0.3345 -0.2066 -0.3532
  374TMC3    C3 5646   2.476   4.422   9.436  0.1001 -0.0511  0.3383
  374TMC3    C4 5647   2.261   4.279   9.354 -1.2489 -0.9305  0.1039
  374TMC3    C5 5648   2.269   4.417   9.335 -0.2301 -0.0979 -0.2878
  374TMC3    C6 5649   2.381   4.493   9.372  0.1083  0.0301 -0.2317
  374TMC3     C 5650   2.333   4.092   9.461  0.3764  0.1705 -0.1815
  374TMC3     O 5651   2.249   4.031   9.395 -0.3312 -0.7737  0.5218
  374TMC3     H 5652   2.552   4.232   9.506  0.4380  0.4798 -0.9270
  374TMC3    H1 5653   2.183   4.217   9.312 -1.4986 -0.2717 -0.4029
  374TMC3    H2 5654   2.393   4.595   9.339  1.4805 -0.4972 -1.4231
  374TMC3    C7 5655   2.154   4.487   9.288  0.3411 -0.2682  0.1145
  374TMC3    C8 5656   2.586   4.501   9.494  0.1374  0.0215  0.0390
  374TMC3    O1 5657   2.140   4.606   9.319  0.4267 -0.1473 -0.0520
  374TMC3    O2 5658   2.615   4.604   9.438 -0.1184  0.3235  0.1720
  375MPD2     C 5659   2.242   3.762  17.483  0.3064 -0.5701  0.0345
  375MPD2    C1 5660   2.230   3.840  17.371  0.5022  0.1380 -0.5251
  375MPD2    C2 5661   2.320   3.824  17.271 -0.2918  1.2389 -0.9858
  375MPD2    C3 5662   2.431   3.744  17.283  0.1036  0.4449 -0.1074
  375MPD2    C4 5663   2.448   3.669  17.403  0.2567  0.3485 -0.0265
  375MPD2    C5 5664   2.345   3.686  17.490  0.5367  0.4630 -0.5012
  375MPD2     H 5665   2.298   3.884  17.183 -0.1408  0.0255 -1.8502
  375MPD2    H1 5666   2.530   3.600  17.422  1.0406  1.2844 -0.0145
  375MPD2    H2 5667   2.165   3.764  17.559  0.7830 -0.0226  0.5011
  375MPD2    H3 5668   2.353   3.630  17.583 -0.0467  1.4240  0.1217
  375MPD2     N 5669   2.526   3.721  17.182  0.3420 -0.0948  0.5338
  375MPD2    H5 5670   2.624   3.695  17.194  0.3818  0.0839  0.6032
  375MPD2    N1 5671   2.128   3.938  17.351  0.5468  0.3226  0.1548
  375MPD2    H7 5672   2.114   3.976  17.258  1.4968  2.6656  0.9732
  376TMC3    C1 5673   2.601   3.743  16.963  0.3252  0.2660 -0.0470
  376TMC3    C2 5674   2.722   3.802  17.002 -0.2378 -0.7627  0.4653
  376TMC3    C3 5675   2.820   3.840  16.910  0.8286  0.0904 -0.4938
  376TMC3    C4 5676   2.571   3.751  16.838  0.4008  0.5034  0.1029
  376TMC3    C5 5677   2.661   3.789  16.739  0.1843 -0.1873  0.0512
  376TMC3    C6 5678   2.789   3.830  16.774 -0.4946 -0.5307 -0.9519
  376TMC3     C 5679   2.490   3.730  17.054 -0.2574 -0.1682  0.6530
  376TMC3     O 5680   2.379   3.717  17.005  0.4486  0.4801  0.3149
  376TMC3     H 5681   2.749   3.798  17.107  0.3576  0.2304  0.3507
  376TMC3    H1 5682   2.474   3.714  16.804  0.2300  0.8402  0.2202
  376TMC3    H2 5683   2.861   3.861  16.698 -0.1723  1.1066  0.0066
  376TMC3    C7 5684   2.628   3.743  16.607 -0.5167  0.1990 -0.3235
  376TMC3    C8 5685   2.952   3.874  16.955  0.1574 -0.2316  0.0494
  376TMC3    O1 5686   2.553   3.648  16.601  0.4766 -1.1864 -0.1075
  376TMC3    O2 5687   2.982   3.857  17.072 -1.0557  0.2107  0.3306
  377MPD2     C 5688   0.584   3.894  12.329 -0.0091 -0.2776 -0.1993
  377MPD2    C1 5689   0.670   3.832  12.415 -0.2100  0.0439 -0.7459
  377MPD2    C2 5690   0.612   3.793  12.532  0.8857 -0.0733  0.6085
  377MPD2    C3 5691   0.489   3.821  12.567 -0.3945 -0.7573  0.0615
  377MPD2    C4 5692   0.403   3.887  12.479  0.6955 -0.0400  0.0408
  377MPD2    C5 5693   0.449   3.914  12.353 -0.1131 -0.7239 -0.4345
  377MPD2     H 5694   0.681   3.748  12.602  2.3676  1.5343  0.1840
  377MPD2    H1 5695   0.300   3.901  12.513  0.7112 -1.2423  0.5646
  377MPD2    H2 5696   0.619   3.938  12.236  1.4597  0.8231  0.8942
  377MPD2    H3 5697   0.393   3.969  12.279 -3.3204 -2.4063  0.7485
  377MPD2     N 5698   0.429   3.778  12.685 -0.5520 -0.2253  0.2400
  377MPD2    H5 5699   0.334   3.810  12.704  0.4439  1.3886  2.5273
  377MPD2    N1 5700   0.807   3.819  12.380 -0.2491 -0.0327  0.3214
  377MPD2    H7 5701   0.836   3.835  12.284 -0.5582  0.2507  0.2736
  378TMC3    C1 5702   1.134   3.792  12.193 -0.2492 -0.1387  0.2697
  378TMC3    C2 5703   1.026   3.735  12.266 -0.0471 -0.0048 -0.0125
  378TMC3    C3 5704   1.031   3.747  12.401  1.0801 -0.3529  0.2063
  378TMC3    C4 5705   1.248   3.845  12.247  0.2647  0.7721  0.5181
  378TMC3    C5 5706   1.242   3.848  12.385  0.9619 -0.2500 -0.2677
  378TMC3    C6 5707   1.136   3.803  12.460 -0.2073 -0.5640 -0.4410
  378TMC3     C 5708   1.104   3.819  12.055 -0.0706  0.0641  0.0936
  378TMC3     O 5709   0.993   3.792  12.018  0.0437  0.5008 -0.3129
  378TMC3     H 5710   0.953   3.677  12.210  0.6462 -0.8242 -0.0671
  378TMC3    H1 5711   1.321   3.900  12.190  1.2263 -0.2795  0.7359
  378TMC3    H2 5712   1.135   3.818  12.567 -1.1874  0.7819 -0.6529
  378TMC3    C7 5713   1.361   3.880  12.458  0.0950  0.0680  0.0436
  378TMC3    C8 5714   0.908   3.779  12.466 -0.4796 -0.0528  0.6537
  378TMC3    O1 5715   1.343   3.929  12.565 -0.1065  0.0897  0.0542
  378TMC3    O2 5716   0.910   3.782  12.588 -0.4304  0.2662 -0.1918
  379MPD2     C 5717   1.266   1.594  16.070 -0.3082 -0.4746 -0.7338
  379MPD2    C1 5718   1.205   1.475  16.081  0.1513 -0.2680 -0.0530
  379MPD2    C2 5719   1.254   1.380  16.173 -0.7569 -0.0456 -1.1099
  379MPD2    C3 5720   1.369   1.403  16.240 -0.3062 -0.4159 -0.2264
  379MPD2    C4 5721   1.428   1.527  16.221  0.5470  0.1788 -0.3606
  379MPD2    C5 5722   1.373   1.621  16.136 -0.4421 -0.1295  0.1210
  379MPD2     H 5723   1.202   1.287  16.196 -1.9835  0.0885 -3.2395
  379MPD2    H1 5724   1.525   1.553  16.260  0.3124 -1.4010  1.3155
  379MPD2    H2 5725   1.229   1.667  15.999  1.6924  1.5605  0.3307
  379MPD2    H3 5726   1.415   1.721  16.131  0.6481 -0.6608 -1.5964
  379MPD2     N 5727   1.405   1.326  16.344 -0.8503 -0.6717 -0.0226
  379MPD2    H5 5728   1.463   1.372  16.414 -2.7387  0.0104  1.0827
  379MPD2    N1 5729   1.086   1.453  16.011 -0.6116 -0.2862 -0.1643
  379MPD2    H7 5730   1.044   1.524  15.950 -2.6265  0.2212  1.8001
  380TMC3    C1 5731   0.903   1.353  15.923  0.8191  0.6397  0.2926
  380TMC3    C2 5732   0.885   1.245  15.839 -0.0053 -0.5471  0.5463
  380TMC3    C3 5733   0.806   1.269  15.728  0.4899 -0.3878 -0.0929
  380TMC3    C4 5734   0.837   1.477  15.911  0.3041  0.0857 -0.7903
  380TMC3    C5 5735   0.761   1.494  15.798 -0.3644  0.1233  0.3497
  380TMC3    C6 5736   0.748   1.394  15.702  0.5023  0.6313 -0.0791
  380TMC3     C 5737   1.017   1.340  16.013  0.1457 -0.9529 -0.4164
  380TMC3     O 5738   1.035   1.229  16.066  0.2269 -0.2279  0.6281
  380TMC3     H 5739   0.950   1.159  15.852 -0.4108 -1.3213 -2.4784
  380TMC3    H1 5740   0.836   1.549  15.992  0.1386  0.9914 -1.5968
  380TMC3    H2 5741   0.699   1.406  15.606  1.4975  1.0102 -0.5341
  380TMC3    C7 5742   0.728   1.628  15.771  0.4187  0.7538  0.6564
  380TMC3    C8 5743   0.794   1.170  15.614  0.2503  0.1776  0.1872
  380TMC3    O1 5744   0.781   1.720  15.836  0.5841 -0.1930 -0.0538
  380TMC3    O2 5745   0.721   1.199  15.516 -0.0151  0.2883  0.7033
  381TMC3    C1 5746   1.060   2.838  15.910  0.8122 -0.2040 -0.0611
  381TMC3    C2 5747   1.115   2.962  15.890 -0.3943 -0.3746 -0.1064
  381TMC3    C3 5748   1.109   3.051  15.991 -0.3994 -0.7051 -0.0262
  381TMC3    C4 5749   0.981   2.818  16.019  0.0576  0.1280  0.4163
  381TMC3    C5 5750   0.957   2.919  16.106 -0.1677 -0.3009 -0.5275
  381TMC3    C6 5751   1.011   3.039  16.087  0.2167 -0.0576 -0.3685
  381TMC3     C 5752   1.097   2.726  15.828 -0.7855  0.3717  0.0813
  381TMC3     O 5753   1.110   2.749  15.709  0.0425 -0.7801  0.0927
  381TMC3     H 5754   1.184   2.967  15.806 -1.1984 -0.6028 -0.7827
  381TMC3    H1 5755   0.925   2.726  16.033 -0.6940  0.5883  0.3917
  381TMC3    H2 5756   1.010   3.109  16.169 -0.4867  1.2897 -1.5217
  381TMC3    C7 5757   0.891   2.887  16.226 -0.8219  0.3777 -0.0832
  381TMC3    C8 5758   1.185   3.174  15.981  0.4657 -0.2203 -0.8966
  381TMC3    O1 5759   0.899   2.766  16.253  0.6728 -0.1323 -0.0030
  381TMC3    O2 5760   1.238   3.192  15.871  0.6692  0.5490 -0.5579
  382MPD2     C 5761   0.477   1.007  17.008  0.2238  0.5137 -0.1165
  382MPD2    C1 5762   0.507   1.017  17.140 -0.4506  0.1706  0.2765
  382MPD2    C2 5763   0.471   0.914  17.222 -0.2923  0.5598  0.0447
  382MPD2    C3 5764   0.442   0.791  17.163  0.2711  0.4370  0.5246
  382MPD2    C4 5765   0.414   0.783  17.028  0.5843 -0.1912  0.3632
  382MPD2    C5 5766   0.423   0.897  16.956  0.0370  0.2857 -0.4160
  382MPD2     H 5767   0.480   0.934  17.327  2.2057  1.0386 -0.2671
  382MPD2    H1 5768   0.398   0.690  16.974  0.6456 -1.8515  3.2232
  382MPD2    H2 5769   0.478   1.089  16.936  0.1249 -0.9853 -1.8122
  382MPD2    H3 5770   0.412   0.898  16.849 -1.0874  0.9579 -0.2989
  382MPD2     N 5771   0.400   0.673  17.233  0.1588  0.1619 -0.1087
  382MPD2    H5 5772   0.361   0.595  17.180 -1.7406 -0.6693  2.4368
  382MPD2    N1 5773   0.537   1.144  17.195 -0.0021  0.2982 -0.5228
  382MPD2    H7 5774   0.544   1.147  17.297  2.4320 -1.3228 -0.6539
  383TMC3    C1 5775   0.381   0.515  17.417  0.0534 -0.1085  0.3268
  383TMC3    C2 5776   0.259   0.469  17.372  0.4598 -0.4391 -0.1375
  383TMC3    C3 5777   0.219   0.340  17.407 -0.2441 -0.4367  0.8801
  383TMC3    C4 5778   0.447   0.450  17.519 -0.8441  0.8971 -0.2582
  383TMC3    C5 5779   0.395   0.331  17.561 -0.2836 -0.1301 -0.1228
  383TMC3    C6 5780   0.286   0.279  17.506 -0.1206  0.5484 -0.0131
  383TMC3     C 5781   0.437   0.638  17.362 -0.4943  0.2339  0.4237
  383TMC3     O 5782   0.511   0.703  17.435  0.1877  0.4738  0.9422
  383TMC3     H 5783   0.191   0.519  17.304 -0.1714 -0.6029  0.3680
  383TMC3    H1 5784   0.535   0.497  17.560  0.6257 -1.6910 -0.4779
  383TMC3    H2 5785   0.269   0.174  17.527 -2.7481  1.1256  0.7237
  383TMC3    C7 5786   0.458   0.252  17.664  0.9439  0.0116  0.7210
  383TMC3    C8 5787   0.101   0.283  17.351  0.5744  0.2774  0.1511
  383TMC3    O1 5788   0.392   0.174  17.727  0.3088 -0.0826  0.0846
  383TMC3    O2 5789   0.060   0.333  17.249 -0.0749 -0.0727  0.7042
  384MPD2     C 5790   1.827   1.972  12.184  0.4902  0.4924 -0.3640
  384MPD2    C1 5791   1.833   1.848  12.239 -0.5168  0.1063  0.2724
  384MPD2    C2 5792   1.951   1.791  12.271  0.0805 -0.1855  0.3819
  384MPD2    C3 5793   2.072   1.852  12.248 -0.1257  0.3475 -0.0021
  384MPD2    C4 5794   2.066   1.975  12.194  0.2081 -0.4968 -0.0280
  384MPD2    C5 5795   1.947   2.035  12.155  0.4750 -0.8124 -0.4045
  384MPD2     H 5796   1.951   1.692  12.315  0.7263 -1.0757 -1.6038
  384MPD2    H1 5797   2.153   2.038  12.179 -0.8928  0.8897 -0.5021
  384MPD2    H2 5798   1.739   2.021  12.145 -0.2268  0.6155  1.3974
  384MPD2    H3 5799   1.951   2.132  12.108  2.2653  0.3853  2.2304
  384MPD2     N 5800   2.198   1.795  12.281  0.0832  0.2024 -0.5560
  384MPD2    H5 5801   2.278   1.857  12.280  1.3914 -1.5126 -1.4297
  384MPD2    N1 5802   1.718   1.775  12.286  0.0353 -0.1968 -0.3078
  384MPD2    H7 5803   1.741   1.699  12.349  0.2614  0.7101  0.6942
  385TMC3    C1 5804   2.358   1.639  12.366  0.0429 -0.1184  0.2750
  385TMC3    C2 5805   2.385   1.502  12.346  0.1737  0.3544 -0.3255
  385TMC3    C3 5806   2.394   1.424  12.454 -0.4996 -0.0183 -0.5254
  385TMC3    C4 5807   2.352   1.686  12.490  0.5017 -0.4955  0.7961
  385TMC3    C5 5808   2.327   1.602  12.596  0.5346 -0.2528  0.6435
  385TMC3    C6 5809   2.362   1.470  12.579  0.5889  0.3047 -0.4617
  385TMC3     C 5810   2.227   1.665  12.311 -0.2973  0.1274  0.5165
  385TMC3     O 5811   2.156   1.567  12.300  0.3466 -0.2608 -0.0001
  385TMC3     H 5812   2.395   1.465  12.244  0.1496  0.0363 -0.2148
  385TMC3    H1 5813   2.333   1.792  12.504 -0.0841 -0.8089  2.3475
  385TMC3    H2 5814   2.343   1.397  12.657  3.1106 -1.1831 -1.2432
  385TMC3    C7 5815   2.213   1.635  12.673 -0.2042  0.4567  0.2136
  385TMC3    C8 5816   2.376   1.284  12.439  0.3624 -0.0824  0.0850
  385TMC3    O1 5817   2.153   1.734  12.635  0.3991  1.2001 -0.1469
  385TMC3    O2 5818   2.439   1.211  12.509  0.0288 -0.2761 -0.0934
  386TMC3    C1 5819   1.694   4.275  11.915  0.4724  0.7597 -0.4944
  386TMC3    C2 5820   1.663   4.292  11.782 -0.5330  0.6128 -0.7616
  386TMC3    C3 5821   1.560   4.223  11.726 -0.7595  0.4758  0.5385
  386TMC3    C4 5822   1.598   4.218  11.996 -0.1506 -0.0396 -0.1100
  386TMC3    C5 5823   1.492   4.161  11.938 -0.8263  0.4707  0.3422
  386TMC3    C6 5824   1.474   4.150  11.801  0.1569  0.2436  0.4912
  386TMC3     C 5825   1.784   4.364  11.982 -0.0511 -0.4432  0.3873
  386TMC3     O 5826   1.767   4.481  11.961  0.3040 -0.0237  0.0926
  386TMC3     H 5827   1.729   4.356  11.723 -1.4098  1.7185 -0.5553
  386TMC3    H1 5828   1.606   4.232  12.104 -0.9148 -1.0199  0.0809
  386TMC3    H2 5829   1.395   4.095  11.752 -0.1710 -1.0097  2.4127
  386TMC3    C7 5830   1.366   4.161  12.007  0.1284  0.1244 -0.1941
  386TMC3    C8 5831   1.524   4.230  11.586 -0.0382 -0.4178 -0.5845
  386TMC3    O1 5832   1.376   4.137  12.127 -0.2571  0.5715 -0.3220
  386TMC3    O2 5833   1.438   4.155  11.548 -0.5255  0.0083  0.0167
  387MPD2     C 5834   4.302   4.165  10.008 -0.3110 -0.2001  0.4132
  387MPD2    C1 5835   4.439   4.172   9.993  0.5734 -0.1586  0.0526
  387MPD2    C2 5836   4.515   4.067   9.955  0.5483 -0.4311  0.1625
  387MPD2    C3 5837   4.454   3.940   9.937  0.1000 -0.0977 -0.3943
  387MPD2    C4 5838   4.315   3.931   9.958 -0.6001 -0.2914  0.0090
  387MPD2    C5 5839   4.238   4.041   9.989 -0.2570  1.0725  0.4694
  387MPD2     H 5840   4.623   4.077   9.961  0.7839 -0.4833 -4.1176
  387MPD2    H1 5841   4.271   3.832   9.950  1.2887 -1.4137  3.3708
  387MPD2    H2 5842   4.238   4.251  10.028 -0.3862 -0.6868  2.2512
  387MPD2    H3 5843   4.132   4.023  10.002 -0.2338  0.9061  0.4268
  387MPD2     N 5844   4.533   3.823   9.893  0.2843 -0.3775  0.2577
  387MPD2    H5 5845   4.629   3.846   9.874  0.2857 -0.3256  0.3259
  387MPD2    N1 5846   4.513   4.286  10.034  0.1407  0.0192  0.1174
  387MPD2    H7 5847   4.614   4.277  10.039  0.1537  0.5510  0.8081
  388TMC3    C1 5848   4.589   4.455  10.162  0.3576  0.3446 -0.4006
  388TMC3    C2 5849   4.604   4.585  10.131 -0.8388 -0.2095 -0.0657
  388TMC3    C3 5850   4.723   4.640  10.149  0.5637 -0.1259  0.5475
  388TMC3    C4 5851   4.696   4.379  10.200 -0.4664  0.2552  0.2157
  388TMC3    C5 5852   0.073   4.444  10.217 -0.8354 -0.0339 -0.4365
  388TMC3    C6 5853   0.094   4.574  10.193 -0.5903 -0.0715 -0.2489
  388TMC3     C 5854   4.468   4.393  10.110 -0.0984  1.0454  0.0443
  388TMC3     O 5855   4.352   4.433  10.121  0.5182 -0.0747 -0.0485
  388TMC3     H 5856   4.518   4.648  10.112 -1.3206 -1.2898 -1.5075
  388TMC3    H1 5857   4.671   4.280  10.238  2.0210 -0.7840 -0.8057
  388TMC3    H2 5858   0.187   4.628  10.208 -0.0822 -1.2063  0.7258
  388TMC3    C7 5859   0.180   4.357  10.259  1.0380  0.3774 -0.2474
  388TMC3    C8 5860   4.732   0.040  10.115 -0.1532 -0.5426 -0.5779
  388TMC3    O1 5861   0.254   4.404  10.348  0.1096 -0.1212 -0.0573
  388TMC3    O2 5862   4.636   0.096  10.057 -0.7317  0.4025  0.2467
  389MPD2     C 5863   3.924   2.408  11.338  0.3148 -0.2401 -0.0652
  389MPD2    C1 5864   3.876   2.316  11.244  0.2922  0.8365  0.2705
  389MPD2    C2 5865   3.807   2.201  11.287 -0.4720  0.3399 -0.5355
  389MPD2    C3 5866   3.763   2.187  11.420 -0.0068 -0.0125  0.3681
  389MPD2    C4 5867   3.808   2.283  11.514  0.2093 -0.9708 -0.1920
  389MPD2    C5 5868   3.892   2.386  11.470 -0.8268 -0.1871 -0.1987
  389MPD2     H 5869   3.791   2.124  11.213  1.5503  1.3838 -2.0801
  389MPD2    H1 5870   3.790   2.274  11.620  2.1086 -2.9121 -0.0360
  389MPD2    H2 5871   3.982   2.498  11.319  1.0321 -0.2692  1.9387
  389MPD2    H3 5872   3.927   2.458  11.544 -0.7826  0.5209 -0.9030
  389MPD2     N 5873   3.680   2.081  11.469 -0.0609  0.3250 -0.7321
  389MPD2    H5 5874   3.662   2.080  11.569  1.5119  0.8368 -0.4284
  389MPD2    N1 5875   3.901   2.344  11.109 -0.1828 -0.0070  0.3071
  389MPD2    H7 5876   3.952   2.430  11.094 -1.9323  0.8020 -0.9814
  390TMC3    C1 5877   3.516   1.918  11.487  0.3266  0.0833 -0.2606
  390TMC3    C2 5878   3.464   1.804  11.429  1.3056 -0.0506 -0.4234
  390TMC3    C3 5879   3.397   1.721  11.514  0.6894  0.1374  0.3066
  390TMC3    C4 5880   3.467   1.965  11.603  0.3738 -0.0174 -0.1843
  390TMC3    C5 5881   3.385   1.879  11.671  0.1326 -0.5991 -0.2687
  390TMC3    C6 5882   3.374   1.749  11.645  0.5543  0.3890 -0.1757
  390TMC3     C 5883   3.601   1.998  11.398  0.0262  0.4344 -0.5291
  390TMC3     O 5884   3.583   1.967  11.277  0.3834 -0.6484  0.1151
  390TMC3     H 5885   3.470   1.785  11.323 -3.1167  1.6374 -0.9709
  390TMC3    H1 5886   3.475   2.071  11.621  0.6422  0.0390 -0.6322
  390TMC3    H2 5887   3.342   1.679  11.721  1.1624  0.5056  0.1880
  390TMC3    C7 5888   3.253   1.942  11.668 -0.7427 -0.1028  0.1341
  390TMC3    C8 5889   3.317   1.613  11.458 -0.0290  0.6604 -0.1930
  390TMC3    O1 5890   3.235   2.055  11.621  0.2695 -0.3874  0.4775
  390TMC3    O2 5891   3.276   1.629  11.343 -0.0293 -0.3006  0.1210
  391MPD2     C 5892   2.780   3.946  10.977 -0.7618  0.3146  0.2546
  391MPD2    C1 5893   2.916   3.945  10.947  0.0956 -0.7298  0.8661
  391MPD2    C2 5894   2.951   4.009  10.828  0.2898 -0.6064 -0.4738
  391MPD2    C3 5895   2.869   4.055  10.730 -0.3674  0.1011  0.6105
  391MPD2    C4 5896   2.740   4.050  10.766 -0.3920  0.0647  0.6074
  391MPD2    C5 5897   2.690   3.999  10.888 -0.2690  0.1099 -0.1247
  391MPD2     H 5898   3.054   4.024  10.798  0.7116 -0.5121  1.0318
  391MPD2    H1 5899   2.665   4.063  10.689  0.4078  1.5637  0.0773
  391MPD2    H2 5900   2.739   3.898  11.065  0.3794  0.5596  0.9278
  391MPD2    H3 5901   2.584   3.999  10.912 -0.6301 -0.6818 -1.6882
  391MPD2     N 5902   2.918   4.082  10.602  0.3838 -0.1644 -0.2364
  391MPD2    H5 5903   3.019   4.073  10.588  0.3692  0.5041 -0.7926
  391MPD2    N1 5904   3.008   3.899  11.043  0.3747 -0.2490  0.1919
  391MPD2    H7 5905   2.961   3.872  11.129  2.4136 -1.8254  0.7978
  392TMC3    C1 5906   2.932   4.175  10.382  0.4208  0.5763 -0.2643
  392TMC3    C2 5907   2.877   4.249  10.282  0.1509 -0.3791 -0.1388
  392TMC3    C3 5908   2.950   4.295  10.176  0.5258  0.2595 -0.5748
  392TMC3    C4 5909   3.060   4.134  10.373 -0.3405  0.7142  0.7852
  392TMC3    C5 5910   3.133   4.174  10.266  0.0166  0.1632  0.6235
  392TMC3    C6 5911   3.078   4.256  10.169  0.4973  0.1166  0.9103
  392TMC3     C 5912   2.854   4.151  10.502  0.1104  0.4523  0.2400
  392TMC3     O 5913   2.734   4.185  10.500 -0.4234  0.2668  0.5560
  392TMC3     H 5914   2.774   4.285  10.284  0.4892  0.6611 -1.1092
  392TMC3    H1 5915   3.111   4.088  10.457 -0.2069 -2.8139 -1.2285
  392TMC3    H2 5916   3.140   4.281  10.084  1.2696  0.0644  1.4480
  392TMC3    C7 5917   3.278   4.186  10.280 -0.2066  0.1698  0.3663
  392TMC3    C8 5918   2.879   4.335  10.060 -0.1726  0.2540 -1.0139
  392TMC3    O1 5919   3.330   4.291  10.241 -0.3314 -0.3244 -0.2220
  392TMC3    O2 5920   2.763   4.297  10.059 -0.0719  0.3273 -0.5179
  393TMC3    C1 5921   2.221   2.130  10.836 -0.3924 -0.1011 -0.0851
  393TMC3    C2 5922   2.140   2.118  10.946  0.4731 -0.1214  0.2681
  393TMC3    C3 5923   2.131   1.996  10.997 -0.6951 -0.6573  0.1114
  393TMC3    C4 5924   2.296   2.021  10.781 -0.5694  0.4511  0.9299
  393TMC3    C5 5925   2.291   1.903  10.850 -0.2928  0.2978 -0.6245
  393TMC3    C6 5926   2.197   1.885  10.950  0.0326  0.4364 -0.2973
  393TMC3     C 5927   2.226   2.263  10.778  0.7582  0.0021 -0.4648
  393TMC3     O 5928   2.214   2.361  10.851 -0.4893  0.3881  0.4736
  393TMC3     H 5929   2.084   2.196  10.997 -0.0174  0.6899 -1.5224
  393TMC3    H1 5930   2.367   2.034  10.700 -2.0311 -0.2498 -0.4635
  393TMC3    H2 5931   2.192   1.790  11.002 -0.2415 -0.4339 -1.9033
  393TMC3    C7 5932   2.336   1.774  10.790  0.5346  0.2574 -0.6612
  393TMC3    C8 5933   2.030   1.960  11.092  0.1497 -0.0572 -0.1016
  393TMC3    O1 5934   2.267   1.677  10.818  0.1781 -0.0070 -0.1259
  393TMC3    O2 5935   1.981   1.851  11.098 -0.0549 -0.1382  0.2592
  394TMC3    C1 5936   3.903   2.338  10.882 -0.0628  0.1826  0.3278
  394TMC3    C2 5937   3.804   2.340  10.791 -0.1948  1.4951  0.4722
  394TMC3    C3 5938   3.832   2.429  10.684 -0.0987  0.5521 -0.6658
  394TMC3    C4 5939   4.019   2.413  10.875  0.1036  0.2900  0.0987
  394TMC3    C5 5940   4.041   2.486  10.763 -0.4054 -0.7363  0.2634
  394TMC3    C6 5941   3.957   2.490  10.665 -0.7489  0.3961  1.0786
  394TMC3     C 5942   3.870   2.267  11.003 -0.1590  0.1360  0.3081
  394TMC3     O 5943   3.802   2.166  10.993 -0.7185 -0.4461  0.6985
  394TMC3     H 5944   3.710   2.287  10.795 -0.5578  2.3388  3.1661
  394TMC3    H1 5945   4.097   2.393  10.947  0.5157  1.6674  0.0391
  394TMC3    H2 5946   3.970   2.550  10.575 -0.1714 -0.8675  0.3251
  394TMC3    C7 5947   4.178   2.513  10.739 -0.2641 -1.1062 -0.4828
  394TMC3    C8 5948   3.758   2.397  10.568  0.2284 -0.1884 -0.2929
  394TMC3    O1 5949   4.260   2.458  10.813  0.1534  0.2554  0.4126
  394TMC3    O2 5950   3.819   2.396  10.467  0.1571  0.1737 -0.1918
  395TMC3    C1 5951   3.591   4.032  14.426 -0.1569  0.4634  0.2483
  395TMC3    C2 5952   3.481   4.068  14.503  0.2974 -0.0694 -0.8259
  395TMC3    C3 5953   3.430   4.194  14.479 -0.0467 -0.6504 -0.3466
  395TMC3    C4 5954   3.627   4.106  14.320  0.1849  0.3177 -0.4130
  395TMC3    C5 5955   3.579   4.228  14.300  0.0734 -0.4092  0.4582
  395TMC3    C6 5956   3.480   4.274  14.383 -0.5714  0.1888 -0.4465
  395TMC3     C 5957   3.696   3.964  14.503 -0.3244  0.2383 -0.7636
  395TMC3     O 5958   3.708   4.002  14.620 -0.4488 -0.7070  0.3373
  395TMC3     H 5959   3.463   4.022  14.600  2.1588 -1.0061 -0.9196
  395TMC3    H1 5960   3.713   4.071  14.265 -1.0847  3.1117 -4.1600
  395TMC3    H2 5961   3.449   4.378  14.379 -1.5539 -0.1447 -1.5536
  395TMC3    C7 5962   3.682   4.318  14.321 -0.2640  0.0752  0.4368
  395TMC3    C8 5963   3.312   4.245  14.536 -0.6395  0.6662 -0.2339
  395TMC3    O1 5964   3.690   4.369  14.431 -0.0027  0.3977  0.6433
  395TMC3    O2 5965   3.284   4.362  14.520  0.5275 -0.0006  0.3722
  396MPD2     C 5966   3.402   0.401  17.096  0.5254 -0.1088  0.0558
  396MPD2    C1 5967   3.518   0.461  17.146  0.5200 -0.5403 -0.6939
  396MPD2    C2 5968   3.557   0.583  17.096  0.7020  0.1545 -0.0709
  396MPD2    C3 5969   3.500   0.629  16.977 -0.2476 -0.1785 -0.3639
  396MPD2    C4 5970   3.394   0.561  16.919  0.7088 -0.5775  0.1701
  396MPD2    C5 5971   3.342   0.457  16.988 -0.8074  0.0140  1.2048
  396MPD2     H 5972   3.627   0.639  17.157  0.7363 -0.6738  0.6488
  396MPD2    H1 5973   3.348   0.585  16.824  1.8713  0.0370 -0.2457
  396MPD2    H2 5974   3.368   0.311  17.147  0.0524 -0.7407 -1.3935
  396MPD2    H3 5975   3.254   0.408  16.948  0.8776 -1.1626 -1.0428
  396MPD2     N 5976   3.555   0.744  16.917 -1.0944  0.1474  0.1919
  396MPD2    H5 5977   3.626   0.795  16.970  2.0598 -3.8183 -0.1970
  396MPD2    N1 5978   3.575   0.408  17.265 -0.0250  0.3646 -0.4155
  396MPD2    H7 5979   3.541   0.323  17.310 -1.2870 -0.1376 -2.3600
  397TMC3    C1 5980   3.741   0.353  17.418 -0.5628 -0.2667  0.5867
  397TMC3    C2 5981   3.873   0.311  17.418 -0.1902  0.7904 -0.6987
  397TMC3    C3 5982   3.897   0.174  17.431 -0.6180 -0.0158 -0.4361
  397TMC3    C4 5983   3.641   0.265  17.449  0.2878  0.8000  0.5592
  397TMC3    C5 5984   3.673   0.135  17.471 -0.2851  0.0731 -0.5909
  397TMC3    C6 5985   3.801   0.091  17.469  0.1127 -0.0404  0.3780
  397TMC3     C 5986   3.703   0.438  17.304 -0.3591 -0.6613 -0.0716
  397TMC3     O 5987   3.785   0.516  17.260  0.3644  0.5598 -0.0171
  397TMC3     H 5988   3.931   0.367  17.346 -1.6837 -0.0670 -2.5583
  397TMC3    H1 5989   3.539   0.292  17.473  0.2065 -0.6264  1.8776
  397TMC3    H2 5990   3.813   4.723  17.478  0.3261 -0.0889 -0.5666
  397TMC3    C7 5991   3.565   0.032  17.465  0.3768  0.1989 -0.3363
  397TMC3    C8 5992   4.033   0.121  17.423  0.0837  0.6175  0.3922
  397TMC3    O1 5993   3.474   0.055  17.387 -0.1989 -0.0046  0.1085
  397TMC3    O2 5994   4.052   0.022  17.494  0.6123 -0.0344 -0.0207
  398MPD2     C 5995   1.355   2.004  17.658 -0.2212 -0.1527  0.6460
  398MPD2    C1 5996   1.442   1.967   0.007 -0.1734 -0.0251  0.3805
  398MPD2    C2 5997   1.542   2.051   0.047  0.4574 -0.4906 -0.8839
  398MPD2    C3 5998   1.559   2.175  17.752  0.3577  0.5516  0.4831
  398MPD2    C4 5999   1.464   2.216  17.658  0.1718 -0.3990  0.5150
  398MPD2    C5 6000   1.368   2.132  17.607 -0.0570  0.6377  0.0868
  398MPD2     H 6001   1.612   2.021   0.124  0.0118  0.8903  0.0607
  398MPD2    H1 6002   1.464   2.319  17.624  0.8266 -0.2850  0.8553
  398MPD2    H2 6003   1.284   1.933  17.617 -0.4438  0.7102 -0.4831
  398MPD2    H3 6004   1.302   2.169  17.529  2.1221 -1.2295 -2.6328
  398MPD2     N 6005   1.665   2.263   0.043  0.2445  0.1106 -0.1016
  398MPD2    H5 6006   1.726   2.233   0.118 -0.9417 -0.5843  0.5794
  398MPD2    N1 6007   1.435   1.836   0.060 -0.1547 -0.2116 -0.3263
  398MPD2    H7 6008   1.496   1.822   0.140 -2.3295 -0.8266  1.2517
  399TMC3    C1 6009   1.404   1.609   0.089 -0.0381 -0.0282 -0.1795
  399TMC3    C2 6010   1.530   1.604   0.137 -0.0007 -0.2471 -0.2174
  399TMC3    C3 6011   1.578   1.478   0.178  0.4488 -0.7348 -1.2091
  399TMC3    C4 6012   1.317   1.507   0.096  0.6684  0.3090 -0.6441
  399TMC3    C5 6013   1.358   1.390   0.154  0.1179  0.1601  0.4353
  399TMC3    C6 6014   1.491   1.370   0.181 -0.2967 -0.3928 -0.4049
  399TMC3     C 6015   1.372   1.727   0.008  0.0976  0.6046 -0.9079
  399TMC3     O 6016   1.284   1.713  17.682  0.5460 -0.0421  0.2239
  399TMC3     H 6017   1.598   1.686   0.114  0.0594 -0.1864  0.1889
  399TMC3    H1 6018   1.216   1.524   0.061  1.0198  3.7615  0.0531
  399TMC3    H2 6019   1.525   1.272   0.215 -1.1259 -1.1026 -1.6263
  399TMC3    C7 6020   1.282   1.265   0.147 -0.0132 -0.0560 -0.2447
  399TMC3    C8 6021   1.721   1.462   0.199  0.2603 -0.1357  0.0178
  399TMC3    O1 6022   1.337   1.165   0.187 -0.1635 -0.0173 -0.2814
  399TMC3    O2 6023   1.787   1.567   0.207 -0.6410  0.4174  0.6919
  400TMC3    C1 6024   0.278   0.083  17.096  0.3899 -0.2662  0.0189
  400TMC3    C2 6025   0.172   0.010  17.050 -0.2567  0.6014 -0.8216
  400TMC3    C3 6026   0.103   0.073  16.954  0.4739  0.4788 -0.0541
  400TMC3    C4 6027   0.305   0.209  17.057  0.4507  0.7874  0.1924
  400TMC3    C5 6028   0.230   0.271  16.963  0.1955  0.6576 -0.0310
  400TMC3    C6 6029   0.120   0.206  16.915 -0.1212 -0.1281  0.3319
  400TMC3     C 6030   0.332   0.035  17.218 -0.0536 -0.0494  0.6086
  400TMC3     O 6031   0.258   4.707  17.288 -0.4170  0.5911 -0.0889
  400TMC3     H 6032   0.159   4.647  17.083 -0.8485  0.3933 -1.7159
  400TMC3    H1 6033   0.381   0.272  17.103  2.0789  0.0064 -1.4167
  400TMC3    H2 6034   0.061   0.250  16.835  1.3531  0.1461 -0.6142
  400TMC3    C7 6035   0.238   0.419  16.965  0.0320 -0.1643  0.0452
  400TMC3    C8 6036   0.003   4.739  16.874 -0.2147 -0.5032 -0.0888
  400TMC3    O1 6037   0.285   0.479  17.059 -0.1363 -0.2234  0.0755
  400TMC3    O2 6038   4.713   0.042  16.763 -0.1753  0.0760  0.2829
  401MPD2     C 6039   4.043   4.203   1.142  0.5912 -0.1125 -0.4775
  401MPD2    C1 6040   4.123   4.142   1.053 -0.3529  0.3646 -0.2702
  401MPD2    C2 6041   4.064   4.046   0.975  0.2652  0.3996 -0.4147
  401MPD2    C3 6042   3.937   4.006   0.983 -0.5242 -0.2962  0.0330
  401MPD2    C4 6043   3.848   4.072   1.071  0.1350 -0.3305  0.2682
  401MPD2    C5 6044   3.914   4.162   1.148 -0.3217  0.1917 -0.6782
  401MPD2     H 6045   4.130   4.006   0.899  1.1239 -0.4080  0.7441
  401MPD2    H1 6046   3.743   4.054   1.090  0.1546  0.8043  1.3915
  401MPD2    H2 6047   4.078   4.284   1.205  0.3219 -0.1736 -0.2487
  401MPD2    H3 6048   3.851   4.211   1.221 -0.9181  1.5934 -2.1454
  401MPD2     N 6049   3.901   3.913   0.895 -0.3292 -0.0933  0.8179
  401MPD2    H5 6050   3.979   3.876   0.841 -1.3157  2.1439 -2.1425
  401MPD2    N1 6051   4.258   4.176   1.027 -0.2185 -0.7910 -0.5752
  401MPD2    H7 6052   4.303   4.129   0.950  1.2769 -1.2419  0.5761
  402TMC3    C1 6053   3.787   3.752   0.783  0.2500  1.1135 -0.4425
  402TMC3    C2 6054   3.715   3.635   0.804  0.3998  0.5937 -0.5015
  402TMC3    C3 6055   3.761   3.522   0.738  0.5215 -0.4731 -0.3206
  402TMC3    C4 6056   3.877   3.768   0.681 -0.7269  0.3184 -0.6087
  402TMC3    C5 6057   3.899   3.655   0.602  0.5022  0.2709 -0.0648
  402TMC3    C6 6058   3.849   3.536   0.642  0.1548 -0.3872  0.2147
  402TMC3     C 6059   3.781   3.855   0.879  0.6009  0.5402  0.0445
  402TMC3     O 6060   3.673   3.883   0.921  0.3560  0.2078  0.1153
  402TMC3     H 6061   3.654   3.634   0.894  1.5920  0.2360  0.2879
  402TMC3    H1 6062   3.916   3.864   0.650  0.0892  0.8223  1.9704
  402TMC3    H2 6063   3.891   3.445   0.600 -2.0492 -0.2670 -2.2048
  402TMC3    C7 6064   4.018   3.657   0.524 -0.1967 -0.6561 -0.1969
  402TMC3    C8 6065   3.727   3.390   0.769  0.6058  0.0242  0.3357
  402TMC3    O1 6066   4.100   3.749   0.537 -0.1216  0.0246  0.2705
  402TMC3    O2 6067   3.810   3.304   0.752 -0.6649  0.0750  0.2645
  403MPD2     C 6068   1.406   1.692  13.015 -0.2250  0.2682  0.6630
  403MPD2    C1 6069   1.463   1.603  13.104 -0.3253 -0.4809 -0.2535
  403MPD2    C2 6070   1.586   1.632  13.161  0.4766  0.5222 -0.0495
  403MPD2    C3 6071   1.653   1.752  13.126  0.8864  0.6942  0.3865
  403MPD2    C4 6072   1.598   1.836  13.030 -0.3540  0.0107 -0.3206
  403MPD2    C5 6073   1.477   1.803  12.970  0.1307 -0.1637 -1.1882
  403MPD2     H 6074   1.631   1.561  13.229  0.8180  0.4274 -0.3695
  403MPD2    H1 6075   1.650   1.927  13.003 -0.2147 -0.0252 -0.1755
  403MPD2    H2 6076   1.306   1.679  12.974  0.4662 -1.7504 -0.4048
  403MPD2    H3 6077   1.429   1.860  12.891  0.6874 -0.4875 -1.7556
  403MPD2     N 6078   1.775   1.779  13.192  0.6325  0.0545 -0.3449
  403MPD2    H5 6079   1.812   1.701  13.245  1.6201 -0.2481 -1.4910
  403MPD2    N1 6080   1.387   1.498  13.148 -0.7258  0.0687  0.2758
  403MPD2    H7 6081   1.305   1.475  13.094 -0.4711 -1.2433  0.4368
  404TMC3    C1 6082   1.312   1.331  13.279  0.3753 -0.6414 -0.1669
  404TMC3    C2 6083   1.303   1.281  13.408 -0.3872 -0.2616  0.6726
  404TMC3    C3 6084   1.210   1.182  13.424 -0.1658 -0.6039 -0.2121
  404TMC3    C4 6085   1.248   1.277  13.172  0.0633  0.1519 -0.3471
  404TMC3    C5 6086   1.163   1.173  13.197 -0.4074 -1.1006  0.9475
  404TMC3    C6 6087   1.137   1.127  13.323 -0.0248  0.3227 -0.4871
  404TMC3     C 6088   1.417   1.422  13.259  0.2726 -0.2362  0.2065
  404TMC3     O 6089   1.492   1.435  13.354 -0.1654 -0.0210  0.0109
  404TMC3     H 6090   1.351   1.323  13.496  2.0115 -0.0369 -0.7294
  404TMC3    H1 6091   1.257   1.305  13.068  2.1910 -2.6340 -0.8959
  404TMC3    H2 6092   1.075   1.038  13.325  1.8845 -0.9368  3.1524
  404TMC3    C7 6093   1.166   1.076  13.096  0.2351 -0.1174  0.7344
  404TMC3    C8 6094   1.191   1.126  13.556  0.8098 -0.2298  1.0034
  404TMC3    O1 6095   1.264   1.071  13.025  0.4602 -0.1484 -0.5815
  404TMC3    O2 6096   1.079   1.074  13.569  0.2327 -0.3911  0.3252
  405MPD2     C 6097   1.981   2.159  14.480 -0.3452  0.7158  0.1307
  405MPD2    C1 6098   1.917   2.084  14.387  0.0822 -0.4589  0.2731
  405MPD2    C2 6099   1.776   2.092  14.371 -0.4793  0.6622  0.4371
  405MPD2    C3 6100   1.701   2.178  14.451  0.1499  0.6490 -0.1780
  405MPD2    C4 6101   1.765   2.268  14.535 -0.3269  0.9669  0.4507
  405MPD2    C5 6102   1.899   2.242  14.556 -0.1772  0.5229 -0.2714
  405MPD2     H 6103   1.726   2.023  14.304 -1.3738  1.2389  0.5139
  405MPD2    H1 6104   1.705   2.321  14.609 -1.7205 -0.9930  0.7224
  405MPD2    H2 6105   2.088   2.150  14.495 -0.4675  0.8516  1.0888
  405MPD2    H3 6106   1.948   2.295  14.637  2.1841  0.4139 -1.5996
  405MPD2     N 6107   1.563   2.166  14.433 -0.2304  0.2220 -0.5988
  405MPD2    H5 6108   1.531   2.109  14.355 -3.7851  2.0206 -0.4514
  405MPD2    N1 6109   1.979   1.997  14.307 -0.2359  0.8010  0.5187
  405MPD2    H7 6110   1.920   1.938  14.250  1.0484 -0.4356  0.4482
  406TMC3    C1 6111   1.121   2.188  14.437 -0.8439  0.2004 -0.7525
  406TMC3    C2 6112   1.124   2.078  14.350  0.3912  0.2639  0.0920
  406TMC3    C3 6113   1.240   2.000  14.341 -0.1809  0.4188  0.3239
  406TMC3    C4 6114   1.230   2.224  14.505 -0.0053  0.5579  0.2382
  406TMC3    C5 6115   1.344   2.156  14.485 -0.5903  0.5804  0.1874
  406TMC3    C6 6116   1.353   2.044  14.410 -0.0856  0.4203  1.0006
  406TMC3     C 6117   0.995   2.245  14.474  0.0609 -0.3145  0.3122
  406TMC3     O 6118   0.983   2.272  14.591  0.2083 -0.4361 -0.2842
  406TMC3     H 6119   1.035   2.059  14.290 -0.2337  0.7219  0.8668
  406TMC3    H1 6120   1.228   2.310  14.571 -0.4508  2.4656 -2.2470
  406TMC3    H2 6121   1.432   1.970  14.419 -0.0056  0.4886  0.8513
  406TMC3    C7 6122   1.470   2.210  14.525  0.6569  0.2784 -0.2679
  406TMC3    C8 6123   1.253   1.911  14.225  0.1723 -0.1426  0.0799
  406TMC3    O1 6124   1.473   2.286  14.621 -0.3892  0.4408  0.2494
  406TMC3    O2 6125   1.196   1.959  14.128 -0.3340 -0.5822  1.0746
  407MPD2     C 6126   3.753   3.863  10.142 -0.4134  0.2543  0.0231
  407MPD2    C1 6127   3.883   3.824  10.136 -0.3469 -0.2610 -0.3216
  407MPD2    C2 6128   3.975   3.910  10.188 -0.3142 -0.5251  0.5888
  407MPD2    C3 6129   3.944   4.035  10.244  0.2579 -0.6232  0.0947
  407MPD2    C4 6130   3.811   4.074  10.242 -0.0410 -0.3862  0.3544
  407MPD2    C5 6131   3.723   3.983  10.201 -0.2433  0.3448 -0.9723
  407MPD2     H 6132   4.080   3.882  10.186 -0.5338 -1.2281 -1.1446
  407MPD2    H1 6133   3.783   4.175  10.271  1.8714  0.4477 -0.7105
  407MPD2    H2 6134   3.673   3.806  10.095  1.8546 -0.8128 -2.4964
  407MPD2    H3 6135   3.620   4.017  10.196 -1.0507 -2.0537 -0.8235
  407MPD2     N 6136   4.034   4.128  10.302 -0.4539 -0.2646 -0.2098
  407MPD2    H5 6137   4.000   4.216  10.338 -0.5819 -0.9548  1.3499
  407MPD2    N1 6138   3.932   3.704  10.080 -0.0894  0.6225 -0.5195
  407MPD2    H7 6139   4.031   3.688  10.092 -0.4599 -1.2017  0.1339
  408TMC3    C1 6140   3.941   3.487   9.986  0.3422  0.5004  0.3372
  408TMC3    C2 6141   4.042   3.524   9.898 -0.8016  0.1973  0.9790
  408TMC3    C3 6142   4.102   3.430   9.817 -0.2111  0.3300  0.0025
  408TMC3    C4 6143   3.905   3.355   9.996 -0.0059 -0.1101 -0.3130
  408TMC3    C5 6144   3.955   3.265   9.909 -0.5020 -0.6437  0.3137
  408TMC3    C6 6145   4.056   3.301   9.825  0.4083 -0.4730 -0.3574
  408TMC3     C 6146   3.860   3.601  10.039  0.3217 -0.3418 -0.0010
  408TMC3     O 6147   3.740   3.587  10.028  0.0606 -0.6002 -0.0125
  408TMC3     H 6148   4.072   3.628   9.896  1.5420 -0.5409 -1.7640
  408TMC3    H1 6149   3.833   3.331  10.074 -0.7370 -0.8221 -1.2008
  408TMC3    H2 6150   4.107   3.228   9.763  3.0753  1.4606 -0.4224
  408TMC3    C7 6151   3.973   3.128   9.962  0.0237  0.1434 -0.0701
  408TMC3    C8 6152   4.201   3.454   9.713  0.3254 -0.4774 -0.0166
  408TMC3    O1 6153   4.073   3.061   9.958 -0.5117  0.2282 -1.0410
  408TMC3    O2 6154   4.278   3.359   9.700 -0.1870 -0.4665 -0.3955
  409MPD2     C 6155   3.736   4.264  17.021  0.2446 -0.1001  0.0935
  409MPD2    C1 6156   3.870   4.232  17.037  0.4943 -0.4450 -0.5949
  409MPD2    C2 6157   3.970   4.330  17.019 -0.3888  0.2901 -0.6237
  409MPD2    C3 6158   3.929   4.455  16.975 -0.3268 -0.1587 -0.3915
  409MPD2    C4 6159   3.796   4.488  16.947 -0.1988  0.5077 -0.1910
  409MPD2    C5 6160   3.706   4.391  16.973 -0.6129  0.4247  0.5513
  409MPD2     H 6161   4.073   4.300  17.034  0.5315  3.5727 -0.3083
  409MPD2    H1 6162   3.766   4.583  16.906  0.9593  1.2380  0.6394
  409MPD2    H2 6163   3.654   4.195  17.030 -0.6672  1.1930  1.7086
  409MPD2    H3 6164   3.602   4.420  16.961 -0.9512  0.3063  3.0630
  409MPD2     N 6165   4.036   4.542  16.954  0.0084 -0.1606  0.2960
  409MPD2    H5 6166   4.128   4.527  16.995 -0.3068  0.4956  1.2319
  409MPD2    N1 6167   3.915   4.099  17.071  0.6407 -0.2397  0.5222
  409MPD2    H7 6168   4.014   4.082  17.055  1.0087  3.8484 -1.5271
  410TMC3    C1 6169   4.170   4.692  16.839 -0.1608  0.1789  0.1551
  410TMC3    C2 6170   4.231   0.002  16.950 -0.3424 -0.1948 -0.1455
  410TMC3    C3 6171   4.338   0.077  16.926  0.4213 -0.1445  0.0455
  410TMC3    C4 6172   4.208   4.713  16.707 -0.0617  0.0167  0.0009
  410TMC3    C5 6173   4.310   0.059  16.694  0.8139 -0.6008  0.4642
  410TMC3    C6 6174   4.385   0.107  16.799 -0.0273  0.6394 -0.0127
  410TMC3     C 6175   4.035   4.646  16.860  0.5232 -0.2542  0.2700
  410TMC3     O 6176   3.946   4.682  16.781 -0.1282  0.6116 -0.3976
  410TMC3     H 6177   4.189   0.007  17.049 -0.2636  1.2858 -0.1903
  410TMC3    H1 6178   4.139   4.693  16.626  0.2832  2.5300 -0.9316
  410TMC3    H2 6179   4.477   0.162  16.786 -0.0567  1.0326  1.3629
  410TMC3    C7 6180   4.349   0.083  16.554 -0.1531  0.0861  0.0794
  410TMC3    C8 6181   4.438   0.104  17.033 -0.5023 -0.8079 -0.5020
  410TMC3    O1 6182   4.394   4.724  16.494 -0.1150 -0.9003  0.2514
  410TMC3    O2 6183   4.529   0.185  17.011 -0.4386  0.3947 -0.6853
  411MPD2     C 6184   3.194   0.467  14.554  0.6606 -0.5397  0.1736
  411MPD2    C1 6185   3.239   0.335  14.552 -0.2455  0.2770 -0.5820
  411MPD2    C2 6186   3.148   0.231  14.526 -0.0319 -0.6890 -0.0351
  411MPD2    C3 6187   3.014   0.256  14.505 -0.2824  0.5772 -0.8689
  411MPD2    C4 6188   2.968   0.391  14.505 -0.2532  0.2258 -0.2274
  411MPD2    C5 6189   3.059   0.491  14.526 -0.3194  0.2257  0.2729
  411MPD2     H 6190   3.191   0.133  14.510  3.6200  0.8471  0.2270
  411MPD2    H1 6191   2.864   0.421  14.504  0.0623  1.3361  0.3458
  411MPD2    H2 6192   3.263   0.548  14.576 -0.1765 -0.4483  2.4695
  411MPD2    H3 6193   3.026   0.594  14.528 -1.0423 -0.0200  1.3678
  411MPD2     N 6194   2.918   0.158  14.462  0.2912 -0.4495 -0.3126
  411MPD2    H5 6195   2.822   0.182  14.441  0.2276  0.8093  1.4520
  411MPD2    N1 6196   3.369   0.306  14.598  0.9256 -0.8635  0.0410
  411MPD2    H7 6197   3.423   0.380  14.643 -2.5474  2.4458 -1.2179
  412TMC3    C1 6198   2.847   4.697  14.363  0.0990  0.2700 -0.9216
  412TMC3    C2 6199   2.820   0.026  14.246 -0.2526 -0.3118 -0.5948
  412TMC3    C3 6200   2.819   4.704  14.123  0.0609  0.5330 -0.3010
  412TMC3    C4 6201   2.850   4.558  14.364  0.5069  0.1652 -0.0005
  412TMC3    C5 6202   2.859   4.499  14.240  0.3706 -0.0543 -0.3521
  412TMC3    C6 6203   2.843   4.567  14.123  0.1425  0.3267 -0.0035
  412TMC3     C 6204   2.947   0.024  14.452 -0.0592 -0.6920 -0.0012
  412TMC3     O 6205   3.041   4.702  14.508  0.7040 -0.4670  0.3202
  412TMC3     H 6206   2.834   0.133  14.247  1.5491 -0.5674  1.1528
  412TMC3    H1 6207   2.881   4.519  14.460 -2.3302 -2.9027 -0.3085
  412TMC3    H2 6208   2.868   4.514  14.031 -2.1858 -2.2055  0.8135
  412TMC3    C7 6209   2.963   4.394  14.219 -0.1689  0.2160 -0.3954
  412TMC3    C8 6210   2.904   0.038  14.034 -0.1398 -0.3276  0.2592
  412TMC3    O1 6211   2.939   4.281  14.252 -0.3247 -0.1072 -0.1848
  412TMC3    O2 6212   3.015   0.065  14.076  0.2431 -0.2022 -0.0288
  413MPD2     C 6213   0.960   2.733  15.417 -0.0646 -0.4644 -0.1327
  413MPD2    C1 6214   1.039   2.792  15.315 -0.5719 -0.1773 -0.7969
  413MPD2    C2 6215   1.109   2.713  15.232 -0.1105  0.2654 -0.1481
  413MPD2    C3 6216   1.107   2.578  15.249 -0.1715  0.5655 -0.1467
  413MPD2    C4 6217   1.042   2.525  15.357 -0.0510  0.0034 -0.7739
  413MPD2    C5 6218   0.968   2.604  15.443 -0.2011  0.6663 -0.0139
  413MPD2     H 6219   1.168   2.755  15.151  0.0544  0.6657  0.1762
  413MPD2    H1 6220   1.043   2.418  15.373 -3.3224  0.3683  1.9133
  413MPD2    H2 6221   0.891   2.790  15.479  1.0071  1.7848 -0.9996
  413MPD2    H3 6222   0.919   2.555  15.527 -0.7716  0.4797 -0.4577
  413MPD2     N 6223   1.176   2.497  15.155 -0.4962  0.1260 -0.0033
  413MPD2    H5 6224   1.215   2.557  15.083 -1.8557  1.5448  0.4390
  413MPD2    N1 6225   1.035   2.937  15.313  0.8301 -0.0354 -0.3135
  413MPD2    H7 6226   0.972   2.983  15.378 -0.7112 -3.6228  0.7113
  414TMC3    C1 6227   1.256   2.311  15.044  0.8804 -0.9685  0.2040
  414TMC3    C2 6228   1.252   2.174  15.008 -0.3320 -0.1091 -0.2273
  414TMC3    C3 6229   1.361   2.112  14.956  1.1291  0.0476 -0.0563
  414TMC3    C4 6230   1.372   2.383  15.010 -0.1358  0.0245 -0.3776
  414TMC3    C5 6231   1.481   2.312  14.963 -0.0398 -0.2111  0.1208
  414TMC3    C6 6232   1.481   2.176  14.932  0.2817  0.6142 -0.0115
  414TMC3     C 6233   1.166   2.357  15.146  0.0173 -0.1767 -0.6422
  414TMC3     O 6234   1.116   2.276  15.224 -0.8784 -0.6012 -0.2255
  414TMC3     H 6235   1.162   2.119  15.034 -1.0668  0.4592 -1.6144
  414TMC3    H1 6236   1.391   2.483  15.046  0.5278  0.6574 -2.4988
  414TMC3    H2 6237   1.567   2.124  14.890  0.7120  0.7262  0.7273
  414TMC3    C7 6238   1.610   2.384  14.954 -0.4674  0.0426 -0.1996
  414TMC3    C8 6239   1.357   1.965  14.957 -0.2697  0.2679  0.6677
  414TMC3    O1 6240   1.603   2.508  14.952  0.0731 -0.2576  0.3848
  414TMC3    O2 6241   1.245   1.914  14.951  1.0299 -0.9175  0.2519
  415TMC3    C1 6242   1.402   1.475  10.334 -0.1140 -0.0055 -0.0772
  415TMC3    C2 6243   1.503   1.445  10.241 -0.0269 -0.0446 -1.0232
  415TMC3    C3 6244   1.478   1.335  10.162 -0.1107 -0.1129 -0.3345
  415TMC3    C4 6245   1.291   1.398  10.353 -0.0949 -0.1892 -0.0916
  415TMC3    C5 6246   1.273   1.296  10.264 -0.1229 -0.1332 -0.1341
  415TMC3    C6 6247   1.358   1.262  10.165  0.0060  0.7569 -0.7862
  415TMC3     C 6248   1.421   1.590  10.424 -0.4441  0.0248  0.4351
  415TMC3     O 6249   1.363   1.598  10.533 -0.1837  0.5625  0.7621
  415TMC3     H 6250   1.594   1.503  10.250 -0.7054  0.6023  1.5377
  415TMC3    H1 6251   1.216   1.431  10.423  0.8907 -1.8269  1.7286
  415TMC3    H2 6252   1.337   1.176  10.103 -0.9805  0.4680 -0.0564
  415TMC3    C7 6253   1.170   1.204  10.297 -0.0233 -0.0728 -0.0495
  415TMC3    C8 6254   1.589   1.274  10.092  0.2901 -0.6761 -0.5739
  415TMC3    O1 6255   1.115   1.144  10.204 -0.3399  0.0337  0.1667
  415TMC3    O2 6256   1.590   1.151  10.096  0.0297  0.0293 -0.4598
  416MPD2     C 6257   3.162   4.637  11.610  0.2527 -0.4338 -0.0397
  416MPD2    C1 6258   3.115   4.708  11.503 -0.4939 -0.0229 -0.1181
  416MPD2    C2 6259   3.075   4.650  11.385  0.0646 -0.3057 -0.1487
  416MPD2    C3 6260   3.096   4.512  11.370  0.3710 -0.6573 -0.0563
  416MPD2    C4 6261   3.147   4.438  11.478  0.0304 -0.4667  0.5138
  416MPD2    C5 6262   3.173   4.500  11.597 -0.5556 -0.1834  0.5679
  416MPD2     H 6263   3.031   4.695  11.297  0.5900 -1.7212 -1.1368
  416MPD2    H1 6264   3.142   4.330  11.471  2.0220 -0.5086 -0.0662
  416MPD2    H2 6265   3.187   4.672  11.709 -1.9759 -1.3699  0.8598
  416MPD2    H3 6266   3.215   4.446  11.681 -0.4325  1.0911  1.3211
  416MPD2     N 6267   3.059   4.441  11.249  0.4227 -0.0858 -0.0993
  416MPD2    H5 6268   3.068   4.341  11.261  0.4301 -0.1093 -0.2985
  416MPD2    N1 6269   3.096   0.104  11.525  0.5770  0.0419  0.1537
  416MPD2    H7 6270   3.143   0.139  11.608 -0.0443 -0.3949  0.6858
  417TMC3    C1 6271   2.986   0.303  11.487  0.1254  0.6879  0.1763
  417TMC3    C2 6272   2.940   0.292  11.611  0.0340  0.0262  0.4030
  417TMC3    C3 6273   2.828   0.362  11.645 -0.1679  0.1236 -0.4797
  417TMC3    C4 6274   2.920   0.377  11.400 -0.1768 -0.5903  0.1135
  417TMC3    C5 6275   2.807   0.442  11.429 -0.5508  0.0647 -0.3893
  417TMC3    C6 6276   2.751   0.427  11.551 -0.0047 -0.2374  0.3331
  417TMC3     C 6277   3.061   0.195  11.428 -0.1891  0.1249 -0.1515
  417TMC3     O 6278   3.032   0.179  11.307 -0.0449 -0.0130 -0.3789
  417TMC3     H 6279   2.977   0.235  11.696 -1.2563 -0.2594  0.7751
  417TMC3    H1 6280   2.963   0.384  11.301  0.5393 -0.9086  0.4048
  417TMC3    H2 6281   2.664   0.484  11.581 -0.5270 -1.5484  1.2901
  417TMC3    C7 6282   2.721   0.492  11.316 -0.3412  0.0408 -0.3256
  417TMC3    C8 6283   2.816   0.405  11.786  0.0542 -0.2089  0.5738
  417TMC3    O1 6284   2.762   0.553  11.219  0.0965  0.4635 -0.4495
  417TMC3    O2 6285   2.917   0.412  11.854 -0.4298 -0.0122  0.0239
  418TMC3    C1 6286   2.046   2.514   0.023 -0.7499  0.5256  0.7433
  418TMC3    C2 6287   1.923   2.505  17.721  0.4612 -0.4728  0.4420
  418TMC3    C3 6288   1.829   2.430   0.037 -0.3734  0.0767 -0.4353
  418TMC3    C4 6289   2.068   2.467   0.150 -1.3150  0.4200 -0.1855
  418TMC3    C5 6290   1.967   2.421   0.227 -0.1089 -0.3618 -0.9425
  418TMC3    C6 6291   1.843   2.408   0.172 -0.5642  0.1204 -0.1315
  418TMC3     C 6292   2.150   2.512  17.680  0.1151  0.1034  0.9606
  418TMC3     O 6293   2.130   2.576  17.579 -0.3702 -0.1848  0.0315
  418TMC3     H 6294   1.905   2.511  17.614 -1.0489 -0.5674  0.6918
  418TMC3    H1 6295   2.170   2.447   0.182 -1.0614  0.9574 -0.6637
  418TMC3    H2 6296   1.766   2.363   0.233 -0.8327  2.6382  1.3768
  418TMC3    C7 6297   2.002   2.335   0.338  0.4206  0.8025 -0.1593
  418TMC3    C8 6298   1.712   2.374  17.733 -0.2091 -0.1146 -0.0629
  418TMC3    O1 6299   1.945   2.228   0.343  0.3796  0.4774 -0.1287
  418TMC3    O2 6300   1.679   2.401  17.621  0.3059  0.2216 -0.0957
  419MPD2     C 6301   0.508   0.039  12.670 -0.9766 -0.2164  0.0010
  419MPD2    C1 6302   0.371   0.053  12.660 -0.4155  0.7567  0.4629
  419MPD2    C2 6303   0.297   0.102  12.765  0.0553  0.3655  0.1225
  419MPD2    C3 6304   0.362   0.165  12.870  0.3368  0.0564  0.3721
  419MPD2    C4 6305   0.498   0.165  12.874  0.3603 -0.3809  0.6983
  419MPD2    C5 6306   0.566   0.086  12.781 -0.6775  0.0198 -0.1202
  419MPD2     H 6307   0.192   0.107  12.738 -0.5812 -0.2808  2.5298
  419MPD2    H1 6308   0.541   0.206  12.964  2.0861 -0.7485  0.0537
  419MPD2    H2 6309   0.568   4.729  12.593  0.6253 -2.1657  2.5078
  419MPD2    H3 6310   0.673   0.083  12.797 -0.9487  0.5708  1.7330
  419MPD2     N 6311   0.294   0.226  12.978  0.1803  0.2734  0.6591
  419MPD2    H5 6312   0.342   0.285  13.045 -1.2462 -0.6349  2.4682
  419MPD2    N1 6313   0.306   4.740  12.546  0.3465 -0.0996  0.3205
  419MPD2    H7 6314   0.204   0.001  12.550  0.3886  0.9303  1.1927
  420TMC3    C1 6315   0.118   0.293  13.112 -0.1641  0.3778 -0.6734
  420TMC3    C2 6316   0.022   0.388  13.094  1.0457 -0.7050 -0.2133
  420TMC3    C3 6317   0.001   0.471  13.195  0.6871 -0.6112 -0.5372
  420TMC3    C4 6318   0.196   0.283  13.223  0.7249  0.0212  0.7667
  420TMC3    C5 6319   0.164   0.370  13.323  0.1343  0.0633  0.1293
  420TMC3    C6 6320   0.065   0.469  13.312 -0.0342  0.1905  0.2131
  420TMC3     C 6321   0.157   0.218  12.993 -0.5326 -0.9025 -0.1731
  420TMC3     O 6322   0.064   0.157  12.938 -0.0613 -0.2232 -0.1845
  420TMC3     H 6323   4.707   0.396  13.001 -0.9043 -3.1752  0.7310
  420TMC3    H1 6324   0.286   0.224  13.210  1.8388  1.9481 -0.2685
  420TMC3    H2 6325   0.034   0.536  13.391 -0.5031 -1.5550  1.5135
  420TMC3    C7 6326   0.220   0.331  13.452 -0.7676 -0.0553  0.1387
  420TMC3    C8 6327   4.629   0.557  13.183  0.4303  0.2984  0.5435
  420TMC3    O1 6328   0.255   0.211  13.468  0.0271  0.1549 -0.1318
  420TMC3    O2 6329   4.544   0.553  13.267 -0.0373 -0.2793  0.6374
  421TMC3    C1 6330   1.958   1.900  13.286  0.1858 -0.2330 -0.2193
  421TMC3    C2 6331   1.965   2.007  13.373 -0.3599  0.1436 -0.8608
  421TMC3    C3 6332   2.073   2.010  13.455  0.3312  0.6411  0.5645
  421TMC3    C4 6333   2.048   1.802  13.270 -0.0912 -0.4047 -0.4807
  421TMC3    C5 6334   2.154   1.815  13.355  0.5284 -0.3259 -0.0838
  421TMC3    C6 6335   2.172   1.911  13.454 -0.3080  0.2250  0.6541
  421TMC3     C 6336   1.840   1.898  13.194 -0.0992 -0.1666  0.2908
  421TMC3     O 6337   1.819   2.002  13.128 -0.0811  0.1403 -0.1976
  421TMC3     H 6338   1.894   2.088  13.360 -2.9762 -1.5429  3.1522
  421TMC3    H1 6339   2.040   1.725  13.195  0.7986  0.0947 -1.0763
  421TMC3    H2 6340   2.261   1.909  13.516  0.8607 -0.5523 -1.0297
  421TMC3    C7 6341   2.253   1.707  13.359 -0.7459  0.7269  1.2807
  421TMC3    C8 6342   2.050   2.068  13.584 -0.1206  0.0155 -0.7949
  421TMC3    O1 6343   2.357   1.732  13.415  1.1521  0.0902 -0.5133
  421TMC3    O2 6344   2.134   2.020  13.660  0.0905 -0.1792 -0.1290
  422TMC3    C1 6345   4.201   3.272  12.783 -0.6370 -0.2772 -0.5926
  422TMC3    C2 6346   4.203   3.403  12.801  0.3755 -0.6102 -0.1959
  422TMC3    C3 6347   4.083   3.472  12.804 -0.3673  0.5067 -0.1927
  422TMC3    C4 6348   4.078   3.204  12.761  0.2481  0.0374  0.5536
  422TMC3    C5 6349   3.965   3.274  12.761  0.1052  0.4166  0.1561
  422TMC3    C6 6350   3.962   3.407  12.779 -0.2128 -0.0966 -0.0687
  422TMC3     C 6351   4.326   3.217  12.749 -0.1593  0.3901 -0.2388
  422TMC3     O 6352   4.400   3.296  12.692 -0.0756  0.3508 -0.3924
  422TMC3     H 6353   4.298   3.456  12.802 -1.2377  2.2783 -1.6915
  422TMC3    H1 6354   4.080   3.101  12.726  1.8098  0.7610 -1.5160
  422TMC3    H2 6355   3.864   3.453  12.787  1.9075  4.7438 -2.1736
  422TMC3    C7 6356   3.858   3.208  12.693 -0.3208  0.0829  0.6069
  422TMC3    C8 6357   4.098   3.616  12.785  0.2911 -0.2291  0.2875
  422TMC3    O1 6358   3.891   3.158  12.588  0.4520  0.2976 -0.2070
  422TMC3    O2 6359   4.189   3.681  12.836 -0.1131 -0.3891 -0.1725
  423MPD2     C 6360   0.907   4.225   0.229 -0.1081 -0.2073 -0.3058
  423MPD2    C1 6361   1.007   4.131   0.214 -0.5376 -0.5756  0.1628
  423MPD2    C2 6362   1.002   4.036   0.113 -1.0275 -0.3285 -0.3360
  423MPD2    C3 6363   0.906   4.039   0.016 -0.4057  0.2172 -0.7396
  423MPD2    C4 6364   0.813   4.141   0.028 -0.4240  0.2358 -0.4468
  423MPD2    C5 6365   0.818   4.229   0.133  1.0218 -0.5445 -0.4866
  423MPD2     H 6366   1.089   3.971   0.112 -1.3979 -0.8326 -0.0895
  423MPD2    H1 6367   0.730   4.154  17.716  0.2655 -0.2098 -1.3708
  423MPD2    H2 6368   0.905   4.302   0.305  1.6026 -1.4728  1.0609
  423MPD2    H3 6369   0.740   4.302   0.149  2.5011  0.2878  2.9526
  423MPD2     N 6370   0.916   3.951  17.663 -0.4749  0.1528 -0.2971
  423MPD2    H5 6371   0.989   3.879  17.661  0.6557  1.2982 -0.3087
  423MPD2    N1 6372   1.122   4.124   0.300 -0.3061  0.1469 -0.5042
  423MPD2    H7 6373   1.184   4.046   0.280 -2.5500 -1.7316 -0.1142
  424TMC3    C1 6374   1.309   4.176   0.423 -0.3205  0.5538  0.1745
  424TMC3    C2 6375   1.357   4.052   0.390 -0.4528 -0.0599 -0.8371
  424TMC3    C3 6376   1.494   4.049   0.367  0.3326 -0.5869  0.0309
  424TMC3    C4 6377   1.384   4.286   0.437 -0.3039  0.1984  0.5609
  424TMC3    C5 6378   1.517   4.275   0.403  0.6772  0.9733  0.2870
  424TMC3    C6 6379   1.574   4.159   0.366 -0.1499 -0.0925  0.1859
  424TMC3     C 6380   1.165   4.212   0.400  0.9321  0.1424 -0.1351
  424TMC3     O 6381   1.121   4.327   0.415  0.6422 -0.0143  0.4078
  424TMC3     H 6382   1.296   3.965   0.412  0.5135 -0.6886 -0.5816
  424TMC3    H1 6383   1.347   4.387   0.447 -0.9876 -0.0279  0.2956
  424TMC3    H2 6384   1.681   4.150   0.353 -0.1781  0.3150 -0.2915
  424TMC3    C7 6385   1.610   4.381   0.453  0.6328 -0.4540  0.1931
  424TMC3    C8 6386   1.574   3.920   0.368 -0.2605 -0.1950  0.1358
  424TMC3    O1 6387   1.721   4.369   0.409  0.4812  0.1905 -0.3291
  424TMC3    O2 6388   1.693   3.928   0.404 -0.4181 -0.3591  0.2149
  425MPD2     C 6389   4.240   3.291  16.962 -0.0100  0.1206 -0.2419
  425MPD2    C1 6390   4.152   3.201  17.020  0.1400  0.2100  0.0117
  425MPD2    C2 6391   4.015   3.236  17.031  0.2288  0.9710  0.6312
  425MPD2    C3 6392   3.975   3.370  17.013  0.4163  0.1807  1.0011
  425MPD2    C4 6393   4.078   3.466  16.978  0.2937 -0.0273  0.4132
  425MPD2    C5 6394   4.203   3.417  16.943  0.2204 -0.5581  0.4912
  425MPD2     H 6395   3.941   3.163  17.061  0.5218  0.5778  0.3946
  425MPD2    H1 6396   4.050   3.570  16.967  0.8092  0.2316  1.4924
  425MPD2    H2 6397   4.339   3.260  16.931 -0.2090 -2.5814  1.8785
  425MPD2    H3 6398   4.269   3.494  16.905  0.3603  0.2674  2.3957
  425MPD2     N 6399   3.833   3.400  17.025  0.0244  0.5499  0.5405
  425MPD2    H5 6400   3.783   3.318  17.057 -2.5281  2.5702  1.7862
  425MPD2    N1 6401   4.191   3.074  17.053 -0.2763  0.5836 -0.1709
  425MPD2    H7 6402   4.284   3.046  17.025 -0.4518  1.0009 -1.1541
  426TMC3    C1 6403   4.180   2.865  17.160 -0.5008 -0.3833  0.3276
  426TMC3    C2 6404   4.215   2.795  17.051  0.1588  1.0612  0.3547
  426TMC3    C3 6405   4.269   2.668  17.065 -0.3518 -0.2958 -0.2946
  426TMC3    C4 6406   4.183   2.806  17.288  0.1222  0.1052  0.0596
  426TMC3    C5 6407   4.245   2.693  17.299  0.6020 -0.2056  0.1352
  426TMC3    C6 6408   4.288   2.616  17.191  0.8478  0.1296 -0.1029
  426TMC3     C 6409   4.124   3.001  17.145  0.8581 -0.1167 -0.2352
  426TMC3     O 6410   4.063   3.050  17.238  0.0521  0.1534  0.2624
  426TMC3     H 6411   4.213   2.837  16.951 -0.9686 -0.6543 -0.3401
  426TMC3    H1 6412   4.179   2.871  17.375 -1.7282  0.2234 -0.1096
  426TMC3    H2 6413   4.339   2.522  17.209 -2.0861 -1.9200 -2.5639
  426TMC3    C7 6414   4.318   2.669  17.423 -0.3907  1.3951  0.2227
  426TMC3    C8 6415   4.272   2.580  16.952  0.3908 -0.3578 -0.3763
  426TMC3    O1 6416   4.432   2.620  17.419  0.5649  0.1049 -0.8784
  426TMC3    O2 6417   4.371   2.514  16.917  0.1487 -0.2152  0.1575
  427MPD2     C 6418   3.297   0.079  14.894  0.0090  0.2223 -0.2464
  427MPD2    C1 6419   3.345   0.122  15.020  0.4657  0.2340 -0.1594
  427MPD2    C2 6420   3.266   0.210  15.091 -0.7480  0.1038  0.5902
  427MPD2    C3 6421   3.146   0.251  15.040 -0.5680  0.2860 -0.2784
  427MPD2    C4 6422   3.097   0.210  14.916  0.5470 -0.4677 -0.3232
  427MPD2    C5 6423   3.179   0.123  14.850  0.8402 -0.5626 -0.1843
  427MPD2     H 6424   3.302   0.250  15.185 -0.3726 -2.8202  1.6775
  427MPD2    H1 6425   2.995   0.230  14.885  0.9778  2.0648 -0.0784
  427MPD2    H2 6426   3.348   0.015  14.823 -2.3028 -3.2163  1.1707
  427MPD2    H3 6427   3.137   0.089  14.756 -0.3290  1.2311 -0.3240
  427MPD2     N 6428   3.057   0.336  15.114  0.1228 -0.2047 -0.1141
  427MPD2    H5 6429   2.977   0.360  15.057 -0.6122 -1.3641  0.4236
  427MPD2    N1 6430   3.468   0.080  15.072 -0.0484  0.5466  0.1895
  427MPD2    H7 6431   3.491   0.108  15.167  1.4001  1.5550 -0.4594
  428TMC3    C1 6432   3.646   4.677  15.119  0.0225  0.3511  0.1259
  428TMC3    C2 6433   3.665   4.551  15.155  0.1315  0.5208 -0.3319
  428TMC3    C3 6434   3.751   4.529  15.258  0.7577 -0.0241 -0.1777
  428TMC3    C4 6435   3.725   0.040  15.165  1.1786 -0.3114  0.6118
  428TMC3    C5 6436   3.813   0.019  15.267 -0.8684  0.2087  0.7722
  428TMC3    C6 6437   3.827   4.627  15.317 -0.2354 -0.6317 -0.5434
  428TMC3     C 6438   3.538   4.712  15.026  0.3458  0.0614  0.4133
  428TMC3     O 6439   3.519   4.640  14.926 -0.1803  0.7066  0.4222
  428TMC3     H 6440   3.604   4.477  15.106 -0.9879 -1.0898  3.5207
  428TMC3    H1 6441   3.713   0.143  15.135 -0.5612 -0.5837  0.3636
  428TMC3    H2 6442   3.898   4.607  15.396  0.1289  2.1954 -0.1376
  428TMC3    C7 6443   3.885   0.122  15.333  0.2351 -0.3348  0.0981
  428TMC3    C8 6444   3.766   4.392  15.307 -0.5466 -0.0992  0.1218
  428TMC3    O1 6445   3.924   0.095  15.444  0.3542  0.1866  0.1556
  428TMC3    O2 6446   3.727   4.308  15.224 -0.3504 -0.3113  0.5832
  429MPD2     C 6447   4.119   0.521  17.732  0.1324  0.2311  0.2082
  429MPD2    C1 6448   4.236   0.472  17.682  0.7119  0.5115 -0.1285
  429MPD2    C2 6449   4.320   0.562  17.613 -0.6459 -0.2979  0.5899
  429MPD2    C3 6450   4.283   0.686  17.575 -0.3573 -0.6490  0.8316
  429MPD2    C4 6451   4.161   0.729  17.619 -0.9747  0.2708  0.7209
  429MPD2    C5 6452   4.089   0.653  17.705  0.0887  0.0971  0.4710
  429MPD2     H 6453   4.415   0.522  17.579  0.4417  1.1424  1.9146
  429MPD2    H1 6454   4.132   0.832  17.603 -1.8285 -0.0791  0.0517
  429MPD2    H2 6455   4.056   0.471   0.048 -1.2847  0.4462 -0.8850
  429MPD2    H3 6456   3.994   0.698  17.733 -0.3775  1.1911 -2.8508
  429MPD2     N 6457   4.376   0.758  17.493 -0.3589 -0.2269 -0.3428
  429MPD2    H5 6458   4.453   0.708  17.450  1.1107  1.5468  0.2075
  429MPD2    N1 6459   4.280   0.341  17.701  0.4557  0.0616  1.0696
  429MPD2    H7 6460   4.376   0.322  17.673  0.4547  2.7410 -0.7329
  430TMC3    C1 6461   4.457   0.944  17.354 -0.0869 -0.2288  0.6354
  430TMC3    C2 6462   4.419   1.051  17.284  0.2995 -1.0690  0.5323
  430TMC3    C3 6463   4.511   1.126  17.206  0.3908  0.5857 -0.4159
  430TMC3    C4 6464   4.583   0.899  17.355  0.3387  0.4130 -0.1751
  430TMC3    C5 6465   4.667   0.956  17.271  0.0345 -0.1733  0.3090
  430TMC3    C6 6466   4.636   1.073  17.203  0.7485 -0.3350  0.1786
  430TMC3     C 6467   4.366   0.890  17.459 -0.4494  0.1354  0.2879
  430TMC3     O 6468   4.281   0.972  17.480  0.2435 -0.2289 -0.2687
  430TMC3     H 6469   4.313   1.073  17.286  0.3042 -0.6517 -2.6490
  430TMC3    H1 6470   4.628   0.818  17.411  0.8669  0.3008 -0.7540
  430TMC3    H2 6471   4.697   1.120  17.126  0.2336  1.1246  0.6643
  430TMC3    C7 6472   0.017   0.865  17.203 -0.1985 -0.0335  0.1512
  430TMC3    C8 6473   4.462   1.146  17.074 -0.2996 -0.0707 -0.3226
  430TMC3    O1 6474   0.055   0.761  17.256  0.1953  0.1824  0.2716
  430TMC3    O2 6475   4.525   1.098  16.983 -0.0622  0.4009  0.2761
  431MPD2     C 6476   4.705   0.437  12.730 -0.3199 -0.5764  0.3429
  431MPD2    C1 6477   0.062   0.458  12.643 -0.0093 -0.0289  0.2691
  431MPD2    C2 6478   0.065   0.392  12.525  0.2580 -0.1232  0.1934
  431MPD2    C3 6479   4.706   0.300  12.494  0.0618 -0.6532  0.3516
  431MPD2    C4 6480   4.595   0.304  12.577  0.2490  0.3914 -0.5427
  431MPD2    C5 6481   4.596   0.374  12.687 -0.5046 -0.1681 -0.2061
  431MPD2     H 6482   0.148   0.400  12.456  0.2687 -2.7621 -0.1119
  431MPD2    H1 6483   4.504   0.249  12.557  1.0432 -1.5526  1.2832
  431MPD2    H2 6484   4.694   0.471  12.832 -1.9760 -0.2079  0.0413
  431MPD2    H3 6485   4.504   0.385  12.743 -0.2222 -1.0084  0.4234
  431MPD2     N 6486   4.722   0.209  12.383  0.1714 -0.1797  0.2490
  431MPD2    H5 6487   4.641   0.147  12.377 -2.6953  3.3430  2.3478
  431MPD2    N1 6488   0.172   0.540  12.676 -0.1468  0.2136 -0.3080
  431MPD2    H7 6489   0.241   0.558  12.603  0.2231 -0.2335 -0.0648
  432TMC3    C1 6490   0.093   0.051  12.250 -0.3391  0.4789 -0.1669
  432TMC3    C2 6491   0.165   0.028  12.135 -0.1169  0.4238 -0.2967
  432TMC3    C3 6492   0.270   4.681  12.135  0.7709  0.3178 -0.6756
  432TMC3    C4 6493   0.138   4.720  12.354 -0.9065  0.7527  0.6017
  432TMC3    C5 6494   0.251   4.636  12.356 -0.0610  0.4969  0.9054
  432TMC3    C6 6495   0.311   4.600  12.236  0.2293  0.4836  0.7845
  432TMC3     C 6496   0.082   0.191  12.292  0.0544  0.7872 -0.6441
  432TMC3     O 6497   0.183   0.259  12.270  0.4406 -1.0655  0.4092
  432TMC3     H 6498   0.145   0.094  12.051  1.3273 -0.6539 -1.4909
  432TMC3    H1 6499   0.078   4.734  12.444 -1.2010 -2.5509  0.9071
  432TMC3    H2 6500   0.392   4.530  12.226 -0.0737  0.0405  1.4563
  432TMC3    C7 6501   0.358   4.664  12.444 -0.4657  0.2255  0.4965
  432TMC3    C8 6502   0.369   4.719  12.036  0.2005  0.0060 -0.7167
  432TMC3    O1 6503   0.476   4.642  12.414 -0.3590 -0.2000 -0.3876
  432TMC3    O2 6504   0.327   0.021  11.927  0.1725  0.4279 -0.5181
  433MPD2     C 6505   4.202   3.678  10.487  0.2123  0.0500  0.0004
  433MPD2    C1 6506   4.303   3.613  10.559  0.2405  0.2935  0.3728
  433MPD2    C2 6507   4.381   3.682  10.655 -0.1398 -0.5772  0.4223
  433MPD2    C3 6508   4.329   3.802  10.702 -0.4056  0.1348  0.2938
  433MPD2    C4 6509   4.230   3.864  10.623 -0.3887 -0.0551  0.4657
  433MPD2    C5 6510   4.168   3.804  10.516  0.2080  0.0320 -0.7614
  433MPD2     H 6511   4.456   3.631  10.714 -1.9393 -2.9350  0.6755
  433MPD2    H1 6512   4.201   3.965  10.650  2.0963  0.2183  2.0889
  433MPD2    H2 6513   4.157   3.622  10.406  0.7550 -1.6903  0.9027
  433MPD2    H3 6514   4.099   3.860  10.453 -0.7095 -1.3670 -1.0037
  433MPD2     N 6515   4.370   3.859  10.829  0.1379 -0.1006 -0.1103
  433MPD2    H5 6516   4.452   3.818  10.873 -1.5990 -2.7761  0.6389
  433MPD2    N1 6517   4.331   3.475  10.522 -0.6707  0.0029  0.5018
  433MPD2    H7 6518   4.263   3.435  10.457  1.0389 -0.3324 -1.0775
  434TMC3    C1 6519   4.412   3.254  10.557 -0.2770 -0.2666  0.6754
  434TMC3    C2 6520   4.526   3.181  10.587  0.3934  0.0223  0.0510
  434TMC3    C3 6521   4.523   3.053  10.631  0.3409  0.4252  0.2544
  434TMC3    C4 6522   4.285   3.196  10.568  1.0049 -0.9713 -0.4525
  434TMC3    C5 6523   4.294   3.061  10.590  0.5113 -0.3603 -0.4333
  434TMC3    C6 6524   4.406   2.988  10.630 -0.4693 -0.6469  0.9398
  434TMC3     C 6525   4.429   3.396  10.571 -0.0511 -0.2476 -0.5672
  434TMC3     O 6526   4.520   3.429  10.645  0.0569  0.2501 -0.3894
  434TMC3     H 6527   4.626   3.224  10.593 -0.2009  1.5939 -1.2740
  434TMC3    H1 6528   4.194   3.246  10.537  1.2199 -1.1231 -1.3210
  434TMC3    H2 6529   4.400   2.884  10.659  0.8655 -0.6632  1.1899
  434TMC3    C7 6530   4.176   2.981  10.556 -0.0809 -0.3725 -0.1552
  434TMC3    C8 6531   4.606   3.030  10.743  1.2708 -0.1160 -0.0041
  434TMC3    O1 6532   4.159   2.964  10.435 -0.0457 -0.4667  0.4426
  434TMC3    O2 6533   4.644   3.126  10.805  0.2976 -0.1945  0.6154
  435MPD2     C 6534   1.137   4.431  15.567 -0.0058  0.4991  0.1813
  435MPD2    C1 6535   1.054   4.315  15.559  0.1919  0.4554 -0.1226
  435MPD2    C2 6536   1.117   4.189  15.578 -0.9003 -0.0924  0.6595
  435MPD2    C3 6537   1.249   4.171  15.594  0.2763 -0.1251  0.1936
  435MPD2    C4 6538   1.324   4.286  15.600 -0.3985 -0.2529 -0.3083
  435MPD2    C5 6539   1.272   4.416  15.592 -0.2189 -0.3334 -0.2760
  435MPD2     H 6540   1.063   4.095  15.572  1.1852 -1.2380 -0.2613
  435MPD2    H1 6541   1.431   4.278  15.615 -0.3225 -0.0649 -0.7703
  435MPD2    H2 6542   1.096   4.530  15.558 -0.4695  0.2391 -0.5373
  435MPD2    H3 6543   1.341   4.499  15.605 -0.7804  0.0815  0.0312
  435MPD2     N 6544   1.294   4.041  15.606 -0.3530  0.1314 -0.1774
  435MPD2    H5 6545   1.224   3.969  15.620  1.5714 -1.7787 -0.3340
  435MPD2    N1 6546   0.918   4.320  15.531  0.4544  0.7783  0.4108
  435MPD2    H7 6547   0.866   4.234  15.542  0.1792  1.0207  0.9960
  436TMC3    C1 6548   0.546   4.385  15.695 -0.3105  0.7790  0.3305
  436TMC3    C2 6549   0.670   4.368  15.636  0.9439  0.4739 -0.4429
  436TMC3    C3 6550   0.706   4.443  15.529 -0.5266  0.0746  0.7144
  436TMC3    C4 6551   0.457   4.480  15.652  0.0553 -0.4864 -0.0530
  436TMC3    C5 6552   0.505   4.559  15.545 -0.0457  0.3906  0.5463
  436TMC3    C6 6553   0.634   4.548  15.487 -0.0842 -0.3563  0.2598
  436TMC3     C 6554   0.528   4.339  15.829  0.8672 -0.5231  0.6355
  436TMC3     O 6555   0.573   4.229  15.851  0.5721 -0.0840  0.4860
  436TMC3     H 6556   0.727   4.289  15.683 -0.7326  0.7790  2.0822
  436TMC3    H1 6557   0.364   4.493  15.706 -0.5591 -1.1348 -0.9525
  436TMC3    H2 6558   0.658   4.609  15.401 -0.6606 -0.2369  0.1846
  436TMC3    C7 6559   0.421   4.674  15.504  0.1935 -0.5221 -0.2447
  436TMC3    C8 6560   0.850   4.443  15.500 -0.1230 -0.0628 -0.2972
  436TMC3    O1 6561   0.485   0.033  15.479 -0.3684  0.1794 -0.4668
  436TMC3    O2 6562   0.896   4.551  15.463  0.3530 -0.5940 -0.5827
  437TMC3    C1 6563   4.479   1.042  13.168 -0.9647 -0.2193  0.4304
  437TMC3    C2 6564   4.345   1.034  13.190  0.0133 -0.8257 -0.0538
  437TMC3    C3 6565   4.259   1.090  13.096  1.0025 -0.2493  0.5945
  437TMC3    C4 6566   4.535   1.105  13.067 -0.1569 -0.5674  0.3457
  437TMC3    C5 6567   4.448   1.169  12.985 -0.0370  0.6545  0.0660
  437TMC3    C6 6568   4.309   1.158  12.986  0.4573  0.4033  0.1400
  437TMC3     C 6569   4.561   0.965  13.267 -0.3094 -0.2291  0.5803
  437TMC3     O 6570   4.516   0.966  13.379 -0.0593 -0.1941 -0.1685
  437TMC3     H 6571   4.309   0.965  13.265  0.0999  0.8686  1.5324
  437TMC3    H1 6572   4.642   1.122  13.065 -0.5739  1.9414 -0.8537
  437TMC3    H2 6573   4.244   1.220  12.925  0.0418  0.4529  0.6274
  437TMC3    C7 6574   4.497   1.200  12.855 -0.0989 -0.0446 -0.0872
  437TMC3    C8 6575   4.119   1.053  13.098  0.1158 -0.2077  0.4955
  437TMC3    O1 6576   4.416   1.265  12.791  0.0074  0.3272  0.1130
  437TMC3    O2 6577   4.071   1.033  12.987 -0.1986 -0.0435  0.3490
  438MPD2     C 6578   2.249   2.141  16.492 -0.1546  0.7955 -0.0829
  438MPD2    C1 6579   2.345   2.087  16.572 -0.3770  0.7113  0.4756
  438MPD2    C2 6580   2.313   2.091  16.709 -0.4207  0.9290  0.3983
  438MPD2    C3 6581   2.202   2.162  16.758 -0.2905 -0.6193 -0.7929
  438MPD2    C4 6582   2.112   2.214  16.665 -0.2604  0.0222  0.3656
  438MPD2    C5 6583   2.135   2.199  16.533  0.3881  0.6318  0.5813
  438MPD2     H 6584   2.383   2.045  16.778 -2.9757 -0.8553  1.7953
  438MPD2    H1 6585   2.014   2.255  16.687 -0.8116 -1.1656  0.1383
  438MPD2    H2 6586   2.269   2.135  16.385 -3.1285  1.7564 -0.7026
  438MPD2    H3 6587   2.064   2.240  16.461  1.8180  0.5187 -0.8917
  438MPD2     N 6588   2.172   2.188  16.895 -0.3632  0.3543 -1.1268
  438MPD2    H5 6589   2.080   2.228  16.914 -1.5791 -2.3284 -1.3455
  438MPD2    N1 6590   2.452   2.008  16.524  0.3774  0.7418 -0.0606
  438MPD2    H7 6591   2.497   1.953  16.597 -0.3983 -0.7134 -0.6930
  439TMC3    C1 6592   2.578   1.876  16.367 -0.2235  0.0078  0.0590
  439TMC3    C2 6593   2.607   1.840  16.240  0.4665 -0.0539 -0.5181
  439TMC3    C3 6594   2.644   1.708  16.220  0.3357 -0.6907 -0.0329
  439TMC3    C4 6595   2.614   1.793  16.468  0.5130 -0.2644 -0.3207
  439TMC3    C5 6596   2.660   1.669  16.446  0.0598 -1.5021 -0.0262
  439TMC3    C6 6597   2.658   1.619  16.318 -0.5761  0.7162  0.4462
  439TMC3     C 6598   2.489   1.990  16.393  0.3001  0.2589 -0.1672
  439TMC3     O 6599   2.472   2.068  16.296  0.0000  0.0917 -0.7532
  439TMC3     H 6600   2.568   1.895  16.155  0.5154  0.8144  0.0135
  439TMC3    H1 6601   2.614   1.811  16.575  0.6227 -1.0014 -0.1968
  439TMC3    H2 6602   2.681   1.518  16.286 -0.9673  0.8064 -0.1242
  439TMC3    C7 6603   2.720   1.598  16.556 -0.5331  0.2893  0.0021
  439TMC3    C8 6604   2.658   1.665  16.082  0.4631  0.3008 -0.2841
  439TMC3    O1 6605   2.780   1.658  16.642 -0.7238  0.6029  0.6937
  439TMC3    O2 6606   2.654   1.548  16.060 -0.2338 -0.1817 -0.3949
  440MPD2     C 6607   0.628   1.842  14.685 -0.2090  0.0432  0.1456
  440MPD2    C1 6608   0.727   1.841  14.782 -0.2458 -0.5185  0.3373
  440MPD2    C2 6609   0.800   1.726  14.804 -0.1751 -0.2612 -0.6615
  440MPD2    C3 6610   0.768   1.607  14.741  0.4625 -0.9355 -0.5242
  440MPD2    C4 6611   0.660   1.610  14.648  0.7161 -0.3578  0.4391
  440MPD2    C5 6612   0.599   1.724  14.621  0.4749  0.6394  0.3307
  440MPD2     H 6613   0.882   1.724  14.875  0.6902  3.4142 -1.5434
  440MPD2    H1 6614   0.644   1.519  14.591  0.1792 -0.1069  0.1864
  440MPD2    H2 6615   0.585   1.932  14.643 -1.5166  0.1081  1.5851
  440MPD2    H3 6616   0.536   1.729  14.533  2.1516 -1.5669 -0.9752
  440MPD2     N 6617   0.842   1.487  14.749  0.0289 -0.1181  0.5714
  440MPD2    H5 6618   0.796   1.400  14.723  0.3187 -0.0904 -0.0447
  440MPD2    N1 6619   0.765   1.957  14.859 -0.1161  0.6276  0.2991
  440MPD2    H7 6620   0.842   1.944  14.924 -0.8732  1.0374  1.2645
  441TMC3    C1 6621   1.003   1.335  14.825 -0.0334 -0.1347  0.1975
  441TMC3    C2 6622   1.134   1.337  14.799 -0.1065 -0.0292 -0.1979
  441TMC3    C3 6623   1.216   1.254  14.874 -0.3013 -0.5521  0.2043
  441TMC3    C4 6624   0.951   1.256  14.921  0.5301  0.0955 -0.2339
  441TMC3    C5 6625   1.034   1.179  14.994  0.9566 -0.7551  0.5378
  441TMC3    C6 6626   1.167   1.173  14.970  0.3328 -0.2121 -0.0287
  441TMC3     C 6627   0.961   1.473  14.811  0.2564  0.2011  0.7251
  441TMC3     O 6628   1.048   1.555  14.828  0.1891  0.0051 -0.5065
  441TMC3     H 6629   1.178   1.381  14.710  3.1589 -0.0533  1.3950
  441TMC3    H1 6630   0.847   1.268  14.950  0.4906  1.7453 -1.0352
  441TMC3    H2 6631   1.236   1.136  15.045  1.3917  1.4730 -0.1741
  441TMC3    C7 6632   0.980   1.133  15.121 -0.0106  0.5254 -0.2492
  441TMC3    C8 6633   1.335   1.314  14.916  0.0937  0.3412 -0.0921
  441TMC3    O1 6634   0.882   1.188  15.171  0.4933  0.4807  0.2489
  441TMC3    O2 6635   1.420   1.237  14.968  0.1544 -0.0840  0.0175
  442MPD2     C 6636   4.334   2.916  16.574  0.2898  0.2221 -0.1510
  442MPD2    C1 6637   4.210   2.867  16.556  0.2236  0.1804 -0.4640
  442MPD2    C2 6638   4.200   2.758  16.473  0.7039 -0.5688 -0.9712
  442MPD2    C3 6639   4.310   2.688  16.416  0.0273  0.3927 -0.2590
  442MPD2    C4 6640   4.433   2.742  16.446 -0.3586  0.3418 -0.2708
  442MPD2    C5 6641   4.445   2.857  16.519  0.3839  0.1346  0.4478
  442MPD2     H 6642   4.100   2.717  16.466  0.6497 -0.4945 -0.6031
  442MPD2    H1 6643   4.522   2.694  16.407 -1.1821 -0.9056 -0.6132
  442MPD2    H2 6644   4.347   3.005  16.634  2.8970  0.6662 -1.3733
  442MPD2    H3 6645   4.540   2.903  16.542 -0.7942  1.0798  3.3563
  442MPD2     N 6646   4.290   2.566  16.332 -0.2077 -0.0083 -0.1713
  442MPD2    H5 6647   4.373   2.515  16.303 -0.1069 -0.1517  0.3739
  442MPD2    N1 6648   4.093   2.912  16.624 -0.7109  0.6447  0.4825
  442MPD2    H7 6649   4.005   2.870  16.597 -0.6898 -0.1999  1.7234
  443TMC3    C1 6650   3.947   3.073  16.720  0.5842 -0.0060  0.3042
  443TMC3    C2 6651   3.878   3.166  16.650 -0.3881 -0.1810  0.5754
  443TMC3    C3 6652   3.739   3.179  16.663  0.1821  0.0366  0.0355
  443TMC3    C4 6653   3.881   2.985  16.803  0.5492 -0.6385  0.3591
  443TMC3    C5 6654   3.748   3.002  16.816 -0.1249  0.4084  0.6339
  443TMC3    C6 6655   3.675   3.091  16.746 -0.0391  0.5201  0.1848
  443TMC3     C 6656   4.083   3.046  16.668  0.2774 -0.6901 -0.5079
  443TMC3     O 6657   4.159   3.141  16.661  0.4861  0.0961  0.3627
  443TMC3     H 6658   3.938   3.206  16.569  0.8277 -1.0521  1.0324
  443TMC3    H1 6659   3.944   2.908  16.847  0.1122 -0.3495  1.4679
  443TMC3    H2 6660   3.567   3.097  16.755  0.0040  0.3654  0.7929
  443TMC3    C7 6661   3.686   2.887  16.881  0.5046 -0.2979 -0.4453
  443TMC3    C8 6662   3.687   3.144  16.534 -0.0497 -0.0315  0.1012
  443TMC3    O1 6663   3.751   2.825  16.965  0.1907  0.4767 -0.2472
  443TMC3    O2 6664   3.634   3.034  16.523  0.3206  0.5496  0.6722
  444MPD2     C 6665   4.019   2.464  17.434  0.3661 -0.4211 -0.0483
  444MPD2    C1 6666   3.955   2.457  17.314 -0.5364 -0.3396  0.1426
  444MPD2    C2 6667   4.009   2.392  17.208  0.3424 -0.0860 -0.4683
  444MPD2    C3 6668   4.127   2.324  17.222  0.0909 -0.2691  0.5953
  444MPD2    C4 6669   4.199   2.344  17.339 -0.4191 -0.6349 -0.6841
  444MPD2    C5 6670   4.143   2.410  17.449  0.8378 -0.8094 -0.2976
  444MPD2     H 6671   3.948   2.390  17.119  0.7865 -0.4031 -0.7612
  444MPD2    H1 6672   4.295   2.298  17.356  1.0546  2.5812 -0.2765
  444MPD2    H2 6673   3.978   2.521  17.517  0.9203  0.3097 -0.2790
  444MPD2    H3 6674   4.194   2.403  17.544  1.5293  2.0154 -0.4431
  444MPD2     N 6675   4.181   2.253  17.113 -0.1947  0.5165  0.6738
  444MPD2    H5 6676   4.113   2.249  17.038  2.2052  0.5454 -1.5059
  444MPD2    N1 6677   3.825   2.503  17.292 -0.6177 -0.0476 -0.2952
  444MPD2    H7 6678   3.776   2.481  17.207  1.1162  2.2816 -1.9084
  445TMC3    C1 6679   4.314   2.135  16.971 -0.1174  0.2792  0.4776
  445TMC3    C2 6680   4.205   2.083  16.911 -0.3158 -0.4082 -0.4685
  445TMC3    C3 6681   4.215   2.004  16.797  0.1029 -0.1163 -0.2313
  445TMC3    C4 6682   4.435   2.100  16.917  0.8036  0.6486 -0.2372
  445TMC3    C5 6683   4.449   2.031  16.799  0.2687  0.7184 -0.5511
  445TMC3    C6 6684   4.334   1.979  16.740 -0.4807 -0.6141 -0.2768
  445TMC3     C 6685   4.306   2.193  17.099  0.3117 -0.4299 -0.5178
  445TMC3     O 6686   4.410   2.206  17.162  0.4693  0.2436  0.8199
  445TMC3     H 6687   4.105   2.096  16.951  0.6369  1.2686  1.3718
  445TMC3    H1 6688   4.522   2.150  16.959  2.0160 -0.2579 -1.6867
  445TMC3    H2 6689   4.355   1.938  16.642 -1.7636 -0.0231 -0.8019
  445TMC3    C7 6690   4.578   1.982  16.767  0.5034  0.0806  0.6575
  445TMC3    C8 6691   4.100   1.927  16.757  0.5767 -0.3953  0.4013
  445TMC3    O1 6692   4.574   1.935  16.656  0.5717  0.2074  0.8545
  445TMC3    O2 6693   3.992   1.961  16.799 -0.2952  0.1927 -0.0216
  446MPD2     C 6694   4.290   3.153  11.336 -0.5523 -0.1900  0.4586
  446MPD2    C1 6695   4.260   3.280  11.302  0.3601 -0.3073 -0.4821
  446MPD2    C2 6696   4.353   3.361  11.232  0.0735  0.3032 -0.1990
  446MPD2    C3 6697   4.476   3.310  11.205 -0.4508 -0.1790  0.2100
  446MPD2    C4 6698   4.504   3.182  11.250 -0.1164 -0.2952 -0.2620
  446MPD2    C5 6699   4.417   3.111  11.322 -0.2516 -0.1063  0.4172
  446MPD2     H 6700   4.322   3.458  11.195 -0.3914  0.4156  0.4829
  446MPD2    H1 6701   4.601   3.137  11.236  0.2911  0.0753  1.3861
  446MPD2    H2 6702   4.225   3.106  11.409 -2.6570 -0.2211 -1.4007
  446MPD2    H3 6703   4.452   3.018  11.366 -0.4256 -0.1092  0.5502
  446MPD2     N 6704   4.573   3.397  11.155 -0.3921  0.1057 -0.7839
  446MPD2    H5 6705   4.545   3.489  11.125  1.2358  0.4390 -1.2563
  446MPD2    N1 6706   4.138   3.346  11.347  0.0431  0.1345  0.2837
  446MPD2    H7 6707   4.107   3.425  11.292 -0.9134 -1.3475 -1.3150
  447TMC3    C1 6708   0.044   3.485  11.108  0.1137  0.7518 -0.0017
  447TMC3    C2 6709   4.736   3.579  11.028 -0.3353  0.1848 -0.0858
  447TMC3    C3 6710   0.083   3.686  10.995  0.2350 -0.4558  0.0941
  447TMC3    C4 6711   0.175   3.481  11.157  0.3109 -0.5282  0.1813
  447TMC3    C5 6712   0.252   3.592  11.127  0.3581 -1.0226  0.4849
  447TMC3    C6 6713   0.203   3.699  11.053  0.8087 -0.0785  0.2603
  447TMC3     C 6714   4.707   3.371  11.135 -0.0709 -0.0810 -0.4583
  447TMC3     O 6715   0.032   3.274  11.167 -0.2332  0.1714  0.0274
  447TMC3     H 6716   4.639   3.575  10.979  0.3630 -0.5294 -1.4131
  447TMC3    H1 6717   0.221   3.393  11.201  1.5434 -0.6199 -1.3063
  447TMC3    H2 6718   0.277   3.778  11.040 -1.0211  1.7543  0.8749
  447TMC3    C7 6719   0.395   3.584  11.166  0.2349 -0.6024  1.1528
  447TMC3    C8 6720   0.025   3.789  10.905  0.1063 -0.0816 -0.6931
  447TMC3    O1 6721   0.426   3.478  11.222 -0.8736 -0.0128 -0.0902
  447TMC3    O2 6722   4.641   3.789  10.881  0.1644 -0.0818 -0.3379
  448TMC3    C1 6723   2.065   3.328  16.606 -0.8718 -0.3082 -1.1124
  448TMC3    C2 6724   2.055   3.203  16.566 -0.6788  0.2329  0.8547
  448TMC3    C3 6725   2.103   3.102  16.647 -0.8982  0.2359 -0.7944
  448TMC3    C4 6726   2.139   3.362  16.719  0.6488  0.2694  0.3619
  448TMC3    C5 6727   2.178   3.258  16.799  0.0020  1.0312 -0.0450
  448TMC3    C6 6728   2.160   3.130  16.772 -0.1325  0.1713  1.0545
  448TMC3     C 6729   2.008   3.441  16.531  0.0865  0.9182 -0.1004
  448TMC3     O 6730   1.972   3.422  16.418  0.2236 -0.2817  0.0025
  448TMC3     H 6731   2.012   3.192  16.467 -0.9257  1.4350  0.8280
  448TMC3    H1 6732   2.161   3.463  16.752 -0.9407  1.1376 -1.2854
  448TMC3    H2 6733   2.194   3.047  16.831  0.3255  0.9625  1.9038
  448TMC3    C7 6734   2.249   3.298  16.917  0.2193 -0.3209 -0.5301
  448TMC3    C8 6735   2.126   2.974  16.585  0.1604  0.3345 -0.0303
  448TMC3    O1 6736   2.289   3.412  16.931 -0.2631  0.4992  0.1098
  448TMC3    O2 6737   2.195   2.897  16.656  0.3060  0.2102  0.3741
  449MPD2     C 6738   3.904   1.738  14.023  0.0104 -0.5359 -0.1842
  449MPD2    C1 6739   3.783   1.769  13.969  0.2544 -0.9406  0.7406
  449MPD2    C2 6740   3.679   1.681  13.960 -0.2778  0.2714 -0.1983
  449MPD2    C3 6741   3.710   1.551  13.981  0.0694  0.1568  0.4476
  449MPD2    C4 6742   3.833   1.512  14.030  0.3413  0.7194  0.7351
  449MPD2    C5 6743   3.926   1.608  14.051 -0.0243 -0.3852 -0.2025
  449MPD2     H 6744   3.585   1.710  13.915 -0.2939  0.7473  0.1352
  449MPD2    H1 6745   3.862   1.409  14.048  0.0742  0.3207 -1.1649
  449MPD2    H2 6746   3.980   1.810  14.051 -0.1701 -0.4850  0.1654
  449MPD2    H3 6747   4.018   1.572  14.096  1.0426  0.0769 -2.0043
  449MPD2     N 6748   3.603   1.464  13.953  0.2523 -0.1379  0.5869
  449MPD2    H5 6749   3.524   1.494  13.896  0.8550  3.2596  1.5530
  449MPD2    N1 6750   3.745   1.901  13.936  0.0331  0.2726  0.7791
  449MPD2    H7 6751   3.647   1.922  13.920 -0.2793 -0.6010  1.5277
  450TMC3    C1 6752   3.738   2.112  13.874 -0.2140 -0.3242  0.4804
  450TMC3    C2 6753   3.759   2.124  13.743  0.7484 -0.1835 -0.0318
  450TMC3    C3 6754   3.646   2.155  13.670 -0.1099 -0.2282  0.2573
  450TMC3    C4 6755   3.611   2.107  13.934  0.1277  1.0363 -1.0437
  450TMC3    C5 6756   3.506   2.140  13.857  0.2538 -0.3395 -0.1983
  450TMC3    C6 6757   3.524   2.170  13.723 -0.6927 -0.4549  0.7550
  450TMC3     C 6758   3.828   2.010  13.920 -0.0225  0.3966 -0.4135
  450TMC3     O 6759   3.948   2.013  13.916 -0.2362  0.6266 -0.0024
  450TMC3     H 6760   3.856   2.117  13.695  2.6287  0.4817  3.6199
  450TMC3    H1 6761   3.595   2.085  14.039 -0.0519  2.0134 -0.8661
  450TMC3    H2 6762   3.430   2.164  13.669 -0.6606 -0.3119  0.6842
  450TMC3    C7 6763   3.419   2.025  13.872  0.3242  0.2519 -0.3126
  450TMC3    C8 6764   3.662   2.200  13.532  0.4966 -0.0218  0.3959
  450TMC3    O1 6765   3.460   1.941  13.953  0.0887  0.0602  0.4021
  450TMC3    O2 6766   3.562   2.247  13.480  0.4031  0.3799  0.4951
  451MPD2     C 6767   1.171   0.604   1.313  0.1205 -0.5225 -0.1094
  451MPD2    C1 6768   1.147   0.555   1.193 -0.2653  0.4496 -0.3827
  451MPD2    C2 6769   1.258   0.532   1.113 -0.1860  0.2491  0.0740
  451MPD2    C3 6770   1.387   0.571   1.143  0.5917  0.5303  0.3022
  451MPD2    C4 6771   1.407   0.619   1.268  0.2414 -0.0929 -0.0582
  451MPD2    C5 6772   1.303   0.628   1.356 -0.1466  0.7613  0.2938
  451MPD2     H 6773   1.229   0.511   1.011 -0.5266 -0.1828  0.2605
  451MPD2    H1 6774   1.502   0.641   1.315  0.9902 -1.6510 -0.8632
  451MPD2    H2 6775   1.103   0.606   1.397 -3.1253  0.2225 -2.7658
  451MPD2    H3 6776   1.323   0.662   1.457 -0.5390  3.4833 -0.5336
  451MPD2     N 6777   1.495   0.574   1.057  0.2321 -0.9948 -0.2362
  451MPD2    H5 6778   1.583   0.613   1.090 -1.3076  1.6106  0.7689
  451MPD2    N1 6779   1.010   0.539   1.148 -0.7789  0.6905 -0.0047
  451MPD2    H7 6780   0.937   0.570   1.211 -2.0797  0.1399 -1.2419
  452TMC3    C1 6781   1.601   0.570   0.857  0.1732 -0.0421 -0.8023
  452TMC3    C2 6782   1.654   0.691   0.893 -0.4026  0.1763  0.3264
  452TMC3    C3 6783   1.768   0.728   0.830  0.3567 -0.3292  0.3450
  452TMC3    C4 6784   1.665   0.484   0.771 -0.7956  0.5644  0.1765
  452TMC3    C5 6785   1.773   0.533   0.708 -0.2811  0.3737  0.6231
  452TMC3    C6 6786   1.829   0.651   0.739 -0.2411  0.0606 -0.0660
  452TMC3     C 6787   1.481   0.529   0.933  0.6924  0.3664 -0.3120
  452TMC3     O 6788   1.414   0.441   0.881  0.7333 -0.3524  0.7441
  452TMC3     H 6789   1.616   0.753   0.974  0.8286  0.9733  0.2932
  452TMC3    H1 6790   1.624   0.383   0.766  0.5491 -0.0705  2.1802
  452TMC3    H2 6791   1.916   0.676   0.680 -1.7685  1.5072 -1.6841
  452TMC3    C7 6792   1.809   0.487   0.575  0.2250  0.5386 -0.1394
  452TMC3    C8 6793   1.840   0.843   0.888 -0.6104  0.6341 -0.5654
  452TMC3    O1 6794   1.813   0.571   0.487 -0.0714  0.4141 -0.5911
  452TMC3    O2 6795   1.786   0.887   0.991  0.0028  0.1720  0.0805
  453TMC3    C1 6796   1.842   2.639  11.724 -0.0614  0.3767  0.2151
  453TMC3    C2 6797   1.728   2.617  11.800 -0.1109 -0.8337  1.2640
  453TMC3    C3 6798   1.607   2.632  11.743  0.2892 -0.4442  0.0897
  453TMC3    C4 6799   1.833   2.695  11.601  0.1793 -0.4411  0.2603
  453TMC3    C5 6800   1.707   2.689  11.539 -0.3569 -0.4721  0.7856
  453TMC3    C6 6801   1.593   2.664  11.607 -1.0182  0.3356 -0.3084
  453TMC3     C 6802   1.961   2.662  11.798  0.6012 -0.3636 -0.1202
  453TMC3     O 6803   2.021   2.770  11.785  0.4368  0.4966 -0.1825
  453TMC3     H 6804   1.743   2.589  11.904 -1.0026  1.1018  1.9083
  453TMC3    H1 6805   1.925   2.715  11.548  0.1473  2.1382  1.1570
  453TMC3    H2 6806   1.494   2.655  11.563 -0.9440  0.5912 -0.5241
  453TMC3    C7 6807   1.715   2.638  11.405  0.8129  0.4487 -0.9652
  453TMC3    C8 6808   1.498   2.555  11.788  0.1583 -0.1949  0.4154
  453TMC3    O1 6809   1.810   2.674  11.338 -0.7728  0.3082 -0.7486
  453TMC3    O2 6810   1.384   2.588  11.750  0.1967 -0.0458  0.1939
  454MPD2     C 6811   0.212   1.619  16.272 -0.4546  0.2222 -0.6539
  454MPD2    C1 6812   0.233   1.745  16.231 -0.0058  0.2582  0.5028
  454MPD2    C2 6813   0.163   1.854  16.285 -0.2026  0.1472  0.2675
  454MPD2    C3 6814   0.062   1.828  16.373 -0.6618  0.3173 -0.1719
  454MPD2    C4 6815   0.040   1.703  16.424 -0.2823 -0.1484 -0.2075
  454MPD2    C5 6816   0.119   1.602  16.382 -1.0746 -0.6389 -0.5433
  454MPD2     H 6817   0.177   1.952  16.241 -1.2646  1.0011  1.8287
  454MPD2    H1 6818   4.711   1.701  16.508  0.6815 -3.2316  0.5086
  454MPD2    H2 6819   0.263   1.530  16.237  1.6739  1.1052  0.2164
  454MPD2    H3 6820   0.112   1.504  16.429 -4.2361  0.1959  0.6917
  454MPD2     N 6821   4.712   1.929  16.411 -0.1125  0.2906  0.0484
  454MPD2    H5 6822   4.630   1.909  16.466 -1.0581  0.4876 -1.2859
  454MPD2    N1 6823   0.316   1.777  16.122 -0.8728 -0.4824 -0.3188
  454MPD2    H7 6824   0.331   1.876  16.107  1.7319 -0.8819 -0.3477
  455TMC3    C1 6825   4.565   2.089  16.330  0.0800 -0.0305  0.2826
  455TMC3    C2 6826   4.504   2.182  16.410  0.5827 -0.3258 -0.2339
  455TMC3    C3 6827   4.384   2.157  16.442  0.7708  0.0766  0.6055
  455TMC3    C4 6828   4.490   1.982  16.289 -0.0082 -0.0797 -0.0236
  455TMC3    C5 6829   4.359   1.962  16.316 -0.1165 -0.4358  0.1092
  455TMC3    C6 6830   4.303   2.048  16.409  0.3215  0.3727 -0.1458
  455TMC3     C 6831   4.698   2.055  16.346  0.7249 -0.0367  0.8687
  455TMC3     O 6832   0.038   2.111  16.272  0.1269  0.5002 -0.3765
  455TMC3     H 6833   4.552   2.276  16.433  0.2306  0.6116 -3.3052
  455TMC3    H1 6834   4.547   1.912  16.230 -0.7149 -1.1182  0.5438
  455TMC3    H2 6835   4.201   2.021  16.436  0.0966  1.3672 -0.0223
  455TMC3    C7 6836   4.317   1.827  16.345 -0.2086  0.1779  0.4856
  455TMC3    C8 6837   4.323   2.266  16.524 -0.3471  0.5245  0.6177
  455TMC3    O1 6838   4.333   1.791  16.459 -0.1992  0.3244 -0.2131
  455TMC3    O2 6839   4.406   2.335  16.583  0.3661  0.3733 -0.2346
  456MPD2     C 6840   2.999   2.158  15.861 -0.0343 -0.2582  0.4566
  456MPD2    C1 6841   3.015   2.067  15.963  0.4455 -0.0222  0.1933
  456MPD2    C2 6842   2.943   2.079  16.079  0.8667 -0.2394 -0.5410
  456MPD2    C3 6843   2.864   2.198  16.103  0.8206 -0.2499 -0.4063
  456MPD2    C4 6844   2.870   2.294  15.996 -0.2653  0.5492  0.1303
  456MPD2    C5 6845   2.920   2.256  15.878  0.4191 -0.3378  0.8665
  456MPD2     H 6846   2.943   2.002  16.155  1.7498  0.9628  0.6678
  456MPD2    H1 6847   2.828   2.394  15.995 -1.8986 -0.1474 -0.4268
  456MPD2    H2 6848   3.051   2.138  15.768  0.4345  0.2343  0.6102
  456MPD2    H3 6849   2.905   2.325  15.796 -1.5878 -1.7924  0.0025
  456MPD2     N 6850   2.791   2.219  16.218 -0.2229  0.0394 -0.5148
  456MPD2    H5 6851   2.799   2.149  16.291 -1.9948 -2.5978 -2.8419
  456MPD2    N1 6852   3.092   1.952  15.928  0.3674  0.1435 -0.3438
  456MPD2    H7 6853   3.116   1.942  15.830 -2.4246 -1.6781 -0.8053
  457TMC3    C1 6854   2.632   2.326  16.359 -0.2061 -0.3415  0.3708
  457TMC3    C2 6855   2.507   2.384  16.346 -0.4282 -0.0765 -0.2390
  457TMC3    C3 6856   2.441   2.415  16.460  0.3221 -0.2826  0.2820
  457TMC3    C4 6857   2.699   2.311  16.478  0.0406 -0.8411  0.5330
  457TMC3    C5 6858   2.631   2.351  16.586  0.9014  0.4395  0.1933
  457TMC3    C6 6859   2.503   2.393  16.583 -0.1436  0.2875 -0.3847
  457TMC3     C 6860   2.705   2.323  16.235 -0.5578  0.6824  0.2294
  457TMC3     O 6861   2.650   2.399  16.153 -0.3517  0.3201 -0.2652
  457TMC3     H 6862   2.456   2.402  16.252 -0.4142  0.6235 -0.1122
  457TMC3    H1 6863   2.798   2.266  16.487  0.5648 -0.1477 -1.6390
  457TMC3    H2 6864   2.439   2.395  16.671 -0.5186  2.0679 -0.7071
  457TMC3    C7 6865   2.680   2.315  16.717 -0.9585  0.5469 -0.0413
  457TMC3    C8 6866   2.334   2.510  16.467  0.1452  0.5760  0.2469
  457TMC3    O1 6867   2.765   2.227  16.729  0.0597 -0.1047  0.2015
  457TMC3    O2 6868   2.311   2.550  16.580  0.3046 -0.5431 -0.4073
  458MPD2     C 6869   0.164   1.342  12.579 -0.2836  0.3684  0.3509
  458MPD2    C1 6870   0.208   1.258  12.675 -0.1264 -0.3391  0.6291
  458MPD2    C2 6871   0.111   1.206  12.753 -0.3613 -0.4490  0.2395
  458MPD2    C3 6872   4.713   1.236  12.744  0.1256 -0.1040  0.0988
  458MPD2    C4 6873   4.673   1.332  12.649 -0.1847 -0.1119 -0.3333
  458MPD2    C5 6874   0.026   1.375  12.565  0.1102  0.1198 -0.0651
  458MPD2     H 6875   0.141   1.147  12.839  1.4500  2.3989  1.5770
  458MPD2    H1 6876   4.573   1.368  12.630 -0.2331 -0.1611 -0.1751
  458MPD2    H2 6877   0.229   1.392  12.508  0.7945 -0.4993  0.7296
  458MPD2    H3 6878   0.004   1.458  12.498  1.4314  0.8544  0.4181
  458MPD2     N 6879   4.628   1.159  12.830 -0.1891 -0.0209 -0.1824
  458MPD2    H5 6880   4.676   1.096  12.893  1.7863  0.3805 -1.2726
  458MPD2    N1 6881   0.341   1.240  12.710 -0.5884 -0.0134 -0.2158
  458MPD2    H7 6882   0.409   1.293  12.657 -0.6075 -0.1812 -0.4099
  459TMC3    C1 6883   0.525   1.202  12.852 -0.2097  0.1836  1.3732
  459TMC3    C2 6884   0.599   1.295  12.785 -0.7944 -0.0506 -0.2498
  459TMC3    C3 6885   0.723   1.327  12.838 -0.1999  0.4072 -0.0536
  459TMC3    C4 6886   0.563   1.151  12.971 -0.7866 -0.7634  0.3646
  459TMC3    C5 6887   0.681   1.190  13.022 -0.1826  0.4776 -0.4057
  459TMC3    C6 6888   0.764   1.286  12.958 -0.6544 -0.2397 -0.1351
  459TMC3     C 6889   0.382   1.171  12.824 -0.7629 -0.7593  0.5298
  459TMC3     O 6890   0.335   1.086  12.900 -0.0046  0.6416  0.0224
  459TMC3     H 6891   0.567   1.337  12.691 -0.3144  3.5101  1.1926
  459TMC3    H1 6892   0.510   1.065  13.010 -0.1089 -0.7840  1.2353
  459TMC3    H2 6893   0.853   1.313  13.013 -0.2027 -0.1571 -0.9216
  459TMC3    C7 6894   0.718   1.141  13.157  0.4082  0.3227  0.1541
  459TMC3    C8 6895   0.815   1.424  12.770 -0.7288  1.1019 -0.3324
  459TMC3    O1 6896   0.837   1.156  13.182  0.1510  0.0129  0.5779
  459TMC3    O2 6897   0.931   1.412  12.813  0.1170  0.0458 -0.1406
  460MPD2     C 6898   0.213   4.022  10.705 -0.2728 -0.7341 -0.1500
  460MPD2    C1 6899   0.102   3.966  10.760 -0.2332  0.4920 -0.1307
  460MPD2    C2 6900   4.714   4.006  10.709 -0.0063 -0.3962  0.5981
  460MPD2    C3 6901   4.708   4.118  10.629 -0.0544 -0.5162  1.0119
  460MPD2    C4 6902   0.089   4.168  10.579  0.1911 -0.2622 -0.0277
  460MPD2    C5 6903   0.211   4.119  10.611  0.4186  0.0728 -0.1730
  460MPD2     H 6904   4.620   3.962  10.740 -1.4841  1.0804 -1.7098
  460MPD2    H1 6905   0.106   4.254  10.514 -0.4780 -1.6649 -2.0326
  460MPD2    H2 6906   0.314   3.987  10.723  0.0257  0.1744 -0.0336
  460MPD2    H3 6907   0.297   4.169  10.567 -0.6654  0.3424 -1.9700
  460MPD2     N 6908   4.577   4.174  10.589 -0.0636 -0.1537  0.0353
  460MPD2    H5 6909   4.487   4.131  10.607  0.0008 -1.4961 -2.8351
  460MPD2    N1 6910   0.121   3.865  10.850 -0.5106 -0.8657  0.3614
  460MPD2    H7 6911   0.218   3.851  10.877 -0.2661  0.1578  0.0563
  461TMC3    C1 6912   4.423   4.311  10.495 -0.2239 -0.5188 -0.5425
  461TMC3    C2 6913   4.352   4.209  10.443  0.1690  0.5398 -0.0268
  461TMC3    C3 6914   4.237   4.234  10.379  0.5712  0.0476  0.0407
  461TMC3    C4 6915   4.390   4.439  10.474 -0.0892  0.8816  1.0242
  461TMC3    C5 6916   4.271   4.462  10.407 -0.2093  0.2959 -0.1686
  461TMC3    C6 6917   4.188   4.364  10.368 -0.1932 -0.2801 -0.4972
  461TMC3     C 6918   4.562   4.293  10.532  0.5872  0.4369  0.2496
  461TMC3     O 6919   4.638   4.376  10.485  0.2203  0.3279  0.1015
  461TMC3     H 6920   4.392   4.108  10.446 -0.8128  0.1605  0.3129
  461TMC3    H1 6921   4.459   4.516  10.510  0.0650  1.5631 -0.7493
  461TMC3    H2 6922   4.110   4.387  10.296 -0.9245 -1.2483 -0.0077
  461TMC3    C7 6923   4.244   4.591  10.348 -0.6386  0.0750 -0.4473
  461TMC3    C8 6924   4.173   4.117  10.317  0.5693  0.6686  0.0710
  461TMC3    O1 6925   4.131   4.616  10.314  0.0580 -0.2596  0.0859
  461TMC3    O2 6926   4.247   4.021  10.310 -0.1068 -0.7026  0.4117
  462TMC3    C1 6927   4.397   0.443   0.317 -0.2394 -0.6908  0.2585
  462TMC3    C2 6928   4.528   0.417   0.351 -0.4835  0.2694  0.3862
  462TMC3    C3 6929   4.557   0.282   0.369 -0.0319  0.2122 -0.1327
  462TMC3    C4 6930   4.296   0.347   0.333  0.0444 -0.7472  0.6112
  462TMC3    C5 6931   4.335   0.215   0.370 -0.2615 -0.3210  1.1493
  462TMC3    C6 6932   4.468   0.175   0.379  0.3191 -0.6555  0.0292
  462TMC3     C 6933   4.370   0.576   0.268 -0.0807  0.6651 -0.5900
  462TMC3     O 6934   4.256   0.619   0.290  0.1935  0.2638 -0.6517
  462TMC3     H 6935   4.611   0.487   0.360  1.0457 -1.3649 -1.0232
  462TMC3    H1 6936   4.196   0.372   0.301  0.6071  0.2981 -0.3300
  462TMC3    H2 6937   4.497   0.082   0.426 -1.9461 -0.3151  2.0597
  462TMC3    C7 6938   4.244   0.105   0.362  0.3365 -0.2710 -0.1160
  462TMC3    C8 6939   4.686   0.250   0.435 -0.1847 -0.1695  0.0357
  462TMC3    O1 6940   4.298   4.733   0.349 -0.1353 -0.1495  0.0136
  462TMC3    O2 6941   4.729   0.331   0.521  0.1204 -0.0505  0.0890
  463MPD2     C 6942   1.492   3.086   0.647 -0.4955 -0.1515  0.9313
  463MPD2    C1 6943   1.386   3.182   0.677  0.0076  0.2612 -0.3137
  463MPD2    C2 6944   1.432   3.313   0.688 -0.0514  0.4338 -0.6089
  463MPD2    C3 6945   1.567   3.350   0.687  0.6390  0.1551 -0.3478
  463MPD2    C4 6946   1.665   3.256   0.672 -0.2646  0.0932 -0.4052
  463MPD2    C5 6947   1.627   3.123   0.641 -0.1408 -0.6398  0.2254
  463MPD2     H 6948   1.354   3.386   0.707  1.8108  1.4693  2.9981
  463MPD2    H1 6949   1.771   3.280   0.673 -0.2800  0.1425  1.4239
  463MPD2    H2 6950   1.477   2.983   0.617 -0.7380  0.9075 -2.5214
  463MPD2    H3 6951   1.690   3.042   0.608 -0.4835 -1.0916  0.6804
  463MPD2     N 6952   1.602   3.486   0.709  0.6930 -0.0661 -0.1358
  463MPD2    H5 6953   1.702   3.501   0.706  0.4233  2.0501  1.3306
  463MPD2    N1 6954   1.247   3.149   0.690 -0.1869  0.5092 -0.1853
  463MPD2    H7 6955   1.186   3.223   0.724  1.1201  0.5419  2.1442
  464TMC3    C1 6956   1.047   3.023   0.710  0.4603  0.6215  0.1879
  464TMC3    C2 6957   0.993   3.128   0.782 -0.2727  0.3301 -0.3931
  464TMC3    C3 6958   0.860   3.138   0.776 -0.3652 -1.2943  0.1198
  464TMC3    C4 6959   0.971   2.915   0.666  0.2041  0.5099 -0.0657
  464TMC3    C5 6960   0.834   2.944   0.651 -0.5690 -0.3284  0.5113
  464TMC3    C6 6961   0.779   3.062   0.699 -0.1627 -0.2341 -0.0706
  464TMC3     C 6962   1.190   3.020   0.671  0.4676  0.8870 -0.4792
  464TMC3     O 6963   1.246   2.923   0.620 -0.6845  0.4871  0.1346
  464TMC3     H 6964   1.057   3.202   0.829  0.6762 -1.4920  1.1697
  464TMC3    H1 6965   1.020   2.829   0.623 -0.5833 -0.6174  1.2967
  464TMC3    H2 6966   0.673   3.079   0.688  0.2852  2.2085 -0.6550
  464TMC3    C7 6967   0.746   2.831   0.630  0.0198  0.1864  1.2501
  464TMC3    C8 6968   0.797   3.251   0.838  0.3436  0.0974 -0.8727
  464TMC3    O1 6969   0.792   2.724   0.677 -0.3666 -0.3660  0.3430
  464TMC3    O2 6970   0.695   3.295   0.788 -0.1457 -0.5656  0.1810
  465MPD2     C 6971   1.719   1.321  16.009  0.2545  0.3098 -0.2592
  465MPD2    C1 6972   1.778   1.371  16.126 -0.2176  0.0072  0.4167
  465MPD2    C2 6973   1.784   1.509  16.130 -0.2870 -0.7819  0.1029
  465MPD2    C3 6974   1.719   1.585  16.035  0.2246 -0.0477  0.5283
  465MPD2    C4 6975   1.660   1.532  15.925 -0.0605 -0.9096 -0.8107
  465MPD2    C5 6976   1.648   1.398  15.919 -0.1438 -0.4279 -0.5051
  465MPD2     H 6977   1.819   1.551  16.224  2.6695  0.0223 -1.3531
  465MPD2    H1 6978   1.594   1.598  15.869  2.6621  1.5626 -1.0900
  465MPD2    H2 6979   1.727   1.216  15.984 -2.4672  0.5423 -2.0531
  465MPD2    H3 6980   1.599   1.337  15.844  2.1219  0.2502 -2.5494
  465MPD2     N 6981   1.722   1.722  16.070  0.4486  0.2431 -0.2267
  465MPD2    H5 6982   1.751   1.743  16.165 -0.1066  1.0729 -0.2331
  465MPD2    N1 6983   1.850   1.291  16.216 -0.1344  0.8050  0.0147
  465MPD2    H7 6984   1.893   1.353  16.284 -0.8578  0.3470  0.8832
  466TMC3    C1 6985   1.467   1.987  16.218 -0.2934 -0.3716 -0.0392
  466TMC3    C2 6986   1.440   2.101  16.150 -0.3547 -0.8893 -0.2029
  466TMC3    C3 6987   1.510   2.128  16.038  0.8462  0.2676  0.1542
  466TMC3    C4 6988   1.578   1.919  16.184 -0.0639 -0.2543  0.2409
  466TMC3    C5 6989   1.642   1.944  16.068 -0.1965 -0.6854 -0.3725
  466TMC3    C6 6990   1.602   2.047  15.985  0.0897 -0.5330 -0.6654
  466TMC3     C 6991   1.406   1.958  16.344  0.0263  0.1041  0.6251
  466TMC3     O 6992   1.482   1.924  16.433  0.5477  0.8453 -0.3477
  466TMC3     H 6993   1.360   2.162  16.191 -0.9842 -1.2290 -0.9128
  466TMC3    H1 6994   1.595   1.822  16.229 -0.2674  0.0242  0.9161
  466TMC3    H2 6995   1.659   2.065  15.895  1.9738  3.2496  1.2849
  466TMC3    C7 6996   1.661   1.825  15.999 -0.3191  0.0018 -0.0307
  466TMC3    C8 6997   1.497   2.269  15.984  0.3135  0.5919  0.4264
  466TMC3    O1 6998   1.626   1.830  15.882  0.0745 -0.1632 -0.2473
  466TMC3    O2 6999   1.555   2.292  15.880 -0.0492 -0.1977 -0.3019
  467TMC3    C1 7000   2.961   0.381  13.337 -0.1887  0.0837 -0.4512
  467TMC3    C2 7001   2.966   0.502  13.280  0.1626  0.2340 -0.8512
  467TMC3    C3 7002   2.867   0.591  13.309 -0.0991  0.0082  0.0119
  467TMC3    C4 7003   2.862   0.343  13.418 -0.3379 -0.2092 -0.1291
  467TMC3    C5 7004   2.756   0.429  13.440 -0.1127 -0.0685 -0.0735
  467TMC3    C6 7005   2.758   0.555  13.396 -0.0553  0.5063 -1.0288
  467TMC3     C 7006   3.087   0.316  13.347 -0.1137 -0.0096  0.0725
  467TMC3     O 7007   3.119   0.234  13.262  0.2169 -0.3426 -0.7021
  467TMC3     H 7008   3.054   0.516  13.219  0.1525  0.3151 -0.8462
  467TMC3    H1 7009   2.857   0.245  13.463  1.0922  0.0991  0.7097
  467TMC3    H2 7010   2.677   0.624  13.417 -0.8669 -0.8940  0.4374
  467TMC3    C7 7011   2.643   0.372  13.510  0.5665 -0.2956 -0.2096
  467TMC3    C8 7012   2.888   0.733  13.286  0.1194 -0.5064 -0.0012
  467TMC3    O1 7013   2.626   0.249  13.499  0.6199 -0.4952  0.0255
  467TMC3    O2 7014   2.842   0.807  13.368 -0.1409 -0.8107  0.3815
  468MPD2     C 7015   1.031   3.729  10.815  0.9815  0.0064 -1.0035
  468MPD2    C1 7016   1.129   3.816  10.772 -0.1193 -0.1668 -0.0282
  468MPD2    C2 7017   1.265   3.776  10.761  1.0368 -0.7894 -0.7514
  468MPD2    C3 7018   1.291   3.645  10.792  0.0976 -0.1299 -0.4812
  468MPD2    C4 7019   1.198   3.558  10.846 -0.2612 -0.0015 -0.5949
  468MPD2    C5 7020   1.068   3.597  10.851 -0.5210  0.4538 -0.7158
  468MPD2     H 7021   1.351   3.835  10.735 -0.6814  0.9808 -2.3717
  468MPD2    H1 7022   1.224   3.459  10.880 -3.3466 -0.3279  0.7932
  468MPD2    H2 7023   0.932   3.767  10.839  0.9432 -1.7207  1.4816
  468MPD2    H3 7024   0.992   3.533  10.896 -1.9199  2.7015  0.0923
  468MPD2     N 7025   1.418   3.581  10.797 -0.0207 -0.3419  0.0486
  468MPD2    H5 7026   1.421   3.499  10.857 -1.2854 -1.0734 -0.8772
  468MPD2    N1 7027   1.108   3.953  10.762  0.1128 -0.1307 -0.3169
  468MPD2    H7 7028   1.187   4.013  10.742 -1.0463  1.5525  0.1033
  469TMC3    C1 7029   1.016   4.152  10.840 -0.0130 -0.2206 -0.0054
  469TMC3    C2 7030   1.153   4.187  10.863  0.3207  0.6856 -0.1968
  469TMC3    C3 7031   1.178   4.285  10.957  0.5417  0.4808  0.8220
  469TMC3    C4 7032   0.906   4.203  10.910  0.3147 -0.0559  0.0823
  469TMC3    C5 7033   0.949   4.294  11.000 -0.2926  0.4778 -0.6565
  469TMC3    C6 7034   1.075   4.332  11.025  0.2557 -0.0926 -0.1436
  469TMC3     C 7035   0.989   4.019  10.777 -0.2332  0.3126 -0.1810
  469TMC3     O 7036   0.874   3.975  10.780  0.7983  0.2818  0.4106
  469TMC3     H 7037   1.238   4.151  10.806 -0.3776 -2.3912  0.6749
  469TMC3    H1 7038   0.805   4.166  10.901  0.6479 -0.8421 -0.4484
  469TMC3    H2 7039   1.094   4.420  11.086 -0.1653  3.1092 -4.6742
  469TMC3    C7 7040   0.839   4.348  11.076  0.7971  0.6793 -0.1484
  469TMC3    C8 7041   1.311   4.313  10.982  0.1352  0.5913 -0.6998
  469TMC3    O1 7042   0.731   4.333  11.025  0.1009 -0.2360 -0.0732
  469TMC3    O2 7043   1.390   4.307  10.884  0.4275  0.2336 -0.6549
  470TMC3    C1 7044   3.937   4.224   0.655  0.3723 -0.1405 -0.6416
  470TMC3    C2 7045   4.041   4.310   0.684  0.6376  0.1986  0.2304
  470TMC3    C3 7046   4.011   4.404   0.787 -0.2726  0.3121 -0.0346
  470TMC3    C4 7047   3.818   4.228   0.726  0.1816 -0.4209 -0.6899
  470TMC3    C5 7048   3.795   4.330   0.819 -0.5249 -0.2196 -0.0871
  470TMC3    C6 7049   3.902   4.399   0.868 -0.5202 -0.9682  0.6873
  470TMC3     C 7050   3.950   4.134   0.538  0.6094  0.1998 -0.3774
  470TMC3     O 7051   4.062   4.120   0.488 -0.0219 -0.2121 -0.2069
  470TMC3     H 7052   4.139   4.310   0.638  0.1013  1.5809 -0.9078
  470TMC3    H1 7053   3.739   4.158   0.702  0.3233 -0.6089 -0.6106
  470TMC3    H2 7054   3.893   4.472   0.947 -0.1375 -1.5367  1.2567
  470TMC3    C7 7055   3.654   4.337   0.866 -0.5052 -0.1490 -0.3110
  470TMC3    C8 7056   4.121   4.487   0.829 -0.1951 -0.2053  0.0725
  470TMC3    O1 7057   3.586   4.239   0.849 -0.8475 -0.4494  0.5140
  470TMC3    O2 7058   4.116   4.542   0.941 -0.0140  0.6366 -0.5134
  471MPD2     C 7059   4.069   1.247  16.757  0.3384 -0.6486 -0.2258
  471MPD2    C1 7060   4.189   1.164  16.742  0.7869  0.4574 -0.0491
  471MPD2    C2 7061   4.285   1.164  16.836  0.0962 -0.2050 -0.2368
  471MPD2    C3 7062   4.264   1.231  16.955  0.5589  0.0740 -0.0691
  471MPD2    C4 7063   4.157   1.303  16.975 -0.6655  0.5537 -0.3322
  471MPD2    C5 7064   4.061   1.318  16.874 -0.0377  0.2071 -0.2570
  471MPD2     H 7065   4.369   1.097  16.818 -1.4568 -1.7317 -1.7156
  471MPD2    H1 7066   4.138   1.360  17.065 -0.6077  0.0922 -0.0294
  471MPD2    H2 7067   3.993   1.251  16.680  0.8058  0.1282 -0.6349
  471MPD2    H3 7068   3.981   1.391  16.879  0.0614  0.3864 -1.2426
  471MPD2     N 7069   4.345   1.220  17.064 -0.1030 -0.5287 -0.7392
  471MPD2    H5 7070   4.315   1.271  17.147  1.0635 -2.6654  1.0115
  471MPD2    N1 7071   4.217   1.091  16.620  0.0377 -0.4605 -0.0633
  471MPD2    H7 7072   4.312   1.057  16.606 -0.7351 -2.0891 -1.4054
  472TMC3    C1 7073   4.173   1.008  16.408  0.1538  0.1791  0.1244
  472TMC3    C2 7074   4.092   1.013  16.294 -0.0528  0.2842 -0.3723
  472TMC3    C3 7075   4.124   0.914  16.204  1.2058 -0.7998  0.0080
  472TMC3    C4 7076   4.286   0.928  16.425 -0.1135 -0.1336  0.0940
  472TMC3    C5 7077   4.305   0.839  16.325 -0.0208  0.5927  0.3857
  472TMC3    C6 7078   4.236   0.839  16.209  0.3946 -0.2922 -0.0301
  472TMC3     C 7079   4.125   1.083  16.521  0.1473  0.3104  0.2437
  472TMC3     O 7080   4.006   1.112  16.525 -0.1486  0.2652 -0.0472
  472TMC3     H 7081   3.998   1.066  16.288 -0.0438  0.2518 -0.8018
  472TMC3    H1 7082   4.343   0.918  16.516  0.4657 -0.0280 -0.2530
  472TMC3    H2 7083   4.256   0.759  16.139  1.5015  0.0701 -0.1315
  472TMC3    C7 7084   4.361   0.711  16.378  0.2376 -0.0823  0.4570
  472TMC3    C8 7085   4.006   0.853  16.170 -0.0887  0.2676 -0.3922
  472TMC3    O1 7086   4.348   0.698  16.496 -0.2947 -0.0166  0.1549
  472TMC3    O2 7087   3.987   0.825  16.052  0.4950  0.2207 -0.0938
  473MPD2     C 7088   4.397   2.767  13.849 -0.3519 -0.4313 -0.0734
  473MPD2    C1 7089   4.311   2.871  13.834 -0.1262 -0.2930 -0.5856
  473MPD2    C2 7090   4.304   2.964  13.937  0.0755 -0.5223 -0.2086
  473MPD2    C3 7091   4.384   2.964  14.049  0.4413  0.3358  0.1162
  473MPD2    C4 7092   4.478   2.861  14.057 -0.4141 -0.0399  0.1634
  473MPD2    C5 7093   4.475   2.759  13.963  1.0283  0.3449  0.5162
  473MPD2     H 7094   4.228   3.041  13.932  1.0658  0.4069 -0.6530
  473MPD2    H1 7095   4.542   2.855  14.144 -0.6359 -3.1883  0.0913
  473MPD2    H2 7096   4.407   2.688  13.776  0.4924  1.0341 -1.5465
  473MPD2    H3 7097   4.542   2.675  13.978 -0.2577 -0.3035  2.7351
  473MPD2     N 7098   4.394   3.071  14.141  0.2235 -0.3773  0.2124
  473MPD2    H5 7099   4.479   3.062  14.196 -0.9950  0.3402  2.2054
  473MPD2    N1 7100   4.235   2.888  13.718  0.0044  0.3711 -0.1248
  473MPD2    H7 7101   4.180   2.973  13.713 -1.6425 -0.8570 -2.4952
  474TMC3    C1 7102   4.346   3.271  14.244 -0.6064 -0.3962 -0.3347
  474TMC3    C2 7103   4.294   3.393  14.225 -0.5709  0.3727  0.9258
  474TMC3    C3 7104   4.325   3.485  14.324 -0.1486  1.1134  0.1992
  474TMC3    C4 7105   4.442   3.241  14.343 -0.7773 -0.4993 -0.3298
  474TMC3    C5 7106   4.470   3.336  14.442  0.0369  0.2315 -0.7498
  474TMC3    C6 7107   4.414   3.462  14.427  0.4693 -0.3850 -0.4128
  474TMC3     C 7108   4.302   3.172  14.153  0.5232 -0.3374  0.1128
  474TMC3     O 7109   4.198   3.191  14.096 -0.0787  0.0804  0.0380
  474TMC3     H 7110   4.218   3.409  14.150  1.5094 -0.9070 -1.4644
  474TMC3    H1 7111   4.479   3.141  14.362  0.1082  0.2161  1.7909
  474TMC3    H2 7112   4.428   3.546  14.495 -1.4707  0.1865 -0.7281
  474TMC3    C7 7113   4.518   3.284  14.567  0.3159 -0.3656 -0.3400
  474TMC3    C8 7114   4.245   3.611  14.318  0.0573 -0.4777 -0.0635
  474TMC3    O1 7115   4.526   3.159  14.583 -0.1233 -0.2522 -0.1494
  474TMC3    O2 7116   4.139   3.613  14.257  0.1067 -0.3713 -0.2057
  475MPD2     C 7117   2.605   1.475  10.484 -0.7819 -0.2966 -0.1987
  475MPD2    C1 7118   2.673   1.586  10.512  0.4755 -0.0307  0.7007
  475MPD2    C2 7119   2.615   1.697  10.571 -0.0398  0.1500  0.1740
  475MPD2    C3 7120   2.491   1.675  10.630  0.5661  0.6326  0.0751
  475MPD2    C4 7121   2.425   1.552  10.610 -0.4526  0.6944 -0.2909
  475MPD2    C5 7122   2.482   1.455  10.531  0.0276 -0.4896  0.5706
  475MPD2     H 7123   2.660   1.794  10.588  0.1780  0.1391 -0.3407
  475MPD2    H1 7124   2.333   1.527  10.660 -0.8391  0.3940 -1.1685
  475MPD2    H2 7125   2.648   1.396  10.423  0.2117  0.1786 -0.1160
  475MPD2    H3 7126   2.434   1.360  10.510 -2.0346  0.5729  0.5854
  475MPD2     N 7127   2.441   1.785  10.706 -0.0008  0.1978 -0.2220
  475MPD2    H5 7128   2.502   1.865  10.710  1.0555 -0.6056 -0.2330
  475MPD2    N1 7129   2.805   1.595  10.459  0.5393 -0.1271 -0.0598
  475MPD2    H7 7130   2.837   1.513  10.409 -0.9684 -0.6214 -0.2155
  476TMC3    C1 7131   3.007   1.697  10.379 -0.0360  0.1137 -0.6634
  476TMC3    C2 7132   2.959   1.701  10.252 -0.2778  0.0906  0.4673
  476TMC3    C3 7133   2.984   1.813  10.173 -0.1696  0.6766  0.0466
  476TMC3    C4 7134   3.102   1.784  10.418  0.1700 -0.0969  0.2100
  476TMC3    C5 7135   3.122   1.897  10.341 -0.1751 -0.0683  0.1945
  476TMC3    C6 7136   3.058   1.920  10.220  0.6238 -0.8184 -0.6069
  476TMC3     C 7137   2.893   1.701  10.473  0.2311  0.3068 -0.2675
  476TMC3     O 7138   2.894   1.785  10.559 -0.0133 -0.6658 -0.0751
  476TMC3     H 7139   2.921   1.611  10.204  0.3502  0.0141  0.1096
  476TMC3    H1 7140   3.127   1.783  10.523 -0.8851  2.9508  0.5124
  476TMC3    H2 7141   3.067   2.016  10.171 -0.6983 -0.1251  0.5128
  476TMC3    C7 7142   3.179   2.014  10.407  0.2055 -0.5285  0.0512
  476TMC3    C8 7143   2.856   1.864  10.123  0.6985 -0.7516 -0.5380
  476TMC3    O1 7144   3.101   2.104  10.440  0.3094  1.1193 -0.1343
  476TMC3    O2 7145   2.851   1.973  10.068 -0.7453  0.0650  0.1162
  477MPD2     C 7146   0.675   3.196  11.910  0.3559  0.3217 -0.1598
  477MPD2    C1 7147   0.631   3.097  11.822 -0.4343  0.1148 -0.1034
  477MPD2    C2 7148   0.663   2.958  11.855  0.5845 -0.3749 -0.2728
  477MPD2    C3 7149   0.743   2.929  11.965 -0.0057  0.0300  0.1854
  477MPD2    C4 7150   0.798   3.031  12.040 -0.1895 -0.7626  0.3081
  477MPD2    C5 7151   0.760   3.163  12.012 -0.1543  0.4666 -0.7243
  477MPD2     H 7152   0.620   2.886  11.787 -0.8168 -0.1173  0.3420
  477MPD2    H1 7153   0.855   3.011  12.130 -0.3962  0.4295  0.7125
  477MPD2    H2 7154   0.639   3.297  11.894  1.5742  1.1304  2.1996
  477MPD2    H3 7155   0.793   3.239  12.081 -0.6771  0.2206 -0.2013
  477MPD2     N 7156   0.757   2.797  11.991  0.0787 -0.0095 -0.0772
  477MPD2    H5 7157   0.723   2.729  11.923 -0.1234  0.4106 -0.3940
  477MPD2    N1 7158   0.555   3.133  11.715 -0.2027 -0.0647  0.0925
  477MPD2    H7 7159   0.525   3.230  11.707 -0.1181 -0.1779 -1.5178
  478TMC3    C1 7160   0.413   3.094  11.537 -0.3146  0.7233  0.1218
  478TMC3    C2 7161   0.319   3.175  11.592  0.6721 -0.2321 -0.1390
  478TMC3    C3 7162   0.201   3.196  11.525  0.2217  1.1020  0.0951
  478TMC3    C4 7163   0.398   3.043  11.412 -0.2004  0.0098 -0.0484
  478TMC3    C5 7164   0.281   3.073  11.345  0.2584 -0.3204  0.7759
  478TMC3    C6 7165   0.181   3.156  11.397 -0.0818 -0.0657 -0.6459
  478TMC3     C 7166   0.517   3.047  11.617  0.3694  0.4022 -0.3950
  478TMC3     O 7167   0.570   2.945  11.584 -0.5280 -0.3330 -0.0347
  478TMC3     H 7168   0.326   3.217  11.692  1.6051  0.5615 -0.5311
  478TMC3    H1 7169   0.481   2.988  11.368  0.3696 -0.3728  1.4989
  478TMC3    H2 7170   0.079   3.160  11.361 -0.6882  0.8667  1.1792
  478TMC3    C7 7171   0.248   2.961  11.258 -0.0792  0.2581 -0.7959
  478TMC3    C8 7172   0.115   3.287  11.593 -0.1809  0.1263 -0.9249
  478TMC3    O1 7173   0.299   2.853  11.287 -0.5446 -0.3470  0.0822
  478TMC3    O2 7174   0.118   3.280  11.718  0.0557 -0.4839 -0.4262
  479MPD2     C 7175   4.004   0.449  15.198  0.3222  0.3635  0.1475
  479MPD2    C1 7176   3.966   0.356  15.291  0.8507 -0.7852  0.1521
  479MPD2    C2 7177   3.956   0.394  15.421  0.5332 -0.4687  0.0213
  479MPD2    C3 7178   4.000   0.520  15.460  1.2812 -0.6659 -0.6586
  479MPD2    C4 7179   4.061   0.606  15.369  0.0732  0.2531 -0.0761
  479MPD2    C5 7180   4.058   0.565  15.242  0.2319  0.3862  0.1492
  479MPD2     H 7181   3.906   0.325  15.488  0.4041 -0.7707 -0.3816
  479MPD2    H1 7182   4.091   0.707  15.392 -1.3568  0.1833  2.1213
  479MPD2    H2 7183   3.988   0.436  15.092 -0.5268 -0.6783  0.4081
  479MPD2    H3 7184   4.084   0.637  15.165 -1.4868  0.2789 -0.5395
  479MPD2     N 7185   3.961   0.566  15.593 -0.2101  0.6812  0.4499
  479MPD2    H5 7186   3.955   0.667  15.602 -0.7565  0.8210 -1.4754
  479MPD2    N1 7187   3.910   0.238  15.257  0.8518 -0.3589  0.6602
  479MPD2    H7 7188   3.882   0.235  15.159 -0.6055  0.4625  1.0614
  480TMC3    C1 7189   3.643   0.441  15.896  0.0620  0.2114  0.3631
  480TMC3    C2 7190   3.544   0.456  15.805  0.0923 -0.6265 -0.1044
  480TMC3    C3 7191   3.591   0.515  15.693 -0.2351  0.3412  0.1949
  480TMC3    C4 7192   3.778   0.462  15.881 -0.2667 -0.0831  0.5262
  480TMC3    C5 7193   3.815   0.525  15.763  0.0722 -0.3501  0.4462
  480TMC3    C6 7194   3.720   0.558  15.666 -0.1796 -0.0569 -0.5665
  480TMC3     C 7195   3.609   0.317  15.972 -0.5559  0.3027 -0.2654
  480TMC3     O 7196   3.692   0.226  15.983  0.5814 -0.4439  0.3193
  480TMC3     H 7197   3.440   0.444  15.830  0.1509 -1.2700 -0.1672
  480TMC3    H1 7198   3.850   0.463  15.962 -0.9692  1.5026  1.1331
  480TMC3    H2 7199   3.741   0.618  15.578  0.0843  2.4860  1.2231
  480TMC3    C7 7200   3.940   0.488  15.702 -0.8699 -0.1271 -0.5361
  480TMC3    C8 7201   3.492   0.529  15.581 -0.8209  0.1979  0.5308
  480TMC3    O1 7202   3.993   0.379  15.730 -0.1906 -0.0256 -0.1266
  480TMC3    O2 7203   3.373   0.517  15.602  0.2146  0.9275 -0.2663
  481MPD2     C 7204   0.865   4.558  14.265 -0.1067  0.0949  0.5684
  481MPD2    C1 7205   0.756   4.524  14.333 -0.3860  0.1791  0.1853
  481MPD2    C2 7206   0.763   4.493  14.469  0.3793  0.6921 -0.2501
  481MPD2    C3 7207   0.891   4.469  14.527  0.0458  0.0867 -0.1320
  481MPD2    C4 7208   1.004   4.478  14.445 -1.1774  0.8593 -0.0346
  481MPD2    C5 7209   0.989   4.524  14.316  0.0556 -0.1719 -0.2710
  481MPD2     H 7210   0.675   4.489  14.533  0.4318  0.1319 -0.2059
  481MPD2    H1 7211   1.104   4.467  14.484 -2.3212 -3.0289  1.9005
  481MPD2    H2 7212   0.853   4.591  14.162  0.2662 -0.5020  0.3353
  481MPD2    H3 7213   1.080   4.524  14.257  0.5829  0.0510  0.5437
  481MPD2     N 7214   0.919   4.432  14.658  0.4808  0.1862  0.2297
  481MPD2    H5 7215   1.015   4.437  14.688  0.5078 -2.5900  0.6014
  481MPD2    N1 7216   0.633   4.550  14.265 -0.2460 -0.1170 -0.4216
  481MPD2    H7 7217   0.647   4.606  14.181  0.1561  0.4640  0.0352
  482TMC3    C1 7218   0.407   4.569  14.219 -0.5487  0.5337  0.2617
  482TMC3    C2 7219   0.285   4.511  14.213 -0.2900  0.4049  0.2635
  482TMC3    C3 7220   0.194   4.563  14.122  0.0005  1.1348 -0.5840
  482TMC3    C4 7221   0.434   4.693  14.175 -0.7713  0.3439  0.3725
  482TMC3    C5 7222   0.333   0.008  14.110 -0.2076  0.5933  0.7553
  482TMC3    C6 7223   0.223   4.678  14.062 -0.4318 -0.0156 -0.2381
  482TMC3     C 7224   0.508   4.509  14.307 -1.1835 -0.1481  0.1033
  482TMC3     O 7225   0.476   4.444  14.408 -0.0103  0.2110  0.9418
  482TMC3     H 7226   0.279   4.407  14.242 -1.5041  0.2034 -0.6600
  482TMC3    H1 7227   0.521   0.014  14.196  1.4551 -1.8986 -2.2805
  482TMC3    H2 7228   0.158   4.724  13.989  0.2404 -1.8718 -2.0467
  482TMC3    C7 7229   0.369   0.141  14.063  0.0313 -0.3237 -0.7511
  482TMC3    C8 7230   0.109   4.466  14.056  0.4642 -0.4939 -0.4064
  482TMC3    O1 7231   0.431   0.215  14.142  0.0470 -0.0135  1.0292
  482TMC3    O2 7232   0.107   4.353  14.101  0.0830  0.4152  0.4566
  483TMC3    C1 7233   4.459   4.281   1.030  0.2268  0.1322 -0.8462
  483TMC3    C2 7234   4.451   4.310   0.899  0.5285  0.2015 -0.0564
  483TMC3    C3 7235   4.545   4.260   0.817  0.2872  0.1488  0.3890
  483TMC3    C4 7236   4.546   4.186   1.068 -0.1519  0.4935  0.2051
  483TMC3    C5 7237   4.645   4.147   0.984  0.0261  0.2733 -0.5979
  483TMC3    C6 7238   4.654   4.186   0.855  0.2375 -0.0826 -0.5808
  483TMC3     C 7239   4.332   4.269   1.096  0.3217  0.3837 -0.1310
  483TMC3     O 7240   4.312   4.311   1.208 -0.1148 -0.2349  0.4088
  483TMC3     H 7241   4.359   4.356   0.864  0.9096 -0.4234 -1.8466
  483TMC3    H1 7242   4.537   4.135   1.164  0.2657 -1.8424 -1.0014
  483TMC3    H2 7243   4.729   4.161   0.781  1.2917 -0.1869  0.5371
  483TMC3    C7 7244   4.720   4.026   1.000  0.1475 -0.6762 -0.2523
  483TMC3    C8 7245   4.487   4.232   0.685 -0.0831 -0.0809 -0.0738
  483TMC3    O1 7246   0.001   3.961   0.898 -1.5372 -0.3569 -0.2941
  483TMC3    O2 7247   4.386   4.292   0.648  0.2716  0.7736 -0.2317
  484MPD2     C 7248   0.750   1.641  12.478  0.0463 -0.8230  0.0585
  484MPD2    C1 7249   0.828   1.581  12.578 -0.2669  0.7376  0.5306
  484MPD2    C2 7250   0.963   1.599  12.582  0.6689  0.0112  0.5144
  484MPD2    C3 7251   1.016   1.676  12.475  0.3050  0.9263  0.4978
  484MPD2    C4 7252   0.939   1.730  12.379 -0.8149  0.0924 -0.3970
  484MPD2    C5 7253   0.805   1.725  12.384  0.1438  0.5049 -0.5837
  484MPD2     H 7254   1.022   1.547  12.656 -1.7582  0.5659  2.8632
  484MPD2    H1 7255   0.985   1.790  12.301 -0.9964 -1.0051 -1.3521
  484MPD2    H2 7256   0.642   1.632  12.478  0.1759 -2.3350  0.5825
  484MPD2    H3 7257   0.741   1.758  12.302 -0.6403  1.1469  0.2757
  484MPD2     N 7258   1.152   1.703  12.473  0.1443  0.0327 -0.2391
  484MPD2    H5 7259   1.176   1.763  12.395 -2.9833  0.4307 -0.9172
  484MPD2    N1 7260   0.758   1.496  12.665  0.4707 -0.1834 -0.0084
  484MPD2    H7 7261   0.658   1.489  12.652  0.6157 -0.5531 -0.9301
  485TMC3    C1 7262   1.385   1.687  12.529 -0.4945 -0.5482 -0.1817
  485TMC3    C2 7263   1.470   1.585  12.579 -0.9008 -0.1980  0.7868
  485TMC3    C3 7264   1.572   1.549  12.494  0.2247  0.2910 -0.0935
  485TMC3    C4 7265   1.415   1.759  12.415 -0.3915  0.1989  0.3407
  485TMC3    C5 7266   1.507   1.714  12.330 -0.2105 -0.0159 -0.4489
  485TMC3    C6 7267   1.580   1.601  12.368 -0.1133  0.0347 -0.1240
  485TMC3     C 7268   1.248   1.668  12.571  0.6594  0.0691  0.2208
  485TMC3     O 7269   1.232   1.626  12.682 -0.0143  0.6141  0.6973
  485TMC3     H 7270   1.457   1.532  12.673 -2.5508 -1.1425  0.0260
  485TMC3    H1 7271   1.360   1.847  12.385 -2.2200  0.2710  3.8217
  485TMC3    H2 7272   1.633   1.547  12.290 -1.1249  0.3750 -1.0500
  485TMC3    C7 7273   1.588   1.813  12.272  0.1109  0.4910 -0.2122
  485TMC3    C8 7274   1.703   1.533  12.549  0.0963 -0.3227  0.0797
  485TMC3    O1 7275   1.539   1.908  12.213  0.7707 -0.0371 -0.2903
  485TMC3    O2 7276   1.793   1.546  12.466 -0.7272 -0.3666 -0.6196
  486MPD2     C 7277   3.778   0.805  12.791 -0.1437  0.2159  0.0111
  486MPD2    C1 7278   3.662   0.740  12.761 -0.1630 -0.9219  0.7885
  486MPD2    C2 7279   3.542   0.812  12.763  0.4661  0.0134  0.6494
  486MPD2    C3 7280   3.549   0.949  12.774  0.6403 -0.4071  0.6220
  486MPD2    C4 7281   3.667   1.016  12.794  0.2489 -0.0068  0.0165
  486MPD2    C5 7282   3.779   0.937  12.807  0.2837  0.3702  0.0399
  486MPD2     H 7283   3.444   0.766  12.764  0.3399  0.3052  2.3155
  486MPD2    H1 7284   3.668   1.120  12.823  1.9511  0.1720 -0.6323
  486MPD2    H2 7285   3.878   0.764  12.791  0.7314  2.3651 -2.4305
  486MPD2    H3 7286   3.873   0.985  12.832 -0.7704  0.6190  3.5588
  486MPD2     N 7287   3.432   1.020  12.744  0.3634 -0.4106 -0.1147
  486MPD2    H5 7288   3.349   0.966  12.718 -0.8375  0.6213  1.6453
  486MPD2    N1 7289   3.665   0.597  12.753  0.2825  0.4915  0.1435
  486MPD2    H7 7290   3.753   0.548  12.737  0.7631  1.6244 -0.7059
  487TMC3    C1 7291   3.594   0.376  12.734 -0.2651  0.1924 -0.4322
  487TMC3    C2 7292   3.523   0.285  12.658 -0.0001  0.6457  0.3809
  487TMC3    C3 7293   3.552   0.150  12.668 -0.0390  0.2588  0.3902
  487TMC3    C4 7294   3.685   0.322  12.820 -0.1604 -0.5217  0.6428
  487TMC3    C5 7295   3.714   0.189  12.832 -0.6357 -0.0534 -0.9242
  487TMC3    C6 7296   3.647   0.099  12.751  0.2883  0.4072  0.6025
  487TMC3     C 7297   3.557   0.514  12.741  0.1367  0.3041 -0.4354
  487TMC3     O 7298   3.438   0.546  12.718  0.1295  0.3092  0.6849
  487TMC3     H 7299   3.447   0.327  12.592 -0.9612 -1.1839  0.3449
  487TMC3    H1 7300   3.724   0.395  12.890  0.3019  1.8464 -2.0818
  487TMC3    H2 7301   3.641   4.736  12.784  0.6859 -0.2742 -1.4551
  487TMC3    C7 7302   3.719   0.146  12.972  0.6332 -0.4600 -0.0391
  487TMC3    C8 7303   3.436   0.068  12.635 -0.7689  0.1450 -0.1769
  487TMC3    O1 7304   3.651   0.218  13.051 -0.5029 -0.4725 -0.7125
  487TMC3    O2 7305   3.322   0.112  12.648  0.0180 -0.0072 -0.3627
  488MPD2     C 7306   3.649   2.045  16.231  0.2413  0.0456 -0.1261
  488MPD2    C1 7307   3.694   2.166  16.290  0.7071  0.0211  0.1387
  488MPD2    C2 7308   3.683   2.177  16.424  0.3106 -0.0592 -0.3440
  488MPD2    C3 7309   3.643   2.063  16.499  0.1749 -0.8676 -0.2193
  488MPD2    C4 7310   3.612   1.948  16.444  0.0073 -0.0529 -0.4325
  488MPD2    C5 7311   3.604   1.942  16.309  0.1274 -0.7688 -0.3699
  488MPD2     H 7312   3.718   2.264  16.478 -0.2205 -0.5217  0.7636
  488MPD2    H1 7313   3.560   1.871  16.500  2.1100 -1.2944 -0.1744
  488MPD2    H2 7314   3.637   2.036  16.123 -3.8837  0.2699  0.3150
  488MPD2    H3 7315   3.552   1.857  16.266 -2.1513 -0.5282  1.8839
  488MPD2     N 7316   3.645   2.074  16.642  0.7626 -0.4453 -0.1354
  488MPD2    H5 7317   3.655   2.169  16.675  0.8355  0.4744 -2.8594
  488MPD2    N1 7318   3.735   2.276  16.217  0.0514  0.0314  0.2076
  488MPD2    H7 7319   3.762   2.359  16.270  0.8422 -0.5573  0.7258
  489TMC3    C1 7320   3.636   2.024  16.875 -0.1978 -0.1189 -0.1842
  489TMC3    C2 7321   3.587   2.143  16.897  0.5294  0.0840  0.8122
  489TMC3    C3 7322   3.638   2.217  16.998  0.1074 -0.2049  0.7121
  489TMC3    C4 7323   3.724   1.960  16.960 -0.6018 -0.0765  0.0714
  489TMC3    C5 7324   3.774   2.035  17.062 -0.2446 -0.1477 -0.1405
  489TMC3    C6 7325   3.731   2.164  17.079  0.0842 -0.1558 -0.3749
  489TMC3     C 7326   3.622   1.973  16.738 -0.7678  0.7305  0.3198
  489TMC3     O 7327   3.578   1.857  16.727 -0.9504  0.7572 -0.1118
  489TMC3     H 7328   3.506   2.169  16.830  2.6249  0.0299 -1.7071
  489TMC3    H1 7329   3.772   1.867  16.932  1.4680  0.8816  0.4438
  489TMC3    H2 7330   3.776   2.224  17.157  2.2693 -2.3562  0.0552
  489TMC3    C7 7331   3.895   1.992  17.131 -0.7966  0.2850 -0.7102
  489TMC3    C8 7332   3.603   2.365  17.013 -0.2001  0.3365 -0.1718
  489TMC3    O1 7333   3.924   2.045  17.236 -0.0458 -0.2343 -0.7599
  489TMC3    O2 7334   3.690   2.434  17.065 -0.4237  0.5746  0.1557
  490MPD2     C 7335   4.098   2.126   0.127  0.1129  0.1294  0.7100
  490MPD2    C1 7336   4.147   2.044   0.026 -0.0423  0.2422  0.6772
  490MPD2    C2 7337   4.248   2.093  17.698  0.0495  0.1094  0.6363
  490MPD2    C3 7338   4.301   2.219  17.719  1.0861 -0.1557  0.6815
  490MPD2    C4 7339   4.243   2.302   0.049 -0.9173  0.0285  0.3150
  490MPD2    C5 7340   4.147   2.258   0.134 -0.0269  0.5522 -0.0639
  490MPD2     H 7341   4.292   2.028  17.623  0.0306  0.0936  0.6387
  490MPD2    H1 7342   4.273   2.406   0.053 -0.5688 -0.1094  1.4688
  490MPD2    H2 7343   4.019   2.088   0.192  0.4686 -3.0016 -0.6831
  490MPD2    H3 7344   4.104   2.332   0.200 -1.7442  1.2979 -2.0233
  490MPD2     N 7345   4.420   2.273  17.660 -0.7800  0.9083  0.3176
  490MPD2    H5 7346   4.438   2.373  17.673 -4.3976  1.3434  2.3301
  490MPD2    N1 7347   4.078   1.919  17.751  0.3212 -0.3298  0.0503
  490MPD2    H7 7348   4.017   1.882   0.066 -0.1109 -1.1336 -0.7387
  491TMC3    C1 7349   4.024   1.726  17.608 -0.3295 -0.2117  0.1108
  491TMC3    C2 7350   4.031   1.643  17.715  0.3961 -0.0925 -0.1733
  491TMC3    C3 7351   3.986   1.516  17.689  0.5883  0.2314 -1.2824
  491TMC3    C4 7352   3.988   1.691  17.476  0.3055  0.3742  0.5796
  491TMC3    C5 7353   3.973   1.557  17.462 -0.4151 -0.1959 -0.8629
  491TMC3    C6 7354   3.961   1.468  17.569  0.0635  0.0053 -0.7496
  491TMC3     C 7355   4.082   1.864  17.625 -0.1518  0.0983 -0.5430
  491TMC3     O 7356   4.141   1.904  17.526  0.5665  0.2628  0.3442
  491TMC3     H 7357   4.055   1.676   0.059  0.1740 -2.2577  0.5898
  491TMC3    H1 7358   4.002   1.752  17.388 -0.5282 -1.2184 -0.6606
  491TMC3    H2 7359   3.928   1.366  17.554 -1.8387  1.2490 -5.1003
  491TMC3    C7 7360   3.922   1.515  17.331  0.4259  0.2101 -0.8669
  491TMC3    C8 7361   3.979   1.425   0.040 -0.6001  0.4721 -0.0216
  491TMC3    O1 7362   3.948   1.398  17.293 -0.2242 -0.9039 -0.1930
  491TMC3    O2 7363   3.934   1.478   0.144 -0.2310 -0.5561  0.1517
  492MPD2     C 7364   4.091   1.281  10.864 -0.4145 -0.7936 -0.3554
  492MPD2    C1 7365   4.110   1.395  10.940  0.5905 -0.2105  0.1576
  492MPD2    C2 7366   4.072   1.406  11.076 -0.2614  0.1999 -0.0646
  492MPD2    C3 7367   4.003   1.297  11.142  0.0501  0.6708 -0.0824
  492MPD2    C4 7368   3.975   1.189  11.054 -0.1120  0.1431 -0.1228
  492MPD2    C5 7369   4.015   1.182  10.917 -0.9877  0.1367 -0.9392
  492MPD2     H 7370   4.089   1.502  11.122  0.1219  1.6475 -3.2116
  492MPD2    H1 7371   3.916   1.112  11.100 -4.0197  0.4754 -4.6140
  492MPD2    H2 7372   4.115   1.276  10.759 -0.3624  4.1450 -0.5899
  492MPD2    H3 7373   3.981   1.094  10.864 -0.9622 -0.5676  0.2280
  492MPD2     N 7374   3.957   1.295  11.274 -0.1256 -0.0489 -0.0297
  492MPD2    H5 7375   3.909   1.210  11.303 -0.3443 -0.6066 -2.0005
  492MPD2    N1 7376   4.176   1.497  10.867  0.3686  0.0851  0.1576
  492MPD2    H7 7377   4.195   1.479  10.769 -0.9633  0.3298 -0.1485
  493TMC3    C1 7378   4.271   1.704  10.816  0.0205  0.3511 -0.1555
  493TMC3    C2 7379   4.354   1.801  10.847 -0.2817  0.2970  0.2898
  493TMC3    C3 7380   4.378   1.900  10.756 -0.1543  0.2123  0.4477
  493TMC3    C4 7381   4.224   1.689  10.688  0.0865 -0.5031  0.1768
  493TMC3    C5 7382   4.257   1.781  10.594 -0.4815 -0.5784  0.2513
  493TMC3    C6 7383   4.325   1.897  10.625 -0.2206 -0.1623 -0.5917
  493TMC3     C 7384   4.219   1.617  10.923 -0.1354 -0.1129  0.6455
  493TMC3     O 7385   4.249   1.639  11.043 -0.4999 -0.5960  0.4943
  493TMC3     H 7386   4.395   1.791  10.947 -0.7854 -0.1268  0.4489
  493TMC3    H1 7387   4.144   1.620  10.662  0.2017 -0.6531  0.2188
  493TMC3    H2 7388   4.359   1.963  10.546 -0.9644 -0.4963 -1.1918
  493TMC3    C7 7389   4.215   1.758  10.457  0.1462  0.5834 -0.0210
  493TMC3    C8 7390   4.454   2.014  10.803  0.1167  0.0557 -0.0390
  493TMC3    O1 7391   4.217   1.852  10.377 -0.5036 -0.7845  0.2989
  493TMC3    O2 7392   4.482   2.006  10.921  0.6357  0.0246  0.2692
  494TMC3    C1 7393   0.335   3.629   0.148 -0.1237 -0.2867  0.7841
  494TMC3    C2 7394   0.441   3.546   0.147 -0.2380  0.0499  0.1787
  494TMC3    C3 7395   0.455   3.443   0.062 -0.6371  0.7323  0.5543
  494TMC3    C4 7396   0.234   3.617   0.052  0.0246 -0.1175  0.1428
  494TMC3    C5 7397   0.238   3.508  17.726  0.3383  0.1979  0.1800
  494TMC3    C6 7398   0.345   3.416  17.732 -0.4256  0.5639 -0.9984
  494TMC3     C 7399   0.322   3.722   0.260 -0.2186 -0.6060 -0.6713
  494TMC3     O 7400   0.371   3.686   0.367  0.1641 -0.1052  0.4459
  494TMC3     H 7401   0.520   3.565   0.219 -0.9379  0.1036  0.9345
  494TMC3    H1 7402   0.142   3.674   0.061  0.8238  1.0189  1.1285
  494TMC3    H2 7403   0.349   3.333  17.662  0.1028 -0.8506  0.7127
  494TMC3    C7 7404   0.189   3.523  17.594  0.0865  0.1112  0.2437
  494TMC3    C8 7405   0.551   3.342   0.098  0.2593  0.0647  0.4657
  494TMC3    O1 7406   0.184   3.422  17.522  0.3744 -0.2100  0.8285
  494TMC3    O2 7407   0.661   3.379   0.137 -0.6391  0.4130  0.0526
  495TMC3    C1 7408   3.569   0.211  14.635  0.1585 -0.2600  0.4590
  495TMC3    C2 7409   3.680   0.227  14.559 -0.4218  0.6160  0.1720
  495TMC3    C3 7410   3.782   0.307  14.605  0.5102  0.1749  0.0577
  495TMC3    C4 7411   3.569   0.264  14.759  0.6570  0.4992 -0.2120
  495TMC3    C5 7412   3.668   0.330  14.809  0.1308 -0.4949 -0.0254
  495TMC3    C6 7413   3.784   0.346  14.734  0.7437  0.2586 -0.2066
  495TMC3     C 7414   3.447   0.202  14.561  0.6732 -0.1086  0.1226
  495TMC3     O 7415   3.423   0.131  14.463  0.2978  0.3008 -0.4359
  495TMC3     H 7416   3.677   0.210  14.452  1.5789 -2.6040  0.6208
  495TMC3    H1 7417   3.475   0.255  14.811  0.6942  2.7539  0.2417
  495TMC3    H2 7418   3.860   0.402  14.786 -0.1531  1.6715 -0.4227
  495TMC3    C7 7419   3.670   0.353  14.949 -0.3611 -0.9831 -0.2757
  495TMC3    C8 7420   3.828   0.411  14.516 -0.2339 -0.8951  0.1990
  495TMC3    O1 7421   3.776   0.333  15.011  0.3467 -0.2248  0.1401
  495TMC3    O2 7422   3.822   0.529  14.540 -0.1754  0.4931  0.0024
  496MPD2     C 7423   1.074   0.925  14.650 -0.5114  0.4753 -0.1103
  496MPD2    C1 7424   1.097   0.837  14.756  0.0418 -0.1267  0.2995
  496MPD2    C2 7425   1.005   0.827  14.858  0.3968  0.5413 -0.4113
  496MPD2    C3 7426   0.877   0.887  14.843  1.0134 -0.5245  0.2569
  496MPD2    C4 7427   0.846   0.961  14.730  0.4534  0.1177 -0.1446
  496MPD2    C5 7428   0.949   0.984  14.641 -0.4666 -0.8885 -0.1087
  496MPD2     H 7429   1.039   0.773  14.945  2.3734 -0.5826 -1.8750
  496MPD2    H1 7430   0.757   1.022  14.720  0.9551  0.7320 -0.8855
  496MPD2    H2 7431   1.152   0.943  14.577 -0.1445 -0.3810  0.0643
  496MPD2    H3 7432   0.939   1.038  14.547  1.3062  0.0079  0.2210
  496MPD2     N 7433   0.777   0.881  14.939 -0.0112  0.4510  0.2379
  496MPD2    H5 7434   0.692   0.929  14.913  0.0999  0.7334  0.3927
  496MPD2    N1 7435   1.222   0.776  14.758 -0.1364 -0.1764  0.6854
  496MPD2    H7 7436   1.288   0.799  14.683 -1.0473  1.2788  0.3313
  497TMC3    C1 7437   0.667   0.826  15.144 -0.2691  0.1137 -0.3667
  497TMC3    C2 7438   0.542   0.831  15.092 -0.1345  0.1155 -0.3105
  497TMC3    C3 7439   0.435   0.853  15.177  0.4507 -0.4080 -0.1443
  497TMC3    C4 7440   0.689   0.840  15.276 -0.0593 -0.1836  0.5842
  497TMC3    C5 7441   0.584   0.875  15.362 -0.2577 -0.9205 -0.8045
  497TMC3    C6 7442   0.454   0.878  15.317 -0.3157 -0.0139 -0.7016
  497TMC3     C 7443   0.781   0.818  15.061 -0.4361  0.0208  0.1637
  497TMC3     O 7444   0.878   0.760  15.107 -0.3840 -0.5137  0.1289
  497TMC3     H 7445   0.530   0.814  14.986 -0.7909  0.3512 -0.2736
  497TMC3    H1 7446   0.788   0.841  15.319 -1.1882  1.5817  3.1513
  497TMC3    H2 7447   0.366   0.882  15.381 -0.8508  0.4141 -1.4558
  497TMC3    C7 7448   0.592   0.848  15.503  0.1022 -0.7673 -0.6303
  497TMC3    C8 7449   0.331   0.755  15.165 -0.0348 -0.1477  0.0700
  497TMC3    O1 7450   0.502   0.895  15.567  0.1591 -0.0136 -0.6121
  497TMC3    O2 7451   0.231   0.765  15.233 -0.5313  0.0172 -0.2457
  498MPD2     C 7452   2.077   1.291   9.966  0.2044  0.6636  0.6752
  498MPD2    C1 7453   2.034   1.421   9.963  0.2654 -0.4301 -0.0084
  498MPD2    C2 7454   1.904   1.441  10.011  1.1864  0.8400 -0.4172
  498MPD2    C3 7455   1.820   1.331  10.040 -0.3831 -0.3786 -0.2346
  498MPD2    C4 7456   1.868   1.205  10.022  0.0185  0.3476  0.3595
  498MPD2    C5 7457   2.001   1.185  10.007  0.9436 -0.0612  0.1854
  498MPD2     H 7458   1.865   1.541  10.024 -1.8405 -0.2395 -1.0848
  498MPD2    H1 7459   1.809   1.117  10.045  1.3940  0.2593  3.5280
  498MPD2    H2 7460   2.179   1.263   9.941  0.2466  0.4492  1.0911
  498MPD2    H3 7461   2.038   1.084   9.998  0.7985 -0.1146  0.1764
  498MPD2     N 7462   1.688   1.361  10.070  0.5453  0.1642  0.7641
  498MPD2    H5 7463   1.663   1.459  10.077 -0.8386 -0.0931 -0.3911
  498MPD2    N1 7464   2.122   1.528   9.929 -0.0614  0.1297 -0.2195
  498MPD2    H7 7465   2.083   1.622   9.935 -0.6345 -0.1759  0.7337
  499TMC3    C1 7466   2.336   1.626   9.850 -0.1662 -0.4449 -0.3268
  499TMC3    C2 7467   2.472   1.614   9.869  0.2657 -0.4489  0.0106
  499TMC3    C3 7468   2.560   1.706   9.815 -0.3831 -0.3744 -0.5769
  499TMC3    C4 7469   2.283   1.732   9.788 -0.2819 -0.1403  0.2436
  499TMC3    C5 7470   2.377   1.822   9.739  0.7189 -0.8340  0.2240
  499TMC3    C6 7471   2.513   1.805   9.738 -1.0527 -0.0884  0.5334
  499TMC3     C 7472   2.254   1.507   9.886 -0.1002 -0.4618 -0.5781
  499TMC3     O 7473   2.312   1.402   9.864 -0.2668  0.1443 -0.2326
  499TMC3     H 7474   2.506   1.528   9.925 -1.3469 -0.2513  1.3015
  499TMC3    H1 7475   2.176   1.747   9.776  0.0055  1.8125  0.1013
  499TMC3    H2 7476   2.582   1.876   9.693 -0.5111  0.0524  1.5827
  499TMC3    C7 7477   2.339   1.936   9.657 -0.6079  0.1462 -0.0497
  499TMC3    C8 7478   2.705   1.691   9.828  0.1237  0.2089 -0.2252
  499TMC3    O1 7479   2.416   2.032   9.657 -0.8810 -0.0852 -0.1654
  499TMC3    O2 7480   2.769   1.783   9.780 -0.6786  0.4240 -0.0090
  500MPD2     C 7481   3.418   3.478  10.514  0.3175 -0.1937  0.4933
  500MPD2    C1 7482   3.350   3.374  10.577  0.4611 -0.7351 -0.0448
  500MPD2    C2 7483   3.227   3.336  10.530  0.3561  0.8103 -0.3146
  500MPD2    C3 7484   3.162   3.407  10.427  0.0397 -0.0233  0.0497
  500MPD2    C4 7485   3.237   3.508  10.363  0.0018 -0.4745  0.5367
  500MPD2    C5 7486   3.358   3.539  10.410 -0.0243  0.6140 -0.4727
  500MPD2     H 7487   3.172   3.255  10.577  0.8245  0.2423 -0.7531
  500MPD2    H1 7488   3.206   3.577  10.286  1.2352 -0.1062  0.3763
  500MPD2    H2 7489   3.507   3.527  10.553 -0.1574  1.8547 -0.9819
  500MPD2    H3 7490   3.416   3.616  10.359  0.9253 -0.0019 -0.3176
  500MPD2     N 7491   3.030   3.378  10.382  0.0928  0.3595 -0.4757
  500MPD2    H5 7492   2.984   3.437  10.312  1.2437  1.1536 -0.5584
  500MPD2    N1 7493   3.402   3.300  10.685 -0.0646 -0.5010 -0.1627
  500MPD2    H7 7494   3.341   3.243  10.742 -1.8828  2.8523  1.2941
  501TMC3    C1 7495   3.555   3.227  10.853 -0.3430  0.4298 -0.3223
  501TMC3    C2 7496   3.482   3.116  10.877  0.4417 -0.3638  0.2064
  501TMC3    C3 7497   3.522   3.019  10.965  0.1110  0.2564  0.2118
  501TMC3    C4 7498   3.668   3.249  10.924 -0.1986 -0.4552  0.0398
  501TMC3    C5 7499   3.703   3.158  11.023 -0.0487  0.7769 -0.7874
  501TMC3    C6 7500   3.628   3.055  11.050 -0.3920 -0.2726 -0.0481
  501TMC3     C 7501   3.528   3.310  10.731 -0.5515  0.1104  0.2553
  501TMC3     O 7502   3.619   3.385  10.696  0.0890  0.2595  0.1632
  501TMC3     H 7503   3.405   3.082  10.809  1.8934 -0.9683 -1.1609
  501TMC3    H1 7504   3.713   3.347  10.923  1.3904 -1.1835  0.6109
  501TMC3    H2 7505   3.662   2.985  11.124  1.0446  0.3114 -0.1561
  501TMC3    C7 7506   3.848   3.132  11.040  0.1293  0.7973  0.2658
  501TMC3    C8 7507   3.554   2.905  10.880  0.2329 -0.1355  0.3367
  501TMC3    O1 7508   3.883   3.019  11.082 -0.6329 -0.0477 -0.5228
  501TMC3    O2 7509   3.465   2.868  10.802 -0.1706  0.1563 -0.5734
  502TMC3    C1 7510   3.347   1.245  14.776  0.4049 -0.1789  0.1391
  502TMC3    C2 7511   3.341   1.361  14.696  1.2451  0.0886  0.1216
  502TMC3    C3 7512   3.266   1.470  14.727  0.1293  0.1962 -0.3247
  502TMC3    C4 7513   3.228   1.233  14.853  0.2757  0.2016 -0.0641
  502TMC3    C5 7514   3.146   1.337  14.886 -0.2907 -0.2558  0.7586
  502TMC3    C6 7515   3.172   1.456  14.826  0.4263 -0.4399 -0.0230
  502TMC3     C 7516   3.458   1.263  14.865 -0.3133 -0.0391  0.0873
  502TMC3     O 7517   3.553   1.318  14.813  0.3046 -0.2541 -0.2257
  502TMC3     H 7518   3.412   1.363  14.614 -0.1226  1.7340 -1.0407
  502TMC3    H1 7519   3.217   1.140  14.908  1.6775  0.7274  1.1047
  502TMC3    H2 7520   3.112   1.542  14.854  2.1825  0.0853  2.0470
  502TMC3    C7 7521   3.088   1.327  15.020 -0.4916 -0.3010 -0.6764
  502TMC3    C8 7522   3.340   1.596  14.720 -0.0213 -0.3919 -0.7746
  502TMC3    O1 7523   3.133   1.234  15.077  0.2986 -0.3043  0.1365
  502TMC3    O2 7524   3.279   1.700  14.726 -0.3630 -0.0703  0.2760
  503MPD2     C 7525   0.846   2.304  16.748 -0.3355  0.2058  0.1948
  503MPD2    C1 7526   0.765   2.316  16.865  0.7326  0.6087  0.4266
  503MPD2    C2 7527   0.760   2.208  16.949 -0.5890 -0.0340  0.5423
  503MPD2    C3 7528   0.824   2.085  16.925 -0.0758 -0.0049 -0.2879
  503MPD2    C4 7529   0.904   2.076  16.811  0.0732  0.0791 -0.2556
  503MPD2    C5 7530   0.906   2.183  16.721  0.0309 -0.6659 -1.1734
  503MPD2     H 7531   0.688   2.219  17.029 -0.4995 -1.5336  0.8362
  503MPD2    H1 7532   0.956   1.988  16.774 -1.6822 -1.4750  0.9766
  503MPD2    H2 7533   0.860   2.376  16.668  0.2314  0.3091  0.3879
  503MPD2    H3 7534   0.963   2.171  16.630  1.7014 -1.0774 -0.0558
  503MPD2     N 7535   0.811   1.985  17.022  0.1220 -0.6778  0.3031
  503MPD2    H5 7536   0.760   2.009  17.107  2.3500  1.3102  1.0592
  503MPD2    N1 7537   0.690   2.435  16.905  0.3327  0.3915  0.1296
  503MPD2    H7 7538   0.646   2.434  16.997  0.9165  1.7699  0.4172
  504TMC3    C1 7539   0.896   1.820  17.151  0.1155 -0.0657 -0.2071
  504TMC3    C2 7540   0.855   1.903  17.246 -0.1176 -0.3498  0.3543
  504TMC3    C3 7541   0.935   1.911  17.357  0.0151  0.6801 -0.0818
  504TMC3    C4 7542   1.005   1.742  17.170 -0.0561  0.0171 -0.3329
  504TMC3    C5 7543   1.090   1.760  17.275 -0.1693  0.2846  0.8406
  504TMC3    C6 7544   1.062   1.859  17.361 -0.3569 -0.5394 -0.9689
  504TMC3     C 7545   0.874   1.860  17.013 -0.1045 -0.7334 -0.1020
  504TMC3     O 7546   0.954   1.821  16.928 -0.3033 -0.1098  0.1065
  504TMC3     H 7547   0.761   1.954  17.262 -0.4881 -0.4994 -1.3686
  504TMC3    H1 7548   1.026   1.677  17.086 -0.5974  0.7821 -1.0650
  504TMC3    H2 7549   1.132   1.885  17.439  1.2277 -0.6087 -2.3561
  504TMC3    C7 7550   1.230   1.725  17.247  0.0979 -0.3122  0.4521
  504TMC3    C8 7551   0.930   2.036  17.419 -0.2666 -0.0631  0.7107
  504TMC3    O1 7552   1.312   1.786  17.315 -0.4679  0.1059  0.3907
  504TMC3    O2 7553   0.875   2.122  17.357  0.2108 -0.0343 -0.7053
  505MPD2     C 7554   0.661   1.754  11.211  0.0777 -0.3206 -0.7339
  505MPD2    C1 7555   0.774   1.669  11.204 -1.1959 -0.0335  0.4105
  505MPD2    C2 7556   0.898   1.736  11.190  0.0989  0.0387 -0.0867
  505MPD2    C3 7557   0.913   1.874  11.169  0.1594  0.0123 -0.4661
  505MPD2    C4 7558   0.795   1.948  11.166  0.9514 -0.3247  0.2595
  505MPD2    C5 7559   0.676   1.891  11.197  0.0641  0.1379 -0.7370
  505MPD2     H 7560   0.988   1.678  11.174  2.1376  3.3584 -0.6268
  505MPD2    H1 7561   0.804   2.055  11.151  2.9900 -0.6289 -0.6640
  505MPD2    H2 7562   0.561   1.717  11.227 -0.5420  1.6463 -0.0756
  505MPD2    H3 7563   0.589   1.955  11.207  1.6812  2.2306 -0.0994
  505MPD2     N 7564   1.038   1.939  11.150 -0.5889  0.5118  0.8165
  505MPD2    H5 7565   1.041   2.035  11.119  0.4146  0.0344 -0.5474
  505MPD2    N1 7566   0.769   1.532  11.217  0.2240  0.2782  0.3691
  505MPD2    H7 7567   0.674   1.495  11.213  0.7311 -0.9369 -0.3094
  506TMC3    C1 7568   0.839   1.304  11.234  1.2487 -0.4561 -0.2448
  506TMC3    C2 7569   0.782   1.263  11.120 -0.5708  0.1504  0.0205
  506TMC3    C3 7570   0.840   1.161  11.052  0.5546 -0.4556  0.2254
  506TMC3    C4 7571   0.954   1.247  11.275 -0.5567 -0.0844  0.1573
  506TMC3    C5 7572   1.017   1.147  11.208  0.2717 -0.5045 -0.1559
  506TMC3    C6 7573   0.960   1.104  11.090  0.4587  0.3679  0.0310
  506TMC3     C 7574   0.870   1.441  11.224  0.3549 -0.4153  0.1721
  506TMC3     O 7575   0.985   1.462  11.244 -0.6384  0.2614  0.6644
  506TMC3     H 7576   0.694   1.308  11.075 -1.0174 -0.7886 -0.0338
  506TMC3    H1 7577   0.990   1.276  11.372  1.0308  1.1465 -0.8121
  506TMC3    H2 7578   1.011   1.032  11.027 -1.5923 -0.4740 -0.6449
  506TMC3    C7 7579   1.157   1.148  11.217 -0.1084 -0.0174 -0.1048
  506TMC3    C8 7580   0.800   1.150  10.916 -0.5638 -0.2064  0.4497
  506TMC3    O1 7581   1.220   1.065  11.153 -0.4936  0.5299  0.4344
  506TMC3    O2 7582   0.684   1.170  10.884  0.3072 -0.6593  0.3337
  507TMC3    C1 7583   2.158   1.624  14.312  0.0934  0.0191  0.1662
  507TMC3    C2 7584   2.051   1.586  14.233 -0.1518 -0.3257 -0.2775
  507TMC3    C3 7585   1.984   1.674  14.156 -0.6224  0.1912  0.5810
  507TMC3    C4 7586   2.201   1.745  14.301  0.2471  0.1833 -0.4511
  507TMC3    C5 7587   2.128   1.836  14.229  0.8366 -0.6102  0.2065
  507TMC3    C6 7588   2.017   1.801  14.160 -0.8750  0.0540  0.8157
  507TMC3     C 7589   2.136   1.583  14.453  0.4979  0.1274  0.0805
  507TMC3     O 7590   2.232   1.578  14.530 -0.0395 -0.1412 -0.5783
  507TMC3     H 7591   2.026   1.481  14.226  1.2591 -0.5567 -1.9226
  507TMC3    H1 7592   2.288   1.780  14.354  0.0351 -1.1920  0.7855
  507TMC3    H2 7593   1.961   1.872  14.100  1.1568  0.2196 -0.8897
  507TMC3    C7 7594   2.114   1.963  14.303 -0.0176 -0.2713  0.5838
  507TMC3    C8 7595   1.845   1.652  14.170 -0.3287 -0.3685 -0.0755
  507TMC3    O1 7596   2.207   1.989  14.384  0.6848  0.2555 -0.3850
  507TMC3    O2 7597   1.809   1.664  14.283 -0.0968 -0.3994 -0.3153
  508MPD2     C 7598   2.641   3.697  16.319  0.3246 -0.0170 -0.0793
  508MPD2    C1 7599   2.670   3.819  16.370 -0.0464  0.4663 -0.6376
  508MPD2    C2 7600   2.680   3.932  16.288  0.1068 -0.4013  0.9046
  508MPD2    C3 7601   2.642   3.921  16.157  0.2753  0.1811 -0.3982
  508MPD2    C4 7602   2.614   3.798  16.104 -0.1692  0.1335 -0.1060
  508MPD2    C5 7603   2.614   3.686  16.186  0.1087 -0.1043 -0.4073
  508MPD2     H 7604   2.708   4.032  16.319  1.1909 -0.5069  0.2248
  508MPD2    H1 7605   2.585   3.777  16.002  1.2887  2.2140 -0.9496
  508MPD2    H2 7606   2.644   3.608  16.381 -0.6022  0.1580  0.2101
  508MPD2    H3 7607   2.593   3.590  16.139  0.5858 -0.3367 -0.1336
  508MPD2     N 7608   2.626   4.039  16.078 -0.7691 -0.0437 -0.2071
  508MPD2    H5 7609   2.655   4.122  16.128  1.4749 -0.0872 -1.4116
  508MPD2    N1 7610   2.687   3.822  16.509 -0.0821  0.0622  0.5041
  508MPD2    H7 7611   2.724   3.909  16.546  1.0819 -1.1213  2.0617
  509TMC3    C1 7612   2.616   4.327  15.711 -0.3348  0.1152  0.6750
  509TMC3    C2 7613   2.721   4.403  15.764  0.7405  0.7202  0.4285
  509TMC3    C3 7614   2.784   4.358  15.879  0.3833 -0.1108 -0.4236
  509TMC3    C4 7615   2.575   4.209  15.773 -0.1283  0.4669  0.6425
  509TMC3    C5 7616   2.645   4.170  15.886  0.3079 -0.1128  0.0413
  509TMC3    C6 7617   2.748   4.246  15.946  0.3485 -0.0199  0.0967
  509TMC3     C 7618   2.544   4.390  15.607  0.3848  0.2048  0.3527
  509TMC3     O 7619   2.474   4.315  15.540 -0.0189  0.4129  0.7244
  509TMC3     H 7620   2.779   4.479  15.713  0.5174 -0.9499 -2.3560
  509TMC3    H1 7621   2.503   4.142  15.726  0.3384 -0.3699  1.1160
  509TMC3    H2 7622   2.794   4.222  16.041 -0.6093 -1.4345  0.2119
  509TMC3    C7 7623   2.612   4.040  15.939  0.2562 -0.2226 -0.8079
  509TMC3    C8 7624   2.869   4.445  15.950  0.1001 -0.2530  0.3989
  509TMC3    O1 7625   2.581   3.958  15.848  0.5229 -0.0757  0.2120
  509TMC3    O2 7626   2.943   4.393  16.032 -0.0837 -0.0109 -0.0890
  510MPD2     C 7627   0.197   1.064  14.650 -0.0098  0.1150 -0.7950
  510MPD2    C1 7628   0.223   0.928  14.639 -0.3304  0.4982  0.2937
  510MPD2    C2 7629   0.338   0.886  14.566 -0.3620  0.6352 -0.6173
  510MPD2    C3 7630   0.426   0.984  14.514  0.4474 -0.7662  0.1738
  510MPD2    C4 7631   0.394   1.120  14.515  0.4630 -0.8535  0.3126
  510MPD2    C5 7632   0.280   1.158  14.584 -0.0252  0.3637  0.3696
  510MPD2     H 7633   0.360   0.781  14.549 -0.6267  0.6271 -0.9241
  510MPD2    H1 7634   0.454   1.198  14.468  2.5157 -2.7513 -0.2139
  510MPD2    H2 7635   0.105   1.098  14.698  0.1004  0.3527 -0.7539
  510MPD2    H3 7636   0.250   1.262  14.597 -2.2129 -0.5046  2.2707
  510MPD2     N 7637   0.542   0.931  14.444  0.3966  0.2413 -0.9206
  510MPD2    H5 7638   0.560   0.832  14.440  1.3978  0.4307 -1.1266
  510MPD2    N1 7639   0.133   0.844  14.714 -0.0157  0.5396 -0.7846
  510MPD2    H7 7640   0.050   0.890  14.751 -0.3747 -0.5404 -0.2239
  511TMC3    C1 7641   0.011   0.644  14.757  0.5005 -0.7777 -0.2121
  511TMC3    C2 7642   4.719   0.686  14.887 -0.4259 -0.3510 -0.0033
  511TMC3    C3 7643   4.636   0.605  14.965  0.2904 -0.8934  0.0382
  511TMC3    C4 7644   4.710   0.528  14.698  0.5694 -0.5262  0.4431
  511TMC3    C5 7645   4.627   0.455  14.784  1.1877 -0.3662  0.2275
  511TMC3    C6 7646   4.586   0.490  14.912 -0.2962 -0.9437 -0.1331
  511TMC3     C 7647   0.123   0.706  14.691  0.2666 -0.1771 -0.4509
  511TMC3     O 7648   0.195   0.634  14.625 -0.1063 -0.7751 -0.4097
  511TMC3     H 7649   0.002   0.779  14.938 -1.9259  0.3252 -0.5764
  511TMC3    H1 7650   0.020   0.487  14.611  1.5895  1.9887 -0.1685
  511TMC3    H2 7651   4.509   0.425  14.952 -1.8258  0.4567 -0.7642
  511TMC3    C7 7652   4.596   0.321  14.734  0.0007 -0.2361  0.5060
  511TMC3    C8 7653   4.597   0.649  15.103 -0.4074  0.7915 -0.1808
  511TMC3    O1 7654   4.634   0.282  14.624  0.0456  0.2421 -0.3109
  511TMC3    O2 7655   4.635   0.758  15.135  0.0801 -0.6004  0.5608
  512TMC3    C1 7656   4.200   0.424  13.549  0.1055  0.3400 -0.3317
  512TMC3    C2 7657   4.277   0.481  13.650 -0.0059 -0.2241 -0.5532
  512TMC3    C3 7658   4.339   0.392  13.733 -0.2198 -0.0899 -0.4200
  512TMC3    C4 7659   4.213   0.292  13.507  0.1598  0.1513 -0.4790
  512TMC3    C5 7660   4.274   0.215  13.603  0.6254  0.1901  0.0901
  512TMC3    C6 7661   4.333   0.257  13.716  0.1702 -0.4653 -0.0736
  512TMC3     C 7662   4.127   0.518  13.470 -0.2082 -0.1161 -0.1993
  512TMC3     O 7663   4.070   0.608  13.534  0.1300  0.1172 -0.6519
  512TMC3     H 7664   4.267   0.587  13.671  2.9604 -0.0617  0.0584
  512TMC3    H1 7665   4.140   0.252  13.437  0.6545  1.3280 -1.6707
  512TMC3    H2 7666   4.380   0.193  13.790  2.1431 -0.1313 -1.0274
  512TMC3    C7 7667   4.271   0.071  13.578 -0.3984 -0.1808  0.4352
  512TMC3    C8 7668   4.450   0.441  13.813  0.1388  0.8034  0.0391
  512TMC3    O1 7669   4.286   0.000  13.679 -0.0328 -0.1911 -0.1102
  512TMC3    O2 7670   4.500   0.375  13.898 -0.3785 -0.3205  0.5287
  513MPD2     C 7671   1.295   0.279  13.965 -0.1369 -0.2871 -0.4526
  513MPD2    C1 7672   1.275   0.285  13.832  0.0949  0.2399 -0.1358
  513MPD2    C2 7673   1.370   0.354  13.755 -0.5043  0.0564 -0.4277
  513MPD2    C3 7674   1.482   0.405  13.814  0.2633 -0.2745 -0.3984
  513MPD2    C4 7675   1.500   0.393  13.948 -0.0292 -0.5963  0.3499
  513MPD2    C5 7676   1.404   0.328  14.025  0.2506  0.1143  0.1232
  513MPD2     H 7677   1.369   0.354  13.646  0.1132 -0.7924 -0.4253
  513MPD2    H1 7678   1.591   0.425  13.997 -0.5078  1.5248 -0.1393
  513MPD2    H2 7679   1.217   0.226  14.019  0.5525 -0.9591 -0.1170
  513MPD2    H3 7680   1.406   0.342  14.132  0.6127 -1.3531  0.3050
  513MPD2     N 7681   1.572   0.471  13.725  0.0380 -0.2806 -0.0763
  513MPD2    H5 7682   1.543   0.462  13.628 -0.1862 -0.6169  0.0204
  513MPD2    N1 7683   1.163   0.216  13.783 -0.4262  0.5938 -0.6054
  513MPD2    H7 7684   1.129   0.138  13.837 -0.9994  1.1243 -0.2123
  514TMC3    C1 7685   1.071   0.122  13.587 -0.2643 -0.3257  0.7319
  514TMC3    C2 7686   0.966   0.149  13.498  0.4643  0.2742  0.2798
  514TMC3    C3 7687   0.978   0.094  13.378  0.1431  0.2731 -0.7372
  514TMC3    C4 7688   1.166   0.026  13.572  0.2381 -0.3138  0.3663
  514TMC3    C5 7689   1.178   4.725  13.440  0.5814  0.5191  1.2709
  514TMC3    C6 7690   1.077   0.012  13.351 -0.4276 -0.3374  0.0770
  514TMC3     C 7691   1.120   0.244  13.652  0.8172  0.3873 -0.6848
  514TMC3     O 7692   1.126   0.351  13.592 -0.3053  0.9388  0.0797
  514TMC3     H 7693   0.890   0.221  13.527  0.3496  0.5475 -0.7143
  514TMC3    H1 7694   1.250   0.018  13.640  1.0114 -1.2727 -0.7040
  514TMC3    H2 7695   1.073   4.704  13.254 -0.9058 -1.3948  0.6197
  514TMC3    C7 7696   1.310   0.020  13.384 -0.4199 -0.6327  0.2551
  514TMC3    C8 7697   0.894   0.158  13.281 -0.9976 -0.5473 -0.2940
  514TMC3    O1 7698   1.408   0.032  13.459 -0.1945  0.5839  0.3533
  514TMC3    O2 7699   0.790   0.207  13.324  0.0260  0.3917  0.1033
  515MPD2     C 7700   4.207   1.718  14.850 -0.8205  0.3976  0.6440
  515MPD2    C1 7701   4.174   1.814  14.757 -0.5675  0.4814  0.2502
  515MPD2    C2 7702   4.198   1.949  14.781  0.3164 -0.4593  0.0987
  515MPD2    C3 7703   4.243   1.990  14.910  0.2820  0.5591  0.1032
  515MPD2    C4 7704   4.258   1.891  15.005  0.3253 -0.4154 -0.5500
  515MPD2    C5 7705   4.243   1.760  14.976  0.1854 -0.4232 -0.1417
  515MPD2     H 7706   4.181   2.024  14.705  0.1289  1.3309  1.9034
  515MPD2    H1 7707   4.288   1.907  15.108 -0.9601  1.8833 -0.5332
  515MPD2    H2 7708   4.199   1.612  14.831  1.3260  0.3858 -0.1722
  515MPD2    H3 7709   4.264   1.692  15.058  1.8832  0.1518 -0.0820
  515MPD2     N 7710   4.274   2.122  14.949  0.3252  0.3400  0.1968
  515MPD2    H5 7711   4.314   2.134  15.042  1.1542  1.3771 -0.2890
  515MPD2    N1 7712   4.133   1.779  14.622  0.4755  0.2828 -0.2529
  515MPD2    H7 7713   4.109   1.863  14.569  0.7941  0.2510 -0.4499
  516TMC3    C1 7714   4.047   1.631  14.450  0.7091 -0.8730 -0.8880
  516TMC3    C2 7715   3.931   1.704  14.446 -0.5988  0.2290 -0.3090
  516TMC3    C3 7716   3.820   1.649  14.395 -0.4060  0.5690  0.0952
  516TMC3    C4 7717   4.051   1.508  14.397 -0.3476  0.0530  0.1050
  516TMC3    C5 7718   3.937   1.449  14.350  0.5078 -0.5665 -0.3641
  516TMC3    C6 7719   3.823   1.521  14.344 -0.1422  0.0700 -0.0710
  516TMC3     C 7720   4.144   1.656  14.558  0.1335  0.1794 -0.1677
  516TMC3     O 7721   4.211   1.561  14.590  0.2592  0.1877  0.1814
  516TMC3     H 7722   3.938   1.801  14.494  3.2591 -0.2351  0.0988
  516TMC3    H1 7723   4.148   1.462  14.410 -0.0401  0.8470  0.6575
  516TMC3    H2 7724   3.732   1.475  14.306  0.0761 -0.9957  0.6789
  516TMC3    C7 7725   3.928   1.320  14.419  0.1232  0.4276 -0.0397
  516TMC3    C8 7726   3.706   1.732  14.375 -0.0357  1.0077  0.0540
  516TMC3    O1 7727   4.025   1.282  14.486 -0.3475  0.3542  0.0436
  516TMC3    O2 7728   3.611   1.677  14.320  0.2563  0.4749 -0.1064
  517MPD2     C 7729   3.339   3.890  17.427  0.1887 -0.0136 -0.1638
  517MPD2    C1 7730   3.472   3.847  17.398  0.5171 -0.7564 -0.6034
  517MPD2    C2 7731   3.577   3.898  17.470  0.8827 -0.1593  0.0979
  517MPD2    C3 7732   3.561   4.001  17.563 -0.7370  0.1200  0.6040
  517MPD2    C4 7733   3.431   4.052  17.574 -0.0393  0.2899 -0.1399
  517MPD2    C5 7734   3.323   4.000  17.507 -0.1563  0.4982 -0.7596
  517MPD2     H 7735   3.676   3.858  17.450  2.1545  2.0147  2.1265
  517MPD2    H1 7736   3.402   4.128  17.646 -0.7297  1.3198 -1.4846
  517MPD2    H2 7737   3.248   3.846  17.388  0.1812  0.3259 -0.5298
  517MPD2    H3 7738   3.222   4.028  17.535  0.3482  2.3090 -0.7481
  517MPD2     N 7739   3.661   4.046  17.644 -0.2654  0.2672 -0.6271
  517MPD2    H5 7740   3.655   4.129  17.702  0.1173 -0.1409 -0.0089
  517MPD2    N1 7741   3.504   3.743  17.307  0.1572 -0.4684 -0.8261
  517MPD2    H7 7742   3.603   3.719  17.300 -0.1475 -1.5751 -1.4722
  518TMC3    C1 7743   3.463   3.570  17.157  0.6491  0.1878  0.0724
  518TMC3    C2 7744   3.393   3.453  17.139  0.3530 -0.0761 -0.6447
  518TMC3    C3 7745   3.451   3.358  17.056  0.0851  0.3021  0.0684
  518TMC3    C4 7746   3.577   3.609  17.088 -0.2697  0.2514  0.4143
  518TMC3    C5 7747   3.634   3.510  17.014  0.2979  0.1542  0.0924
  518TMC3    C6 7748   3.576   3.389  16.999  0.4820 -0.6739 -0.0833
  518TMC3     C 7749   3.404   3.667  17.240  0.5578 -0.3783  0.0068
  518TMC3     O 7750   3.281   3.672  17.240 -0.0546 -0.1914 -0.0692
  518TMC3     H 7751   3.299   3.451  17.192  0.5398 -0.6225 -0.3296
  518TMC3    H1 7752   3.625   3.706  17.097  2.5329 -1.1014  0.1318
  518TMC3    H2 7753   3.605   3.320  16.921  1.1723 -0.3153 -0.1431
  518TMC3    C7 7754   3.773   3.516  16.997  0.5306 -0.0306  0.3969
  518TMC3    C8 7755   3.396   3.227  17.051 -0.3920  0.0361  0.1887
  518TMC3    O1 7756   3.818   3.629  16.982 -0.3817  0.2720 -0.4108
  518TMC3    O2 7757   3.459   3.147  16.985 -0.2188 -0.2986  0.1005
  519MPD2     C 7758   0.750   1.960  14.306 -0.0917 -0.4134 -0.2269
  519MPD2    C1 7759   0.755   1.940  14.169 -0.1336 -0.1922 -0.9565
  519MPD2    C2 7760   0.859   1.852  14.130  0.4241  0.2510 -0.5340
  519MPD2    C3 7761   0.932   1.777  14.216  0.5623 -1.1779 -0.0391
  519MPD2    C4 7762   0.911   1.786  14.352 -0.0731 -0.4451  0.9580
  519MPD2    C5 7763   0.817   1.882  14.395 -0.9116 -0.6052 -0.1929
  519MPD2     H 7764   0.875   1.842  14.023  0.6013 -1.8983 -0.3081
  519MPD2    H1 7765   0.960   1.718  14.421 -2.3998 -1.2292  1.8724
  519MPD2    H2 7766   0.679   2.035  14.339 -0.2266 -1.0596  0.9322
  519MPD2    H3 7767   0.799   1.912  14.498 -0.9699  0.7632 -0.6069
  519MPD2     N 7768   1.021   1.683  14.150  0.5377  0.5875 -0.1288
  519MPD2    H5 7769   1.026   1.683  14.049  0.5638 -0.6929 -0.1269
  519MPD2    N1 7770   0.666   2.012  14.083 -1.1691 -0.0067  0.1104
  519MPD2    H7 7771   0.585   2.059  14.122 -2.5124 -1.1190 -1.3571
  520TMC3    C1 7772   1.193   1.525  14.136  0.2963 -0.2259  0.0830
  520TMC3    C2 7773   1.167   1.498  14.003 -0.2576 -0.2803  0.4396
  520TMC3    C3 7774   1.260   1.429  13.927  0.1732 -0.3846  0.2226
  520TMC3    C4 7775   1.296   1.463  14.200  0.1667  0.1309  0.6708
  520TMC3    C5 7776   1.390   1.393  14.124  0.1162 -1.0268 -0.4873
  520TMC3    C6 7777   1.372   1.381  13.989 -0.0921  0.0343 -0.2282
  520TMC3     C 7778   1.094   1.586  14.215 -0.2614 -0.1976 -1.0803
  520TMC3     O 7779   1.106   1.555  14.336 -0.7189  0.0464  0.0777
  520TMC3     H 7780   1.083   1.543  13.952 -0.6655 -0.0034  1.3571
  520TMC3    H1 7781   1.319   1.484  14.304  2.1018  0.1835  0.2342
  520TMC3    H2 7782   1.455   1.348  13.928  1.6990  2.6558  0.8112
  520TMC3    C7 7783   1.509   1.354  14.194 -1.1562  0.3287 -0.2277
  520TMC3    C8 7784   1.270   1.441  13.784  0.0290 -0.4636  0.2179
  520TMC3    O1 7785   1.508   1.369  14.319  0.1801  0.5566 -0.4378
  520TMC3    O2 7786   1.379   1.426  13.730  0.6167 -0.2418 -0.5565
  521MPD2     C 7787   1.074   4.198  17.319  0.4350  0.2734  0.2044
  521MPD2    C1 7788   1.143   4.246  17.207 -0.2103  0.3354  0.4704
  521MPD2    C2 7789   1.282   4.232  17.192  0.1569 -0.7930  0.1024
  521MPD2    C3 7790   1.356   4.174  17.292  0.3899 -0.3947  0.1213
  521MPD2    C4 7791   1.287   4.142  17.408  0.0905 -0.0172  0.5391
  521MPD2    C5 7792   1.150   4.150  17.421  0.2784 -0.1692  0.2111
  521MPD2     H 7793   1.338   4.246  17.100 -0.2279 -1.5260 -0.2431
  521MPD2    H1 7794   1.340   4.105  17.495 -0.4883 -0.6689  0.6096
  521MPD2    H2 7795   0.966   4.189  17.321  0.4545  0.3138  1.4538
  521MPD2    H3 7796   1.102   4.118  17.512  0.2949 -0.3984  0.1391
  521MPD2     N 7797   1.494   4.160  17.279  0.7467  0.4930 -0.2406
  521MPD2    H5 7798   1.535   4.197  17.194 -3.1097  1.1485 -1.8097
  521MPD2    N1 7799   1.062   4.312  17.117  0.3947 -0.6020 -0.2533
  521MPD2    H7 7800   0.963   4.306  17.139 -0.1593 -0.5436 -2.6748
  522TMC3    C1 7801   1.715   4.126  17.340 -0.6112  0.1322  0.7562
  522TMC3    C2 7802   1.806   4.040  17.396 -0.0290  0.0843 -0.3729
  522TMC3    C3 7803   1.938   4.051  17.376  0.4258  0.5650  1.1900
  522TMC3    C4 7804   1.755   4.225  17.255  0.3611  0.1552 -0.2626
  522TMC3    C5 7805   1.896   4.233  17.229  1.1415 -0.1624  0.4766
  522TMC3    C6 7806   1.983   4.148  17.297 -0.0319 -0.2491  0.5281
  522TMC3     C 7807   1.579   4.100  17.373 -0.0890 -0.1073 -0.0012
  522TMC3     O 7808   1.547   4.017  17.462  0.4896  0.4416 -0.5794
  522TMC3     H 7809   1.771   3.963  17.463  1.3534 -0.9198 -0.8057
  522TMC3    H1 7810   1.693   4.303  17.212 -0.6543  0.3347  1.4879
  522TMC3    H2 7811   2.089   4.156  17.274 -0.0216 -0.8351  0.3633
  522TMC3    C7 7812   1.956   4.347  17.160  0.2933  0.2113 -0.7447
  522TMC3    C8 7813   2.020   3.951  17.434  0.1490 -0.6474  0.3842
  522TMC3    O1 7814   2.056   4.403  17.201 -0.1126 -0.8715  0.0734
  522TMC3    O2 7815   1.983   3.898  17.537 -0.1209  0.2409  0.1834
  523MPD2     C 7816   4.463   0.139  10.366  0.2705  0.3196  0.2326
  523MPD2    C1 7817   4.359   0.073  10.320  0.5070  0.5541 -0.4733
  523MPD2    C2 7818   4.259   0.138  10.243  0.4107 -0.1111  0.1788
  523MPD2    C3 7819   4.262   0.274  10.221  0.3357 -0.1395  0.0931
  523MPD2    C4 7820   4.379   0.339  10.269 -0.3783  0.8215 -0.7624
  523MPD2    C5 7821   4.477   0.269  10.330  0.6065 -0.4264  0.1290
  523MPD2     H 7822   4.178   0.079  10.201  0.1744 -0.4781  1.1555
  523MPD2    H1 7823   4.386   0.447  10.265  0.4703  0.7788 -0.5452
  523MPD2    H2 7824   4.536   0.094  10.432  1.6900  1.3857 -0.5913
  523MPD2    H3 7825   4.564   0.322  10.368  0.2629  1.1128 -1.2351
  523MPD2     N 7826   4.171   0.346  10.149  0.2930  0.1127  0.6851
  523MPD2    H5 7827   4.195   0.443  10.130  0.5806 -0.5052 -2.1683
  523MPD2    N1 7828   4.350   4.677  10.357  0.5394 -0.0769 -0.1327
  523MPD2    H7 7829   4.435   4.633  10.390  1.5200  0.3289 -2.1887
  524TMC3    C1 7830   3.981   0.387  10.007 -0.2628 -0.0601 -0.6038
  524TMC3    C2 7831   4.052   0.489   9.943 -0.1252  0.4285  0.1887
  524TMC3    C3 7832   3.983   0.582   9.866 -0.5749 -0.0179  0.2744
  524TMC3    C4 7833   3.847   0.376   9.989  0.1207  0.2357 -0.0925
  524TMC3    C5 7834   3.786   0.458   9.907  0.1980 -0.0782  0.4446
  524TMC3    C6 7835   3.847   0.568   9.852 -0.2332 -0.4894 -0.4367
  524TMC3     C 7836   4.046   0.303  10.105  0.1240 -0.4927 -0.0872
  524TMC3     O 7837   3.980   0.201  10.134  0.4578  0.5712 -0.0452
  524TMC3     H 7838   4.157   0.463   9.928 -0.0309 -0.4707  2.3518
  524TMC3    H1 7839   3.792   0.298  10.040 -3.2944  2.2576 -0.7217
  524TMC3    H2 7840   3.798   0.634   9.782  1.1406  0.7719 -0.2065
  524TMC3    C7 7841   3.641   0.456   9.894 -0.0869 -0.3084 -0.2155
  524TMC3    C8 7842   4.067   0.664   9.788  0.1389 -0.5072  0.2432
  524TMC3    O1 7843   3.580   0.351   9.922 -0.2312 -0.0375  0.3912
  524TMC3    O2 7844   4.188   0.639   9.777  1.0406 -0.3293  0.5663
  525MPD2     C 7845   2.427   1.388  15.071 -0.2118  0.1163 -0.1307
  525MPD2    C1 7846   2.552   1.376  15.009 -0.2422 -0.0691  0.2034
  525MPD2    C2 7847   2.579   1.438  14.892 -0.0621 -0.3269  0.2261
  525MPD2    C3 7848   2.488   1.528  14.834 -0.4036  0.3237 -0.3673
  525MPD2    C4 7849   2.364   1.537  14.893  0.1163  0.2890  0.5185
  525MPD2    C5 7850   2.333   1.457  15.003 -0.0388  0.1704 -0.2730
  525MPD2     H 7851   2.674   1.427  14.842  0.1956 -0.2158  0.6878
  525MPD2    H1 7852   2.286   1.594  14.845 -0.5566 -1.7027 -0.7406
  525MPD2    H2 7853   2.394   1.341  15.163  1.3078  0.2553  0.4916
  525MPD2    H3 7854   2.231   1.466  15.037  0.9440 -2.6940  3.3434
  525MPD2     N 7855   2.508   1.598  14.716  0.4257  0.5855 -0.1413
  525MPD2    H5 7856   2.432   1.661  14.693  0.2662  0.7523  0.8490
  525MPD2    N1 7857   2.655   1.303  15.072 -0.5152 -0.2992 -0.3898
  525MPD2    H7 7858   2.754   1.313  15.051 -0.3164 -3.0975 -0.8347
  526TMC3    C1 7859   2.758   1.160  15.220 -0.0612 -0.7302 -0.6163
  526TMC3    C2 7860   2.735   1.113  15.344 -0.3045 -0.5994 -0.6771
  526TMC3    C3 7861   2.762   0.981  15.370 -0.1271 -0.4323  0.0691
  526TMC3    C4 7862   2.814   1.079  15.123  0.4701 -0.4970 -0.2362
  526TMC3    C5 7863   2.866   0.961  15.161  0.6937  0.2463  0.6066
  526TMC3    C6 7864   2.836   0.913  15.284  0.1525 -0.5398 -0.1760
  526TMC3     C 7865   2.637   1.215  15.172  0.2580  0.3378  0.0555
  526TMC3     O 7866   2.537   1.188  15.228  0.3144 -1.0444  0.1837
  526TMC3     H 7867   2.690   1.179  15.417  0.1605 -0.9393 -0.0858
  526TMC3    H1 7868   2.828   1.115  15.022  1.7046 -0.7194 -0.1460
  526TMC3    H2 7869   2.854   0.809  15.308 -2.7519 -1.2529 -1.0523
  526TMC3    C7 7870   2.962   0.882  15.088 -0.3267 -0.2245 -0.7785
  526TMC3    C8 7871   2.656   0.903  15.430 -0.5620 -0.8520  0.0921
  526TMC3    O1 7872   3.017   0.794  15.155  0.0195 -0.1982  0.3227
  526TMC3    O2 7873   2.672   0.790  15.462  0.2652  0.1484 -0.7216
  527MPD2     C 7874   1.829   4.675   0.822 -0.3399 -0.0216  0.8087
  527MPD2    C1 7875   1.691   4.685   0.836 -0.0815 -0.4094  0.3909
  527MPD2    C2 7876   1.602   4.610   0.756 -0.0134 -0.0041 -0.2932
  527MPD2    C3 7877   1.659   4.531   0.656 -0.5672 -0.0170  0.3639
  527MPD2    C4 7878   1.794   4.525   0.646  0.5869  0.6244 -0.0802
  527MPD2    C5 7879   1.878   4.591   0.727 -0.0673  0.0144  0.0522
  527MPD2     H 7880   1.496   4.601   0.776  0.3406  3.0977  2.9989
  527MPD2    H1 7881   1.845   4.474   0.565 -2.4314 -0.9836 -0.9641
  527MPD2    H2 7882   1.901   4.730   0.881  0.3329 -0.6495  0.5691
  527MPD2    H3 7883   1.986   4.588   0.715 -0.0486  1.3521 -0.0709
  527MPD2     N 7884   1.576   4.448   0.571 -0.2998  0.3635  0.2773
  527MPD2    H5 7885   1.475   4.449   0.582 -0.0738 -2.2272  2.4142
  527MPD2    N1 7886   1.641   0.039   0.932 -0.1171  0.5216  0.2010
  527MPD2    H7 7887   1.544   0.015   0.954  0.1495  0.0716  0.8966
  528TMC3    C1 7888   1.611   0.178   1.115 -0.2272  0.3563  0.2733
  528TMC3    C2 7889   1.674   0.235   1.220  0.1270  0.4171 -0.8507
  528TMC3    C3 7890   1.592   0.297   1.315 -0.5173  0.5420 -0.1515
  528TMC3    C4 7891   1.473   0.184   1.102 -0.3798 -0.2057  0.2401
  528TMC3    C5 7892   1.403   0.224   1.208 -0.2498 -0.5714  0.8747
  528TMC3    C6 7893   1.459   0.282   1.312 -0.0621  0.2194  0.2564
  528TMC3     C 7894   1.704   0.118   1.014  0.1371  0.0267 -0.0208
  528TMC3     O 7895   1.823   0.145   1.017 -0.0415 -0.4997 -0.0337
  528TMC3     H 7896   1.782   0.244   1.230  0.1543 -0.8254 -0.0824
  528TMC3    H1 7897   1.423   0.138   1.017 -0.1979 -0.4199  0.2473
  528TMC3    H2 7898   1.392   0.312   1.392 -0.3905  0.4181 -0.0890
  528TMC3    C7 7899   1.261   0.193   1.214  0.5314  0.7649 -0.1180
  528TMC3    C8 7900   1.657   0.378   1.418 -0.4188 -0.0601  0.4880
  528TMC3    O1 7901   1.197   0.220   1.316  0.3481 -0.3765  0.1150
  528TMC3    O2 7902   1.776   0.378   1.419  0.2873  0.2383  0.1734
  529MPD2     C 7903   2.526   2.678   0.653  1.0039  0.2120  0.1210
  529MPD2    C1 7904   2.558   2.606   0.536 -0.4094 -0.3577  0.1208
  529MPD2    C2 7905   2.488   2.632   0.418 -0.6218 -0.3573 -0.6165
  529MPD2    C3 7906   2.385   2.721   0.413  0.3326  0.3339 -0.7228
  529MPD2    C4 7907   2.363   2.799   0.528 -0.4877 -0.0720 -0.2757
  529MPD2    C5 7908   2.436   2.780   0.640  0.2778  0.1534 -0.0791
  529MPD2     H 7909   2.507   2.587   0.322 -0.5339 -2.4458  0.3618
  529MPD2    H1 7910   2.283   2.873   0.531 -0.6068 -0.2361  0.5983
  529MPD2    H2 7911   2.577   2.662   0.747 -0.0821 -0.2108  0.6394
  529MPD2    H3 7912   2.430   2.832   0.735  1.8353 -1.2769  0.7946
  529MPD2     N 7913   2.329   2.759   0.288 -0.2088  0.2868  0.3677
  529MPD2    H5 7914   2.359   2.718   0.200 -1.4102 -0.2482  0.2042
  529MPD2    N1 7915   2.667   2.520   0.543 -0.1286  0.2512  0.1557
  529MPD2    H7 7916   2.701   2.491   0.634  0.0928  0.9071  0.2783
  530TMC3    C1 7917   2.824   2.367   0.494  0.3110  0.2253 -0.2523
  530TMC3    C2 7918   2.903   2.422   0.588  0.2111 -0.2997 -0.0346
  530TMC3    C3 7919   2.987   2.336   0.660 -0.7841  0.4693 -0.0012
  530TMC3    C4 7920   2.803   2.236   0.467 -0.1076  0.0720 -0.1979
  530TMC3    C5 7921   2.868   2.153   0.547 -0.0217 -0.5765  1.0572
  530TMC3    C6 7922   2.963   2.202   0.639  0.0172  0.1082 -0.9425
  530TMC3     C 7923   2.727   2.456   0.439 -0.3768 -0.2172 -0.2767
  530TMC3     O 7924   2.697   2.453   0.319 -0.1018  0.5738  0.1102
  530TMC3     H 7925   2.923   2.528   0.582 -0.4866 -0.0918  1.2882
  530TMC3    H1 7926   2.730   2.204   0.395 -1.7438  0.6388  1.2090
  530TMC3    H2 7927   3.015   2.132   0.704  0.6234  0.3553 -1.1560
  530TMC3    C7 7928   2.866   2.013   0.505 -0.1815 -0.9295  0.0214
  530TMC3    C8 7929   3.085   2.392   0.749 -0.6992 -0.5150 -0.2230
  530TMC3    O1 7930   2.838   1.995   0.387 -0.1164 -0.3357  0.4626
  530TMC3    O2 7931   3.093   2.512   0.753  0.5321 -0.0006  0.0866
  531MPD2     C 7932   1.565   0.278  13.027  0.0850  0.3318 -0.4654
  531MPD2    C1 7933   1.566   0.294  13.165 -0.4551  0.1823 -0.5050
  531MPD2    C2 7934   1.493   0.201  13.239  0.1809 -0.1396 -0.5050
  531MPD2    C3 7935   1.410   0.111  13.176 -1.3750 -0.0467  0.1478
  531MPD2    C4 7936   1.412   0.096  13.039  0.8653 -0.1630  0.5546
  531MPD2    C5 7937   1.493   0.178  12.963 -0.1248 -0.7433 -0.7331
  531MPD2     H 7938   1.506   0.216  13.345 -1.2599 -0.2051 -0.3171
  531MPD2    H1 7939   1.359   0.018  12.986 -0.6190  1.2162  0.0196
  531MPD2    H2 7940   1.625   0.341  12.961 -1.2449 -0.2315 -2.2011
  531MPD2    H3 7941   1.505   0.170  12.856  2.4523  3.2499 -0.7627
  531MPD2     N 7942   1.308   0.044  13.245 -0.3089  0.1413  0.0623
  531MPD2    H5 7943   1.233   4.733  13.200 -1.2135  0.9495  0.6482
  531MPD2    N1 7944   1.643   0.395  13.226 -0.3065  0.3480 -0.2663
  531MPD2    H7 7945   1.718   0.435  13.170  1.4687  0.0814  1.9290
  532TMC3    C1 7946   1.722   0.531  13.394  0.4819 -0.2789 -0.0974
  532TMC3    C2 7947   1.693   0.582  13.521  0.6260  0.2681  1.1482
  532TMC3    C3 7948   1.766   0.551  13.630 -0.6819 -0.3701  0.2372
  532TMC3    C4 7949   1.846   0.466  13.377 -0.5846 -0.1078 -0.2196
  532TMC3    C5 7950   1.917   0.447  13.487 -0.2578 -0.2308  0.6753
  532TMC3    C6 7951   1.887   0.492  13.614  0.1453 -0.4215 -0.2148
  532TMC3     C 7952   1.621   0.445  13.348 -0.6193 -0.1491 -0.1512
  532TMC3     O 7953   1.526   0.421  13.430  0.1736  0.0278  0.5021
  532TMC3     H 7954   1.592   0.617  13.540  0.1957  0.3143 -1.1588
  532TMC3    H1 7955   1.880   0.419  13.286 -0.0420  1.1619 -0.6698
  532TMC3    H2 7956   1.951   0.469  13.698 -3.2820 -0.6681  2.3432
  532TMC3    C7 7957   2.039   0.385  13.461  0.0834  0.2128  0.1282
  532TMC3    C8 7958   1.700   0.515  13.751  0.3933 -0.2312  0.5251
  532TMC3    O1 7959   2.116   0.440  13.386 -0.0601  0.0727 -0.1286
  532TMC3    O2 7960   1.764   0.524  13.855 -0.4651 -0.1974 -0.2199
  533TMC3    C1 7961   2.608   1.716  14.546  0.3539  0.1712 -0.0823
  533TMC3    C2 7962   2.720   1.785  14.512  0.4062  0.2338 -0.2371
  533TMC3    C3 7963   2.729   1.923  14.514  0.0751  0.2331  0.5135
  533TMC3    C4 7964   2.492   1.789  14.562 -0.3419  0.1539 -0.6941
  533TMC3    C5 7965   2.503   1.926  14.578 -0.9890  0.4733 -0.9741
  533TMC3    C6 7966   2.619   2.001  14.553 -0.1949 -0.0056 -0.9295
  533TMC3     C 7967   2.621   1.607  14.638  0.7776 -0.0505 -0.4942
  533TMC3     O 7968   2.729   1.548  14.646 -0.1421  0.3878  0.6060
  533TMC3     H 7969   2.818   1.739  14.518 -0.5065 -1.8615 -1.1900
  533TMC3    H1 7970   2.397   1.740  14.578 -0.3203  1.4186  3.1337
  533TMC3    H2 7971   2.610   2.108  14.564  3.1697  0.1888 -0.0146
  533TMC3    C7 7972   2.405   1.977  14.676 -0.2168 -0.4112 -0.2064
  533TMC3    C8 7973   2.853   1.992  14.498  0.1475 -0.4013  0.4874
  533TMC3    O1 7974   2.441   2.041  14.774  0.0179 -0.4925 -0.4153
  533TMC3    O2 7975   2.954   1.927  14.480  0.2887  0.4769  0.0635
  534MPD2     C 7976   0.526   2.640   0.580  0.5977  0.3086  0.5630
  534MPD2    C1 7977   0.511   2.780   0.580  0.0121 -0.3578 -0.0471
  534MPD2    C2 7978   0.389   2.835   0.551  0.2557  0.2413 -0.1713
  534MPD2    C3 7979   0.279   2.752   0.526  0.7004  0.3889 -0.3262
  534MPD2    C4 7980   0.295   2.617   0.533 -0.0802 -0.5443  0.0009
  534MPD2    C5 7981   0.420   2.564   0.543  0.5642  0.1256 -0.1658
  534MPD2     H 7982   0.374   2.942   0.549 -2.0823 -0.1004 -0.2875
  534MPD2    H1 7983   0.211   2.549   0.525  0.0232 -0.6049 -0.5637
  534MPD2    H2 7984   0.626   2.599   0.585  0.5142 -0.1202 -1.0963
  534MPD2    H3 7985   0.429   2.458   0.520 -0.6129 -0.0863  0.3659
  534MPD2     N 7986   0.150   2.793   0.494  0.8546 -0.0639 -0.2192
  534MPD2    H5 7987   0.082   2.718   0.493 -1.0291  1.6302  1.0170
  534MPD2    N1 7988   0.617   2.867   0.604 -0.3639 -0.4644  0.1119
  534MPD2    H7 7989   0.600   2.962   0.573  0.2339 -0.3931  0.0059
  535TMC3    C1 7990   4.707   2.935   0.440 -0.4826 -0.1142 -0.4472
  535TMC3    C2 7991   4.635   2.847   0.507  0.0054  0.3929  0.2351
  535TMC3    C3 7992   4.500   2.843   0.471  0.2392  0.5907  0.1922
  535TMC3    C4 7993   4.651   3.027   0.359 -0.1696  0.4814  0.1039
  535TMC3    C5 7994   4.517   3.026   0.328  0.4187  0.2173  0.8413
  535TMC3    C6 7995   4.440   2.936   0.388 -0.2651 -0.7602 -0.2793
  535TMC3     C 7996   0.111   2.919   0.453 -0.0328  0.7317  0.3553
  535TMC3     O 7997   0.188   3.007   0.412  0.2796  0.6087 -0.0831
  535TMC3     H 7998   4.682   2.788   0.585  0.3030  0.8326  0.3881
  535TMC3    H1 7999   4.715   3.109   0.328  2.2425 -1.2021  0.5762
  535TMC3    H2 8000   4.332   2.943   0.377 -0.5478 -1.0153  2.3633
  535TMC3    C7 8001   4.484   3.080   0.198 -0.4756  0.2460  0.3582
  535TMC3    C8 8002   4.401   2.794   0.568  0.1477 -0.2672  0.3123
  535TMC3    O1 8003   4.571   3.152   0.155  0.1708  0.8421 -0.0739
  535TMC3    O2 8004   4.294   2.752   0.526  0.2229 -0.2058 -0.2676
  536MPD2     C 8005   3.868   1.320  16.246  0.3626  0.0275  0.2642
  536MPD2    C1 8006   3.758   1.239  16.279 -0.3546 -0.2889 -0.1831
  536MPD2    C2 8007   3.662   1.208  16.180  0.7425  0.5449  0.7637
  536MPD2    C3 8008   3.674   1.262  16.048  0.5866  0.5304  0.5112
  536MPD2    C4 8009   3.777   1.357  16.020 -0.3136  0.7022 -0.6883
  536MPD2    C5 8010   3.870   1.377  16.117 -0.6098 -0.4332  0.1881
  536MPD2     H 8011   3.584   1.143  16.217  0.7395 -0.5952 -1.2564
  536MPD2    H1 8012   3.787   1.417  15.930  0.2007  0.0359 -1.0825
  536MPD2    H2 8013   3.954   1.351  16.303  0.1601  0.1596  0.4964
  536MPD2    H3 8014   3.950   1.445  16.090 -1.1938 -0.5216 -1.7707
  536MPD2     N 8015   3.581   1.235  15.950  0.5683 -0.3107  0.4115
  536MPD2    H5 8016   3.605   1.259  15.854 -0.3096  0.9892  0.5118
  536MPD2    N1 8017   3.751   1.184  16.412  0.2341  0.6747 -0.6349
  536MPD2    H7 8018   3.837   1.195  16.465 -0.0885  2.1729 -0.4113
  537TMC3    C1 8019   3.683   1.057  16.592 -0.2134 -0.5979  0.0239
  537TMC3    C2 8020   3.717   1.160  16.685  0.2227  0.1286  0.4288
  537TMC3    C3 8021   3.689   1.128  16.817 -0.1582  0.3766  0.2213
  537TMC3    C4 8022   3.642   0.931  16.626 -0.2773 -0.4923 -0.2225
  537TMC3    C5 8023   3.614   0.906  16.758  0.8050 -0.1960  0.4493
  537TMC3    C6 8024   3.637   0.999  16.857 -0.4216 -0.3335  0.0233
  537TMC3     C 8025   3.662   1.092  16.455 -0.7554  1.0370 -1.0181
  537TMC3     O 8026   3.558   1.040  16.411 -0.2440  0.6442  0.1608
  537TMC3     H 8027   3.752   1.258  16.654 -0.9560  1.4572  3.2807
  537TMC3    H1 8028   3.623   0.853  16.553 -1.8851  0.0829 -0.4374
  537TMC3    H2 8029   3.627   0.978  16.962 -0.3703  1.8854  0.4687
  537TMC3    C7 8030   3.541   0.784  16.784  0.1046 -0.1632 -0.3973
  537TMC3    C8 8031   3.701   1.219  16.930  0.3449 -0.6305 -0.8393
  537TMC3    O1 8032   3.479   0.729  16.689 -0.9823  0.4556  0.0231
  537TMC3    O2 8033   3.744   1.156  17.025 -0.1172 -0.2970 -1.0204
  538TMC3    C1 8034   4.733   4.223  10.999  0.5454 -0.3081 -0.4311
  538TMC3    C2 8035   0.130   4.266  11.000  0.5612 -0.4073  0.0786
  538TMC3    C3 8036   0.158   4.373  10.920 -0.0330  0.3449 -0.1053
  538TMC3    C4 8037   4.635   4.301  10.947  0.2318 -0.3382 -0.2608
  538TMC3    C5 8038   4.671   4.414  10.885  0.4626  0.1337 -0.3554
  538TMC3    C6 8039   0.060   4.450  10.858 -0.0201 -0.4247  0.1458
  538TMC3     C 8040   4.685   4.130  11.103  0.0272 -0.4949 -0.1622
  538TMC3     O 8041   4.570   4.131  11.137 -0.3311 -0.0842 -0.4793
  538TMC3     H 8042   0.208   4.206  11.046 -1.4848 -3.5558 -0.5438
  538TMC3    H1 8043   4.532   4.274  10.964  0.7827 -0.7722  2.3082
  538TMC3    H2 8044   0.077   4.537  10.795 -0.8179  0.0916  0.6470
  538TMC3    C7 8045   4.554   4.481  10.825 -0.6239  0.2980 -0.4425
  538TMC3    C8 8046   0.299   4.402  10.895 -0.1341 -0.8734 -0.3388
  538TMC3    O1 8047   4.451   4.414  10.811  0.5480  0.1981  0.4878
  538TMC3    O2 8048   0.376   4.361  10.984  0.4743 -0.1951  0.3844
  539MPD2     C 8049   4.606   3.411  11.691  0.3887 -0.0246  0.3033
  539MPD2    C1 8050   4.654   3.426  11.561 -0.1625  0.6398 -0.2693
  539MPD2    C2 8051   4.586   3.511  11.483  0.2201 -0.2738  0.6550
  539MPD2    C3 8052   4.472   3.581  11.515 -0.6608  0.2333 -0.0171
  539MPD2    C4 8053   4.419   3.558  11.642 -0.1249 -0.2218  0.1142
  539MPD2    C5 8054   4.497   3.483  11.729  0.2291 -0.1034  0.2716
  539MPD2     H 8055   4.636   3.532  11.389 -0.5138  1.2299  0.6023
  539MPD2    H1 8056   4.329   3.609  11.672  0.3676  0.0265  1.1675
  539MPD2    H2 8057   4.636   3.324  11.749 -1.2284 -0.3637  0.6287
  539MPD2    H3 8058   4.460   3.450  11.825  0.9287  0.1870  0.6374
  539MPD2     N 8059   4.414   3.683  11.428 -0.6597 -0.6176 -1.0285
  539MPD2    H5 8060   4.332   3.726  11.468  1.2188 -1.5413  3.8033
  539MPD2    N1 8061   0.028   3.354  11.509  0.1897  0.2132 -0.5047
  539MPD2    H7 8062   0.052   3.371  11.412  1.2816 -0.4101 -0.3395
  540TMC3    C1 8063   4.389   3.832  11.248 -0.5838 -0.0397  0.8757
  540TMC3    C2 8064   4.402   3.852  11.109 -0.1756  0.7432 -0.0883
  540TMC3    C3 8065   4.337   3.955  11.051  0.0173 -0.1589 -0.2953
  540TMC3    C4 8066   4.323   3.917  11.328 -0.3352  0.0657  0.3687
  540TMC3    C5 8067   4.260   4.024  11.266 -1.4628 -0.0649 -0.2837
  540TMC3    C6 8068   4.269   4.044  11.128  0.2018  0.0866 -0.5290
  540TMC3     C 8069   4.447   3.713  11.303 -0.4662  0.2035  0.2516
  540TMC3     O 8070   4.526   3.656  11.227 -0.0356  0.0091 -0.4660
  540TMC3     H 8071   4.460   3.780  11.052  0.9387 -0.0176  2.0059
  540TMC3    H1 8072   4.307   3.903  11.434 -0.2754 -0.7198  0.2773
  540TMC3    H2 8073   4.215   4.122  11.075 -1.8707  0.6118  2.3687
  540TMC3    C7 8074   4.152   4.088  11.337 -0.4060 -0.6679  0.3520
  540TMC3    C8 8075   4.302   3.951  10.906  0.0285 -0.5269  0.2756
  540TMC3    O1 8076   4.126   4.035  11.448  0.6735  0.6702  0.1784
  540TMC3    O2 8077   4.206   4.013  10.864 -0.5424 -0.1886  0.2560
  541MPD2     C 8078   2.694   0.359  13.083  0.2001  0.7267 -0.1392
  541MPD2    C1 8079   2.781   0.278  13.018  0.0816 -0.4471  0.2201
  541MPD2    C2 8080   2.866   0.324  12.926 -0.1285 -0.0074 -0.6201
  541MPD2    C3 8081   2.888   0.458  12.902 -0.3680 -0.9681 -0.3817
  541MPD2    C4 8082   2.806   0.542  12.971  0.5539 -0.4704 -0.6248
  541MPD2    C5 8083   2.717   0.492  13.065 -0.4215 -0.1045 -0.3849
  541MPD2     H 8084   2.935   0.256  12.877 -1.8234 -1.0108 -1.6324
  541MPD2    H1 8085   2.812   0.648  12.949  1.3519 -0.4497 -0.3024
  541MPD2    H2 8086   2.625   0.323  13.158  1.3364 -1.7850 -0.2941
  541MPD2    H3 8087   2.661   0.557  13.131 -0.7236 -0.9995  0.2308
  541MPD2     N 8088   2.967   0.507  12.801 -0.1025  0.4805 -0.7583
  541MPD2    H5 8089   2.961   0.605  12.776 -2.5649  0.7846  1.1010
  541MPD2    N1 8090   2.786   0.142  13.048  0.5312  0.6187 -0.1362
  541MPD2    H7 8091   2.872   0.101  13.012  0.1941 -0.3223  0.1177
  542TMC3    C1 8092   3.088   0.526  12.612 -0.3007 -0.1787  0.3202
  542TMC3    C2 8093   3.016   0.500  12.498  0.9735  0.0551  0.2999
  542TMC3    C3 8094   2.963   0.609  12.427 -0.6977 -0.0305  0.5063
  542TMC3    C4 8095   3.106   0.644  12.668  0.3584  0.5248 -1.2664
  542TMC3    C5 8096   3.059   0.746  12.595 -0.0158  0.6137 -0.1813
  542TMC3    C6 8097   2.990   0.732  12.480  0.4637 -0.3669 -0.3067
  542TMC3     C 8098   3.037   0.434  12.710 -0.4515  0.2048  0.4425
  542TMC3     O 8099   3.045   0.312  12.687 -0.1170  0.1195 -0.2010
  542TMC3     H 8100   2.997   0.400  12.459 -0.0113  0.1455  0.5445
  542TMC3    H1 8101   3.164   0.658  12.758 -0.7073  0.7103 -0.6115
  542TMC3    H2 8102   2.952   0.820  12.429 -0.4443 -0.3264  0.4369
  542TMC3    C7 8103   3.072   0.878  12.656  0.2166 -0.0060 -0.8457
  542TMC3    C8 8104   2.919   0.582  12.297  0.3789 -0.3236  0.4178
  542TMC3    O1 8105   3.172   0.897  12.730 -0.0304  0.6187 -0.1569
  542TMC3    O2 8106   2.946   0.471  12.243  0.4439 -0.0895  0.6868
  543TMC3    C1 8107   2.215   2.181  17.129 -0.0817 -0.2613 -0.1372
  543TMC3    C2 8108   2.284   2.115  17.234 -0.3978  0.2186 -0.1632
  543TMC3    C3 8109   2.234   2.114  17.356  0.0642 -0.3448  0.0116
  543TMC3    C4 8110   2.103   2.262  17.157  0.0698 -0.2131 -0.0098
  543TMC3    C5 8111   2.081   2.280  17.291 -0.2124 -0.8042 -0.3485
  543TMC3    C6 8112   2.136   2.204  17.393 -0.2284  0.1076 -1.2096
  543TMC3     C 8113   2.254   2.156  17.000 -0.8572 -0.5273  0.2650
  543TMC3     O 8114   2.361   2.100  16.994 -0.0413 -0.5227  0.0712
  543TMC3     H 8115   2.370   2.055  17.208  0.3700  0.3552  2.1025
  543TMC3    H1 8116   2.046   2.308  17.077 -0.0020  0.2758  0.3249
  543TMC3    H2 8117   2.110   2.214  17.497 -1.2730  1.3751 -1.6010
  543TMC3    C7 8118   1.982   2.378  17.336  0.0431 -0.2941  0.1015
  543TMC3    C8 8119   2.221   1.975  17.406 -0.7586  0.6874 -0.2795
  543TMC3    O1 8120   1.932   2.352  17.444  0.2863  0.6552  0.2246
  543TMC3    O2 8121   2.274   1.892  17.335 -0.2075 -0.1405  0.4205
  544MPD2     C 8122   1.984   1.612  17.680  0.2516 -0.1934 -0.8179
  544MPD2    C1 8123   2.077   1.601  17.582  0.7326 -0.1839 -0.7065
  544MPD2    C2 8124   2.132   1.715  17.528 -0.4977 -0.3812 -0.2361
  544MPD2    C3 8125   2.082   1.845  17.562 -1.0767  0.3851  0.2812
  544MPD2    C4 8126   1.971   1.848  17.646 -0.5377  1.0051  0.1283
  544MPD2    C5 8127   1.929   1.734  17.713 -0.1609 -0.0974  0.4279
  544MPD2     H 8128   2.208   1.717  17.452 -1.1861 -3.1728 -0.9835
  544MPD2    H1 8129   1.923   1.942  17.670 -2.5286 -0.1475  0.6508
  544MPD2    H2 8130   1.946   1.524  17.731  0.0761  0.4433  0.1649
  544MPD2    H3 8131   1.845   1.733   0.024  1.3584  0.3662  2.3283
  544MPD2     N 8132   2.129   1.963  17.508 -0.1365 -0.0970  0.2590
  544MPD2    H5 8133   2.100   2.050  17.551  0.0684 -0.5580  1.3344
  544MPD2    N1 8134   2.099   1.473  17.532 -0.3735  0.0836 -0.3648
  544MPD2    H7 8135   2.040   1.398  17.568 -1.7549  0.9885 -0.7776
  545TMC3    C1 8136   2.195   1.310  17.392 -0.0904 -0.6557  0.4674
  545TMC3    C2 8137   2.073   1.257  17.364  0.3924  0.9669 -0.6615
  545TMC3    C3 8138   2.069   1.128  17.322 -0.3304 -0.0277  0.0841
  545TMC3    C4 8139   2.309   1.233  17.399 -0.2200 -0.0661  0.2061
  545TMC3    C5 8140   2.296   1.102  17.383 -0.2004  0.6764  0.2988
  545TMC3    C6 8141   2.178   1.042  17.337  0.0034 -0.2155  0.5813
  545TMC3     C 8142   2.210   1.439  17.447  0.1405 -0.2107  0.5396
  545TMC3     O 8143   2.317   1.496  17.430 -0.3459 -0.4743  0.6614
  545TMC3     H 8144   1.984   1.318  17.373  0.8913  2.0965 -3.2563
  545TMC3    H1 8145   2.408   1.272  17.418 -0.0764 -1.7012  2.8009
  545TMC3    H2 8146   2.172   0.944  17.291  2.4819  0.4813 -1.1891
  545TMC3    C7 8147   2.412   1.020  17.365  1.0979 -0.1475 -0.1803
  545TMC3    C8 8148   1.950   1.060  17.301  0.1829  0.4829 -0.1054
  545TMC3    O1 8149   2.505   1.070  17.306  0.1225 -0.0874 -0.8568
  545TMC3    O2 8150   1.956   0.938  17.302  0.6072  0.2739 -0.1952
  546MPD2     C 8151   3.570   1.697  17.514 -0.3343  0.1561  0.1835
  546MPD2    C1 8152   3.489   1.741  17.411 -0.5067  0.4990  0.1127
  546MPD2    C2 8153   3.477   1.877  17.383  0.8436  0.2839 -0.7060
  546MPD2    C3 8154   3.547   1.962  17.470 -0.4695 -0.0502  0.1082
  546MPD2    C4 8155   3.632   1.914  17.569 -0.6237  0.7917  0.1941
  546MPD2    C5 8156   3.645   1.781  17.589 -0.3839 -0.2540  0.5627
  546MPD2     H 8157   3.418   1.918  17.302  1.6057 -1.0976 -1.9488
  546MPD2    H1 8158   3.698   1.989  17.612 -0.7244  0.1505  1.4794
  546MPD2    H2 8159   3.585   1.592  17.539 -1.9631 -0.4929 -1.5661
  546MPD2    H3 8160   3.721   1.751  17.660  0.3087 -2.0842 -0.9677
  546MPD2     N 8161   3.553   2.102  17.439 -0.1513  0.0657 -0.0959
  546MPD2    H5 8162   3.599   2.152  17.515  0.4329 -1.2261  0.4098
  546MPD2    N1 8163   3.427   1.632  17.345  0.1343  0.6775 -0.5792
  546MPD2    H7 8164   3.459   1.542  17.379  0.8983  0.8355 -0.8794
  547TMC3    C1 8165   3.286   1.517  17.185 -0.2716 -0.2020 -0.1308
  547TMC3    C2 8166   3.196   1.522  17.084 -0.4815 -1.2248 -0.2215
  547TMC3    C3 8167   3.146   1.409  17.023 -0.3430  0.2044  0.2741
  547TMC3    C4 8168   3.336   1.397  17.230 -0.7601  0.5730 -0.3497
  547TMC3    C5 8169   3.282   1.282  17.172  0.3635 -0.6798 -0.3673
  547TMC3    C6 8170   3.191   1.285  17.062  0.5041  0.2653  0.4846
  547TMC3     C 8171   3.337   1.636  17.238  0.5063 -0.3286  0.3205
  547TMC3     O 8172   3.300   1.737  17.186 -0.4975 -0.7224  0.5720
  547TMC3     H 8173   3.148   1.618  17.065  0.8993 -0.2939  0.9368
  547TMC3    H1 8174   3.419   1.387  17.298  0.4425  0.0811 -1.8867
  547TMC3    H2 8175   3.160   1.191  17.017  0.5747 -0.2051  1.4219
  547TMC3    C7 8176   3.321   1.157  17.238 -0.0664  0.6350  0.4006
  547TMC3    C8 8177   3.022   1.425  16.948 -0.0805 -0.1288  0.0958
  547TMC3    O1 8178   3.366   1.159  17.353  0.0798 -0.3435 -0.5757
  547TMC3    O2 8179   3.005   1.542  16.911 -0.3312 -0.1654  0.1818
  548MPD2     C 8180   3.591   1.911  12.938 -0.7781 -0.2113 -0.1617
  548MPD2    C1 8181   3.518   2.009  12.873  0.3353  0.7070 -0.7228
  548MPD2    C2 8182   3.534   2.011  12.733 -0.0812  0.1096  0.3601
  548MPD2    C3 8183   3.611   1.916  12.668 -0.0561 -0.0121 -0.0440
  548MPD2    C4 8184   3.681   1.819  12.734 -0.2983  0.5268  0.2728
  548MPD2    C5 8185   3.670   1.823  12.867 -0.8081  0.1953  0.9227
  548MPD2     H 8186   3.484   2.086  12.674  0.6114  1.5658  1.6409
  548MPD2    H1 8187   3.738   1.743  12.683 -0.3045  0.2623  0.6624
  548MPD2    H2 8188   3.572   1.886  13.041  3.7133 -1.7067  0.3294
  548MPD2    H3 8189   3.723   1.749  12.926 -0.3027 -1.5183 -1.6978
  548MPD2     N 8190   3.604   1.918  12.523  0.1896 -0.8423  0.0701
  548MPD2    H5 8191   3.537   1.977  12.474  0.8496  0.9817  1.3713
  548MPD2    N1 8192   3.414   2.078  12.938 -0.7152 -0.2389 -0.2216
  548MPD2    H7 8193   3.394   2.059  13.036  0.5153 -0.1035  0.0537
  549TMC3    C1 8194   3.217   2.224  12.954 -0.0858 -0.4591 -0.2671
  549TMC3    C2 8195   3.180   2.352  12.919 -0.1637 -0.4241  0.1089
  549TMC3    C3 8196   3.048   2.388  12.928  0.1116 -0.9213 -0.1696
  549TMC3    C4 8197   3.117   2.128  12.977  0.7834  0.4231  0.2313
  549TMC3    C5 8198   2.987   2.165  12.965  0.0010 -0.2588 -0.0897
  549TMC3    C6 8199   2.948   2.296  12.950 -0.0305  0.3858 -0.2126
  549TMC3     C 8200   3.344   2.188  12.880 -0.1073 -0.2272 -0.5780
  549TMC3     O 8201   3.383   2.263  12.792 -0.5843  0.2139 -0.1153
  549TMC3     H 8202   3.260   2.423  12.897  0.5155 -0.7072  1.6823
  549TMC3    H1 8203   3.150   2.028  13.004 -1.4527  0.3322  2.6719
  549TMC3    H2 8204   2.844   2.316  12.930 -0.2586 -0.4216  0.1279
  549TMC3    C7 8205   2.886   2.066  12.937 -0.5774 -0.2833  0.9582
  549TMC3    C8 8206   3.012   2.495  12.838  0.0291 -0.4184 -0.0214
  549TMC3    O1 8207   2.769   2.098  12.965 -0.4037  0.3837  0.4662
  549TMC3    O2 8208   2.901   2.485  12.788 -0.1387 -0.3256  0.0419
  550TMC3    C1 8209   2.018   4.510  12.573  0.5706 -0.5104  0.0883
  550TMC3    C2 8210   2.018   4.607  12.667 -0.3730 -0.7647  0.1194
  550TMC3    C3 8211   2.102   4.712  12.648 -0.1393 -0.1054 -0.7929
  550TMC3    C4 8212   2.079   4.525  12.450  0.4894  0.0971  0.8402
  550TMC3    C5 8213   2.144   4.646  12.422  0.3195 -0.0715 -0.1395
  550TMC3    C6 8214   2.168   4.731  12.531  0.0918 -0.8303 -0.0006
  550TMC3     C 8215   1.889   4.440  12.566  0.4181 -0.1689 -0.3287
  550TMC3     O 8216   1.842   4.391  12.672  0.3970 -0.2279  0.2211
  550TMC3     H 8217   1.965   4.597  12.761 -0.3573  1.8928  0.3874
  550TMC3    H1 8218   2.072   4.449  12.373 -1.8101  0.3738  0.7800
  550TMC3    H2 8219   2.235   0.076  12.524 -0.4083 -0.3789  0.7648
  550TMC3    C7 8220   2.060   4.715  12.328 -0.1037 -0.7281  0.8508
  550TMC3    C8 8221   2.076   0.103  12.708  0.0996  0.1050  0.2106
  550TMC3    O1 8222   1.966   4.648  12.283 -0.5928  0.2552  0.3045
  550TMC3    O2 8223   2.162   0.188  12.714  0.0172  0.2424 -0.1547
  551TMC3    C1 8224   4.683   2.730  13.509  1.0232  0.4578 -0.7516
  551TMC3    C2 8225   0.054   2.690  13.448  0.4431  0.3545  0.4481
  551TMC3    C3 8226   0.177   2.744  13.471  0.2352  1.0099  0.2328
  551TMC3    C4 8227   4.685   2.813  13.615 -0.3790 -0.6229  0.0281
  551TMC3    C5 8228   0.062   2.887  13.619 -0.6270  0.0514 -0.0639
  551TMC3    C6 8229   0.176   2.848  13.555  0.0340 -0.3239 -0.8926
  551TMC3     C 8230   4.563   2.731  13.424 -0.3010 -0.7758  0.6613
  551TMC3     O 8231   4.573   2.658  13.328  0.0183  0.3813 -0.5060
  551TMC3     H 8232   0.053   2.620  13.366  0.7050 -2.7085  3.0282
  551TMC3    H1 8233   4.603   2.845  13.678 -0.6434  1.7839 -1.5173
  551TMC3    H2 8234   0.268   2.906  13.564  0.4706 -1.3788  1.4063
  551TMC3    C7 8235   0.074   2.986  13.721 -0.1551  0.2838  0.4485
  551TMC3    C8 8236   0.271   2.751  13.365  0.0287  0.1589 -0.2989
  551TMC3    O1 8237   0.008   2.981  13.824 -0.0460 -0.1883  0.1969
  551TMC3    O2 8238   0.335   2.649  13.337  0.1692 -0.2209  0.2554
  552MPD2     C 8239   1.663   4.612  14.221  0.0154  0.3751 -0.0190
  552MPD2    C1 8240   1.733   4.504  14.272 -0.3905  0.5423  0.0921
  552MPD2    C2 8241   1.864   4.522  14.315  0.3952 -0.0050 -0.7786
  552MPD2    C3 8242   1.918   4.647  14.311 -0.3705 -0.3377 -0.0174
  552MPD2    C4 8243   1.850   0.008  14.247 -0.0285  0.3112  0.6006
  552MPD2    C5 8244   1.722   4.734  14.210 -0.2626 -0.0372 -0.5997
  552MPD2     H 8245   1.919   4.443  14.365  0.6770  1.4783  1.2478
  552MPD2    H1 8246   1.884   0.109  14.232 -0.8672  0.5634  0.3928
  552MPD2    H2 8247   1.563   4.603  14.180 -0.7483  0.9916  1.6896
  552MPD2    H3 8248   1.669   0.079  14.167 -0.6941  1.0752  2.1616
  552MPD2     N 8249   2.049   4.683  14.366 -0.2698 -0.6213  0.4331
  552MPD2    H5 8250   2.080   0.035  14.336  0.1991 -1.0812 -0.4744
  552MPD2    N1 8251   1.676   4.379  14.293 -1.3408 -0.6435  0.8625
  552MPD2    H7 8252   1.745   4.317  14.334 -0.5421 -0.9020 -0.8923
  553TMC3    C1 8253   1.527   4.192  14.290  0.3772  0.4663  0.3553
  553TMC3    C2 8254   1.418   4.147  14.223 -0.0300  0.2728 -0.6596
  553TMC3    C3 8255   1.436   4.034  14.145  0.2490 -0.1060 -0.0774
  553TMC3    C4 8256   1.650   4.129  14.292  0.7203 -0.0332 -0.2011
  553TMC3    C5 8257   1.663   4.021  14.207 -0.6229 -0.7017  0.3080
  553TMC3    C6 8258   1.559   3.971  14.138 -0.3324 -0.1230  0.3104
  553TMC3     C 8259   1.545   4.333  14.274 -0.1705 -0.2553  0.5976
  553TMC3     O 8260   1.448   4.390  14.232 -0.0218  0.3807  0.1473
  553TMC3     H 8261   1.325   4.202  14.219 -0.0626  0.2000 -0.9077
  553TMC3    H1 8262   1.732   4.159  14.357 -1.6179  4.3662  0.7124
  553TMC3    H2 8263   1.563   3.885  14.072 -2.4112  0.2047 -0.2309
  553TMC3    C7 8264   1.765   3.928  14.252 -0.1271  0.0394  0.1689
  553TMC3    C8 8265   1.365   4.042  14.016  0.0205 -0.2652  0.8089
  553TMC3    O1 8266   1.740   3.812  14.220  0.1785 -0.1327  0.0804
  553TMC3    O2 8267   1.251   4.082  14.023 -0.4600 -0.6013 -0.8918
  554TMC3    C1 8268   3.233   3.845  11.386 -0.4713 -0.3711 -0.1536
  554TMC3    C2 8269   3.163   3.827  11.269 -0.2592 -0.0372  0.0620
  554TMC3    C3 8270   3.218   3.845  11.147  0.3693 -1.1429 -0.3909
  554TMC3    C4 8271   3.356   3.900  11.379 -0.0336  0.5125  0.3096
  554TMC3    C5 8272   3.417   3.912  11.258  0.1532 -0.3484  0.1695
  554TMC3    C6 8273   3.356   3.865  11.141 -0.3801  0.0464  0.2356
  554TMC3     C 8274   3.181   3.787  11.508 -0.5426  0.2978  0.2370
  554TMC3     O 8275   3.075   3.728  11.497  0.1392 -0.0744 -0.2559
  554TMC3     H 8276   3.056   3.807  11.271 -0.1419 -0.9282 -2.7247
  554TMC3    H1 8277   3.406   3.934  11.469  1.2987 -1.1867  0.2258
  554TMC3    H2 8278   3.411   3.877  11.048 -0.0236  0.6668  0.5295
  554TMC3    C7 8279   3.500   4.028  11.230 -0.0854 -0.2913  0.3042
  554TMC3    C8 8280   3.147   3.898  11.033  0.6083  0.7236 -0.3939
  554TMC3    O1 8281   3.595   4.025  11.152 -0.3910  0.7477 -0.2359
  554TMC3    O2 8282   3.215   3.955  10.946 -0.7125 -0.2573  0.2211
  555TMC3    C1 8283   2.850   3.118  14.860  0.8943  0.3753  0.4204
  555TMC3    C2 8284   2.934   3.170  14.955 -0.3613  0.3710  0.2526
  555TMC3    C3 8285   2.898   3.163  15.084 -0.2620 -0.1571 -0.0572
  555TMC3    C4 8286   2.734   3.054  14.894 -0.0841 -0.1672  0.2759
  555TMC3    C5 8287   2.709   3.039  15.026  0.8549 -0.8156 -0.6610
  555TMC3    C6 8288   2.780   3.100  15.120 -0.2143  0.9469  0.5330
  555TMC3     C 8289   2.882   3.138  14.718 -0.2344  0.2043  0.3956
  555TMC3     O 8290   3.000   3.158  14.688  0.4952  0.3075 -0.5980
  555TMC3     H 8291   3.019   3.231  14.927 -0.9042  2.3361  2.8398
  555TMC3    H1 8292   2.689   2.993  14.817  0.7734 -0.3545 -0.0734
  555TMC3    H2 8293   2.766   3.072  15.224 -0.2304  0.8411  0.5022
  555TMC3    C7 8294   2.600   2.959  15.064  0.3554 -0.5524  0.3449
  555TMC3    C8 8295   2.975   3.233  15.185  0.1074  0.4667 -0.0165
  555TMC3    O1 8296   2.576   2.863  14.991 -0.6358 -0.9985  0.0890
  555TMC3    O2 8297   3.061   3.306  15.145  0.3750 -0.9421 -0.4318
  556MPD2     C 8298   0.854   0.734  10.663 -0.6132 -0.4384  0.3204
  556MPD2    C1 8299   0.822   0.613  10.715 -0.3940 -0.0802 -0.2809
  556MPD2    C2 8300   0.789   0.509  10.629  0.2095 -0.1615  0.3217
  556MPD2    C3 8301   0.785   0.523  10.496  0.0085  0.0174 -0.1916
  556MPD2    C4 8302   0.821   0.646  10.439  0.2939 -0.0112 -0.2856
  556MPD2    C5 8303   0.854   0.744  10.529 -0.3530  0.4796 -0.3184
  556MPD2     H 8304   0.763   0.411  10.668 -0.8973 -1.1116 -2.7581
  556MPD2    H1 8305   0.818   0.661  10.332  1.1992 -0.2063 -0.3355
  556MPD2    H2 8306   0.883   0.822  10.721  0.0986 -0.9021  0.6686
  556MPD2    H3 8307   0.885   0.838  10.486  0.3191  0.7272  0.6903
  556MPD2     N 8308   0.731   0.415  10.413 -0.3653  0.8273  0.1000
  556MPD2    H5 8309   0.703   0.332  10.464  1.5199 -0.6322 -1.2335
  556MPD2    N1 8310   0.831   0.581  10.858  0.9321 -0.1092 -0.1896
  556MPD2    H7 8311   0.806   0.489  10.893 -0.3537 -0.0685 -0.9749
  557TMC3    C1 8312   0.640   0.295  10.229  0.6952  0.5036 -0.6339
  557TMC3    C2 8313   0.574   0.310  10.109 -0.0263  0.7580 -0.2254
  557TMC3    C3 8314   0.484   0.211  10.077 -0.5175 -0.2132 -0.0537
  557TMC3    C4 8315   0.627   0.179  10.305  0.7639 -0.3125 -0.5440
  557TMC3    C5 8316   0.542   0.090  10.265  0.3337  0.8090  0.6103
  557TMC3    C6 8317   0.462   0.101  10.153  0.1049  0.0505  0.1292
  557TMC3     C 8318   0.715   0.416  10.278  0.0028  0.7795  0.4209
  557TMC3     O 8319   0.725   0.507  10.199  0.1984 -0.1413  0.2526
  557TMC3     H 8320   0.593   0.397  10.047  0.1343 -0.2844 -1.6491
  557TMC3    H1 8321   0.690   0.166  10.392 -0.5689  2.0553  0.7713
  557TMC3    H2 8322   0.381   0.031  10.136 -1.3287  1.5540  0.8271
  557TMC3    C7 8323   0.500   4.721  10.352  0.8635 -0.5216 -0.3222
  557TMC3    C8 8324   0.389   0.246   9.964 -0.2054  0.3118 -0.5909
  557TMC3    O1 8325   0.379   4.698  10.355  0.5982 -0.1093  0.2100
  557TMC3    O2 8326   0.392   0.363   9.917 -0.3256  0.5413  0.1143
  558TMC3    C1 8327   2.833   3.248  10.383  0.5715 -0.1137  0.0262
  558TMC3    C2 8328   2.745   3.172  10.455  0.2810 -1.1795 -0.1516
  558TMC3    C3 8329   2.661   3.087  10.390  0.4114  0.2414 -0.4507
  558TMC3    C4 8330   2.837   3.233  10.249  0.0385 -0.3427 -0.2480
  558TMC3    C5 8331   2.756   3.143  10.181  0.4956  0.0293 -0.1423
  558TMC3    C6 8332   2.661   3.074  10.253 -0.3631 -0.5150 -0.0455
  558TMC3     C 8333   2.945   3.304  10.456 -0.3838  0.1320  0.4913
  558TMC3     O 8334   2.946   3.283  10.576 -0.7392  0.0200 -0.4998
  558TMC3     H 8335   2.739   3.193  10.561  1.5343  0.1297 -0.3295
  558TMC3    H1 8336   2.897   3.292  10.181  0.4483  0.4298  0.7873
  558TMC3    H2 8337   2.583   3.019  10.201  0.2448 -1.5799  0.1708
  558TMC3    C7 8338   2.776   3.110  10.039 -0.0231  0.0603 -0.4473
  558TMC3    C8 8339   2.612   2.970  10.458 -0.1690 -0.0733 -0.3807
  558TMC3    O1 8340   2.884   3.155   9.990  0.5805  0.6174 -0.3655
  558TMC3    O2 8341   2.542   2.893  10.395 -0.4605  0.0601  0.0614
  559MPD2     C 8342   3.474   3.725  10.767 -0.9709 -0.1686 -0.8056
  559MPD2    C1 8343   3.392   3.653  10.852 -0.1765 -0.3536  0.3853
  559MPD2    C2 8344   3.443   3.585  10.960 -0.2182 -0.0325  0.1423
  559MPD2    C3 8345   3.578   3.598  10.992  0.2280 -0.5571  0.4977
  559MPD2    C4 8346   3.661   3.670  10.911  0.4342  0.2639  0.1824
  559MPD2    C5 8347   3.610   3.730  10.795 -0.0104  0.1088  0.3768
  559MPD2     H 8348   3.384   3.521  11.024 -0.2660  0.6840  0.8058
  559MPD2    H1 8349   3.765   3.691  10.932  0.4635  0.2864  0.0127
  559MPD2    H2 8350   3.442   3.782  10.681  0.9034  0.1993 -1.2594
  559MPD2    H3 8351   3.675   3.793  10.735  1.6850 -0.9522  1.0846
  559MPD2     N 8352   3.621   3.530  11.110  0.3527 -0.4678 -0.0998
  559MPD2    H5 8353   3.543   3.511  11.171  1.2576 -0.2066  1.1365
  559MPD2    N1 8354   3.259   3.637  10.813 -0.3242  0.3616 -0.2645
  559MPD2    H7 8355   3.225   3.684  10.731 -0.2174  0.7423 -0.0898
  560TMC3    C1 8356   3.754   3.426  11.261  0.1408 -0.4946 -0.0132
  560TMC3    C2 8357   3.660   3.330  11.296  0.0751 -0.1851 -0.1451
  560TMC3    C3 8358   3.696   3.237  11.393  0.2703 -0.5608 -0.6490
  560TMC3    C4 8359   3.874   3.428  11.317  0.3591 -0.6118  0.2188
  560TMC3    C5 8360   3.909   3.339  11.415 -0.4477 -0.6159 -0.0255
  560TMC3    C6 8361   3.812   3.251  11.463  0.6450  0.6640 -1.1091
  560TMC3     C 8362   3.747   3.499  11.140 -0.4149 -0.0781 -0.9291
  560TMC3     O 8363   3.853   3.514  11.082 -0.4859  0.4819 -0.1851
  560TMC3     H 8364   3.580   3.304  11.228 -1.5332 -2.3035  2.5525
  560TMC3    H1 8365   3.947   3.499  11.280 -0.4564 -0.5867 -1.3962
  560TMC3    H2 8366   3.829   3.184  11.546 -0.9292 -0.2103 -1.4763
  560TMC3    C7 8367   4.047   3.299  11.438  0.3496 -0.5740 -0.2225
  560TMC3    C8 8368   3.613   3.121  11.403  0.1524  0.4698 -0.0304
  560TMC3    O1 8369   4.060   3.209  11.521  0.0805 -0.1694  0.6809
  560TMC3    O2 8370   3.509   3.128  11.340  0.1021 -0.0970  0.0788
  561TMC3    C1 8371   1.324   2.464  10.958  0.4691  0.2493 -0.5486
  561TMC3    C2 8372   1.244   2.368  11.023 -0.0794  1.1998 -0.1418
  561TMC3    C3 8373   1.203   2.398  11.149  0.0351 -0.1561 -0.4169
  561TMC3    C4 8374   1.373   2.573  11.020  0.9720 -0.3711 -0.0471
  561TMC3    C5 8375   1.328   2.598  11.152  0.3415 -0.1991  0.1698
  561TMC3    C6 8376   1.244   2.509  11.215  0.5331 -0.0880 -0.1536
  561TMC3     C 8377   1.381   2.435  10.830  0.0929 -0.0427  0.4530
  561TMC3     O 8378   1.356   2.319  10.794 -0.2300 -0.0970  0.2640
  561TMC3     H 8379   1.216   2.273  10.978  3.8375 -0.2103  0.4046
  561TMC3    H1 8380   1.467   2.621  10.997  0.8302  0.6513  1.4944
  561TMC3    H2 8381   1.204   2.552  11.306 -0.6058 -1.6840  0.0909
  561TMC3    C7 8382   1.391   2.696  11.236  0.2722  0.4440  0.2080
  561TMC3    C8 8383   1.118   2.306  11.223  0.3561  0.3107 -0.1511
  561TMC3    O1 8384   1.385   2.685  11.358 -0.1514 -1.0907  0.3070
  561TMC3    O2 8385   1.050   2.228  11.156  0.7488  0.4844 -0.3331
  562TMC3    C1 8386   2.332   3.896  16.442 -0.1655 -0.6459  0.1428
  562TMC3    C2 8387   2.327   3.968  16.326  0.1259 -0.6781  0.9577
  562TMC3    C3 8388   2.306   3.899  16.209 -0.0102  0.4070  0.6604
  562TMC3    C4 8389   2.310   3.763  16.443  0.8508  0.3186 -0.4190
  562TMC3    C5 8390   2.287   3.698  16.320 -0.0366  0.0635 -0.1463
  562TMC3    C6 8391   2.291   3.764  16.199  0.0095 -1.0600 -0.2515
  562TMC3     C 8392   2.325   3.963  16.569  0.7555  0.1783 -1.0462
  562TMC3     O 8393   2.330   3.895  16.673 -0.3428  0.2964  0.0274
  562TMC3     H 8394   2.348   4.073  16.312 -2.0269 -0.4555 -0.5301
  562TMC3    H1 8395   2.309   3.715  16.540 -0.6395 -0.6447 -0.9250
  562TMC3    H2 8396   2.250   3.720  16.109  1.3344  0.2224 -1.4793
  562TMC3    C7 8397   2.307   3.549  16.312  0.3360  0.1470 -0.0479
  562TMC3    C8 8398   2.243   3.971  16.103  0.6344 -0.0984  0.9588
  562TMC3    O1 8399   2.242   3.480  16.231  0.4044  0.0258 -0.7463
  562TMC3    O2 8400   2.196   4.082  16.134  0.1792  0.1573 -0.1664
  563MPD2     C 8401   0.302   0.537  15.472 -0.9797 -0.2731  0.9495
  563MPD2    C1 8402   0.252   0.472  15.587  0.0673  0.0086 -0.0502
  563MPD2    C2 8403   0.332   0.383  15.655 -0.4042 -0.4730  0.1360
  563MPD2    C3 8404   0.467   0.362  15.611  0.2538 -0.1737 -1.0133
  563MPD2    C4 8405   0.520   0.433  15.501 -1.2070  0.0813 -0.3275
  563MPD2    C5 8406   0.434   0.519  15.431 -0.3756  0.2612 -0.1155
  563MPD2     H 8407   0.297   0.324  15.738 -0.5452  1.0377  1.1606
  563MPD2    H1 8408   0.622   0.419  15.468  0.3143  0.4396  4.1798
  563MPD2    H2 8409   0.237   0.606  15.418  0.1943  0.3712  0.3436
  563MPD2    H3 8410   0.465   0.563  15.337  1.1925 -1.4519 -0.4120
  563MPD2     N 8411   0.547   0.270  15.688 -0.0506  0.0282 -0.3433
  563MPD2    H5 8412   0.503   0.232  15.771  1.3624 -1.9142 -0.4840
  563MPD2    N1 8413   0.115   0.501  15.617 -0.7003 -0.1661  0.5354
  563MPD2    H7 8414   0.063   0.564  15.557 -2.0169 -1.3087  0.5040
  564TMC3    C1 8415   4.645   0.496  15.720 -0.1097  0.3287 -0.3521
  564TMC3    C2 8416   4.544   0.411  15.760 -0.1597  0.6253 -0.4271
  564TMC3    C3 8417   4.435   0.465  15.826  0.5631 -0.6986  0.0317
  564TMC3    C4 8418   4.650   0.633  15.746  0.3945  0.3242 -0.5813
  564TMC3    C5 8419   4.540   0.685  15.821  0.1288 -0.3537  0.1271
  564TMC3    C6 8420   4.433   0.603  15.857  0.7219 -0.4093 -0.3929
  564TMC3     C 8421   0.039   0.433  15.704  0.1297  0.2174 -0.1869
  564TMC3     O 8422   0.065   0.338  15.781  0.4440  0.3805  0.5911
  564TMC3     H 8423   4.544   0.306  15.735  1.2988  0.2480  1.1216
  564TMC3    H1 8424   4.734   0.698  15.722 -0.0530  1.1998  0.1701
  564TMC3    H2 8425   4.355   0.646  15.919  0.5516 -3.3362  1.4371
  564TMC3    C7 8426   4.580   0.763  15.938  0.5407  0.3851  0.1027
  564TMC3    C8 8427   4.360   0.375  15.914 -0.5539 -0.3188 -0.2438
  564TMC3    O1 8428   4.496   0.825  16.004  0.1972 -0.1461 -0.1854
  564TMC3    O2 8429   4.410   0.263  15.916 -0.4064  0.1394 -0.3008
  565TMC3    C1 8430   0.453   1.518  10.041  0.0931 -0.2504 -0.0870
  565TMC3    C2 8431   0.453   1.423  10.137 -0.0284 -0.2132  0.3481
  565TMC3    C3 8432   0.374   1.310  10.121  0.5807  0.9156  0.1819
  565TMC3    C4 8433   0.367   1.499   9.934 -0.5652  0.6001  0.4243
  565TMC3    C5 8434   0.291   1.389   9.927 -0.2049 -0.2220  0.0549
  565TMC3    C6 8435   0.296   1.282  10.010 -0.3483  0.5971 -0.3768
  565TMC3     C 8436   0.517   1.649  10.055 -0.5946 -0.7657 -0.8147
  565TMC3     O 8437   0.520   1.725   9.959 -0.0500 -0.0411 -0.3304
  565TMC3     H 8438   0.523   1.443  10.217  0.1653  2.8352 -0.6013
  565TMC3    H1 8439   0.366   1.579   9.861 -0.1034  0.1153 -0.1114
  565TMC3    H2 8440   0.221   1.203  10.015 -1.5881  1.8395  0.4858
  565TMC3    C7 8441   0.191   1.380   9.816 -0.3054 -0.2532  0.1673
  565TMC3    C8 8442   0.393   1.213  10.222  0.0436 -0.2732  0.7661
  565TMC3    O1 8443   0.158   1.483   9.762 -0.2862  0.0509  0.2739
  565TMC3    O2 8444   0.430   1.248  10.332 -0.6131 -0.6917 -0.3361
  566MPD2     C 8445   1.866   2.944  14.126 -0.3736  0.9835  0.0890
  566MPD2    C1 8446   1.920   3.051  14.060  0.2341 -0.0563  0.2553
  566MPD2    C2 8447   1.833   3.133  13.994 -0.4326  0.0383  0.1466
  566MPD2    C3 8448   1.703   3.095  13.972  0.2368 -0.1604 -0.5617
  566MPD2    C4 8449   1.655   2.988  14.049  0.7406  0.6755  0.0314
  566MPD2    C5 8450   1.736   2.913  14.119  0.0624  0.1265 -0.0717
  566MPD2     H 8451   1.870   3.225  13.950 -0.3431 -0.3177 -0.5179
  566MPD2    H1 8452   1.549   2.964  14.045  0.8423 -0.0277  1.9324
  566MPD2    H2 8453   1.931   2.887  14.191  0.4207  0.9972 -0.6990
  566MPD2    H3 8454   1.689   2.834  14.176 -1.0440  0.4784 -0.4913
  566MPD2     N 8455   1.614   3.167  13.893 -0.0933  0.0733 -0.5698
  566MPD2    H5 8456   1.517   3.136  13.897 -0.1808  0.3242 -0.7497
  566MPD2    N1 8457   2.061   3.068  14.068 -0.7609  0.0812 -0.0199
  566MPD2    H7 8458   2.111   2.994  14.116 -1.1322  0.1035  0.4045
  567TMC3    C1 8459   2.271   3.119  13.972  0.1694  0.4662  0.3118
  567TMC3    C2 8460   2.334   3.126  13.850  1.2558  0.3688 -0.7523
  567TMC3    C3 8461   2.455   3.074  13.829  0.0500 -0.3508  0.1923
  567TMC3    C4 8462   2.341   3.077  14.080 -0.3407  0.0412 -0.1450
  567TMC3    C5 8463   2.473   3.040  14.066 -0.5056 -0.4045  0.4043
  567TMC3    C6 8464   2.532   3.028  13.938 -0.6440  0.3953 -0.5293
  567TMC3     C 8465   2.132   3.149  13.975 -0.6174 -0.3598 -0.5557
  567TMC3     O 8466   2.096   3.228  13.891  0.0696  0.6342 -0.9361
  567TMC3     H 8467   2.279   3.165  13.765 -0.3804  1.6758  0.9104
  567TMC3    H1 8468   2.290   3.088  14.175  0.5286  0.9010  0.2186
  567TMC3    H2 8469   2.636   3.002  13.920 -0.3557 -0.1462  1.8494
  567TMC3    C7 8470   2.547   2.987  14.179  0.2171  0.3279 -0.4658
  567TMC3    C8 8471   2.505   3.115  13.705 -0.1317  0.3189  0.1888
  567TMC3    O1 8472   2.657   2.943  14.152 -0.4736  0.2560  0.1432
  567TMC3    O2 8473   2.438   3.178  13.626 -0.1629  0.5981  0.0464
  568MPD2     C 8474   4.682   3.929  16.003  0.3581  0.4135 -1.2605
  568MPD2    C1 8475   4.626   3.903  16.126 -0.0259 -0.7475  0.9061
  568MPD2    C2 8476   4.544   4.003  16.184  0.0465 -0.3761  0.6447
  568MPD2    C3 8477   4.530   4.120  16.114 -0.4692 -0.5914  0.1701
  568MPD2    C4 8478   4.589   4.144  15.991 -0.2928  0.1258  1.0751
  568MPD2    C5 8479   4.669   4.047  15.946  0.4310 -0.1884 -0.3028
  568MPD2     H 8480   4.500   3.991  16.282  1.5747  0.1337  1.3878
  568MPD2    H1 8481   4.577   4.234  15.932  0.4438 -1.3333 -1.2823
  568MPD2    H2 8482   0.000   3.858  15.945 -0.7019 -0.6807 -0.9932
  568MPD2    H3 8483   4.730   4.059  15.858  0.5196  0.0955 -0.2020
  568MPD2     N 8484   4.441   4.211  16.177  0.2575  0.5408  0.0114
  568MPD2    H5 8485   4.387   4.188  16.259  0.3934 -0.6119 -0.2324
  568MPD2    N1 8486   4.650   3.774  16.181 -0.4577  0.4616  0.2230
  568MPD2    H7 8487   4.707   3.706  16.133 -0.0181 -0.8444  2.5891
  569TMC3    C1 8488   4.339   4.403  16.248  0.1320  0.1969  0.7074
  569TMC3    C2 8489   4.340   4.352  16.375 -0.5457 -0.3690  0.3882
  569TMC3    C3 8490   4.238   4.389  16.460 -0.5149  0.4777 -0.5396
  569TMC3    C4 8491   4.254   4.509  16.215 -0.3949  0.2373 -0.1023
  569TMC3    C5 8492   4.162   4.545  16.313  0.0257 -0.3120  0.2758
  569TMC3    C6 8493   4.139   4.479  16.432 -0.1529 -0.3925  0.2178
  569TMC3     C 8494   4.416   4.341  16.140 -0.1651  0.6830  0.6292
  569TMC3     O 8495   4.463   4.407  16.044 -0.1865 -0.0814  0.5577
  569TMC3     H 8496   4.426   4.300  16.414  0.8879  3.3303  2.1887
  569TMC3    H1 8497   4.264   4.564  16.122  1.5735  0.1724  0.0753
  569TMC3    H2 8498   4.080   4.510  16.517 -0.0956 -1.8188  0.7860
  569TMC3    C7 8499   4.101   4.674  16.306  0.0872 -0.2758  0.0655
  569TMC3    C8 8500   4.272   4.383  16.597  0.1129  0.2051  0.8435
  569TMC3    O1 8501   4.013   4.699  16.387  0.0791 -0.2174 -0.3091
  569TMC3    O2 8502   4.179   4.346  16.671  0.0166 -1.0701  0.2321
  570TMC3    C1 8503   3.786   2.429  16.035  0.5117  0.6095 -0.1700
  570TMC3    C2 8504   3.862   2.425  15.920 -0.1512  0.0486 -0.3933
  570TMC3    C3 8505   3.923   2.549  15.886 -0.2647  0.5183  0.5998
  570TMC3    C4 8506   3.769   2.535  16.121 -0.0466 -0.3793  0.0089
  570TMC3    C5 8507   3.811   2.657  16.074  0.0589  0.5102 -0.6309
  570TMC3    C6 8508   3.896   2.661  15.960 -0.2454  0.3189  0.1941
  570TMC3     C 8509   3.735   2.295  16.078 -0.6167 -0.0088 -0.7786
  570TMC3     O 8510   3.739   2.214  15.986  0.1293  0.4388  0.1921
  570TMC3     H 8511   3.887   2.331  15.873  1.4627 -0.2260  1.0051
  570TMC3    H1 8512   3.698   2.526  16.202 -1.1319  2.1227 -0.6295
  570TMC3    H2 8513   3.943   2.756  15.934 -1.1364  1.2227  1.8909
  570TMC3    C7 8514   3.798   2.779  16.156  0.9917  0.3693  0.4332
  570TMC3    C8 8515   4.060   2.536  15.819 -0.4300 -0.4341 -0.4074
  570TMC3    O1 8516   3.764   2.773  16.274 -0.5119 -0.2146  0.0628
  570TMC3    O2 8517   4.130   2.632  15.815  0.1646  0.2299 -0.1079
  571MPD2     C 8518   2.191   4.168   0.617 -0.3575 -0.0824 -0.0787
  571MPD2    C1 8519   2.171   4.244   0.502 -0.2797 -0.4123  0.1927
  571MPD2    C2 8520   2.194   4.380   0.506 -0.0024  0.1661 -0.6539
  571MPD2    C3 8521   2.248   4.439   0.621  0.6534 -0.0504 -0.4197
  571MPD2    C4 8522   2.277   4.355   0.724  0.1418  0.1026 -0.0472
  571MPD2    C5 8523   2.264   4.219   0.721  0.2991  0.7334 -0.1277
  571MPD2     H 8524   2.183   4.433   0.412  0.2938 -0.8814 -1.2871
  571MPD2    H1 8525   2.299   4.394   0.823 -0.0425  0.7924 -0.2821
  571MPD2    H2 8526   2.164   4.063   0.617 -4.1491  0.8818 -0.4476
  571MPD2    H3 8527   2.288   4.164   0.811 -1.2056 -0.0251 -0.1860
  571MPD2     N 8528   2.263   4.579   0.645 -0.2140  0.2619  0.3410
  571MPD2    H5 8529   2.298   4.606   0.736  0.0569 -1.1920  0.6677
  571MPD2    N1 8530   2.115   4.179   0.389  0.0667  0.6263 -0.2431
  571MPD2    H7 8531   2.088   4.083   0.411 -0.4993  0.3346 -2.2511
  572TMC3    C1 8532   2.246   0.073   0.596 -0.4116 -0.0476 -0.9489
  572TMC3    C2 8533   2.246   0.100   0.735 -0.3359  0.8202 -0.3040
  572TMC3    C3 8534   2.223   0.234   0.766  0.1156 -0.1797 -0.6100
  572TMC3    C4 8535   2.250   0.173   0.501 -0.0727 -0.0983 -0.0155
  572TMC3    C5 8536   2.226   0.299   0.547 -0.3709 -0.4860  0.1753
  572TMC3    C6 8537   2.215   0.336   0.676  0.2055 -0.5449 -0.2237
  572TMC3     C 8538   2.233   4.676   0.550  0.0029 -0.3309 -0.2044
  572TMC3     O 8539   2.214   4.659   0.431 -0.5958 -0.2024 -0.5126
  572TMC3     H 8540   2.227   0.024   0.810 -0.4220  0.9520 -0.1898
  572TMC3    H1 8541   2.249   0.165   0.393  1.7876 -0.3810 -0.0039
  572TMC3    H2 8542   2.204   0.438   0.709  0.1540 -0.0958 -1.6583
  572TMC3    C7 8543   2.227   0.406   0.461 -0.6472  0.2744  0.0109
  572TMC3    C8 8544   2.244   0.278   0.899  0.1173  0.1108 -0.2995
  572TMC3    O1 8545   2.151   0.503   0.485  0.1781 -0.1089 -0.0879
  572TMC3    O2 8546   2.304   0.383   0.915 -0.1412 -0.0934 -0.6686
  573MPD2     C 8547   2.625   4.679   0.204  0.0977  0.3671 -0.4437
  573MPD2    C1 8548   2.671   0.024   0.101 -0.4956  0.0903 -0.1080
  573MPD2    C2 8549   2.569   0.069   0.012  0.1482  0.4481 -1.0742
  573MPD2    C3 8550   2.433   0.039   0.028  0.2561  1.1437 -0.7661
  573MPD2    C4 8551   2.396   4.693   0.128 -0.2310  0.1877  0.3906
  573MPD2    C5 8552   2.490   4.640   0.210  0.4965 -0.1920 -0.1802
  573MPD2     H 8553   2.589   0.128  17.680  2.1682  0.3948 -0.6476
  573MPD2    H1 8554   2.299   4.646   0.138 -1.1071  1.7737 -0.7550
  573MPD2    H2 8555   2.702   4.642   0.269 -0.8256 -1.1339 -0.2024
  573MPD2    H3 8556   2.454   4.563   0.277 -0.3317  0.1276 -0.2676
  573MPD2     N 8557   2.351   0.071  17.671  0.5839 -0.3355  0.4092
  573MPD2    H5 8558   2.391   0.125  17.596 -0.4476 -0.1330 -0.0044
  573MPD2    N1 8559   2.808   0.053   0.083 -0.3383 -0.1381  0.3317
  573MPD2    H7 8560   2.870   0.018   0.155  0.9053  1.0974 -0.1230
  574TMC3    C1 8561   2.186   0.076  17.519  0.2098 -0.4889  0.4629
  574TMC3    C2 8562   2.249   0.179  17.460 -0.3922 -0.1923  0.0488
  574TMC3    C3 8563   2.209   0.208  17.334 -0.1821 -0.4681 -0.2660
  574TMC3    C4 8564   2.079   0.011  17.452 -0.0299  0.1894 -0.1229
  574TMC3    C5 8565   2.044   0.049  17.326 -0.0738  0.3601 -0.0732
  574TMC3    C6 8566   2.115   0.145  17.262 -0.8989 -0.0749 -0.4642
  574TMC3     C 8567   2.225   0.033  17.655 -0.1331 -0.9703 -0.0010
  574TMC3     O 8568   2.143   4.705  17.718 -0.2216  0.5276 -0.0182
  574TMC3     H 8569   2.325   0.244  17.500 -0.2664 -0.7132  0.6592
  574TMC3    H1 8570   2.031   4.669  17.505 -1.4051  0.1810 -1.3907
  574TMC3    H2 8571   2.113   0.170  17.157  0.2782 -0.3047 -0.5430
  574TMC3    C7 8572   1.925   4.736  17.260 -0.1398  0.1427  0.0622
  574TMC3    C8 8573   2.284   0.307  17.265 -0.0428 -0.3952  0.0628
  574TMC3    O1 8574   1.901   0.044  17.151 -0.1335  0.2927  0.1937
  574TMC3    O2 8575   2.330   0.278  17.154  0.1978  0.1558 -0.4310
  575TMC3    C1 8576   0.504   0.843  11.006 -0.0726 -0.2190  0.2219
  575TMC3    C2 8577   0.512   0.710  11.027  0.3313 -0.3475  0.0976
  575TMC3    C3 8578   0.503   0.634  10.914  0.0636 -0.2374  0.2599
  575TMC3    C4 8579   0.476   0.906  10.884 -0.4195  0.4134  0.6486
  575TMC3    C5 8580   0.476   0.822  10.774 -0.1767 -0.6469 -1.0412
  575TMC3    C6 8581   0.483   0.679  10.787  0.0311  0.3082  0.0536
  575TMC3     C 8582   0.526   0.923  11.131 -0.0778  0.1445  0.0926
  575TMC3     O 8583   0.561   0.857  11.226  0.1237  0.1353 -0.3381
  575TMC3     H 8584   0.562   0.668  11.114 -0.0187  2.5191  1.6750
  575TMC3    H1 8585   0.473   1.014  10.877 -1.2695  0.2690 -1.1319
  575TMC3    H2 8586   0.466   0.613  10.703 -0.4092 -1.2558  1.3888
  575TMC3    C7 8587   0.450   0.882  10.645  0.6284 -0.1043  0.1554
  575TMC3    C8 8588   0.489   0.491  10.927  0.0242 -0.2965  0.5018
  575TMC3    O1 8589   0.396   0.994  10.657 -0.2949 -0.0569 -0.4222
  575TMC3    O2 8590   0.494   0.435  10.821 -0.4707  0.3707 -0.1896
  576MPD2     C 8591   0.622   2.350  12.650  0.3864  0.2439  0.3209
  576MPD2    C1 8592   0.590   2.446  12.552  0.2164  0.8589  0.6001
  576MPD2    C2 8593   0.501   2.546  12.593  0.0359  0.1221 -0.1250
  576MPD2    C3 8594   0.444   2.548  12.719  0.1701 -0.0898 -0.1831
  576MPD2    C4 8595   0.472   2.448  12.809 -0.5253  0.3063 -1.1889
  576MPD2    C5 8596   0.556   2.349  12.767 -0.3680 -0.3353 -0.8622
  576MPD2     H 8597   0.488   2.639  12.538  1.4152 -0.0591 -0.7519
  576MPD2    H1 8598   0.431   2.431  12.908  1.7362 -1.4493 -0.5574
  576MPD2    H2 8599   0.690   2.269  12.626  1.7864  1.3901  0.4244
  576MPD2    H3 8600   0.578   2.268  12.835 -0.5546  1.2474  1.0968
  576MPD2     N 8601   0.343   2.645  12.736 -0.0822 -0.1289  0.1730
  576MPD2    H5 8602   0.322   2.696  12.651 -0.0385  0.8685  0.7685
  576MPD2    N1 8603   0.630   2.444  12.416  0.6086  0.2405  0.5346
  576MPD2    H7 8604   0.601   2.515  12.349 -1.7930 -0.3401  0.9706
  577TMC3    C1 8605   0.777   2.409  12.241  0.3696 -0.2085  0.3095
  577TMC3    C2 8606   0.798   2.327  12.131  0.7944 -0.1865 -0.3718
  577TMC3    C3 8607   0.829   2.383  12.015  0.4486 -0.3330 -0.1641
  577TMC3    C4 8608   0.780   2.548  12.236  0.5185 -0.4267 -0.6107
  577TMC3    C5 8609   0.807   2.598  12.114  0.6162 -0.5910  0.3271
  577TMC3    C6 8610   0.834   2.521  12.010  0.1377 -0.0624 -1.0259
  577TMC3     C 8611   0.718   2.354  12.360  0.4722 -0.0652 -0.4281
  577TMC3     O 8612   0.742   2.235  12.389 -0.1409 -0.5882  0.2493
  577TMC3     H 8613   0.797   2.219  12.145  1.2050 -0.2491 -0.8288
  577TMC3    H1 8614   0.754   2.615  12.317  1.3575 -0.8504  0.0042
  577TMC3    H2 8615   0.847   2.568  11.914 -0.1619  1.7280 -0.2005
  577TMC3    C7 8616   0.800   2.746  12.112 -0.3975  0.2289 -0.5809
  577TMC3    C8 8617   0.833   2.299  11.899 -0.6273 -0.6542  0.0228
  577TMC3    O1 8618   0.828   2.811  12.214 -0.7506 -0.2607 -0.2774
  577TMC3    O2 8619   0.779   2.187  11.904 -0.2380  0.4041 -0.2512
  578MPD2     C 8620   3.421   3.259   0.918 -0.4483 -0.2485  0.7409
  578MPD2    C1 8621   3.547   3.255   0.871  1.1547  0.0078  0.0701
  578MPD2    C2 8622   3.608   3.128   0.878 -0.0140  0.5454  1.2245
  578MPD2    C3 8623   3.545   3.019   0.931  1.1565 -0.6560 -0.3516
  578MPD2    C4 8624   3.412   3.025   0.965  0.3736 -0.2701 -0.0956
  578MPD2    C5 8625   3.358   3.148   0.962  0.2287  0.3162  0.3577
  578MPD2     H 8626   3.706   3.110   0.835 -1.6707 -1.4073 -1.7598
  578MPD2    H1 8627   3.363   2.944   1.019 -2.8357  2.1043  0.5697
  578MPD2    H2 8628   3.374   3.357   0.922  3.6370  1.6834  1.9317
  578MPD2    H3 8629   3.257   3.172   0.992  0.5695  2.2762 -0.0455
  578MPD2     N 8630   3.609   2.893   0.931 -0.5642 -0.4239 -0.0385
  578MPD2    H5 8631   3.708   2.892   0.906 -1.4567  0.5593 -3.5864
  578MPD2    N1 8632   3.608   3.381   0.831 -0.4974  0.6094  0.2248
  578MPD2    H7 8633   3.544   3.461   0.833 -4.7604 -2.7813  0.4216
  579TMC3    C1 8634   3.632   2.665   0.954  0.8698 -0.7602  0.5336
  579TMC3    C2 8635   3.756   2.688   1.012 -0.1494 -0.4494 -0.5491
  579TMC3    C3 8636   3.857   2.603   0.971  0.7194 -0.3512 -0.4389
  579TMC3    C4 8637   3.599   2.545   0.898 -0.3601  0.3536 -0.0038
  579TMC3    C5 8638   3.704   2.458   0.874  0.4161 -0.5994  0.1914
  579TMC3    C6 8639   3.833   2.488   0.901  0.0419  0.6819  0.4909
  579TMC3     C 8640   3.543   2.773   0.954 -0.1991  0.0326 -0.0683
  579TMC3     O 8641   3.425   2.743   0.960 -0.0255 -0.1210  0.1561
  579TMC3     H 8642   3.785   2.783   1.058  1.6758 -1.4837  0.4534
  579TMC3    H1 8643   3.496   2.528   0.872  0.9590 -4.5690 -1.8965
  579TMC3    H2 8644   3.914   2.426   0.864 -0.7952 -0.1233 -0.0069
  579TMC3    C7 8645   3.689   2.332   0.801 -0.3707 -0.1853  0.0469
  579TMC3    C8 8646   3.991   2.622   1.025  0.0851  0.5896  0.0902
  579TMC3    O1 8647   3.779   2.252   0.791 -0.1786 -0.0047  0.4887
  579TMC3    O2 8648   3.995   2.675   1.132  0.3606 -0.1088 -0.0516
  580TMC3    C1 8649   2.354   1.488  11.774  0.8271 -0.2677 -0.2124
  580TMC3    C2 8650   2.419   1.503  11.657 -0.5668  0.4415  0.3379
  580TMC3    C3 8651   2.555   1.467  11.646  0.4922 -0.7489  0.8914
  580TMC3    C4 8652   2.412   1.437  11.883  0.2091 -0.3047  0.1898
  580TMC3    C5 8653   2.534   1.390  11.866  0.3324 -0.3637 -0.2333
  580TMC3    C6 8654   2.610   1.405  11.752 -1.2030 -0.4307  0.5846
  580TMC3     C 8655   2.284   1.608  11.816 -0.2494  0.5358 -0.4501
  580TMC3     O 8656   2.214   1.603  11.915  0.2769  0.1043 -0.4226
  580TMC3     H 8657   2.374   1.557  11.575 -0.9316 -1.6082 -0.8109
  580TMC3    H1 8658   2.362   1.434  11.979 -0.8734  0.8070 -0.3481
  580TMC3    H2 8659   2.713   1.374  11.764 -1.3416 -1.3230 -0.4678
  580TMC3    C7 8660   2.592   1.313  11.979 -0.0369  0.3441  0.0679
  580TMC3    C8 8661   2.631   1.548  11.557 -0.0597  0.2688  0.5136
  580TMC3    O1 8662   2.593   1.369  12.088 -0.1153  0.2241  0.0558
  580TMC3    O2 8663   2.565   1.612  11.473 -0.1714 -0.3831 -0.0492
  581MPD2     C 8664   0.450   1.705  15.128 -0.1717 -0.4292 -0.0108
  581MPD2    C1 8665   0.355   1.612  15.103 -0.8220 -0.0737 -0.3114
  581MPD2    C2 8666   0.276   1.619  14.988 -0.5685 -1.0433  0.4221
  581MPD2    C3 8667   0.310   1.715  14.893 -0.1897 -0.3324  0.3013
  581MPD2    C4 8668   0.409   1.802  14.927 -0.0032  0.0039  0.7237
  581MPD2    C5 8669   0.474   1.804  15.044  0.3963 -0.9372 -0.1191
  581MPD2     H 8670   0.188   1.556  14.979 -0.4644 -1.1873  0.4135
  581MPD2    H1 8671   0.427   1.882  14.856 -1.6703 -1.7828 -1.7202
  581MPD2    H2 8672   0.510   1.708  15.218 -0.2603  0.4766  0.0158
  581MPD2    H3 8673   0.546   1.883  15.062 -0.3257  0.1732 -2.0042
  581MPD2     N 8674   0.234   1.736  14.776 -0.1208 -0.3262 -0.1169
  581MPD2    H5 8675   0.258   1.815  14.717 -0.6957 -0.3110 -0.3252
  581MPD2    N1 8676   0.331   1.511  15.205 -0.1783 -0.1949  0.4004
  581MPD2    H7 8677   0.403   1.484  15.271  1.1564 -0.1253 -1.0236
  582TMC3    C1 8678   0.283   1.306  15.302 -0.4226 -0.1159  0.1070
  582TMC3    C2 8679   0.354   1.335  15.413  0.4180  0.7511 -0.2203
  582TMC3    C3 8680   0.359   1.232  15.503 -0.1852  0.6376  0.4287
  582TMC3    C4 8681   0.213   1.190  15.285  0.1918  0.7420 -0.2254
  582TMC3    C5 8682   0.208   1.093  15.384 -0.3907 -0.0216  0.2317
  582TMC3    C6 8683   0.291   1.113  15.490 -0.2103  0.6099  0.3226
  582TMC3     C 8684   0.245   1.414  15.205  0.8629 -0.3590 -0.8257
  582TMC3     O 8685   0.160   1.380  15.122 -0.2413 -0.4823 -0.7167
  582TMC3     H 8686   0.394   1.434  15.431 -0.0380  0.3554  3.1353
  582TMC3    H1 8687   0.162   1.171  15.191 -0.7199  3.1540 -0.2097
  582TMC3    H2 8688   0.274   1.044  15.572 -1.0354  1.7129  1.0902
  582TMC3    C7 8689   0.079   1.049  15.425  0.3433  0.1454 -0.4012
  582TMC3    C8 8690   0.412   1.273  15.630  1.0606 -0.9321  0.0361
  582TMC3    O1 8691   0.067   0.985  15.529 -0.2737  0.2695 -0.6049
  582TMC3    O2 8692   0.428   1.393  15.645 -0.2432 -0.1590 -0.3601
  583MPD2     C 8693   0.838   2.867  16.519  0.1074  0.1415 -0.1616
  583MPD2    C1 8694   0.834   2.982  16.444  0.5215 -0.1522  0.2643
  583MPD2    C2 8695   0.801   3.096  16.510 -0.3617  0.1822 -1.1260
  583MPD2    C3 8696   0.778   3.100  16.647 -0.3579 -0.0785  0.0883
  583MPD2    C4 8697   0.793   2.988  16.719  0.2050 -0.7182  0.4988
  583MPD2    C5 8698   0.815   2.869  16.652 -0.6178 -0.5039  0.0617
  583MPD2     H 8699   0.803   3.186  16.449 -0.1586  0.9986  0.0903
  583MPD2    H1 8700   0.781   2.971  16.826  1.9130 -0.1560  0.7704
  583MPD2    H2 8701   0.868   2.773  16.473 -1.3032 -0.3833 -0.0262
  583MPD2    H3 8702   0.821   2.777  16.709  0.1976 -0.4464  0.0769
  583MPD2     N 8703   0.740   3.226  16.699 -0.0180 -0.8367  0.2042
  583MPD2    H5 8704   0.719   3.308  16.643 -0.4062 -2.4057 -1.9346
  583MPD2    N1 8705   0.860   2.990  16.307 -0.1248 -0.0699 -0.3126
  583MPD2    H7 8706   0.847   3.081  16.265 -0.8168 -0.1815 -0.3482
  584TMC3    C1 8707   0.615   3.363  16.835  0.0585 -0.7162  1.2823
  584TMC3    C2 8708   0.604   3.449  16.727 -0.0219  0.0070 -0.5495
  584TMC3    C3 8709   0.529   3.561  16.740 -0.1464 -0.0475  0.1996
  584TMC3    C4 8710   0.530   3.374  16.951 -0.3484  0.3894  0.3611
  584TMC3    C5 8711   0.458   3.489  16.959  0.1436 -0.0282 -0.0707
  584TMC3    C6 8712   0.460   3.587  16.857  0.0851 -0.2153  0.0607
  584TMC3     C 8713   0.696   3.244  16.828  0.3499 -0.2067  0.5899
  584TMC3     O 8714   0.699   3.161  16.917 -0.3346 -0.0053 -0.1026
  584TMC3     H 8715   0.673   3.448  16.643 -0.1314 -1.0209 -0.6325
  584TMC3    H1 8716   0.535   3.309  17.037 -1.0028 -1.3254 -0.8919
  584TMC3    H2 8717   0.386   3.666  16.851 -1.2723 -1.4495  0.5798
  584TMC3    C7 8718   0.381   3.506  17.076 -0.1153 -0.1501 -0.6870
  584TMC3    C8 8719   0.528   3.653  16.634 -0.0472 -0.1279 -0.3276
  584TMC3    O1 8720   0.392   3.419  17.162  0.4425 -0.0134  0.3059
  584TMC3    O2 8721   0.544   3.606  16.523  0.5449  0.3590  0.3024
  585MPD2     C 8722   0.118   3.040  17.724 -0.4910  0.8065 -0.0689
  585MPD2    C1 8723   0.136   3.016  17.592 -0.2935 -0.6886 -0.6214
  585MPD2    C2 8724   0.094   2.894  17.540  0.3477  0.5132  0.1662
  585MPD2    C3 8725   0.043   2.797  17.627  1.0638 -0.6890  0.5510
  585MPD2    C4 8726   0.030   2.832   0.003  0.5425  0.3337 -0.1464
  585MPD2    C5 8727   0.063   2.952   0.046 -0.0084 -0.1622 -0.6215
  585MPD2     H 8728   0.101   2.879  17.433  1.2271 -0.8002  0.4135
  585MPD2    H1 8729   4.730   2.761   0.076  1.3911 -0.1022 -0.1081
  585MPD2    H2 8730   0.150   3.133   0.014 -3.8746  0.9920  1.9110
  585MPD2    H3 8731   0.056   2.974   0.152  1.1400  0.1913 -0.6168
  585MPD2     N 8732   0.015   2.660  17.591 -0.3419  0.4383  0.4533
  585MPD2    H5 8733   4.733   2.599  17.669 -2.0149 -0.3569 -0.6470
  585MPD2    N1 8734   0.165   3.123  17.505 -0.0462  0.0397 -0.1726
  585MPD2    H7 8735   0.173   3.214  17.550  1.3225 -1.1433  1.9547
  586TMC3    C1 8736   0.004   2.467  17.452 -1.0079  0.3776  0.1889
  586TMC3    C2 8737   0.083   2.395  17.364  0.2198 -0.6293  0.6109
  586TMC3    C3 8738   0.060   2.262  17.361  1.3126  0.0691 -0.2059
  586TMC3    C4 8739   4.644   2.411  17.530 -0.4954  0.3938  0.3760
  586TMC3    C5 8740   4.630   2.273  17.529  0.1363 -0.2321 -0.1224
  586TMC3    C6 8741   4.716   2.197  17.450  0.2180 -0.0685 -0.6464
  586TMC3     C 8742   0.025   2.612  17.457  0.4267  0.4113 -0.1783
  586TMC3     O 8743   0.086   2.666  17.365  0.0678  0.6771  0.0782
  586TMC3     H 8744   0.164   2.440  17.308 -0.4751  0.2252  0.2885
  586TMC3    H1 8745   4.587   2.473  17.598  0.1072  0.7286  0.5779
  586TMC3    H2 8746   4.705   2.090  17.438 -0.1813 -0.3874  2.5722
  586TMC3    C7 8747   4.518   2.203  17.595  0.0116 -0.5594  0.7917
  586TMC3    C8 8748   0.168   2.184  17.325  0.6494 -0.0850  0.1081
  586TMC3    O1 8749   4.517   2.081  17.588 -0.6591 -0.6899  0.5472
  586TMC3    O2 8750   0.208   2.117  17.419 -0.2706 -0.2962 -0.2666
  587TMC3    C1 8751   2.223   0.371  16.139 -0.0801  0.6017  0.2123
  587TMC3    C2 8752   2.184   0.435  16.251  0.4278 -0.5362 -0.5611
  587TMC3    C3 8753   2.264   0.412  16.368 -0.3430  0.6207  0.0704
  587TMC3    C4 8754   2.312   0.268  16.139  0.0790  0.0664 -0.4400
  587TMC3    C5 8755   2.382   0.246  16.258  0.7109  0.2011  0.1222
  587TMC3    C6 8756   2.361   0.314  16.370  0.1380  0.1325  0.0116
  587TMC3     C 8757   2.158   0.401  16.011 -0.2452 -0.7291 -0.1500
  587TMC3     O 8758   2.222   0.405  15.907 -0.1198 -0.4947  0.7901
  587TMC3     H 8759   2.111   0.516  16.246  1.6681  0.5501 -1.2483
  587TMC3    H1 8760   2.349   0.220  16.049 -2.2124 -0.3972 -1.1283
  587TMC3    H2 8761   2.410   0.290  16.464 -0.4627 -1.5311 -0.1071
  587TMC3    C7 8762   2.497   0.151  16.251  0.5682 -0.0143  0.4862
  587TMC3    C8 8763   2.266   0.507  16.479 -0.0479 -0.0331  0.2431
  587TMC3    O1 8764   2.513   0.077  16.159 -0.1228  0.0948 -0.0108
  587TMC3    O2 8765   2.363   0.511  16.551  0.3793 -0.4296 -0.5052
  588TMC3    C1 8766   4.616   3.608   9.905  0.4291 -0.4160  0.2979
  588TMC3    C2 8767   4.621   3.494   9.834 -0.4568  0.3941 -0.0561
  588TMC3    C3 8768   0.003   3.437   9.820  0.4641 -0.0685  0.0217
  588TMC3    C4 8769   4.721   3.666   9.962  0.7618 -0.9959  0.5257
  588TMC3    C5 8770   0.100   3.594   9.963 -0.0414  0.0540  0.5070
  588TMC3    C6 8771   0.115   3.477   9.893 -0.0219 -0.2795  0.3128
  588TMC3     C 8772   4.499   3.690   9.921  0.0264  0.1739  1.2767
  588TMC3     O 8773   4.401   3.647   9.979  0.2514 -0.0091 -0.5293
  588TMC3     H 8774   4.539   3.459   9.773  0.5492 -0.0301 -1.1653
  588TMC3    H1 8775   4.688   3.736  10.037 -0.3379 -0.0418 -0.8530
  588TMC3    H2 8776   0.210   3.425   9.888 -0.2732 -0.7755  0.7475
  588TMC3    C7 8777   0.214   3.651  10.040  0.3284  0.1463  0.0723
  588TMC3    C8 8778   0.009   3.309   9.757  0.2788  0.0489 -0.5505
  588TMC3    O1 8779   0.309   3.585  10.073 -0.1381 -0.0778  0.1125
  588TMC3    O2 8780   4.677   3.292   9.659 -0.4071 -0.5586 -0.0652
  589TMC3    C1 8781   4.179   0.553   1.158  0.4364  0.3130  0.1142
  589TMC3    C2 8782   4.295   0.596   1.218 -0.3357 -0.4773  0.1493
  589TMC3    C3 8783   4.407   0.520   1.178  0.9317 -0.1010 -0.0933
  589TMC3    C4 8784   4.168   0.445   1.074  0.6340  0.0162 -0.0113
  589TMC3    C5 8785   4.285   0.381   1.047 -0.3961  0.6501 -0.3489
  589TMC3    C6 8786   4.411   0.421   1.094 -0.4667  0.4459 -0.7527
  589TMC3     C 8787   4.065   0.647   1.162 -0.6051  0.0574 -0.5446
  589TMC3     O 8788   3.966   0.612   1.098 -0.7775  0.0226  0.4417
  589TMC3     H 8789   4.309   0.682   1.282  0.1491 -0.7214  0.3669
  589TMC3    H1 8790   4.070   0.421   1.035  0.4930 -2.6071  1.9696
  589TMC3    H2 8791   4.495   0.353   1.090 -0.3250  0.6055 -0.4911
  589TMC3    C7 8792   4.272   0.255   0.963  0.3790 -0.7031 -0.1925
  589TMC3    C8 8793   4.522   0.544   1.262 -0.3352  0.3503  0.9332
  589TMC3    O1 8794   4.158   0.225   0.925 -0.4020  0.9789 -0.3176
  589TMC3    O2 8795   4.495   0.586   1.374  0.2613  0.4082  0.0441
  590MPD2     C 8796   3.246   3.935  16.964 -0.3589 -0.0987 -0.1920
  590MPD2    C1 8797   3.167   3.966  16.853  0.2898 -0.2046 -0.0274
  590MPD2    C2 8798   3.220   4.019  16.735  0.1880 -0.3611  0.1031
  590MPD2    C3 8799   3.355   4.053  16.726 -0.2118  0.0958 -0.6619
  590MPD2    C4 8800   3.433   4.022  16.839 -0.0986  0.6864 -0.3408
  590MPD2    C5 8801   3.378   3.968  16.954 -0.0740  0.5484 -0.2360
  590MPD2     H 8802   3.155   4.030  16.648  0.5051  1.1785  0.0502
  590MPD2    H1 8803   3.534   4.059  16.850  1.3110 -2.3724 -3.2635
  590MPD2    H2 8804   3.208   3.890  17.055 -0.9930  1.1966  0.1854
  590MPD2    H3 8805   3.438   3.944  17.041 -0.6990  1.1034  0.3572
  590MPD2     N 8806   3.398   4.118  16.612  0.2248  0.1541  0.5181
  590MPD2    H5 8807   3.322   4.138  16.548  0.0796  2.7474  1.5241
  590MPD2    N1 8808   3.027   3.931  16.852  0.4153 -0.4693 -0.2510
  590MPD2    H7 8809   2.976   3.940  16.765  0.2279 -1.8396 -0.2772
  591TMC3    C1 8810   3.532   4.217  16.451 -0.3247 -0.2093  0.1794
  591TMC3    C2 8811   3.649   4.199  16.380 -0.7672  0.3185  0.3225
  591TMC3    C3 8812   3.674   4.297  16.288 -0.0155  0.2003  0.0894
  591TMC3    C4 8813   3.446   4.319  16.433 -0.1288  0.4736  0.0577
  591TMC3    C5 8814   3.484   4.417  16.344 -0.2967  0.1421  0.5618
  591TMC3    C6 8815   3.599   4.406  16.266  0.3520  0.3593  0.4820
  591TMC3     C 8816   3.526   4.134  16.570  0.0563  0.5466 -0.5972
  591TMC3     O 8817   3.630   4.094  16.621 -0.2658 -0.1173 -0.0449
  591TMC3     H 8818   3.720   4.123  16.410 -0.1717  1.0067  0.6609
  591TMC3    H1 8819   3.361   4.325  16.499  0.5249  0.1623  0.9167
  591TMC3    H2 8820   3.628   4.477  16.188 -3.5163 -1.1953 -2.3740
  591TMC3    C7 8821   3.414   4.545  16.351  0.5307  0.9062 -0.1446
  591TMC3    C8 8822   3.789   4.266  16.198  0.1221 -0.3672 -0.1464
  591TMC3    O1 8823   3.310   4.551  16.413 -0.1040 -0.1500  0.7256
  591TMC3    O2 8824   3.847   4.161  16.213  0.2751 -0.1616 -0.3266
  592MPD2     C 8825   3.682   1.527  11.175  0.0574 -0.4821  0.6754
  592MPD2    C1 8826   3.677   1.528  11.314  0.6470  0.3671  0.5584
  592MPD2    C2 8827   3.590   1.442  11.386  0.0127 -0.0234 -0.2412
  592MPD2    C3 8828   3.514   1.348  11.322  0.6674 -0.1653 -0.2516
  592MPD2    C4 8829   3.520   1.340  11.184  0.1825  0.6132 -0.7154
  592MPD2    C5 8830   3.596   1.436  11.114  0.1670  0.6311  0.0940
  592MPD2     H 8831   3.594   1.453  11.494 -1.0117  0.9810 -0.3075
  592MPD2    H1 8832   3.471   1.266  11.123 -0.6562 -0.1273  0.8489
  592MPD2    H2 8833   3.761   1.580  11.122 -0.7393  0.6539  0.6252
  592MPD2    H3 8834   3.600   1.427  11.006 -1.4802 -1.3516  0.1983
  592MPD2     N 8835   3.445   1.258  11.395  0.3776  0.5316  0.5437
  592MPD2    H5 8836   3.449   1.263  11.497  1.1476  0.0689  0.5374
  592MPD2    N1 8837   3.755   1.635  11.372  0.0001  0.0025 -0.2998
  592MPD2    H7 8838   3.810   1.693  11.309  1.1855 -0.3462  0.4169
  593TMC3    C1 8839   3.871   1.746  11.552 -0.7382 -0.1701  0.0614
  593TMC3    C2 8840   3.846   1.803  11.678 -0.2306 -0.6225  0.3932
  593TMC3    C3 8841   3.919   1.915  11.719  0.5079  0.4612 -0.7721
  593TMC3    C4 8842   3.971   1.790  11.468  0.2511  0.3694  0.4222
  593TMC3    C5 8843   4.036   1.909  11.518  0.7368 -0.6116  0.2612
  593TMC3    C6 8844   4.016   1.969  11.638 -0.6080  0.1772 -0.2817
  593TMC3     C 8845   3.757   1.661  11.507 -0.6091  0.0034  0.5221
  593TMC3     O 8846   3.680   1.625  11.595 -0.3820 -0.2428  0.3026
  593TMC3     H 8847   3.761   1.785  11.744 -0.3450 -2.2304 -0.1999
  593TMC3    H1 8848   3.998   1.744  11.374  2.6534  0.8805  0.8402
  593TMC3    H2 8849   4.064   2.062  11.668 -2.1359  1.2732 -1.2073
  593TMC3    C7 8850   4.115   1.990  11.433 -0.1007 -0.2027 -0.1364
  593TMC3    C8 8851   3.841   2.014  11.788  0.1166  0.3287 -0.2338
  593TMC3    O1 8852   4.179   2.083  11.485  0.5488 -0.1422 -0.4193
  593TMC3    O2 8853   3.726   2.027  11.748  0.1116 -0.0545  0.0007
  594MPD2     C 8854   2.557   0.203  14.092 -0.1966 -0.2423 -0.0304
  594MPD2    C1 8855   2.575   0.226  14.226  0.5069 -1.2500 -0.4052
  594MPD2    C2 8856   2.664   0.328  14.266  0.0746 -0.6406 -0.5659
  594MPD2    C3 8857   2.748   0.391  14.171 -0.0365  0.3007 -0.3073
  594MPD2    C4 8858   2.715   0.371  14.035 -0.4912  0.9464 -0.5470
  594MPD2    C5 8859   2.621   0.276  13.997 -0.8418 -0.4359 -0.1722
  594MPD2     H 8860   2.671   0.363  14.368  0.7488  0.5390 -1.0188
  594MPD2    H1 8861   2.775   0.420  13.958  0.3861  0.7309 -0.0018
  594MPD2    H2 8862   2.468   0.152  14.056 -0.2485 -1.3276  1.6717
  594MPD2    H3 8863   2.582   0.282  13.897  1.4393 -0.7947 -1.0861
  594MPD2     N 8864   2.850   0.484  14.210 -0.3686  0.1463  0.3374
  594MPD2    H5 8865   2.849   0.515  14.306  1.2734  0.8765  0.1197
  594MPD2    N1 8866   2.481   0.171  14.313  0.1339  0.9485 -0.2365
  594MPD2    H7 8867   2.430   0.095  14.269 -0.1204  1.1736 -0.3302
  595TMC3    C1 8868   3.271   0.675  14.232 -0.0397  0.1307  0.2364
  595TMC3    C2 8869   3.180   0.581  14.191 -0.5624  0.4398 -0.0137
  595TMC3    C3 8870   3.046   0.612  14.210 -0.0099 -0.1998 -0.6635
  595TMC3    C4 8871   3.230   0.793  14.283 -0.2612 -0.4592 -0.7880
  595TMC3    C5 8872   3.093   0.814  14.306 -0.4222  0.3687 -0.1724
  595TMC3    C6 8873   2.995   0.731  14.262  0.2712  0.3472 -0.2754
  595TMC3     C 8874   3.403   0.627  14.271  0.0670  1.0825 -0.4389
  595TMC3     O 8875   3.441   0.656  14.382 -0.3704 -0.2090 -0.1740
  595TMC3     H 8876   3.205   0.478  14.167 -0.3679  0.5033 -0.0815
  595TMC3    H1 8877   3.289   0.882  14.298  1.1330 -1.7967  1.5887
  595TMC3    H2 8878   2.889   0.747  14.278  0.7064  1.2891  1.6656
  595TMC3    C7 8879   3.077   0.858  14.442 -0.3021  0.0193  0.6758
  595TMC3    C8 8880   2.959   0.523  14.133  0.0207  1.4039  0.0521
  595TMC3    O1 8881   2.961   0.872  14.475 -0.3617  0.5345  0.1333
  595TMC3    O2 8882   2.992   0.477  14.022 -0.6653  0.1535  0.3384
  596MPD2     C 8883   1.708   3.037  16.434 -0.0142  0.4897  0.1869
  596MPD2    C1 8884   1.726   3.147  16.349 -0.1341 -0.1961  0.3560
  596MPD2    C2 8885   1.735   3.130  16.216  0.1277  0.3835  0.6379
  596MPD2    C3 8886   1.717   3.001  16.161  0.6627 -0.4288 -0.2491
  596MPD2    C4 8887   1.698   2.892  16.249 -0.4670 -0.3827  0.5298
  596MPD2    C5 8888   1.700   2.914  16.383 -0.6000 -0.2786  0.0921
  596MPD2     H 8889   1.755   3.216  16.154  1.1882 -0.7615 -0.6335
  596MPD2    H1 8890   1.681   2.792  16.211 -4.6344 -0.6697  3.1776
  596MPD2    H2 8891   1.708   3.043  16.543  0.9617  2.7123  0.0671
  596MPD2    H3 8892   1.689   2.826  16.446  2.5109 -0.3908  0.5003
  596MPD2     N 8893   1.701   2.987  16.017 -0.0257 -0.3118  0.5505
  596MPD2    H5 8894   1.704   2.889  15.989 -0.5065  0.5370 -2.4516
  596MPD2    N1 8895   1.706   3.280  16.387 -0.0194 -0.3496 -0.3838
  596MPD2    H7 8896   1.708   3.345  16.310  3.6372 -0.2498 -0.2068
  597TMC3    C1 8897   1.646   3.469  16.519 -0.4507 -0.5473  0.0444
  597TMC3    C2 8898   1.664   3.536  16.406  0.1899  0.5368 -0.4112
  597TMC3    C3 8899   1.585   3.637  16.375  0.2499 -0.0398  0.3946
  597TMC3    C4 8900   1.540   3.505  16.600  0.9299 -0.3267 -0.1208
  597TMC3    C5 8901   1.468   3.616  16.574  0.1363  0.1436  0.2124
  597TMC3    C6 8902   1.489   3.687  16.456  0.2746 -0.1838 -0.5118
  597TMC3     C 8903   1.676   3.327  16.512 -0.2253 -0.2875 -0.4898
  597TMC3     O 8904   1.662   3.262  16.617  0.4839  0.0592  0.3619
  597TMC3     H 8905   1.743   3.513  16.336  0.3193  0.2809 -0.1803
  597TMC3    H1 8906   1.517   3.442  16.685  1.7804 -0.2668  0.1508
  597TMC3    H2 8907   1.427   3.770  16.426  1.0470 -0.0338 -1.6834
  597TMC3    C7 8908   1.352   3.648  16.655 -0.5464 -0.5548 -0.4724
  597TMC3    C8 8909   1.615   3.729  16.263 -0.3546  0.0131 -0.1833
  597TMC3    O1 8910   1.317   3.565  16.739  0.0185 -0.5662 -0.1391
  597TMC3    O2 8911   1.577   3.844  16.275  0.1776 -0.0142  0.4419
  598TMC3    C1 8912   4.483   4.328  15.321  0.0558 -0.2006  1.2070
  598TMC3    C2 8913   4.465   4.197  15.320 -0.1902  0.0003 -0.7559
  598TMC3    C3 8914   4.428   4.130  15.206  0.8980 -0.0117 -0.2140
  598TMC3    C4 8915   4.484   4.402  15.204  0.2357  0.6179 -0.0894
  598TMC3    C5 8916   4.445   4.339  15.092  0.1293 -0.5009  0.4924
  598TMC3    C6 8917   4.412   4.200  15.091 -0.1591 -0.6002 -0.2558
  598TMC3     C 8918   4.544   4.372  15.442 -0.1638 -1.0008 -0.5785
  598TMC3     O 8919   4.513   4.482  15.486  0.1126 -0.1570 -0.5446
  598TMC3     H 8920   4.483   4.131  15.404  0.5798 -2.4400 -2.8446
  598TMC3    H1 8921   4.525   4.503  15.204  0.3878  0.5541  2.9552
  598TMC3    H2 8922   4.375   4.146  15.005  1.8429 -1.8861 -0.3129
  598TMC3    C7 8923   4.415   4.406  14.968 -1.3853 -0.6863  0.1730
  598TMC3    C8 8924   4.387   3.989  15.212  0.4950  0.2646 -0.2174
  598TMC3    O1 8925   4.378   4.338  14.879  0.2794 -0.4641  0.1833
  598TMC3    O2 8926   4.405   3.931  15.105 -0.3436 -0.4904  0.2269
  599MPD2     C 8927   0.136   2.323  15.877 -0.2498 -0.1983 -0.2506
  599MPD2    C1 8928   0.059   2.209  15.893 -0.7303  0.2158  0.3193
  599MPD2    C2 8929   4.659   2.216  15.920  0.2198 -0.1585  0.0705
  599MPD2    C3 8930   4.602   2.339  15.929 -0.8327  0.1379  0.4143
  599MPD2    C4 8931   4.681   2.449  15.909  0.6119  0.7785  0.3481
  599MPD2    C5 8932   0.072   2.444  15.877  0.3159 -0.2518  0.1574
  599MPD2     H 8933   4.606   2.122  15.936 -0.4522  0.0842 -0.7283
  599MPD2    H1 8934   4.638   2.547  15.927 -0.4783  0.5725 -1.1319
  599MPD2    H2 8935   0.241   2.320  15.849 -0.9015 -3.1702 -2.2647
  599MPD2    H3 8936   0.120   2.540  15.863  3.0659 -1.4417  1.4376
  599MPD2     N 8937   4.466   2.356  15.962  0.1477 -0.6800 -0.5449
  599MPD2    H5 8938   4.438   2.454  15.969  0.3299 -0.6541 -0.1733
  599MPD2    N1 8939   0.138   2.095  15.890 -0.0599 -0.2655  0.0571
  599MPD2    H7 8940   0.234   2.102  15.859  0.0727 -1.5101  0.2081
  600TMC3    C1 8941   4.253   2.293  16.035 -0.6304  0.0001 -0.9496
  600TMC3    C2 8942   4.148   2.208  16.034  0.5314 -0.0636 -0.1500
  600TMC3    C3 8943   4.055   2.222  16.137 -0.1733  0.8714 -0.0808
  600TMC3    C4 8944   4.274   2.379  16.138 -0.0147  0.8149  0.4910
  600TMC3    C5 8945   4.171   2.391  16.226  0.4132 -0.7067  0.0651
  600TMC3    C6 8946   4.064   2.311  16.240  0.3654 -0.3148  0.3793
  600TMC3     C 8947   4.374   2.258  15.960  0.9172  0.3032 -0.4091
  600TMC3     O 8948   4.388   2.136  15.937  0.0425 -0.6850  0.1357
  600TMC3     H 8949   4.137   2.140  15.950 -0.2716 -0.0181 -0.0836
  600TMC3    H1 8950   4.362   2.442  16.147  0.0672  0.7310  0.2722
  600TMC3    H2 8951   3.980   2.323  16.308  0.2605  1.3824 -0.0583
  600TMC3    C7 8952   4.168   2.518  16.299  0.2935  0.0482  0.1968
  600TMC3    C8 8953   4.017   2.089  16.191 -0.0261  0.1185 -0.1367
  600TMC3    O1 8954   4.059   2.549  16.339  0.1881 -0.0011 -0.1325
  600TMC3    O2 8955   4.011   2.082  16.312 -0.1129  0.0441  0.3602
  601MPD2     C 8956   2.375   0.646   0.029  0.0455  0.8258  0.2626
  601MPD2    C1 8957   2.253   0.647   0.101 -0.0004  0.6161  0.5135
  601MPD2    C2 8958   2.224   0.560   0.203  0.0090 -0.1394 -0.4989
  601MPD2    C3 8959   2.321   0.476   0.242 -0.5595 -0.5893 -0.0078
  601MPD2    C4 8960   2.441   0.468   0.169  0.1381 -0.6346  0.2153
  601MPD2    C5 8961   2.466   0.549   0.065  0.3176  0.2959  0.6704
  601MPD2     H 8962   2.131   0.569   0.259  0.0167  1.7706 -0.7938
  601MPD2    H1 8963   2.522   0.400   0.194  0.0303 -0.8208  0.0593
  601MPD2    H2 8964   2.396   0.714  17.704 -1.5468  1.7244  0.6177
  601MPD2    H3 8965   2.557   0.544   0.008 -0.1436  1.7540 -0.1845
  601MPD2     N 8966   2.314   0.390   0.357  0.7134  0.2664  0.6727
  601MPD2    H5 8967   2.380   0.313   0.361 -1.1571 -1.3483  0.1877
  601MPD2    N1 8968   2.139   0.728   0.068  0.1867 -0.1710  0.2236
  601MPD2    H7 8969   2.054   0.715   0.122 -0.2499  4.9213  0.7688
  602TMC3    C1 8970   2.001   0.873  17.702 -0.2107  0.1927  0.6468
  602TMC3    C2 8971   1.991   1.005  17.667 -0.4711  0.0891 -0.0380
  602TMC3    C3 8972   1.868   1.050  17.638  0.6212  0.1184  0.4659
  602TMC3    C4 8973   1.897   0.785  17.695  0.5093  0.0570  0.2352
  602TMC3    C5 8974   1.773   0.831  17.643 -0.0185 -0.0059 -0.0487
  602TMC3    C6 8975   1.761   0.966  17.621 -0.4072  0.0832  0.9081
  602TMC3     C 8976   2.137   0.825  17.726  0.4323  0.3692  0.4571
  602TMC3     O 8977   2.231   0.873  17.663 -0.1641  0.3232  0.8041
  602TMC3     H 8978   2.081   1.066  17.669 -0.5756  0.2758 -0.8748
  602TMC3    H1 8979   1.915   0.679  17.711  0.0872 -0.0203  0.1889
  602TMC3    H2 8980   1.667   0.997  17.578 -1.5957 -2.1008  1.9596
  602TMC3    C7 8981   1.672   0.745  17.588  0.6679 -0.1641 -0.5988
  602TMC3    C8 8982   1.839   1.189  17.650 -0.6572 -0.1835  0.5425
  602TMC3    O1 8983   1.723   0.650  17.527  0.0352 -0.1565 -0.3645
  602TMC3    O2 8984   1.932   1.268  17.634 -0.1795 -0.9383 -0.2408
  603TMC3    C1 8985   0.121   0.747  10.829  0.1247 -0.4861  0.1001
  603TMC3    C2 8986   0.126   0.756  10.967  0.3427 -0.0790 -0.5105
  603TMC3    C3 8987   0.133   0.884  11.016  0.5561  0.4979  0.2239
  603TMC3    C4 8988   0.105   0.846  10.737 -0.5421  0.4594 -0.1743
  603TMC3    C5 8989   0.108   0.974  10.792 -0.3408 -0.1313 -0.1238
  603TMC3    C6 8990   0.123   0.993  10.929 -0.1179  0.0506 -0.8514
  603TMC3     C 8991   0.130   0.621  10.755  0.4961  0.3324  0.7007
  603TMC3     O 8992   0.174   0.628  10.644  0.4263 -0.0083  0.2662
  603TMC3     H 8993   0.140   0.668  11.029  0.2917 -1.3339 -2.2795
  603TMC3    H1 8994   0.090   0.827  10.631 -1.3457  0.3889 -0.0440
  603TMC3    H2 8995   0.094   1.091  10.967 -0.5628 -1.0903  1.7307
  603TMC3    C7 8996   0.072   1.079  10.700 -0.1617 -0.1432  0.3100
  603TMC3    C8 8997   0.130   0.906  11.156  0.3970 -0.0962  0.4852
  603TMC3    O1 8998   0.075   1.197  10.734  0.3853 -0.8875 -0.1404
  603TMC3    O2 8999   0.154   0.800  11.211 -0.2730  0.4147 -0.6074
  604MPD2     C 9000   0.367   4.392  16.312 -0.5993 -0.3318  0.4386
  604MPD2    C1 9001   0.372   4.513  16.254  0.2810  0.0908  0.3221
  604MPD2    C2 9002   0.400   4.521  16.119  0.3871 -0.2065  0.3745
  604MPD2    C3 9003   0.439   4.407  16.051 -0.3029  0.1221  0.1317
  604MPD2    C4 9004   0.443   4.285  16.112 -0.2505  0.5895  0.1917
  604MPD2    C5 9005   0.404   4.274  16.247 -0.9580 -0.1865  0.1573
  604MPD2     H 9006   0.405   4.619  16.072  3.2030 -0.8125 -0.6032
  604MPD2    H1 9007   0.464   4.202  16.046  1.6745  0.2820  1.1962
  604MPD2    H2 9008   0.352   4.379  16.418  1.0092 -3.6355  0.2735
  604MPD2    H3 9009   0.413   4.178  16.298 -0.6234 -0.3795 -0.2615
  604MPD2     N 9010   0.465   4.423  15.914 -0.3086  0.1985 -0.5013
  604MPD2    H5 9011   0.442   4.516  15.880 -1.5089  0.1437  0.1225
  604MPD2    N1 9012   0.348   4.629  16.330  0.0451 -0.0199 -0.1955
  604MPD2    H7 9013   0.322   4.604  16.425  0.3955 -0.0902 -0.1193
  605TMC3    C1 9014   0.343   0.115  16.392  0.1579  0.6252 -0.7890
  605TMC3    C2 9015   0.407   0.077  16.507 -0.0261 -0.4563 -0.2092
  605TMC3    C3 9016   0.416   0.176  16.608 -0.2495  1.0939  0.6160
  605TMC3    C4 9017   0.282   0.236  16.375  0.3048 -0.1793  0.2547
  605TMC3    C5 9018   0.309   0.329  16.474 -0.5442 -1.0968  0.1152
  605TMC3    C6 9019   0.368   0.297  16.591 -0.0474  0.2900  0.3192
  605TMC3     C 9020   0.328   0.015  16.281  0.1268 -0.9492  0.3053
  605TMC3     O 9021   0.341   0.058  16.167 -0.1756  0.1758  0.2312
  605TMC3     H 9022   0.454   4.720  16.521  0.4640 -0.2016 -0.0720
  605TMC3    H1 9023   0.226   0.253  16.283  1.2674  2.2518  0.1329
  605TMC3    H2 9024   0.376   0.363  16.677  0.1367 -0.0690  0.5747
  605TMC3    C7 9025   0.243   0.458  16.464  0.5146 -0.4145 -0.6412
  605TMC3    C8 9026   0.518   0.159  16.716 -0.2466 -0.4755  0.0055
  605TMC3    O1 9027   0.257   0.529  16.561 -0.1052 -0.2666  0.7884
  605TMC3    O2 9028   0.486   0.215  16.824  0.6488  0.1675  0.5326
  606TMC3    C1 9029   1.339   3.167  17.217  0.3017 -0.1906  0.2444
  606TMC3    C2 9030   1.327   3.133  17.347 -0.6747 -0.0375  0.4905
  606TMC3    C3 9031   1.313   3.000  17.383  0.1821 -0.6936 -0.0429
  606TMC3    C4 9032   1.322   3.069  17.118  0.9592  0.6628  0.8236
  606TMC3    C5 9033   1.313   2.937  17.157  0.1180 -0.6666 -0.6395
  606TMC3    C6 9034   1.309   2.897  17.293  0.0488 -0.2678 -0.6342
  606TMC3     C 9035   1.337   3.304  17.164 -0.0031  0.0580 -0.3760
  606TMC3     O 9036   1.370   3.312  17.042 -0.0199 -0.1639  0.8143
  606TMC3     H 9037   1.334   3.206  17.428 -0.8373 -0.6503  1.0612
  606TMC3    H1 9038   1.340   3.094  17.014  0.1835  1.1356  0.8057
  606TMC3    H2 9039   1.296   2.794  17.324 -2.4485  1.1560  2.9657
  606TMC3    C7 9040   1.390   2.848  17.067 -0.7864  0.0931 -0.6174
  606TMC3    C8 9041   1.398   2.969  17.497 -0.2581  0.4442  0.0461
  606TMC3    O1 9042   1.421   2.895  16.958 -0.2244 -0.0000 -0.2053
  606TMC3    O2 9043   1.477   3.057  17.528 -0.1308  0.0202 -0.1975
  607MPD2     C 9044   3.615   0.910  11.850  0.4382 -0.3086 -0.0650
  607MPD2    C1 9045   3.700   1.003  11.901  0.2771  0.1064  0.2278
  607MPD2    C2 9046   3.722   1.009  12.038  0.2742  0.7627 -0.3038
  607MPD2    C3 9047   3.671   0.910  12.115 -0.0628  0.1702 -0.2264
  607MPD2    C4 9048   3.583   0.816  12.065 -0.3340  0.5037 -1.0355
  607MPD2    C5 9049   3.550   0.818  11.930 -0.4471 -0.3670  0.3686
  607MPD2     H 9050   3.797   1.082  12.067  1.1462 -0.8014  1.4112
  607MPD2    H1 9051   3.549   0.728  12.118  0.3581  0.8697  0.0272
  607MPD2    H2 9052   3.596   0.895  11.744 -1.8236  1.6247  0.0792
  607MPD2    H3 9053   3.493   0.742  11.879 -2.1860 -0.5421  2.5969
  607MPD2     N 9054   3.716   0.914  12.251  0.0728  0.1304  0.3594
  607MPD2    H5 9055   3.771   0.994  12.282  0.4389  0.2058 -0.4776
  607MPD2    N1 9056   3.772   1.094  11.821  0.5118  0.6264  0.0360
  607MPD2    H7 9057   3.853   1.137  11.865 -0.0638  2.2010 -0.4325
  608TMC3    C1 9058   3.812   1.265  11.663 -0.2329  0.3402 -0.0026
  608TMC3    C2 9059   3.884   1.318  11.761  0.3044  0.3197  0.6022
  608TMC3    C3 9060   3.987   1.404  11.716  0.4948 -0.0655 -0.0741
  608TMC3    C4 9061   3.834   1.286  11.527  0.1755 -0.3184 -0.2541
  608TMC3    C5 9062   3.940   1.371  11.500 -0.3461 -0.0197  0.9334
  608TMC3    C6 9063   4.020   1.433  11.589  0.5282 -0.0581 -0.6497
  608TMC3     C 9064   3.734   1.144  11.696  0.1952 -0.6832  0.1128
  608TMC3     O 9065   3.644   1.107  11.625  0.4283  0.2266  0.7074
  608TMC3     H 9066   3.855   1.316  11.865 -2.9916 -1.2161 -0.3329
  608TMC3    H1 9067   3.780   1.238  11.447  0.6921  0.0986 -0.8568
  608TMC3    H2 9068   4.115   1.483  11.570  0.7453 -0.2149  0.0312
  608TMC3    C7 9069   3.996   1.386  11.365 -0.1721  0.0682  0.2255
  608TMC3    C8 9070   4.087   1.447  11.812  0.5009  0.2575  0.4367
  608TMC3    O1 9071   4.059   1.487  11.344  0.1824  0.1347 -0.4067
  608TMC3    O2 9072   4.159   1.546  11.795  0.4804 -0.9580 -0.1750
  609TMC3    C1 9073   2.748   0.777   9.066  0.3735  0.3522  0.4964
  609TMC3    C2 9074   2.774   0.865   8.964 -0.2396 -0.1403  0.3520
  609TMC3    C3 9075   2.904   0.900   8.930 -0.2379  0.1002 -0.1182
  609TMC3    C4 9076   2.855   0.718   9.128 -0.3931 -0.0127  0.3078
  609TMC3    C5 9077   2.982   0.749   9.093  0.0194 -1.0456  0.5161
  609TMC3    C6 9078   3.009   0.841   8.993  0.1070 -0.5270 -0.4345
  609TMC3     C 9079   2.621   0.746   9.120 -0.3886 -0.1466 -0.2072
  609TMC3     O 9080   2.621   0.678   9.219 -0.8785 -0.6698 -0.1467
  609TMC3     H 9081   2.695   0.901   8.899  0.4038  3.8496  1.7785
  609TMC3    H1 9082   2.843   0.657   9.217  1.1481  0.4558  0.8346
  609TMC3    H2 9083   3.106   0.879   8.966  0.7614 -2.3682 -0.6339
  609TMC3    C7 9084   3.098   0.688   9.166  0.4575 -0.2297 -0.4648
  609TMC3    C8 9085   2.935   0.992   8.827 -0.1320 -0.3357 -0.3094
  609TMC3    O1 9086   3.073   0.623   9.260 -0.6167 -0.3928  0.7080
  609TMC3    O2 9087   3.048   0.991   8.780  0.0235 -0.6494  0.2924
  610TMC3    C1 9088   0.056   1.055  12.328 -0.3457  0.1620  1.0295
  610TMC3    C2 9089   4.681   1.068  12.247  0.1438  0.0265 -0.4984
  610TMC3    C3 9090   4.564   1.015  12.286  0.9198 -0.1246 -0.6146
  610TMC3    C4 9091   0.047   0.984  12.441 -0.8317 -0.0133  0.6852
  610TMC3    C5 9092   4.663   0.934  12.483  0.5756 -0.0840  0.3286
  610TMC3    C6 9093   4.553   0.943  12.405 -0.2306  0.6272 -0.5140
  610TMC3     C 9094   0.186   1.060  12.263  0.2515 -0.1345 -0.1320
  610TMC3     O 9095   0.282   1.054  12.340  0.4196 -0.2476  0.0452
  610TMC3     H 9096   4.694   1.129  12.158 -1.4536 -2.3218 -2.3285
  610TMC3    H1 9097   0.131   0.962  12.506 -1.5879  2.8915  2.6436
  610TMC3    H2 9098   4.456   0.909  12.440  0.1130 -1.9087 -2.0039
  610TMC3    C7 9099   4.644   0.887  12.621 -0.5523 -0.0509 -0.0107
  610TMC3    C8 9100   4.455   1.038  12.193 -0.8050  0.2900 -1.1677
  610TMC3    O1 9101   0.010   0.861  12.678  0.0446  0.1045 -0.1670
  610TMC3    O2 9102   4.461   1.132  12.113 -0.2754  0.6142 -0.6118
  611MPD2     C 9103   3.852   0.475  10.322  0.0834 -0.1203  1.1005
  611MPD2    C1 9104   3.783   0.572  10.249 -0.0820  0.0072  0.6965
  611MPD2    C2 9105   3.847   0.685  10.197  0.4073  0.6750 -0.6423
  611MPD2    C3 9106   3.982   0.709  10.226  0.8048 -0.3010 -0.3274
  611MPD2    C4 9107   4.046   0.621  10.312  0.4276 -0.5231 -0.3521
  611MPD2    C5 9108   3.985   0.505  10.355 -0.0351 -0.5271  0.3691
  611MPD2     H 9109   3.790   0.756  10.138  0.8235  0.7229 -0.9853
  611MPD2    H1 9110   4.150   0.630  10.339  0.5726  0.1918 -1.1451
  611MPD2    H2 9111   3.794   0.403  10.380 -1.4345  1.1898  1.1987
  611MPD2    H3 9112   4.040   0.436  10.417  0.0310 -2.2787 -1.6406
  611MPD2     N 9113   4.052   0.820  10.176 -0.0354  0.0902 -0.6885
  611MPD2    H5 9114   4.152   0.806  10.186  0.2181  2.4490  0.0884
  611MPD2    N1 9115   3.652   0.551  10.230 -0.3140  0.1389  0.8769
  611MPD2    H7 9116   3.613   0.473  10.283  2.8787 -3.1987 -1.7360
  612TMC3    C1 9117   4.093   1.012  10.039  0.2587  0.0763  0.2696
  612TMC3    C2 9118   4.210   1.036  10.100 -0.3175  0.0719  0.1270
  612TMC3    C3 9119   4.295   1.117  10.033  0.4344 -1.1579 -0.7398
  612TMC3    C4 9120   4.057   1.056   9.915 -0.2637 -0.5879  0.3272
  612TMC3    C5 9121   4.141   1.135   9.848  0.1677  0.4524  0.4547
  612TMC3    C6 9122   4.255   1.165   9.909  0.0694 -0.8146  0.2177
  612TMC3     C 9123   4.005   0.919  10.099 -0.1661 -0.4251 -0.0125
  612TMC3     O 9124   3.890   0.951  10.084 -0.2667  0.2405  0.2386
  612TMC3     H 9125   4.242   0.998  10.197 -1.4891  1.8044  1.1886
  612TMC3    H1 9126   3.964   1.025   9.869 -1.0062 -0.1222  1.4932
  612TMC3    H2 9127   4.326   1.232   9.861 -2.2290  1.4925  0.0455
  612TMC3    C7 9128   4.084   1.230   9.754  0.6587  0.3942  0.3665
  612TMC3    C8 9129   4.407   1.182  10.102 -0.1875 -0.1560 -0.2331
  612TMC3    O1 9130   3.962   1.251   9.751  0.5180 -0.4330 -0.4112
  612TMC3    O2 9131   4.441   1.281  10.047 -0.3768 -0.0264  0.2556
  613MPD2     C 9132   3.276   3.257  16.483  0.2228 -0.3328  0.5254
  613MPD2    C1 9133   3.222   3.131  16.477 -0.5782 -0.0552 -0.0994
  613MPD2    C2 9134   3.156   3.068  16.574  0.0853  0.9164 -0.1758
  613MPD2    C3 9135   3.110   3.146  16.682  0.2783  0.2368  0.3637
  613MPD2    C4 9136   3.164   3.275  16.692 -0.1262 -0.2199  0.3854
  613MPD2    C5 9137   3.247   3.333  16.597  0.5875 -0.0359 -0.2147
  613MPD2     H 9138   3.135   2.962  16.583 -2.0895  1.3340 -0.3437
  613MPD2    H1 9139   3.135   3.344  16.770  0.3306  0.6621 -0.2220
  613MPD2    H2 9140   3.329   3.302  16.400 -0.2823 -0.5011  0.1095
  613MPD2    H3 9141   3.284   3.434  16.606  0.6223  0.2530 -3.4078
  613MPD2     N 9142   3.017   3.094  16.780 -0.2043 -0.1150  0.0486
  613MPD2    H5 9143   2.992   2.997  16.761 -0.0060 -0.2674  0.5863
  613MPD2    N1 9144   3.253   3.068  16.357 -0.7935  1.0552 -0.1573
  613MPD2    H7 9145   3.309   3.121  16.291 -0.4486 -0.5957 -1.1926
  614TMC3    C1 9146   3.200   2.936  16.178  0.0158  0.1936 -0.5503
  614TMC3    C2 9147   3.147   2.815  16.139 -0.5405 -0.0517 -0.0061
  614TMC3    C3 9148   3.056   2.802  16.035  0.2485  0.1460 -0.3401
  614TMC3    C4 9149   3.174   3.049  16.098  0.2037  0.0415  0.2544
  614TMC3    C5 9150   3.106   3.030  15.983 -0.2979  0.0371 -0.0273
  614TMC3    C6 9151   3.039   2.910  15.950  0.3748 -0.1905 -0.3511
  614TMC3     C 9152   3.207   2.945  16.320  0.0023  0.4143 -0.7061
  614TMC3     O 9153   3.176   2.845  16.383  0.2536  0.6200 -0.5167
  614TMC3     H 9154   3.178   2.727  16.193 -0.7460 -1.3597 -2.0234
  614TMC3    H1 9155   3.192   3.152  16.126  0.1852  0.2201 -0.3890
  614TMC3    H2 9156   2.973   2.891  15.866  2.0581 -0.2489 -1.6566
  614TMC3    C7 9157   3.111   3.147  15.900  0.3297 -0.2832 -0.1122
  614TMC3    C8 9158   2.930   2.746  16.081  0.0142 -0.1762 -1.3394
  614TMC3    O1 9159   3.184   3.242  15.933 -0.4212 -0.0981  0.2272
  614TMC3    O2 9160   2.838   2.750  15.999  0.4344 -0.1416 -0.6193
  615MPD2     C 9161   2.383   4.332  16.072  0.3427  0.2655 -0.3127
  615MPD2    C1 9162   2.411   4.466  16.079  0.9082  0.3402 -0.0460
  615MPD2    C2 9163   2.369   4.554  15.979  0.2334 -0.5663  0.4704
  615MPD2    C3 9164   2.319   4.510  15.860  0.5034 -0.4296 -0.0367
  615MPD2    C4 9165   2.295   4.371  15.852  0.5035  0.1971 -0.9520
  615MPD2    C5 9166   2.327   4.294  15.959  0.3892  0.5042 -0.5986
  615MPD2     H 9167   2.406   4.656  15.983  0.6800 -0.8015  2.4185
  615MPD2    H1 9168   2.250   4.317  15.770  2.2181  0.0811 -1.8156
  615MPD2    H2 9169   2.404   4.249  16.139  1.3795  0.3531 -0.5172
  615MPD2    H3 9170   2.311   4.187  15.947 -0.0679  0.3571  1.3208
  615MPD2     N 9171   2.272   4.592  15.749  0.4576 -0.1710 -0.3716
  615MPD2    H5 9172   2.231   4.543  15.671  0.5260  2.3104 -1.9562
  615MPD2    N1 9173   2.496   4.513  16.188 -0.0582 -0.3292 -0.0765
  615MPD2    H7 9174   2.487   4.613  16.203  1.4966 -0.4086  1.3659
  616TMC3    C1 9175   2.609   4.500  16.396  0.3194  0.0622 -0.0636
  616TMC3    C2 9176   2.716   4.440  16.456  0.1543 -0.4602  0.0050
  616TMC3    C3 9177   2.733   4.481  16.583  0.3454 -0.1547  0.6285
  616TMC3    C4 9178   2.525   4.588  16.458 -0.0060 -0.7035 -0.5665
  616TMC3    C5 9179   2.562   4.634  16.580 -0.5280 -0.6762  0.5932
  616TMC3    C6 9180   2.665   4.572  16.652 -0.3532  0.5254  0.0675
  616TMC3     C 9181   2.568   4.430  16.273  0.6292  0.3813 -0.6992
  616TMC3     O 9182   2.583   4.309  16.261  0.0975  0.3965  0.2745
  616TMC3     H 9183   2.791   4.379  16.408 -0.5043 -0.3094 -1.2204
  616TMC3    H1 9184   2.431   4.614  16.411  1.9070  3.2771 -2.1150
  616TMC3    H2 9185   2.690   4.606  16.752 -1.7496  0.9926  0.2547
  616TMC3    C7 9186   2.472   4.718  16.657 -0.3765 -0.0317  0.5638
  616TMC3    C8 9187   2.854   4.441  16.648 -0.2736 -0.4965 -0.3753
  616TMC3    O1 9188   2.516   0.009  16.767 -0.0071  0.0069  0.2503
  616TMC3    O2 9189   2.901   4.326  16.632 -0.2526  0.6474 -0.0893
  617MPD2     C 9190   0.928   2.719  13.449  0.4983 -0.2055  0.3825
  617MPD2    C1 9191   0.915   2.611  13.535 -0.3391 -0.1508 -0.0353
  617MPD2    C2 9192   0.794   2.544  13.550 -0.0381 -0.2423  0.5267
  617MPD2    C3 9193   0.680   2.589  13.481  1.2462  0.5613 -0.0942
  617MPD2    C4 9194   0.696   2.692  13.391 -0.4566  0.1357  0.0748
  617MPD2    C5 9195   0.815   2.756  13.383  0.9676 -0.1843 -0.1345
  617MPD2     H 9196   0.791   2.464  13.624 -2.5651 -1.1679 -0.5776
  617MPD2    H1 9197   0.617   2.723  13.324  0.6891  1.1992 -0.7666
  617MPD2    H2 9198   1.025   2.765  13.433 -0.8370  2.2533 -0.5590
  617MPD2    H3 9199   0.818   2.841  13.316  1.3107  0.0168  0.1379
  617MPD2     N 9200   0.547   2.545  13.493 -0.3773  0.4669 -0.0038
  617MPD2    H5 9201   0.478   2.588  13.431  0.8848 -0.3375 -1.9786
  617MPD2    N1 9202   1.036   2.575  13.592 -0.2316 -0.3485  0.0756
  617MPD2    H7 9203   1.118   2.632  13.576 -1.3438  1.1049 -0.4400
  618TMC3    C1 9204   1.184   2.425  13.712  0.4888 -0.4573 -0.2327
  618TMC3    C2 9205   1.235   2.339  13.622 -0.2453  0.0617  0.0813
  618TMC3    C3 9206   1.371   2.328  13.613 -0.2429  0.2407  1.2082
  618TMC3    C4 9207   1.262   2.497  13.796  0.1341 -0.1155 -0.6574
  618TMC3    C5 9208   1.395   2.471  13.789  0.0048 -0.0135 -0.6703
  618TMC3    C6 9209   1.448   2.385  13.700  0.0821  0.4204 -0.3240
  618TMC3     C 9210   1.044   2.466  13.685 -0.5291 -0.3914  0.0621
  618TMC3     O 9211   0.963   2.393  13.741  0.3400 -0.1318  0.1784
  618TMC3     H 9212   1.169   2.300  13.546 -0.1802 -1.7421  0.9585
  618TMC3    H1 9213   1.226   2.573  13.864  3.8534  0.9264  0.1143
  618TMC3    H2 9214   1.555   2.385  13.683  0.1521 -3.7419  0.0841
  618TMC3    C7 9215   1.468   2.563  13.870  0.4703 -0.1154  0.1756
  618TMC3    C8 9216   1.433   2.288  13.487 -0.0566 -0.9148  0.0510
  618TMC3    O1 9217   1.417   2.602  13.973  0.2826  0.0738  0.2521
  618TMC3    O2 9218   1.527   2.346  13.440 -0.0986  0.0428  0.8917
  619MPD2     C 9219   1.864   3.773  13.648  0.1528  0.2279 -0.3163
  619MPD2    C1 9220   1.766   3.841  13.583 -0.3238  0.1688  0.1773
  619MPD2    C2 9221   1.639   3.832  13.639  0.3075 -0.0930 -0.5931
  619MPD2    C3 9222   1.605   3.752  13.741 -0.0599 -0.7140 -0.1680
  619MPD2    C4 9223   1.706   3.689  13.807  0.1400 -0.5870  0.2509
  619MPD2    C5 9224   1.832   3.693  13.757  0.1942  1.0170  0.0197
  619MPD2     H 9225   1.566   3.896  13.589  0.1246  1.3962  1.5959
  619MPD2    H1 9226   1.689   3.621  13.889 -1.9314  0.6661  0.8885
  619MPD2    H2 9227   1.968   3.770  13.619  0.6611 -1.4352  1.6891
  619MPD2    H3 9228   1.907   3.629  13.802  1.5019  3.1050  0.8107
  619MPD2     N 9229   1.475   3.733  13.790 -1.0512  0.5519 -0.1153
  619MPD2    H5 9230   1.459   3.687  13.879  0.1035  0.8714  0.2595
  619MPD2    N1 9231   1.793   3.938  13.489  0.3648 -1.0868 -0.2771
  619MPD2    H7 9232   1.715   3.976  13.436  1.1974  0.4250 -0.4206
  620TMC3    C1 9233   1.899   4.087  13.344  0.4657 -0.4234  0.8904
  620TMC3    C2 9234   1.770   4.133  13.323  0.9207 -0.0431 -0.2587
  620TMC3    C3 9235   1.748   4.270  13.307 -0.4025 -0.7158  0.5969
  620TMC3    C4 9236   2.004   4.176  13.364 -0.3792  0.2306  0.6526
  620TMC3    C5 9237   1.975   4.311  13.362 -0.3075 -0.0352 -0.1081
  620TMC3    C6 9238   1.846   4.360  13.328  0.0510 -0.6586 -0.3393
  620TMC3     C 9239   1.910   3.990  13.455 -0.1361 -0.7399 -0.1272
  620TMC3     O 9240   2.019   3.968  13.507  0.1023 -0.4415  0.0570
  620TMC3     H 9241   1.688   4.064  13.301 -0.3165  1.8209 -1.4726
  620TMC3    H1 9242   2.106   4.147  13.388 -0.9392 -3.4130 -1.3445
  620TMC3    H2 9243   1.815   4.464  13.322  1.7815 -0.2836 -2.9520
  620TMC3    C7 9244   2.085   4.403  13.378  0.7452  0.3152 -0.4204
  620TMC3    C8 9245   1.624   4.301  13.379  0.3763  0.1700  0.2026
  620TMC3    O1 9246   2.201   4.365  13.379  0.2743  0.5144  0.5169
  620TMC3    O2 9247   1.557   4.399  13.343 -0.0697 -0.3869 -0.6597
  621MPD2     C 9248   1.304   4.339  10.535 -0.9874  0.4480  0.1453
  621MPD2    C1 9249   1.273   4.314  10.403 -0.1055  0.6493  0.8300
  621MPD2    C2 9250   1.270   4.414  10.306  0.5186  0.3130  0.5189
  621MPD2    C3 9251   1.296   4.547  10.341  0.0872 -0.2237 -0.0497
  621MPD2    C4 9252   1.321   4.570  10.476  0.3626 -0.0290 -0.4240
  621MPD2    C5 9253   1.319   4.471  10.570 -0.3537 -0.6621  0.8502
  621MPD2     H 9254   1.241   4.394  10.204  0.6208  0.7187  0.4108
  621MPD2    H1 9255   1.339   4.672  10.507 -2.5837  1.0533 -2.2974
  621MPD2    H2 9256   1.282   4.273  10.618  0.5203 -1.4121 -0.9381
  621MPD2    H3 9257   1.351   4.487  10.672 -0.6794  0.8335  0.7201
  621MPD2     N 9258   1.299   4.648  10.238 -0.0659 -0.5361  0.2615
  621MPD2    H5 9259   1.282   4.606  10.147  1.0241 -1.6108  0.5561
  621MPD2    N1 9260   1.261   4.184  10.353  0.9993 -0.2823  0.1144
  621MPD2    H7 9261   1.257   4.174  10.252  2.2386 -0.4823  0.0832
  622TMC3    C1 9262   1.244   3.947  10.332 -0.1901  0.1218  0.2382
  622TMC3    C2 9263   1.154   3.963  10.230  0.3708 -0.4224  0.8744
  622TMC3    C3 9264   1.103   3.854  10.173  0.1425  0.5376  0.0524
  622TMC3    C4 9265   1.276   3.824  10.387  0.0364  0.4303 -0.0608
  622TMC3    C5 9266   1.212   3.721  10.328 -0.1315 -0.5628 -0.2574
  622TMC3    C6 9267   1.124   3.735  10.220  0.4092 -1.0239  0.8889
  622TMC3     C 9268   1.271   4.062  10.413  0.3318  0.6856 -0.3285
  622TMC3     O 9269   1.317   4.034  10.526 -0.2463  0.6535  0.0043
  622TMC3     H 9270   1.126   4.063  10.200 -0.6376 -0.6061  1.1893
  622TMC3    H1 9271   1.348   3.816  10.468 -2.0046  0.9632  1.7940
  622TMC3    H2 9272   1.094   3.641  10.175  0.1885 -0.4934 -0.0662
  622TMC3    C7 9273   1.236   3.589  10.384 -0.3520 -0.0103 -0.6841
  622TMC3    C8 9274   1.038   3.865  10.041  0.1975  0.2969 -0.5561
  622TMC3    O1 9275   1.151   3.504  10.391 -1.2485  0.3982 -0.0360
  622TMC3    O2 9276   1.001   3.762   9.991 -0.3055 -0.7280 -0.0769
  623MPD2     C 9277   1.233   0.021  15.771 -0.3528 -0.5016  0.5395
  623MPD2    C1 9278   1.147   4.669  15.831 -0.0089  0.2572 -0.0986
  623MPD2    C2 9279   1.178   4.606  15.951  0.0996 -0.2612  0.6133
  623MPD2    C3 9280   1.293   4.640  16.014  0.0154 -0.1104 -0.4374
  623MPD2    C4 9281   1.382   4.718  15.945 -0.3036 -0.1387 -0.6887
  623MPD2    C5 9282   1.354   0.032  15.822 -0.3058 -0.3613  0.0890
  623MPD2     H 9283   1.102   4.548  16.001  0.6078  0.1875  1.9092
  623MPD2    H1 9284   1.478   4.739  15.989 -0.4308 -0.5858 -0.1986
  623MPD2    H2 9285   1.215   0.074  15.678  0.1121 -0.9251  0.2076
  623MPD2    H3 9286   1.419   0.100  15.770 -0.2947 -0.5752 -0.1783
  623MPD2     N 9287   1.321   4.595  16.150 -0.2047 -0.3381  0.7137
  623MPD2    H5 9288   1.243   4.544  16.191 -1.5599  0.2379 -1.1374
  623MPD2    N1 9289   1.016   4.664  15.777 -0.5424 -0.1844  0.2604
  623MPD2    H7 9290   0.991   0.004  15.721  1.5870 -1.1254 -2.0105
  624TMC3    C1 9291   1.451   4.599  16.608  0.8664 -0.5912  0.9274
  624TMC3    C2 9292   1.318   4.583  16.643 -0.1043 -0.1811  0.1029
  624TMC3    C3 9293   1.224   4.598  16.544 -0.6441 -0.4499  0.5167
  624TMC3    C4 9294   1.483   4.613  16.471 -1.0248 -0.6104 -0.0273
  624TMC3    C5 9295   1.377   4.613  16.377  0.7547 -0.1862  0.6300
  624TMC3    C6 9296   1.248   4.605  16.412  0.0194  0.1508  0.2121
  624TMC3     C 9297   1.547   4.557  16.700 -0.4640 -0.6528  1.3434
  624TMC3     O 9298   1.506   4.490  16.795  0.0878 -0.1628 -0.5330
  624TMC3     H 9299   1.297   4.588  16.749 -0.8813 -0.7976 -0.0158
  624TMC3    H1 9300   1.581   4.641  16.435 -1.6013  1.4859  0.0210
  624TMC3    H2 9301   1.169   4.615  16.339 -0.9710 -0.8884  1.1433
  624TMC3    C7 9302   1.415   4.629  16.236 -0.5706 -0.3595 -0.2640
  624TMC3    C8 9303   1.090   4.631  16.579 -0.3939 -0.0655 -0.3831
  624TMC3    O1 9304   1.523   4.689  16.218 -0.4009  0.2008  0.1077
  624TMC3    O2 9305   1.001   4.630  16.491  0.3451  0.0500 -0.1874
  625MPD2     C 9306   1.456   1.780   0.811 -0.9723 -0.0136 -0.7404
  625MPD2    C1 9307   1.517   1.868   0.731  0.1057  1.0945 -0.2645
  625MPD2    C2 9308   1.651   1.855   0.710 -1.0506  0.4295 -0.3196
  625MPD2    C3 9309   1.721   1.739   0.760 -0.4257  0.3764  0.1059
  625MPD2    C4 9310   1.663   1.663   0.854  0.6644 -0.0968  0.3826
  625MPD2    C5 9311   1.530   1.681   0.873 -0.5134  0.2146 -0.5600
  625MPD2     H 9312   1.695   1.918   0.633  0.6033 -0.2480  0.0750
  625MPD2    H1 9313   1.710   1.582   0.907  0.8633  0.6700  1.3802
  625MPD2    H2 9314   1.350   1.775   0.834 -0.2261  0.5519  2.8008
  625MPD2    H3 9315   1.478   1.615   0.942  1.5225  0.0510  0.7919
  625MPD2     N 9316   1.859   1.730   0.733 -0.6177 -0.7649  0.5019
  625MPD2    H5 9317   1.901   1.812   0.691 -0.0789 -0.3840  1.7762
  625MPD2    N1 9318   1.440   1.961   0.658 -0.0032 -0.0258  0.4352
  625MPD2    H7 9319   1.486   2.020   0.589  0.1077  0.5390  0.9888
  626TMC3    C1 9320   1.275   2.126   0.628 -0.1307 -0.3980  0.0446
  626TMC3    C2 9321   1.255   2.097   0.493  0.3122 -0.3792  0.1501
  626TMC3    C3 9322   1.156   2.163   0.432  0.1605 -0.5044  0.2929
  626TMC3    C4 9323   1.198   2.212   0.696  0.2429  0.6074 -0.3542
  626TMC3    C5 9324   1.095   2.276   0.623 -0.6136 -0.1703  0.2509
  626TMC3    C6 9325   1.078   2.257   0.492 -0.3002  0.6438 -0.7833
  626TMC3     C 9326   1.321   2.013   0.701 -0.1476  0.5598 -0.4643
  626TMC3     O 9327   1.269   2.000   0.811  0.2425  0.8634 -0.0806
  626TMC3     H 9328   1.315   2.025   0.439 -1.3417  0.8227 -3.2476
  626TMC3    H1 9329   1.208   2.220   0.803  2.3188 -2.1607 -0.3367
  626TMC3    H2 9330   1.008   2.316   0.434 -2.2983 -0.2140  0.7598
  626TMC3    C7 9331   0.985   2.323   0.695 -0.5672  0.2540 -0.0944
  626TMC3    C8 9332   1.129   2.132   0.293  0.5944 -0.6814  0.1435
  626TMC3    O1 9333   0.999   2.382   0.802 -0.2723  0.0510 -0.1034
  626TMC3    O2 9334   1.128   2.014   0.264  0.4075  0.5423  0.0293
  627MPD2     C 9335   4.388   1.524  14.149 -0.5782  0.0158  0.5751
  627MPD2    C1 9336   4.445   1.469  14.263  0.0238 -0.4495  0.1920
  627MPD2    C2 9337   4.402   1.348  14.309  0.0874  0.0454  0.4600
  627MPD2    C3 9338   4.304   1.280  14.235  0.9065  0.1424 -0.0753
  627MPD2    C4 9339   4.250   1.335  14.115 -0.6921  0.5725  0.5315
  627MPD2    C5 9340   4.295   1.457  14.076 -0.9082 -0.3735 -0.5703
  627MPD2     H 9341   4.461   1.292  14.380  1.2792 -1.4633 -1.7446
  627MPD2    H1 9342   4.190   1.276  14.047 -0.7630  1.9841 -0.6343
  627MPD2    H2 9343   4.402   1.622  14.104 -0.9886  0.2531  0.9541
  627MPD2    H3 9344   4.244   1.492  13.986  0.0892  1.7459 -0.3146
  627MPD2     N 9345   4.255   1.157  14.289  0.4144 -0.0490 -0.4503
  627MPD2    H5 9346   4.270   1.130  14.386  1.1589 -0.6935 -0.7403
  627MPD2    N1 9347   4.539   1.545  14.339 -0.2137  0.5668 -0.0390
  627MPD2    H7 9348   4.579   1.500  14.421  1.2211  0.4825 -0.7790
  628TMC3    C1 9349   4.673   1.734  14.408  0.3238 -0.6140  0.0698
  628TMC3    C2 9350   4.716   1.666  14.527  0.1872  0.2006 -0.1431
  628TMC3    C3 9351   0.065   1.730  14.609 -0.1631  0.3151 -0.3321
  628TMC3    C4 9352   4.739   1.847  14.363 -0.0213  0.7666  0.8014
  628TMC3    C5 9353   0.080   1.908  14.454  0.4221 -0.7217  1.0654
  628TMC3    C6 9354   0.117   1.851  14.574 -0.3271  0.2109 -0.1992
  628TMC3     C 9355   4.586   1.671  14.307  0.5331 -0.3630  0.5907
  628TMC3     O 9356   4.563   1.734  14.208  0.3386 -0.5377 -0.1717
  628TMC3     H 9357   4.672   1.569  14.551 -2.6182  1.3284 -0.6911
  628TMC3    H1 9358   4.703   1.904  14.279 -1.5047  0.6856  1.3856
  628TMC3    H2 9359   0.142   1.919  14.654 -1.0243  0.7106 -0.4076
  628TMC3    C7 9360   0.126   2.049  14.446 -0.4366 -0.0292  0.3009
  628TMC3    C8 9361   0.118   1.665  14.734  1.3591 -0.4677  0.2611
  628TMC3    O1 9362   0.194   2.096  14.537 -0.4593 -0.0930  1.1217
  628TMC3    O2 9363   0.068   1.559  14.761  0.2498  0.5469  0.5165
  629MPD2     C 9364   3.336   4.512  16.804  0.3546 -0.1467 -0.3829
  629MPD2    C1 9365   3.301   4.634  16.751 -0.3221 -0.0270 -0.7772
  629MPD2    C2 9366   3.165   4.648  16.707 -0.6716 -0.2022 -0.6258
  629MPD2    C3 9367   3.074   4.544  16.713  0.0608 -0.9173  0.2113
  629MPD2    C4 9368   3.115   4.430  16.782 -0.3306  0.1256 -0.4629
  629MPD2    C5 9369   3.244   4.413  16.825  0.4150  0.0285 -0.3219
  629MPD2     H 9370   3.140   4.736  16.650 -1.3852 -0.3807 -0.5808
  629MPD2    H1 9371   3.044   4.351  16.799  0.2203 -0.2905 -0.1019
  629MPD2    H2 9372   3.438   4.506  16.841  0.6323  1.2391 -0.9329
  629MPD2    H3 9373   3.274   4.322  16.877  0.6580  0.1129 -0.3154
  629MPD2     N 9374   2.939   4.551  16.659  0.2184  0.2126  0.1308
  629MPD2    H5 9375   2.907   4.632  16.607 -3.4672 -2.0385 -1.0477
  629MPD2    N1 9376   3.399   4.736  16.735 -0.1797 -0.0123  0.2481
  629MPD2    H7 9377   3.497   4.708  16.743 -0.4213  0.0367  3.3131
  630TMC3    C1 9378   3.510   0.202  16.723  0.1759  0.7366 -0.4443
  630TMC3    C2 9379   3.521   0.320  16.652  0.3396 -0.0775  0.6582
  630TMC3    C3 9380   3.618   0.405  16.695  0.4604 -0.5443  0.1513
  630TMC3    C4 9381   3.575   0.174  16.838 -0.5841  0.2312 -0.0347
  630TMC3    C5 9382   3.658   0.281  16.878  0.4970 -0.3348  0.1536
  630TMC3    C6 9383   3.675   0.399  16.812 -0.4596 -0.1318  0.8133
  630TMC3     C 9384   3.389   0.123  16.701  0.0399 -0.1786  0.9564
  630TMC3     O 9385   3.288   0.179  16.662 -0.3288 -0.0525  0.5295
  630TMC3     H 9386   3.462   0.329  16.562 -0.6842  0.8803  1.4256
  630TMC3    H1 9387   3.556   0.096  16.911  1.3423 -0.1263  0.0878
  630TMC3    H2 9388   3.730   0.481  16.858 -1.1353  1.0706 -0.5142
  630TMC3    C7 9389   3.761   0.240  16.974 -0.5643 -0.3023  0.2382
  630TMC3    C8 9390   3.698   0.487  16.598  0.0909 -0.8050  0.5440
  630TMC3    O1 9391   3.737   0.148  17.052 -0.1102  0.5343 -0.3524
  630TMC3    O2 9392   3.809   0.531  16.632 -0.7203 -0.0494  0.4183
  631MPD2     C 9393   1.620   0.029  15.007 -0.1837  0.0266 -0.6160
  631MPD2    C1 9394   1.693   0.150  15.017  0.3033 -0.8572  0.3208
  631MPD2    C2 9395   1.808   0.152  15.094 -0.1599  0.0910  0.4262
  631MPD2    C3 9396   1.857   0.043  15.159 -0.6892 -0.1508  0.2025
  631MPD2    C4 9397   1.791   4.662  15.138 -0.7934 -0.8311  0.7172
  631MPD2    C5 9398   1.666   4.657  15.074  0.0813 -0.4798 -0.1714
  631MPD2     H 9399   1.856   0.249  15.102 -1.5832  0.7077  1.5072
  631MPD2    H1 9400   1.834   4.573  15.184  1.0123  0.7984  2.1522
  631MPD2    H2 9401   1.528   0.015  14.951 -1.5241  1.9074  1.1059
  631MPD2    H3 9402   1.611   4.563  15.070 -0.8407  0.1827 -2.8048
  631MPD2     N 9403   1.969   0.065  15.244 -0.2730 -0.0257  0.0395
  631MPD2    H5 9404   2.001   0.161  15.255  1.7866 -0.5381 -1.4308
  631MPD2    N1 9405   1.659   0.272  14.959  0.0466 -0.0067  1.2597
  631MPD2    H7 9406   1.727   0.347  14.965 -0.5387  0.3958  2.7805
  632TMC3    C1 9407   1.522   0.429  14.849 -0.2565  0.2904  0.5704
  632TMC3    C2 9408   1.396   0.476  14.840  0.6373 -0.7860 -0.5789
  632TMC3    C3 9409   1.384   0.614  14.823  0.2619  0.0396  0.0046
  632TMC3    C4 9410   1.639   0.502  14.834  0.0206 -0.2821  0.0184
  632TMC3    C5 9411   1.620   0.637  14.812 -0.1985  0.8405  0.4814
  632TMC3    C6 9412   1.495   0.697  14.814  0.4444 -0.2079  0.2256
  632TMC3     C 9413   1.534   0.295  14.908 -0.0869 -0.6718  0.2416
  632TMC3     O 9414   1.432   0.229  14.909 -0.3209 -0.6749  0.1191
  632TMC3     H 9415   1.300   0.428  14.851  1.4428 -2.1934  0.2116
  632TMC3    H1 9416   1.735   0.457  14.814  0.7324  0.5766  1.5406
  632TMC3    H2 9417   1.475   0.797  14.780 -2.3585 -1.2368 -1.1676
  632TMC3    C7 9418   1.743   0.717  14.768  0.0862  1.1507  0.3766
  632TMC3    C8 9419   1.253   0.674  14.844 -0.6017  0.0032 -0.3163
  632TMC3    O1 9420   1.717   0.821  14.715  0.3728 -0.3655  0.5155
  632TMC3    O2 9421   1.182   0.599  14.919  0.0731 -0.3147 -0.1478
  633MPD2     C 9422   0.994   2.668  17.063  0.1154  0.0346 -0.1160
  633MPD2    C1 9423   1.058   2.616  16.952 -0.6638  0.6460 -0.3848
  633MPD2    C2 9424   1.081   2.477  16.950  0.9109 -0.4834  0.1820
  633MPD2    C3 9425   1.063   2.404  17.069 -0.2555  0.2817  0.2899
  633MPD2    C4 9426   1.006   2.464  17.175 -0.2488 -0.0455  0.2700
  633MPD2    C5 9427   0.967   2.591  17.167 -0.0324 -0.7577 -0.5485
  633MPD2     H 9428   1.130   2.420  16.872  0.9293  1.1294 -0.9949
  633MPD2    H1 9429   0.985   2.401  17.260  1.8309  0.4125  1.1288
  633MPD2    H2 9430   0.976   2.775  17.073 -2.1702 -0.2332 -1.2773
  633MPD2    H3 9431   0.935   2.637  17.260 -0.7672  0.9794 -1.6609
  633MPD2     N 9432   1.128   2.277  17.078  0.4758  0.9405 -0.1267
  633MPD2    H5 9433   1.154   2.233  16.990  0.4666  1.2027 -0.2594
  633MPD2    N1 9434   1.096   2.690  16.842 -0.0016 -0.0675  0.6246
  633MPD2    H7 9435   1.126   2.633  16.764 -0.9442  0.9509 -0.4788
  634TMC3    C1 9436   1.127   2.868  16.688 -0.3697 -0.1894 -0.3983
  634TMC3    C2 9437   1.159   2.775  16.592  0.0268  0.4326  0.3788
  634TMC3    C3 9438   1.190   2.824  16.465  0.5320  0.6844  0.0633
  634TMC3    C4 9439   1.137   3.001  16.667  0.0983  0.3536 -0.4169
  634TMC3    C5 9440   1.169   3.043  16.541 -1.1014 -0.2756  0.1244
  634TMC3    C6 9441   1.201   2.958  16.445 -0.6034 -0.2423 -0.1464
  634TMC3     C 9442   1.083   2.827  16.824  0.2816 -0.6415  0.2636
  634TMC3     O 9443   1.038   2.907  16.906 -0.4656  0.0796  0.2502
  634TMC3     H 9444   1.147   2.668  16.599  0.2131  0.4250  0.5632
  634TMC3    H1 9445   1.113   3.075  16.742  0.4831  0.2365 -0.1780
  634TMC3    H2 9446   1.224   3.005  16.350 -3.7114  0.3718 -0.5795
  634TMC3    C7 9447   1.134   3.175  16.486  0.3756  0.2709  1.6310
  634TMC3    C8 9448   1.227   2.725  16.370 -0.8134  0.2499 -0.1088
  634TMC3    O1 9449   1.142   3.186  16.364 -0.1313  0.2098  0.5593
  634TMC3    O2 9450   1.196   2.610  16.393 -0.2746  0.4220 -0.2923
  635TMC3    C1 9451   2.011   4.134   0.182 -0.0802  0.0948  0.3690
  635TMC3    C2 9452   2.033   3.996   0.192 -0.2713  0.2642 -0.0759
  635TMC3    C3 9453   1.953   3.916   0.123 -0.4420  0.1918 -0.3114
  635TMC3    C4 9454   1.909   4.189   0.104  0.2746  0.2998 -1.3106
  635TMC3    C5 9455   1.822   4.101   0.050  0.6855 -0.1586 -0.2146
  635TMC3    C6 9456   1.841   3.966   0.057 -0.0945 -0.4262 -0.4094
  635TMC3     C 9457   2.092   4.230   0.268  0.5584 -0.6596  0.6070
  635TMC3     O 9458   2.085   4.344   0.221  0.5147  0.3112 -0.4205
  635TMC3     H 9459   2.128   3.967   0.234  0.9010  1.0132 -2.1690
  635TMC3    H1 9460   1.903   4.296   0.089  1.5726  0.4310 -0.8840
  635TMC3    H2 9461   1.766   3.897   0.021  0.2502 -1.0090 -0.0114
  635TMC3    C7 9462   1.677   4.145   0.037  0.4270 -0.2550  0.2216
  635TMC3    C8 9463   1.994   3.776   0.115  0.1844  0.5375 -0.2840
  635TMC3    O1 9464   1.590   4.058   0.030 -0.3673  0.7500 -0.3609
  635TMC3    O2 9465   2.062   3.738   0.208  0.4026 -0.4944 -0.2244
  636MPD2     C 9466   2.362   3.255  16.367 -0.4599  0.3711  0.3190
  636MPD2    C1 9467   2.405   3.358  16.445 -0.5845 -0.0523  0.6525
  636MPD2    C2 9468   2.474   3.326  16.560  0.1084 -0.4556  0.2794
  636MPD2    C3 9469   2.480   3.193  16.602 -0.5556 -0.3154  0.2907
  636MPD2    C4 9470   2.443   3.097  16.516  0.0578  0.0426  0.8769
  636MPD2    C5 9471   2.382   3.127  16.395 -0.5610  0.3149  0.1492
  636MPD2     H 9472   2.512   3.410  16.617  0.4865 -0.3971 -0.0588
  636MPD2    H1 9473   2.470   2.993  16.528 -1.4638 -0.3731  0.7815
  636MPD2    H2 9474   2.313   3.258  16.270 -1.0360  0.5591  0.6190
  636MPD2    H3 9475   2.361   3.050  16.321 -1.9255  0.4751  0.3798
  636MPD2     N 9476   2.546   3.165  16.724  0.5697  0.3138 -0.1182
  636MPD2    H5 9477   2.587   3.244  16.772 -1.1140  0.0115  1.8231
  636MPD2    N1 9478   2.382   3.497  16.413  0.0434 -0.0769 -0.6755
  636MPD2    H7 9479   2.424   3.557  16.483 -0.1248 -1.8902  0.9740
  637TMC3    C1 9480   2.632   3.015  16.897  0.5889 -0.2961 -0.8812
  637TMC3    C2 9481   2.724   3.115  16.914 -0.1837  0.2551  0.4209
  637TMC3    C3 9482   2.854   3.069  16.932  0.0093  0.3268 -0.4087
  637TMC3    C4 9483   2.667   2.880  16.888 -0.0352 -0.0982 -0.3278
  637TMC3    C5 9484   2.802   2.848  16.886  0.3710  0.8975 -0.9416
  637TMC3    C6 9485   2.899   2.938  16.923  0.0983 -0.3249 -0.0854
  637TMC3     C 9486   2.537   3.036  16.782  0.4745  0.7318 -0.8033
  637TMC3     O 9487   2.494   2.933  16.737  0.4740 -0.2111 -0.3982
  637TMC3     H 9488   2.705   3.221  16.921 -0.5968  0.2648 -0.8635
  637TMC3    H1 9489   2.588   2.806  16.885  0.9018 -1.1529  1.1531
  637TMC3    H2 9490   3.005   2.914  16.920 -0.3624 -2.3930  0.4204
  637TMC3    C7 9491   2.839   2.795  16.756  0.0983 -0.3113  0.3421
  637TMC3    C8 9492   2.945   3.164  16.873  0.2541 -0.4176 -0.2133
  637TMC3    O1 9493   2.959   2.790  16.726  0.3435 -0.2664  0.1250
  637TMC3    O2 9494   2.920   3.287  16.887  0.5240  0.2418  0.0424
  638MPD2     C 9495   2.048   1.867  14.715  0.0810  0.2669 -0.1354
  638MPD2    C1 9496   2.179   1.904  14.749  1.0168  0.0361 -0.0164
  638MPD2    C2 9497   2.210   1.897  14.881  0.3680 -0.7610 -0.4425
  638MPD2    C3 9498   2.120   1.853  14.974 -0.7008  0.1395  0.0456
  638MPD2    C4 9499   1.992   1.822  14.941  0.0952  0.2104 -0.1857
  638MPD2    C5 9500   1.957   1.821  14.808 -0.0866 -0.0043  0.1317
  638MPD2     H 9501   2.313   1.910  14.912  0.9269 -1.4047 -2.0188
  638MPD2    H1 9502   1.916   1.787  15.011  0.8153  0.7047  0.8451
  638MPD2    H2 9503   2.021   1.856  14.610 -0.1594  1.9935 -0.2653
  638MPD2    H3 9504   1.856   1.796  14.778  1.1759 -1.7203 -2.7003
  638MPD2     N 9505   2.151   1.831  15.108 -0.5498 -1.0841 -0.4006
  638MPD2    H5 9506   2.068   1.790  15.151 -0.9850 -1.5331 -1.6285
  638MPD2    N1 9507   2.279   1.928  14.650 -0.2667 -0.2107  0.1316
  638MPD2    H7 9508   2.264   1.915  14.550 -1.3366 -1.7191  0.4985
  639TMC3    C1 9509   2.285   1.761  15.287  0.4203  1.0774 -1.2378
  639TMC3    C2 9510   2.190   1.669  15.311 -0.1287 -0.2007 -0.0473
  639TMC3    C3 9511   2.230   1.566  15.393 -0.5023  0.0846  0.2603
  639TMC3    C4 9512   2.409   1.758  15.343  0.2159 -0.4207  0.9154
  639TMC3    C5 9513   2.447   1.656  15.429  1.0443 -0.1262 -0.1676
  639TMC3    C6 9514   2.353   1.555  15.450  0.1753  0.3479 -0.2585
  639TMC3     C 9515   2.272   1.837  15.168  0.4758 -0.3079  0.4188
  639TMC3     O 9516   2.370   1.907  15.138  0.4508  0.6155 -0.2224
  639TMC3     H 9517   2.106   1.645  15.247  0.2737 -1.2131 -0.1902
  639TMC3    H1 9518   2.473   1.844  15.328  0.3900 -0.6616  0.3035
  639TMC3    H2 9519   2.371   1.492  15.536 -0.3880  0.7424  0.1470
  639TMC3    C7 9520   2.584   1.637  15.459 -0.3551 -0.2119  0.1460
  639TMC3    C8 9521   2.162   1.443  15.369 -0.3769  0.2786  0.3607
  639TMC3    O1 9522   2.604   1.594  15.573 -0.3146  0.7091 -0.0207
  639TMC3    O2 9523   2.237   1.350  15.341  0.8774 -0.1832  0.0141
  640MPD2     C 9524   2.322   0.669  10.146 -0.0202  0.0607  0.4027
  640MPD2    C1 9525   2.379   0.783  10.096  0.3258 -0.1365 -0.8047
  640MPD2    C2 9526   2.334   0.906  10.131 -0.6498 -0.4603 -0.7465
  640MPD2    C3 9527   2.247   0.917  10.240 -0.1751  0.6060 -1.0474
  640MPD2    C4 9528   2.183   0.801  10.284  0.6155  0.1354  0.2899
  640MPD2    C5 9529   2.223   0.678  10.243  0.4319 -1.5788  0.3976
  640MPD2     H 9530   2.393   0.991  10.097 -1.3665  0.3026 -0.0667
  640MPD2    H1 9531   2.116   0.804  10.369  0.3476  0.6759  0.0575
  640MPD2    H2 9532   2.362   0.574  10.114 -1.0862 -0.5224  0.7761
  640MPD2    H3 9533   2.177   0.586  10.276  0.3510 -1.2560  1.1866
  640MPD2     N 9534   2.199   1.036  10.307 -0.2535  0.0972 -0.0890
  640MPD2    H5 9535   2.119   1.029  10.369 -0.5003 -0.6735 -0.4939
  640MPD2    N1 9536   2.480   0.766  10.002 -0.4862 -0.1546  0.1169
  640MPD2    H7 9537   2.504   0.670   9.982  2.1942  0.7816 -1.2734
  641TMC3    C1 9538   2.623   0.817   9.819  0.4224 -0.1901 -0.1134
  641TMC3    C2 9539   2.695   0.701   9.847  0.0105  0.1744 -0.7516
  641TMC3    C3 9540   2.785   0.665   9.747 -0.2086 -0.4087 -0.1507
  641TMC3    C4 9541   2.643   0.894   9.707  0.5361 -0.3560 -0.0245
  641TMC3    C5 9542   2.738   0.851   9.621  0.0220 -0.8249 -0.5451
  641TMC3    C6 9543   2.808   0.741   9.639 -0.6221  0.4735  0.7607
  641TMC3     C 9544   2.527   0.862   9.922  0.4758  0.7273  0.1037
  641TMC3     O 9545   2.499   0.983   9.906 -0.2746 -0.1142  0.0559
  641TMC3     H 9546   2.683   0.637   9.933 -0.0206  0.1711 -0.7587
  641TMC3    H1 9547   2.591   0.985   9.680 -0.2926 -1.2114 -1.3073
  641TMC3    H2 9548   2.881   0.716   9.562 -0.4702  2.7368  0.1794
  641TMC3    C7 9549   2.719   0.911   9.488 -0.2067  0.6449 -0.6092
  641TMC3    C8 9550   2.837   0.533   9.744 -0.5616  0.3379  0.3604
  641TMC3    O1 9551   2.603   0.931   9.449 -0.0823 -0.1869  0.2718
  641TMC3    O2 9552   2.910   0.507   9.654 -0.1828  0.1728 -0.0122
  642TMC3    C1 9553   3.621   1.838  12.300 -0.4383  0.7958  0.1664
  642TMC3    C2 9554   3.571   1.953  12.244  0.3379 -0.1604  0.3835
  642TMC3    C3 9555   3.537   1.949  12.109 -0.5677 -1.1300  0.3928
  642TMC3    C4 9556   3.610   1.718  12.232 -0.2789 -0.2224 -0.0029
  642TMC3    C5 9557   3.559   1.712  12.105  0.0197  0.2175  0.4502
  642TMC3    C6 9558   3.527   1.833  12.041 -0.1002  0.9589 -0.8871
  642TMC3     C 9559   3.664   1.826  12.440 -0.4504  0.0746  0.0246
  642TMC3     O 9560   3.743   1.739  12.463 -0.1279  0.2444  0.2136
  642TMC3     H 9561   3.586   2.038  12.310  2.2599 -0.0837 -0.1345
  642TMC3    H1 9562   3.653   1.630  12.280 -0.5168 -0.3026  0.0625
  642TMC3    H2 9563   3.512   1.833  11.934 -2.9410  0.5121 -0.4702
  642TMC3    C7 9564   3.512   1.582  12.044 -0.8501  0.3888 -0.4849
  642TMC3    C8 9565   3.498   2.068  12.036 -0.1583  0.0741  0.6769
  642TMC3    O1 9566   3.464   1.594  11.931 -0.0271  0.2244  0.0128
  642TMC3    O2 9567   3.443   2.048  11.930 -0.0945  0.6597  0.2158
  643TMC3    C1 9568   3.214   1.070  17.741  0.2927 -0.0458  0.6862
  643TMC3    C2 9569   3.096   1.109  17.674 -0.0458 -0.4802  0.4645
  643TMC3    C3 9570   3.036   1.023  17.587 -0.0695  0.0791  0.6052
  643TMC3    C4 9571   3.279   0.951  17.706 -0.2737 -0.4974  0.1098
  643TMC3    C5 9572   3.209   0.879  17.605  0.0265  0.0593 -0.2806
  643TMC3    C6 9573   3.087   0.907  17.556  0.2728 -0.3993 -0.5312
  643TMC3     C 9574   3.230   1.129   0.118 -0.5410 -0.3974  0.2759
  643TMC3     O 9575   3.174   1.238   0.133  0.7099  0.6305 -0.2036
  643TMC3     H 9576   3.050   1.196  17.720  1.2412  1.3863 -1.8070
  643TMC3    H1 9577   3.378   0.922  17.740  0.0582  1.4385  0.8370
  643TMC3    H2 9578   3.038   0.841  17.485  1.8383 -2.4989  0.3512
  643TMC3    C7 9579   3.272   0.744  17.585 -0.1920  0.6641 -0.5910
  643TMC3    C8 9580   2.961   1.085  17.480 -0.1342  0.3116  0.1190
  643TMC3    O1 9581   3.319   0.698  17.690  0.5386  0.4104  0.6373
  643TMC3    O2 9582   2.896   1.017  17.402 -0.7849 -0.0254 -0.4259
  644MPD2     C 9583   2.675   1.549   9.409 -0.2681  0.0801 -0.3123
  644MPD2    C1 9584   2.669   1.445   9.495  0.1950  0.1592 -0.6093
  644MPD2    C2 9585   2.546   1.405   9.546 -0.2083 -0.0876 -0.3408
  644MPD2    C3 9586   2.431   1.480   9.516 -0.5703  0.1202  0.5023
  644MPD2    C4 9587   2.443   1.589   9.431 -0.5241  0.5626  0.7904
  644MPD2    C5 9588   2.565   1.622   9.377  0.8364  0.0144 -0.3017
  644MPD2     H 9589   2.545   1.336   9.630  0.8738  0.9957  0.5666
  644MPD2    H1 9590   2.354   1.644   9.402 -2.5327 -3.2540 -0.1831
  644MPD2    H2 9591   2.768   1.579   9.362  0.7576 -2.0459  0.3438
  644MPD2    H3 9592   2.580   1.691   9.295  0.0989 -0.6827 -1.0201
  644MPD2     N 9593   2.305   1.443   9.570  0.2979  0.5945  0.3691
  644MPD2    H5 9594   2.315   1.356   9.622  1.5150 -0.2809 -1.3247
  644MPD2    N1 9595   2.793   1.384   9.527 -0.1757  0.3331  0.1418
  644MPD2    H7 9596   2.869   1.424   9.472  0.4496 -0.9651  0.0703
  645TMC3    C1 9597   2.070   1.413   9.596 -0.1904 -0.1421  0.3045
  645TMC3    C2 9598   1.951   1.478   9.616 -0.6035  0.4289  0.4054
  645TMC3    C3 9599   1.838   1.406   9.645 -0.2704  1.2040 -0.0074
  645TMC3    C4 9600   2.088   1.279   9.596 -0.0397  0.3698 -0.6871
  645TMC3    C5 9601   1.969   1.211   9.622 -0.5987  0.2299 -0.4898
  645TMC3    C6 9602   1.847   1.268   9.650 -0.2623 -0.5312 -0.2042
  645TMC3     C 9603   2.179   1.495   9.545  0.4154  0.0124 -0.1222
  645TMC3     O 9604   2.158   1.613   9.517 -0.7824 -0.3992  0.7866
  645TMC3     H 9605   1.940   1.585   9.608  4.2220  0.9549  0.7077
  645TMC3    H1 9606   2.180   1.242   9.552 -0.1365 -2.2979  1.3626
  645TMC3    H2 9607   1.768   1.218   9.705 -0.5862  0.4850  0.2558
  645TMC3    C7 9608   1.992   1.083   9.673  0.1016  0.0938 -0.3849
  645TMC3    C8 9609   1.724   1.481   9.696  0.5060 -0.6578 -0.2963
  645TMC3    O1 9610   1.915   1.042   9.758  0.2462 -0.4204 -0.5932
  645TMC3    O2 9611   1.722   1.599   9.717  0.8131 -0.4090  0.1555
  646MPD2     C 9612   2.747   0.739  14.844  0.2109 -0.7282  0.1565
  646MPD2    C1 9613   2.685   0.753  14.966 -0.0601  0.1122 -0.1705
  646MPD2    C2 9614   2.572   0.833  14.977  0.5340  0.2359  1.1647
  646MPD2    C3 9615   2.534   0.907  14.868 -0.2182  0.2934 -0.2397
  646MPD2    C4 9616   2.600   0.892  14.749 -0.0014  0.0082 -0.5428
  646MPD2    C5 9617   2.709   0.813  14.739 -0.1336 -0.3744 -0.5473
  646MPD2     H 9618   2.510   0.831  15.066 -2.3032  1.4228 -0.7843
  646MPD2    H1 9619   2.555   0.936  14.660  1.0071 -0.4042 -1.2465
  646MPD2    H2 9620   2.835   0.675  14.838 -1.2046 -2.5929 -0.5808
  646MPD2    H3 9621   2.756   0.799  14.642 -0.3123  2.1425 -0.9814
  646MPD2     N 9622   2.424   0.998  14.884  0.5657  0.4662 -0.2443
  646MPD2    H5 9623   2.369   0.998  14.969  1.2117  2.2310  0.1758
  646MPD2    N1 9624   2.732   0.663  15.067  0.1583 -0.3657 -1.0626
  646MPD2    H7 9625   2.819   0.614  15.049 -0.0685 -0.1142 -2.9021
  647TMC3    C1 9626   2.732   0.526  15.259  0.5498  0.9653 -0.6119
  647TMC3    C2 9627   2.668   0.474  15.365 -0.6777 -0.7400  0.1039
  647TMC3    C3 9628   2.741   0.384  15.438 -0.3969  0.0747 -0.6234
  647TMC3    C4 9629   2.867   0.498  15.229  0.5877  0.3777 -0.6001
  647TMC3    C5 9630   2.924   0.401  15.296 -0.4416 -0.7478 -0.2471
  647TMC3    C6 9631   2.869   0.350  15.406 -0.5697 -0.5831  0.0335
  647TMC3     C 9632   2.663   0.626  15.175 -0.7711 -0.3653  0.3640
  647TMC3     O 9633   2.544   0.643  15.204  0.0754 -0.3075 -0.5906
  647TMC3     H 9634   2.568   0.502  15.397  0.0464  1.2826  0.5860
  647TMC3    H1 9635   2.920   0.570  15.169  1.1987  0.2496 -0.2077
  647TMC3    H2 9636   2.918   0.267  15.456  3.1892  0.9581 -1.0476
  647TMC3    C7 9637   3.049   0.337  15.252 -0.9656  0.5251  0.5017
  647TMC3    C8 9638   2.673   0.269  15.491 -0.0470 -0.0977 -0.4961
  647TMC3    O1 9639   3.102   0.260  15.333  0.2768  0.2520 -0.5122
  647TMC3    O2 9640   2.723   0.216  15.591  0.6905  0.0138 -0.0458
  648TMC3    C1 9641   1.606   3.049  15.806  0.4211  0.3323  0.4649
  648TMC3    C2 9642   1.656   2.934  15.743 -0.0689  0.1271  0.3013
  648TMC3    C3 9643   1.582   2.883  15.636 -0.1327 -0.3621  0.4329
  648TMC3    C4 9644   1.501   3.126  15.755 -0.6172  0.4646 -1.0606
  648TMC3    C5 9645   1.457   3.080  15.629 -0.1228 -0.0761  0.2299
  648TMC3    C6 9646   1.493   2.960  15.572 -0.0807  0.5142  0.2193
  648TMC3     C 9647   1.673   3.093  15.927  0.4481 -0.0691 -0.0778
  648TMC3     O 9648   1.651   3.209  15.950 -0.0424 -0.0075 -0.7241
  648TMC3     H 9649   1.739   2.875  15.780 -0.7748 -1.4285 -0.6046
  648TMC3    H1 9650   1.472   3.219  15.802 -0.8773 -0.2655  0.2337
  648TMC3    H2 9651   1.460   2.922  15.476  0.2579 -0.3457  0.4483
  648TMC3    C7 9652   1.366   3.162  15.543  0.4096 -0.5388 -0.2941
  648TMC3    C8 9653   1.662   2.784  15.562  0.3295 -0.5066  0.3186
  648TMC3    O1 9654   1.351   3.152  15.424  0.6666  0.2707 -0.1435
  648TMC3    O2 9655   1.780   2.760  15.588 -0.1620 -0.5370 -0.1046
  649TMC3    C1 9656   0.455   4.433  12.952  0.1300  0.1789 -0.1265
  649TMC3    C2 9657   0.552   4.444  12.850  0.3600  0.1017 -0.0022
  649TMC3    C3 9658   0.672   4.384  12.867 -0.1446  0.5631 -0.5495
  649TMC3    C4 9659   0.487   4.365  13.070 -0.0226  0.1997 -0.4816
  649TMC3    C5 9660   0.607   4.302  13.082  0.0880  0.3182  0.2925
  649TMC3    C6 9661   0.703   4.310  12.976 -0.0704 -0.4986 -0.1072
  649TMC3     C 9662   0.322   4.475  12.921 -0.5165 -0.4904 -0.1944
  649TMC3     O 9663   0.253   4.519  13.013  0.1171 -0.2488  0.1041
  649TMC3     H 9664   0.533   4.519  12.773  0.4986 -1.2708 -1.3903
  649TMC3    H1 9665   0.412   4.358  13.149  0.1059  1.7014 -0.2252
  649TMC3    H2 9666   0.785   4.240  12.985  0.2155 -0.0368  0.8765
  649TMC3    C7 9667   0.608   4.194  13.180  0.2615 -0.5717 -0.3937
  649TMC3    C8 9668   0.776   4.436  12.778  0.2190 -0.5321  0.1458
  649TMC3    O1 9669   0.561   4.222  13.287  0.7369  0.0913 -0.0904
  649TMC3    O2 9670   0.736   4.489  12.681 -0.0306  0.5331 -0.3992
  650TMC3    C1 9671   3.292   1.202  12.670 -0.3170 -0.0657 -0.6765
  650TMC3    C2 9672   3.248   1.318  12.725 -0.7118  0.1078 -0.1981
  650TMC3    C3 9673   3.143   1.374  12.650 -0.1166  0.0491 -0.1481
  650TMC3    C4 9674   3.252   1.151  12.551  0.2329 -0.0091 -0.2675
  650TMC3    C5 9675   3.145   1.205  12.488 -0.2830 -0.1700 -0.3333
  650TMC3    C6 9676   3.086   1.319  12.533 -0.0599 -1.0637 -1.1246
  650TMC3     C 9677   3.416   1.154  12.731  1.3645 -0.3233 -0.3150
  650TMC3     O 9678   3.486   1.244  12.774 -0.3311 -0.1095  0.4658
  650TMC3     H 9679   3.275   1.344  12.827 -0.0469  1.7191 -0.7891
  650TMC3    H1 9680   3.283   1.048  12.533 -1.6493 -0.1419 -2.6381
  650TMC3    H2 9681   2.997   1.362  12.487  0.4422  1.4234  0.2138
  650TMC3    C7 9682   3.086   1.132  12.377  1.0754  0.5889 -0.5673
  650TMC3    C8 9683   3.081   1.486  12.719  0.6328 -0.1198  0.4288
  650TMC3    O1 9684   3.120   1.018  12.369 -0.2184  1.1636 -0.5486
  650TMC3    O2 9685   3.154   1.534  12.804  0.0983 -0.8964 -0.0397
  651MPD2     C 9686   2.222   3.718  11.056 -0.0567 -0.9768 -0.1962
  651MPD2    C1 9687   2.209   3.606  10.975  0.7207  0.7010  0.0978
  651MPD2    C2 9688   2.325   3.541  10.933 -1.0024 -0.0831 -0.8087
  651MPD2    C3 9689   2.450   3.598  10.962 -0.2163  0.3105  0.2314
  651MPD2    C4 9690   2.459   3.705  11.052  0.3351 -0.0437  0.3759
  651MPD2    C5 9691   2.345   3.757  11.099 -0.0296 -0.5175 -0.2300
  651MPD2     H 9692   2.328   3.456  10.866 -1.4696 -0.6524 -0.1011
  651MPD2    H1 9693   2.552   3.747  11.088 -1.0122  1.1632  2.4283
  651MPD2    H2 9694   2.138   3.766  11.105  0.4286 -1.0541  0.7117
  651MPD2    H3 9695   2.346   3.841  11.168  3.0086 -2.5740  2.2237
  651MPD2     N 9696   2.572   3.555  10.898 -0.2534 -0.1113 -0.2617
  651MPD2    H5 9697   2.568   3.487  10.823  0.8668 -2.2875  1.6733
  651MPD2    N1 9698   2.084   3.550  10.945  0.1455 -0.2098  0.6440
  651MPD2    H7 9699   2.081   3.455  10.910  1.4548 -0.5561  1.4375
  652TMC3    C1 9700   3.034   3.577  10.823 -0.0498  0.0760  0.7170
  652TMC3    C2 9701   2.930   3.550  10.904  0.6922  0.8288  0.2542
  652TMC3    C3 9702   2.799   3.568  10.861  0.6036 -0.4319  0.4018
  652TMC3    C4 9703   3.011   3.606  10.696 -0.0884  0.3621  0.4953
  652TMC3    C5 9704   2.881   3.631  10.650 -0.4368 -0.2156  0.6513
  652TMC3    C6 9705   2.772   3.614  10.735  0.3184  0.0284  0.5986
  652TMC3     C 9706   3.165   3.566  10.883 -0.4547 -0.6490  0.4147
  652TMC3     O 9707   3.170   3.505  10.990  0.4748 -0.2278  0.3454
  652TMC3     H 9708   2.942   3.528  11.010  0.8789 -0.2216  0.0140
  652TMC3    H1 9709   3.092   3.605  10.624 -1.2402  0.8676 -0.8141
  652TMC3    H2 9710   2.673   3.643  10.703 -0.4718 -1.1152  2.0485
  652TMC3    C7 9711   2.876   3.690  10.516 -0.4198  0.4095 -0.2336
  652TMC3    C8 9712   2.695   3.566  10.960  0.0241 -0.2118 -0.2618
  652TMC3    O1 9713   2.982   3.702  10.454 -0.4945  0.8482  0.6099
  652TMC3    O2 9714   2.721   3.574  11.079 -0.2546 -0.1565  0.6318
  653MPD2     C 9715   0.801   3.252  17.489 -0.3002 -0.6190 -0.2261
  653MPD2    C1 9716   0.822   3.292  17.359  0.2980  0.1346  0.0792
  653MPD2    C2 9717   0.784   3.214  17.255  1.0548  0.3553 -0.6125
  653MPD2    C3 9718   0.725   3.092  17.275  0.0340 -0.0388  0.0794
  653MPD2    C4 9719   0.700   3.050  17.405 -0.3008 -1.1842  0.5512
  653MPD2    C5 9720   0.741   3.125  17.511  0.0286 -0.4218  0.3674
  653MPD2     H 9721   0.803   3.243  17.152  1.1731 -1.0224 -0.9819
  653MPD2    H1 9722   0.650   2.957  17.429  2.0987 -3.2980 -2.6188
  653MPD2    H2 9723   0.831   3.319  17.568 -0.7714  0.0166 -0.5928
  653MPD2    H3 9724   0.721   3.074  17.605  0.1362  1.4990  1.4291
  653MPD2     N 9725   0.698   3.017  17.156  0.3621  0.1915  0.1512
  653MPD2    H5 9726   0.713   3.068  17.070  2.6402 -0.9121 -0.1216
  653MPD2    N1 9727   0.864   3.426  17.324 -0.4221 -0.3839  0.5661
  653MPD2    H7 9728   0.883   3.444  17.226  0.5571 -0.7738  0.6847
  654TMC3    C1 9729   0.605   2.839  17.027 -0.4456 -0.0924  0.0370
  654TMC3    C2 9730   0.532   2.918  16.942  0.4312 -0.1590  0.4886
  654TMC3    C3 9731   0.506   2.862  16.819 -0.7725  0.0162 -0.4146
  654TMC3    C4 9732   0.647   2.710  16.994  0.5003 -0.2981 -0.0282
  654TMC3    C5 9733   0.601   2.656  16.879 -0.6858 -0.6841  0.6089
  654TMC3    C6 9734   0.545   2.737  16.783  0.2927 -0.6197  0.4929
  654TMC3     C 9735   0.645   2.888  17.159  0.2223  0.3113 -0.1731
  654TMC3     O 9736   0.637   2.809  17.255  0.0344  0.2306  0.0754
  654TMC3     H 9737   0.487   3.015  16.961  0.3897 -0.2101  0.6534
  654TMC3    H1 9738   0.695   2.655  17.074  1.3013  0.4388 -0.0028
  654TMC3    H2 9739   0.510   2.695  16.689  2.0834  0.2348 -0.5548
  654TMC3    C7 9740   0.670   2.542  16.822  0.0364  0.1456  0.0541
  654TMC3    C8 9741   0.436   2.944  16.722  0.1535 -0.7026 -0.6307
  654TMC3    O1 9742   0.689   2.548  16.701  0.2982 -0.0872 -0.4548
  654TMC3    O2 9743   0.381   3.042  16.769 -0.6760 -0.3287 -1.2244
  655MPD2     C 9744   2.051   3.659  15.352 -0.1620  0.1702 -0.0712
  655MPD2    C1 9745   1.952   3.572  15.367 -0.7412  0.2726 -0.6011
  655MPD2    C2 9746   1.971   3.446  15.307 -0.5597  0.3261  0.1505
  655MPD2    C3 9747   2.090   3.412  15.241 -0.3001 -0.2735  0.4890
  655MPD2    C4 9748   2.191   3.509  15.236 -0.0742  0.1462 -0.2405
  655MPD2    C5 9749   2.169   3.630  15.290 -0.4262  0.1437  0.2232
  655MPD2     H 9750   1.887   3.378  15.299 -0.7044  0.6649 -1.1916
  655MPD2    H1 9751   2.288   3.494  15.190  0.3294 -2.7901  1.5597
  655MPD2    H2 9752   2.051   3.763  15.385 -0.2920 -0.0863  0.7361
  655MPD2    H3 9753   2.242   3.710  15.280  0.3121 -0.8009 -2.0109
  655MPD2     N 9754   2.118   3.293  15.179 -0.0572 -0.2586  0.4701
  655MPD2    H5 9755   2.211   3.275  15.141 -1.4938 -0.5723 -2.9136
  655MPD2    N1 9756   1.824   3.605  15.420 -0.0926 -0.0762 -0.1584
  655MPD2    H7 9757   1.759   3.529  15.436  0.9656 -0.7846  0.7019
  656TMC3    C1 9758   1.651   3.752  15.513  0.2921  0.2144 -0.0005
  656TMC3    C2 9759   1.614   3.654  15.604 -0.2841  0.3016  0.1621
  656TMC3    C3 9760   1.508   3.673  15.682  0.5967  0.3183 -0.0985
  656TMC3    C4 9761   1.589   3.866  15.502  0.5668  0.3514  0.3977
  656TMC3    C5 9762   1.478   3.883  15.582 -0.1661 -0.6577 -0.4807
  656TMC3    C6 9763   1.436   3.791  15.675 -0.6583  0.2086  0.2934
  656TMC3     C 9764   1.781   3.737  15.435  0.1411  0.3814 -0.0931
  656TMC3     O 9765   1.822   3.839  15.379 -0.2298 -0.0201 -0.2293
  656TMC3     H 9766   1.677   3.568  15.625  0.5995  1.9248  4.0893
  656TMC3    H1 9767   1.621   3.941  15.430  1.8410 -0.8248 -0.2545
  656TMC3    H2 9768   1.343   3.802  15.731 -1.5725 -2.6276 -0.6499
  656TMC3    C7 9769   1.431   4.015  15.595 -0.5735 -0.7471 -0.1311
  656TMC3    C8 9770   1.488   3.585  15.802  0.4331 -0.5323 -0.1667
  656TMC3    O1 9771   1.521   4.086  15.558 -0.0190  0.1444  0.3223
  656TMC3    O2 9772   1.534   3.472  15.807 -0.0495  1.0993  0.2658
  657TMC3    C1 9773   0.769   2.170  14.958 -0.5687  0.3910 -0.0703
  657TMC3    C2 9774   0.780   2.129  15.086  0.6670 -0.2390  0.2026
  657TMC3    C3 9775   0.796   2.228  15.180 -0.1756  0.0866  0.4485
  657TMC3    C4 9776   0.780   2.301  14.918  0.6180  0.4203  0.5378
  657TMC3    C5 9777   0.804   2.395  15.009  0.4071  0.1440 -0.6721
  657TMC3    C6 9778   0.812   2.361  15.145  0.0071  0.0138 -0.7500
  657TMC3     C 9779   0.704   2.081  14.858 -0.3062  0.0559 -0.7761
  657TMC3     O 9780   0.625   2.130  14.783 -0.4019 -0.1254 -0.2583
  657TMC3     H 9781   0.771   2.026  15.117  1.8846 -0.3020  0.3553
  657TMC3    H1 9782   0.768   2.328  14.814 -0.5121 -1.6114  0.1320
  657TMC3    H2 9783   0.827   2.429  15.227 -3.3158 -0.0507 -0.0831
  657TMC3    C7 9784   0.782   2.541  14.965  0.7170 -1.0804 -0.6293
  657TMC3    C8 9785   0.807   2.188  15.318 -0.1966 -0.2190 -0.9527
  657TMC3    O1 9786   0.751   2.565  14.848  0.5103  0.2185  0.4597
  657TMC3    O2 9787   0.781   2.264  15.407  0.0934 -0.4288  0.1386
  658MPD2     C 9788   2.560   2.787  14.645  0.6416  1.1431  0.0781
  658MPD2    C1 9789   2.474   2.897  14.649  0.1500 -0.1631 -0.0598
  658MPD2    C2 9790   2.466   2.973  14.534  0.2279 -0.7000  1.3722
  658MPD2    C3 9791   2.515   2.930  14.416  0.1583  0.0704  0.6802
  658MPD2    C4 9792   2.597   2.818  14.410  0.4177  0.1544  0.6243
  658MPD2    C5 9793   2.624   2.753  14.531 -0.3687  0.4623  0.1750
  658MPD2     H 9794   2.406   3.063  14.541  2.3861  0.7445  1.2533
  658MPD2    H1 9795   2.655   2.788  14.324  1.1943  1.3926  0.7131
  658MPD2    H2 9796   2.570   2.714  14.724 -0.6884 -0.9083 -1.6133
  658MPD2    H3 9797   2.694   2.671  14.531 -0.5125  0.3426 -0.2737
  658MPD2     N 9798   2.482   3.000  14.297  0.4457 -0.1260  0.4003
  658MPD2    H5 9799   2.409   3.070  14.306 -0.6791 -1.0844 -1.4475
  658MPD2    N1 9800   2.405   2.921  14.767 -0.5343  1.0197  0.3229
  658MPD2    H7 9801   2.427   2.859  14.844  1.6647 -0.1299 -1.2106
  659TMC3    C1 9802   2.247   3.004  14.918  0.4559 -0.3418 -0.0661
  659TMC3    C2 9803   2.196   3.113  14.983  0.2706  0.2022 -0.5034
  659TMC3    C3 9804   2.109   3.079  15.088  0.2014 -0.2450 -0.7066
  659TMC3    C4 9805   2.193   2.878  14.926  0.6759  0.0710 -0.3471
  659TMC3    C5 9806   2.101   2.854  15.031 -0.8646  0.0959 -0.2485
  659TMC3    C6 9807   2.056   2.958  15.107  0.2545  0.0092 -0.6492
  659TMC3     C 9808   2.318   3.027  14.795  0.5874 -0.0874 -0.3031
  659TMC3     O 9809   2.304   3.133  14.733  0.2208  0.0563 -0.1694
  659TMC3     H 9810   2.233   3.214  14.978  1.8948 -0.3174  1.3304
  659TMC3    H1 9811   2.210   2.802  14.851  0.3306 -2.0171  1.6818
  659TMC3    H2 9812   2.002   2.947  15.200  0.4183  1.7658 -0.3483
  659TMC3    C7 9813   2.036   2.725  15.043 -0.2174 -0.2039 -0.2759
  659TMC3    C8 9814   2.042   3.183  15.174 -0.2493 -0.3013 -0.4795
  659TMC3    O1 9815   1.931   2.730  15.107  0.2537 -0.4260 -0.7103
  659TMC3    O2 9816   1.922   3.180  15.199 -0.4108 -0.4325 -0.3897
  660MPD2     C 9817   0.017   2.484  12.470 -0.7186  0.4135 -0.8955
  660MPD2    C1 9818   4.633   2.512  12.516  0.1868  0.3513  0.2414
  660MPD2    C2 9819   4.600   2.457  12.637  0.4577  0.2490  0.6222
  660MPD2    C3 9820   4.683   2.375  12.710 -0.2781  0.3634  0.4169
  660MPD2    C4 9821   0.055   2.330  12.652  0.3296  0.2652 -0.0129
  660MPD2    C5 9822   0.095   2.391  12.529 -0.0755 -0.4196 -0.5096
  660MPD2     H 9823   4.498   2.471  12.672  0.4894  1.1169  0.3606
  660MPD2    H1 9824   0.123   2.254  12.688 -0.5036 -0.2899  0.3719
  660MPD2    H2 9825   0.046   2.534  12.378  0.6251 -0.1884 -0.8098
  660MPD2    H3 9826   0.189   2.359  12.486  0.7460  0.4629  0.6295
  660MPD2     N 9827   4.648   2.317  12.837  0.4550  0.1333  0.2563
  660MPD2    H5 9828   4.698   2.237  12.874 -0.3878  0.4457  2.0551
  660MPD2    N1 9829   4.549   2.579  12.437  1.0552 -0.2845 -0.2466
  660MPD2    H7 9830   4.581   2.626  12.352  2.2009 -1.0374 -0.2326
  661TMC3    C1 9831   4.344   2.652  12.341  0.0365  0.0592 -0.0996
  661TMC3    C2 9832   4.413   2.771  12.299  0.1321  0.6082 -1.2484
  661TMC3    C3 9833   4.351   2.846  12.205  0.4885  0.3475  0.3226
  661TMC3    C4 9834   4.226   2.615  12.286 -1.0998 -0.0381  0.3770
  661TMC3    C5 9835   4.172   2.700  12.194  0.4206 -0.7798 -0.8786
  661TMC3    C6 9836   4.233   2.813  12.148  0.2790  0.2020  0.3337
  661TMC3     C 9837   4.411   2.562  12.433  0.2592  0.7023  0.0066
  661TMC3     O 9838   4.339   2.496  12.508  0.4364  0.7131 -0.0762
  661TMC3     H 9839   4.513   2.790  12.336 -0.8059  1.5178  0.7899
  661TMC3    H1 9840   4.162   2.542  12.335  1.0182 -1.2948  1.3010
  661TMC3    H2 9841   4.193   2.878  12.071 -0.8560 -3.1961 -1.9403
  661TMC3    C7 9842   4.061   2.652  12.111 -0.0521 -0.3986 -0.4213
  661TMC3    C8 9843   4.459   2.879  12.108 -0.4750  0.7511 -0.1385
  661TMC3    O1 9844   4.004   2.727  12.033 -0.6173  0.2301  0.5827
  661TMC3    O2 9845   4.569   2.826  12.117 -0.3524  0.7839  0.0485
  662MPD2     C 9846   0.467   1.960  16.970 -0.1121  0.3499  0.1066
  662MPD2    C1 9847   0.438   1.929  17.098  0.5241  0.1430 -0.3887
  662MPD2    C2 9848   0.345   2.003  17.174 -0.4354  0.3487 -0.0895
  662MPD2    C3 9849   0.283   2.113  17.116  0.4908  0.1345  0.1023
  662MPD2    C4 9850   0.317   2.146  16.988  0.0848  0.8777 -0.9799
  662MPD2    C5 9851   0.414   2.078  16.915 -0.2287  0.3786  0.4045
  662MPD2     H 9852   0.321   1.972  17.275  0.5423  0.8317  0.2921
  662MPD2    H1 9853   0.290   2.241  16.942  0.9461  1.0643 -1.1214
  662MPD2    H2 9854   0.538   1.904  16.910 -0.3158  0.8019 -0.5611
  662MPD2    H3 9855   0.448   2.117  16.819 -0.6709 -1.6477 -0.5902
  662MPD2     N 9856   0.191   2.192  17.193  0.1536 -0.5774  0.4089
  662MPD2    H5 9857   0.149   2.274  17.151  0.6196 -1.5452 -1.9722
  662MPD2    N1 9858   0.487   1.812  17.157  0.8174 -0.4754  0.0939
  662MPD2    H7 9859   0.457   1.800  17.253 -1.2913 -2.1800 -0.7794
  663TMC3    C1 9860   0.593   1.617  17.185 -0.2869  0.0989 -0.2928
  663TMC3    C2 9861   0.538   1.626  17.309 -0.1478 -0.7270  0.0001
  663TMC3    C3 9862   0.501   1.520  17.375  0.3984 -0.6456 -0.1501
  663TMC3    C4 9863   0.606   1.493  17.121  0.2232 -0.4233 -0.1503
  663TMC3    C5 9864   0.564   1.385  17.193  0.7489 -0.4308 -0.3555
  663TMC3    C6 9865   0.510   1.394  17.319  0.9888 -0.7797 -0.1122
  663TMC3     C 9866   0.569   1.722  17.093  0.5637 -0.0730  0.6194
  663TMC3     O 9867   0.622   1.717  16.983  0.3013  0.2676  0.3273
  663TMC3     H 9868   0.548   1.722  17.357 -0.4376 -0.0041 -1.3828
  663TMC3    H1 9869   0.643   1.483  17.020  1.8918  1.5303  0.2662
  663TMC3    H2 9870   0.466   1.310  17.370  0.4266  0.8605  2.1308
  663TMC3    C7 9871   0.553   1.263  17.120 -0.0545  0.5489 -0.0594
  663TMC3    C8 9872   0.372   1.546  17.429  0.5731  0.5956  0.4836
  663TMC3    O1 9873   0.559   1.282  17.002 -0.1623 -0.4484 -0.1953
  663TMC3    O2 9874   0.329   1.659  17.394 -0.0876  0.1445 -0.3821
  664MPD2     C 9875   3.378   4.546  17.505  0.4846 -0.3567  0.3018
  664MPD2    C1 9876   3.481   4.574  17.587  0.5934  0.0442  0.2543
  664MPD2    C2 9877   3.495   4.498  17.702  0.3416  0.1601 -0.5735
  664MPD2    C3 9878   3.408   4.404  17.742  0.6913 -0.3865 -0.3457
  664MPD2    C4 9879   3.311   4.372  17.653 -0.7918 -0.8513 -0.1874
  664MPD2    C5 9880   3.293   4.444  17.534 -0.2471  0.4969  0.5757
  664MPD2     H 9881   3.582   4.515   0.007  1.0612 -0.5866 -1.3861
  664MPD2    H1 9882   3.244   4.289  17.668 -1.4477 -0.5608 -1.5301
  664MPD2    H2 9883   3.384   4.591  17.406 -1.6412 -0.4972  0.1093
  664MPD2    H3 9884   3.214   4.414  17.466 -0.3678  1.2454  0.3868
  664MPD2     N 9885   3.415   4.348   0.116 -0.6970  0.1417 -0.1884
  664MPD2    H5 9886   3.497   4.377   0.168 -1.0086  0.8443 -0.0860
  664MPD2    N1 9887   3.576   4.675  17.562  0.1079 -0.6188 -0.4478
  664MPD2    H7 9888   3.650   4.698  17.627 -1.6002  1.7356  0.6702
  665TMC3    C1 9889   3.338   4.228   0.308  0.6511  0.3441  0.8897
  665TMC3    C2 9890   3.217   4.246   0.371 -0.2368  0.4612 -0.3104
  665TMC3    C3 9891   3.220   4.318   0.488 -0.1399 -0.0581 -0.0639
  665TMC3    C4 9892   3.462   4.261   0.365 -0.0894  0.6544 -0.2081
  665TMC3    C5 9893   3.455   4.327   0.486  0.2307 -0.3703  0.7669
  665TMC3    C6 9894   3.337   4.363   0.542 -0.2998  0.6305  0.2559
  665TMC3     C 9895   3.329   4.254   0.169 -0.1031  0.0499 -0.3040
  665TMC3     O 9896   3.228   4.204   0.118  0.2470 -0.7971 -1.1817
  665TMC3     H 9897   3.125   4.228   0.315 -0.7553  1.5847  0.1757
  665TMC3    H1 9898   3.554   4.242   0.310 -0.8238 -2.5198 -0.3668
  665TMC3    H2 9899   3.331   4.413   0.638  1.9681 -1.2472  1.3876
  665TMC3    C7 9900   3.575   4.409   0.514 -0.4160  0.1855 -0.0338
  665TMC3    C8 9901   3.106   4.402   0.517 -0.1825 -0.9414  0.1684
  665TMC3    O1 9902   3.678   4.357   0.477 -0.2952  0.1919 -0.2734
  665TMC3    O2 9903   3.129   4.507   0.571 -0.8742 -0.1876 -0.4749
  666TMC3    C1 9904   1.350   0.113  10.129  0.3899  0.4876  0.6812
  666TMC3    C2 9905   1.429   0.050  10.037 -0.1984 -0.0974 -0.1609
  666TMC3    C3 9906   1.540   0.108   9.987 -0.2775 -0.1423 -0.4298
  666TMC3    C4 9907   1.367   0.245  10.147 -0.2586  0.2131 -1.0296
  666TMC3    C5 9908   1.460   0.305  10.076 -0.5515  0.2967 -0.4628
  666TMC3    C6 9909   1.561   0.239  10.009 -0.3516  0.0450  0.3217
  666TMC3     C 9910   1.334   0.044  10.253  0.8215 -0.6780 -0.1051
  666TMC3     O 9911   1.354   0.113  10.351  0.1047 -0.7965  0.4094
  666TMC3     H 9912   1.416   4.684  10.022  0.7311 -0.2237 -0.0480
  666TMC3    H1 9913   1.294   0.306  10.198 -0.1651 -0.4260 -0.1353
  666TMC3    H2 9914   1.655   0.284   9.979 -0.3880 -1.3439 -1.8554
  666TMC3    C7 9915   1.497   0.434  10.135 -0.9509 -0.0687 -0.5844
  666TMC3    C8 9916   1.643   0.008   9.979  0.1393  0.1303 -0.2509
  666TMC3    O1 9917   1.444   0.479  10.237  0.0714  0.3103 -0.4440
  666TMC3    O2 9918   1.619   4.648  10.041 -0.4305  0.5588 -0.7857
  667MPD2     C 9919   3.986   4.704  14.220 -0.5058 -0.3180  1.0111
  667MPD2    C1 9920   3.978   4.636  14.338 -0.5966  0.6261  0.3142
  667MPD2    C2 9921   3.907   4.519  14.339 -0.4643 -0.1430  0.3327
  667MPD2    C3 9922   3.858   4.459  14.222  0.1290 -0.3055 -0.4608
  667MPD2    C4 9923   3.887   4.529  14.104  1.1625 -0.3311 -0.0550
  667MPD2    C5 9924   3.953   4.652  14.100 -0.1761  0.6645 -0.0928
  667MPD2     H 9925   3.893   4.464  14.431  1.2722  1.5823  1.6142
  667MPD2    H1 9926   3.855   4.482  14.012  2.7715 -0.3335 -0.6188
  667MPD2    H2 9927   4.053   0.049  14.218  1.6824 -2.0468  1.9468
  667MPD2    H3 9928   3.984   4.702  14.009  2.0369  4.3736  2.7005
  667MPD2     N 9929   3.759   4.356  14.214  0.0158  0.7472 -0.2675
  667MPD2    H5 9930   3.741   4.324  14.119  1.9184  0.4517 -0.5358
  667MPD2    N1 9931   4.021   4.683  14.467 -0.7781 -0.1981  0.2481
  667MPD2    H7 9932   4.011   4.614  14.541  0.3397 -0.7883 -0.1518
  668TMC3    C1 9933   4.104   0.112  14.621 -0.0073  0.9654  0.0573
  668TMC3    C2 9934   4.149   0.242  14.636  0.0542  0.0806 -0.1181
  668TMC3    C3 9935   4.152   0.291  14.763  0.2346  0.2313 -0.4354
  668TMC3    C4 9936   4.066   0.034  14.727 -0.5356 -0.3447 -0.0741
  668TMC3    C5 9937   4.061   0.092  14.850  0.0877 -0.2355  0.5504
  668TMC3    C6 9938   4.107   0.223  14.868  0.2336  0.5022  0.2969
  668TMC3     C 9939   4.054   0.079  14.491  0.2531  0.6413  0.0699
  668TMC3     O 9940   4.060   0.170  14.412 -0.3814  0.7499  0.1897
  668TMC3     H 9941   4.179   0.295  14.547  0.7902 -0.1639 -0.0159
  668TMC3    H1 9942   4.005   4.685  14.715  2.2565 -2.2051 -0.5068
  668TMC3    H2 9943   4.122   0.262  14.967 -0.6383  3.3653 -0.6878
  668TMC3    C7 9944   4.072   0.007  14.965  0.1911 -0.0414 -0.2337
  668TMC3    C8 9945   4.218   0.420  14.796  0.4407  0.6088  0.6712
  668TMC3    O1 9946   4.123   0.057  15.065  0.1250  0.0754  0.0912
  668TMC3    O2 9947   4.202   0.453  14.913  0.3105  0.6709 -0.4728
  669TMC3    C1 9948   2.358   4.695  14.707  0.7053  0.6307  0.4433
  669TMC3    C2 9949   2.254   4.637  14.642 -0.2079  0.1905 -0.4044
  669TMC3    C3 9950   2.235   4.661  14.510  0.5399 -0.2303  0.0591
  669TMC3    C4 9951   2.427   0.059  14.641  0.2346 -0.1674 -0.4119
  669TMC3    C5 9952   2.385   0.097  14.517 -0.7065 -0.7323  0.0580
  669TMC3    C6 9953   2.301   0.022  14.441  0.5850  0.2368 -0.1267
  669TMC3     C 9954   2.434   4.606  14.797  0.4700  0.0775 -0.3010
  669TMC3     O 9955   2.370   4.519  14.848 -0.2787  0.0810  0.7711
  669TMC3     H 9956   2.204   4.558  14.698  0.6037  0.0562  0.1321
  669TMC3    H1 9957   2.504   0.104  14.703  0.6692  1.4949 -2.1733
  669TMC3    H2 9958   2.281   0.037  14.336  1.7249  1.2085 -0.2136
  669TMC3    C7 9959   2.482   0.184  14.454  0.3690  0.0545 -0.2394
  669TMC3    C8 9960   2.112   4.604  14.461  0.6115 -0.3432 -0.2960
  669TMC3    O1 9961   2.577   0.228  14.515 -0.4489 -0.0243 -0.1222
  669TMC3    O2 9962   2.059   4.518  14.532  0.1330 -0.5898 -0.4956
  670MPD2     C 9963   0.765   2.105  13.093  0.2549  0.2652 -0.0851
  670MPD2    C1 9964   0.820   2.196  13.178 -0.3566  0.0022 -0.0004
  670MPD2    C2 9965   0.758   2.209  13.301  0.6129  0.3333 -0.1420
  670MPD2    C3 9966   0.648   2.131  13.333 -0.4690 -0.2322 -0.5753
  670MPD2    C4 9967   0.584   2.057  13.235 -0.3588 -0.1416 -0.3366
  670MPD2    C5 9968   0.647   2.047  13.115 -0.3296 -0.8640  0.5997
  670MPD2     H 9969   0.792   2.284  13.372 -0.7594  2.3511 -1.6292
  670MPD2    H1 9970   0.489   2.009  13.252 -0.0123 -0.2598  1.2918
  670MPD2    H2 9971   0.799   2.091  12.991 -0.0031 -1.2605  0.0381
  670MPD2    H3 9972   0.610   1.995  13.027  1.9781  1.0724 -1.5314
  670MPD2     N 9973   0.607   2.137  13.471 -0.0603  0.2331 -0.2460
  670MPD2    H5 9974   0.657   2.203  13.530  0.6072  0.2901 -0.8745
  670MPD2    N1 9975   0.937   2.260  13.140 -0.4485  0.4334 -0.2986
  670MPD2    H7 9976   0.962   2.254  13.041  0.2150 -2.5322  0.0336
  671TMC3    C1 9977   0.471   2.082  13.667 -0.7859 -0.2853  0.2842
  671TMC3    C2 9978   0.569   2.114  13.752  0.0926 -0.1153 -0.9175
  671TMC3    C3 9979   0.564   2.058  13.878  0.9964 -0.0517  0.2951
  671TMC3    C4 9980   0.366   2.000  13.706 -0.6347  0.6333  0.2793
  671TMC3    C5 9981   0.354   1.966  13.835  0.7959  0.7604 -0.3188
  671TMC3    C6 9982   0.454   1.998  13.926  0.0420 -0.0722 -0.2438
  671TMC3     C 9983   0.508   2.058  13.530  0.4933 -0.6697 -0.1560
  671TMC3     O 9984   0.454   1.956  13.487 -0.8070 -0.0823  0.3429
  671TMC3     H 9985   0.666   2.138  13.709 -1.6226  2.5353 -3.3109
  671TMC3    H1 9986   0.296   1.961  13.632  0.2291 -2.3187  0.9848
  671TMC3    H2 9987   0.430   1.984  14.031  1.3147  0.2342  0.0825
  671TMC3    C7 9988   0.301   1.830  13.832 -0.1621 -0.0662 -0.0012
  671TMC3    C8 9989   0.687   2.038  13.947  0.5148  0.3539  0.6749
  671TMC3    O1 9990   0.217   1.796  13.749  0.3011  0.4076 -0.4832
  671TMC3    O2 9991   0.791   2.039  13.880  0.7636 -0.2133  0.0315
  672MPD2     C 9992   1.535   3.182   0.050 -0.0724 -0.0805 -0.4524
  672MPD2    C1 9993   1.563   3.107   0.164 -0.4635 -0.4908 -0.7246
  672MPD2    C2 9994   1.693   3.098   0.208 -0.2553 -0.3242 -0.3388
  672MPD2    C3 9995   1.797   3.162   0.148 -0.0368  0.9534 -0.6053
  672MPD2    C4 9996   1.769   3.231   0.037  0.2369 -1.0830 -0.4975
  672MPD2    C5 9997   1.643   3.243  17.751  0.0299  0.3952 -0.0259
  672MPD2     H 9998   1.715   3.039   0.297 -3.6032 -0.6253  0.2888
  672MPD2    H1 9999   1.846   3.276  17.732  0.9586 -2.9768 -0.9969
  672MPD2    H210000   1.435   3.211   0.017  0.1563  1.6007  0.3081
  672MPD2    H310001   1.617   3.297  17.661 -0.4681  1.3757  0.7034
  672MPD2     N10002   1.926   3.178   0.208  0.4415 -0.5690  0.0109
  672MPD2    H510003   1.987   3.240   0.156  0.7761 -2.5264 -1.9081
  672MPD2    N110004   1.461   3.028   0.231  0.1366  0.2446  0.1113
  672MPD2    H710005   1.506   2.969   0.300 -2.2080 -0.2385  1.2341
  673TMC3    C110006   1.259   2.932   0.297  0.4227  0.4959 -0.1760
  673TMC3    C210007   1.324   2.814   0.331 -0.0773  0.0121 -0.7222
  673TMC3    C310008   1.249   2.707   0.363 -0.0470  0.8795 -0.1819
  673TMC3    C410009   1.123   2.936   0.296  0.5166  0.2035  0.3624
  673TMC3    C510010   1.054   2.829   0.327 -0.8894  0.3345 -0.1851
  673TMC3    C610011   1.113   2.709   0.368 -0.1787 -0.3027 -0.0369
  673TMC3     C10012   1.326   3.035   0.219  0.6644  0.4594 -0.3883
  673TMC3     O10013   1.256   3.112   0.156 -0.3713  0.4733  0.3283
  673TMC3     H10014   1.431   2.798   0.321  0.3547  2.0697  0.5416
  673TMC3    H110015   1.071   3.027   0.268  3.3769  1.5713 -0.5143
  673TMC3    H210016   1.049   2.628   0.400  0.1070 -0.3735  0.3583
  673TMC3    C710017   0.908   2.820   0.298 -0.3445 -0.3253 -0.4056
  673TMC3    C810018   1.302   2.577   0.337  0.1049  0.8550  0.0551
  673TMC3    O110019   0.855   2.715   0.313  0.1921  0.0586 -0.1459
  673TMC3    O210020   1.220   2.494   0.311  0.2485  0.1717  0.0476
  674MPD2     C10021   0.322   2.546  16.998 -0.4600 -0.5528  0.2301
  674MPD2    C110022   0.350   2.614  17.119  0.6750 -0.5602  0.1087
  674MPD2    C210023   0.302   2.743  17.139 -0.2272  0.2339 -0.5150
  674MPD2    C310024   0.215   2.794  17.049 -0.0500 -0.2657 -0.5300
  674MPD2    C410025   0.177   2.728  16.935 -0.0860  0.1004 -0.6823
  674MPD2    C510026   0.229   2.600  16.914 -0.2396 -0.5992  0.0492
  674MPD2     H10027   0.341   2.793  17.227 -1.2624  0.5689 -0.2550
  674MPD2    H110028   0.094   2.771  16.881  0.4095  1.3285 -0.4621
  674MPD2    H210029   0.346   2.442  16.976  1.7167 -0.2024  0.9825
  674MPD2    H310030   0.203   2.541  16.827 -0.3973  0.1129 -0.3901
  674MPD2     N10031   0.161   2.920  17.084 -0.0479 -0.1816 -0.0685
  674MPD2    H510032   0.200   2.954  17.172  3.0883 -0.4329 -1.3596
  674MPD2    N110033   0.432   2.566  17.223 -0.7105 -0.2069  0.7281
  674MPD2    H710034   0.435   2.616  17.311 -0.2931 -1.1990  1.2823
  675TMC3    C110035   0.556   2.390  17.329  0.5118 -0.0052 -0.9870
  675TMC3    C210036   0.543   2.257  17.345  0.1000  0.2647  0.2421
  675TMC3    C310037   0.583   2.206  17.469  0.3287  0.8663  0.0831
  675TMC3    C410038   0.619   2.474  17.411  0.0163  0.1192  0.2720
  675TMC3    C510039   0.647   2.419  17.529  0.5036  0.6893  0.3248
  675TMC3    C610040   0.632   2.287  17.566  0.5622  0.8570  0.2365
  675TMC3     C10041   0.497   2.443  17.213 -0.4552 -0.9226  0.2807
  675TMC3     O10042   0.509   2.372  17.115 -0.3786  0.0230 -0.4983
  675TMC3     H10043   0.500   2.186  17.274  0.1567  0.2015  0.2702
  675TMC3    H110044   0.626   2.577  17.380  1.3883  0.1550  0.7207
  675TMC3    H210045   0.680   2.245  17.654 -2.2431 -0.7088  1.0110
  675TMC3    C710046   0.727   2.499  17.618 -0.4278  0.1624  0.3051
  675TMC3    C810047   0.543   2.079  17.503 -0.1595 -0.1007  0.1183
  675TMC3    O110048   0.743   2.444  17.729 -0.4730  0.1632  0.1694
  675TMC3    O210049   0.534   1.998  17.411  0.1390  0.7084 -0.2047
  676MPD2     C10050   3.140   0.757  10.878  0.5676  1.0771 -0.0797
  676MPD2    C110051   3.016   0.721  10.926  0.0224  0.6991 -0.4878
  676MPD2    C210052   2.984   0.584  10.938 -0.9111 -0.2921 -0.2627
  676MPD2    C310053   3.076   0.489  10.900 -0.3113  0.1151  0.4135
  676MPD2    C410054   3.203   0.528  10.859  0.3817 -0.4861 -0.0154
  676MPD2    C510055   3.232   0.662  10.856 -0.1952 -0.6769  0.6591
  676MPD2     H10056   2.885   0.555  10.972 -0.6234  0.6200  1.3679
  676MPD2    H110057   3.280   0.460  10.824  0.6392  1.6947 -3.7303
  676MPD2    H210058   3.164   0.863  10.877  2.4285  0.6716  1.8833
  676MPD2    H310059   3.329   0.689  10.816 -0.3182  0.1556  0.9468
  676MPD2     N10060   3.032   0.354  10.918 -0.6547  0.4918 -0.4230
  676MPD2    H510061   2.938   0.338  10.953 -0.5792  1.7907  0.3961
  676MPD2    N110062   2.915   0.815  10.968 -0.4763  0.9399  0.4450
  676MPD2    H710063   2.822   0.782  10.990 -0.5173  1.4878  1.0934
  677TMC3    C110064   2.817   1.019  11.038  0.3938  0.2090 -0.7193
  677TMC3    C210065   2.701   0.941  11.044 -0.0197 -0.7863 -0.2962
  677TMC3    C310066   2.619   0.964  11.151  0.8121 -0.5561 -0.3412
  677TMC3    C410067   2.836   1.123  11.124 -0.2857  0.4378 -0.3944
  677TMC3    C510068   2.744   1.142  11.232  0.3229  0.1053  0.4771
  677TMC3    C610069   2.644   1.053  11.250  0.2828 -0.8050  0.3034
  677TMC3     C10070   2.932   0.950  10.989 -0.3828 -0.4229  0.5433
  677TMC3     O10071   3.038   1.004  10.991 -0.2482 -0.4994  0.0492
  677TMC3     H10072   2.676   0.861  10.977 -0.4347  0.0624 -1.1568
  677TMC3    H110073   2.925   1.184  11.117  1.3630 -1.8574  0.7601
  677TMC3    H210074   2.572   1.057  11.331  0.5176 -0.8280  0.5110
  677TMC3    C710075   2.778   1.218  11.354  0.0789 -0.2605 -0.5993
  677TMC3    C810076   2.507   0.870  11.166 -0.0952  0.7202 -0.9138
  677TMC3    O110077   2.707   1.205  11.450 -0.2969  0.1459 -1.0661
  677TMC3    O210078   2.450   0.830  11.067  0.0515 -0.6732 -0.3293
  678MPD2     C10079   0.278   0.490   1.383  0.4794  0.1169  0.1151
  678MPD2    C110080   0.268   0.501   1.243  0.3054  0.4597  0.2152
  678MPD2    C210081   0.139   0.506   1.194  0.8792 -0.6296 -0.6569
  678MPD2    C310082   0.026   0.509   1.275  0.3195 -0.3941  0.3470
  678MPD2    C410083   0.038   0.504   1.415  0.4689  0.2866  1.1110
  678MPD2    C510084   0.166   0.498   1.464  0.3963  0.5344  0.0449
  678MPD2     H10085   0.125   0.501   1.087 -3.2109 -1.1607 -0.1108
  678MPD2    H110086   4.697   0.524   1.484  0.5266 -1.2215  1.6104
  678MPD2    H210087   0.367   0.480   1.445  0.9406 -2.6995 -1.0276
  678MPD2    H310088   0.182   0.493   1.571  0.5176 -1.6855 -0.0736
  678MPD2     N10089   4.643   0.512   1.209  0.6820  0.5648 -0.1692
  678MPD2    H510090   4.644   0.476   1.114 -1.5363 -1.3797  0.5395
  678MPD2    N110091   0.380   0.509   1.159  0.0693 -0.0523 -0.1433
  678MPD2    H710092   0.366   0.525   1.060 -0.3298 -2.7393 -0.5141
  679TMC3    C110093   0.824   0.510   1.003 -0.1016 -0.1822  0.1110
  679TMC3    C210094   0.744   0.517   1.111 -0.4005 -0.1392 -0.2236
  679TMC3    C310095   0.613   0.537   1.097 -0.1376  0.0738 -0.2414
  679TMC3    C410096   0.778   0.545   0.881  0.0961 -0.0442  0.2708
  679TMC3    C510097   0.641   0.575   0.873  0.1242  0.3114  0.7648
  679TMC3    C610098   0.559   0.572   0.981  0.4601  0.2308  0.0742
  679TMC3     C10099   0.967   0.510   1.022  0.2290  0.5006  0.0812
  679TMC3     O10100   1.028   0.487   0.917  0.2787 -0.5921 -0.0396
  679TMC3     H10101   0.778   0.480   1.207 -0.5839  2.0865  0.6979
  679TMC3    H110102   0.837   0.547   0.790  0.2621 -1.3953  0.3407
  679TMC3    H210103   0.460   0.614   0.974  0.2167 -0.8355 -2.8381
  679TMC3    C710104   0.566   0.588   0.743  0.2563 -0.5676 -0.4039
  679TMC3    C810105   0.513   0.508   1.205 -0.1324 -0.3750 -0.3395
  679TMC3    O110106   0.446   0.605   0.748  0.1526  0.1647  0.6435
  679TMC3    O210107   0.561   0.488   1.313  0.0650  0.1784 -0.4885
  680MPD2     C10108   4.528   4.350  13.672  0.5212  0.2118 -0.5619
  680MPD2    C110109   4.633   4.278  13.728 -0.4401  0.1859 -0.3571
  680MPD2    C210110   4.704   4.334  13.834  0.9508  0.1734 -0.1088
  680MPD2    C310111   4.670   4.464  13.880  0.8334 -0.0841 -0.4902
  680MPD2    C410112   4.567   4.531  13.819  0.0021 -0.1035  0.3885
  680MPD2    C510113   4.490   4.473  13.717 -0.2036 -0.1196 -0.4837
  680MPD2     H10114   0.054   4.283  13.867  1.5305 -0.8900 -3.2443
  680MPD2    H110115   4.532   4.633  13.829 -0.7935 -0.3263 -0.0704
  680MPD2    H210116   4.468   4.299  13.598  1.0208 -0.2757 -0.6366
  680MPD2    H310117   4.412   4.527  13.666 -1.6614 -0.1700  1.6838
  680MPD2     N10118   0.007   4.526  13.981 -0.1214 -0.2959 -0.0141
  680MPD2    H510119   4.721   4.624  13.991 -0.7569 -0.2625 -2.0074
  680MPD2    N110120   4.661   4.149  13.695 -0.2358  0.2652  0.2585
  680MPD2    H710121   4.719   4.098  13.760 -0.4965  1.4216  1.3793
  681TMC3    C110122   4.695   3.960  13.564 -0.2294 -0.1883  0.3568
  681TMC3    C210123   4.632   3.858  13.649  0.4046 -0.3911 -0.4482
  681TMC3    C310124   4.673   3.731  13.639 -0.9253 -0.4275  0.3851
  681TMC3    C410125   0.049   3.926  13.472  0.0087  0.4947  0.0035
  681TMC3    C510126   0.092   3.796  13.475 -0.6542  0.6136  0.2717
  681TMC3    C610127   0.031   3.699  13.546 -0.0257 -0.1873 -0.0124
  681TMC3     C10128   4.641   4.093  13.570 -0.2549  0.2132  0.4136
  681TMC3     O10129   4.602   4.145  13.465 -0.0649 -0.2154  0.1196
  681TMC3     H10130   4.545   3.869  13.713  0.7137 -1.3697  0.1547
  681TMC3    H110131   0.106   3.993  13.408 -1.2446 -1.9748 -3.7436
  681TMC3    H210132   0.071   3.599  13.540 -3.4018 -1.5074 -0.4684
  681TMC3    C710133   0.208   3.759  13.395  0.1783  0.4269  0.1541
  681TMC3    C810134   4.638   3.637  13.742  0.8039  0.4089 -0.0155
  681TMC3    O110135   0.219   3.643  13.359  0.3480 -0.4642  0.5583
  681TMC3    O210136   4.639   3.520  13.708 -0.4108 -0.5141  0.1785
  682MPD2     C10137   1.982   1.242  11.121  1.1489 -0.6210  0.6884
  682MPD2    C110138   1.910   1.127  11.132  0.4607  0.2947  0.2801
  682MPD2    C210139   1.874   1.083  11.255  0.3204 -0.0529 -0.2303
  682MPD2    C310140   1.902   1.153  11.372 -0.2927  0.5085 -0.3842
  682MPD2    C410141   1.963   1.277  11.357 -1.5213 -0.6034 -0.8684
  682MPD2    C510142   2.010   1.317  11.238  0.8859 -0.1573  0.2522
  682MPD2     H10143   1.846   0.978  11.253 -1.2067  0.3756 -1.1043
  682MPD2    H110144   1.983   1.334  11.447  1.1633 -1.7390 -0.7449
  682MPD2    H210145   2.024   1.284  11.030  0.4600 -2.5746 -0.5268
  682MPD2    H310146   2.063   1.412  11.230  0.9828 -0.3192 -0.9695
  682MPD2     N10147   1.888   1.110  11.503  0.1342 -0.1168 -0.0351
  682MPD2    H510148   1.913   1.169  11.582  0.9761  0.3904 -0.6924
  682MPD2    N110149   1.886   1.029  11.029 -0.3185  0.4558  0.8401
  682MPD2    H710150   1.838   0.942  11.048  1.4478 -0.6170  0.4575
  683TMC3    C110151   1.836   1.076  11.911  0.0269  0.6094  0.1636
  683TMC3    C210152   1.733   1.005  11.960  0.1909 -0.3977  0.2166
  683TMC3    C310153   1.656   0.932  11.871  1.1127  0.2208 -0.5907
  683TMC3    C410154   1.875   1.075  11.776 -0.3563 -0.4054 -0.1657
  683TMC3    C510155   1.795   0.996  11.693 -0.2317 -0.8092  0.1261
  683TMC3    C610156   1.686   0.925  11.738  0.3707  0.9161 -0.2696
  683TMC3     C10157   1.943   1.111  12.003  0.0499  0.1464  0.5149
  683TMC3     O10158   2.018   1.199  11.967 -0.1496 -0.8145 -0.1101
  683TMC3     H10159   1.709   0.986  12.064 -0.4116 -0.7619  0.0093
  683TMC3    H110160   1.970   1.122  11.754  0.0623 -0.8036  0.8050
  683TMC3    H210161   1.633   0.875  11.658 -1.0261  1.3993  0.3635
  683TMC3    C710162   1.820   0.998  11.553 -0.2644  0.0827 -0.9038
  683TMC3    C810163   1.533   0.868  11.922 -0.0179 -0.2547 -0.2108
  683TMC3    O110164   1.781   0.904  11.489 -0.2180 -0.0276  0.5130
  683TMC3    O210165   1.473   0.927  12.010  0.2830  0.5690 -0.1051
  684MPD2     C10166   0.734   0.202  16.378  0.1388 -0.5777 -0.2877
  684MPD2    C110167   0.652   0.253  16.276 -0.0181 -0.2571  0.2552
  684MPD2    C210168   0.606   0.379  16.294 -0.7197 -0.4156 -0.5592
  684MPD2    C310169   0.644   0.451  16.409  1.1650  0.1963  0.2707
  684MPD2    C410170   0.724   0.399  16.509  0.0373 -0.1401 -0.3442
  684MPD2    C510171   0.773   0.274  16.488  0.0211 -0.5906  0.2033
  684MPD2     H10172   0.546   0.424  16.215  1.3356 -0.7245 -2.2903
  684MPD2    H110173   0.745   0.454  16.600  1.0697  0.6579 -1.0618
  684MPD2    H210174   0.777   0.104  16.367 -1.3082 -1.0162 -1.9660
  684MPD2    H310175   0.843   0.215  16.546 -0.2971 -0.7161  0.4672
  684MPD2     N10176   0.604   0.586  16.427 -0.5107 -0.3796  0.5639
  684MPD2    H510177   0.635   0.633  16.512  0.3781 -1.5046  0.8550
  684MPD2    N110178   0.627   0.183  16.148 -0.0659  0.4042  0.0435
  684MPD2    H710179   0.588   0.239  16.073 -0.5306 -0.1850 -0.1525
  685TMC3    C110180   0.673   0.039  15.962 -0.0993  0.2547 -0.1565
  685TMC3    C210181   0.688   0.149  15.890  0.7012  0.2370 -0.3651
  685TMC3    C310182   0.728   0.138  15.761 -0.6074  0.5348 -0.0374
  685TMC3    C410183   0.731   4.666  15.923 -0.1899  0.2268  0.2426
  685TMC3    C510184   0.789   4.657  15.801  0.1690  0.2787  0.0905
  685TMC3    C610185   0.781   0.020  15.718  0.0833  0.1298  0.2169
  685TMC3     C10186   0.668   0.059  16.109  0.3081 -0.5657 -0.1632
  685TMC3     O10187   0.723   4.711  16.176  0.4870  0.1549 -0.2107
  685TMC3     H10188   0.656   0.248  15.921  2.8996  2.0432 -3.8462
  685TMC3    H110189   0.734   4.577  15.984  1.4194 -0.6262 -1.0725
  685TMC3    H210190   0.832   0.018  15.622 -1.3047 -1.4198 -0.4779
  685TMC3    C710191   0.914   4.580  15.813 -0.0410 -0.9439  0.3635
  685TMC3    C810192   0.679   0.234  15.663 -0.9462  0.3443  0.4223
  685TMC3    O110193   0.920   4.465  15.863 -0.0207 -0.6858 -0.2876
  685TMC3    O210194   0.753   0.256  15.572 -0.0414  0.8470 -0.0586
  686MPD2     C10195   1.723   0.409  15.322 -0.3461 -0.7365 -0.4605
  686MPD2    C110196   1.786   0.317  15.405  0.5583  0.0616  0.3779
  686MPD2    C210197   1.919   0.349  15.441 -0.1238  0.1818 -0.0688
  686MPD2    C310198   2.002   0.431  15.364  0.0125 -0.5822 -0.2319
  686MPD2    C410199   1.935   0.509  15.268 -1.3262 -0.4867 -0.3483
  686MPD2    C510200   1.802   0.506  15.249 -0.0993 -0.7343  0.0081
  686MPD2     H10201   1.957   0.283  15.519 -2.3670 -0.0363  0.8571
  686MPD2    H110202   1.995   0.579  15.211 -2.1647  0.4818 -0.0288
  686MPD2    H210203   1.617   0.404  15.299 -0.0440  0.4044 -2.0821
  686MPD2    H310204   1.747   0.579  15.191 -0.1971 -0.7904  0.0314
  686MPD2     N10205   2.139   0.452  15.392  0.2107 -0.6092  0.4621
  686MPD2    H510206   2.180   0.524  15.334 -2.0587 -0.1374 -0.5870
  686MPD2    N110207   1.705   0.213  15.455 -0.2039 -0.0971 -0.7719
  686MPD2    H710208   1.608   0.222  15.428 -0.6895 -0.8068  0.7283
  687TMC3    C110209   2.206   0.243  15.494 -0.3951 -0.3755 -0.5763
  687TMC3    C210210   2.161   0.164  15.385 -0.0113  0.0958  0.0547
  687TMC3    C310211   2.129   0.036  15.414 -0.0272 -0.9964 -0.2086
  687TMC3    C410212   2.251   0.182  15.612 -0.6162  0.4557  0.7661
  687TMC3    C510213   2.225   0.051  15.628 -0.3359 -0.1469  0.4625
  687TMC3    C610214   2.158   4.717  15.539 -0.2864  0.4806 -0.0239
  687TMC3     C10215   2.234   0.383  15.467 -0.1435 -0.2018 -0.3807
  687TMC3     O10216   2.328   0.427  15.534  0.2301 -0.6020 -0.5402
  687TMC3     H10217   2.169   0.213  15.288 -3.1851 -0.5947 -0.5433
  687TMC3    H110218   2.298   0.248  15.685 -1.4313  0.7272  1.0454
  687TMC3    H210219   2.123   4.618  15.566 -0.3225  0.5294  0.1066
  687TMC3    C710220   2.277   4.729  15.750  0.5689 -0.3892 -0.2375
  687TMC3    C810221   2.021   4.719  15.336  0.2528  0.1913  0.2073
  687TMC3    O110222   2.333   0.066  15.832  1.0146  0.0159 -0.5312
  687TMC3    O210223   1.996   4.600  15.348  0.1566  0.6732  0.1841
  688MPD2     C10224   1.010   3.996  16.816 -0.1965 -0.0756 -1.0383
  688MPD2    C110225   1.044   3.871  16.879 -0.2902  0.0439  0.1024
  688MPD2    C210226   1.146   3.805  16.817  0.0893 -0.3705 -0.4213
  688MPD2    C310227   1.207   3.844  16.692 -0.0106 -0.4775 -1.0641
  688MPD2    C410228   1.172   3.959  16.644 -0.4586 -0.6826 -0.3886
  688MPD2    C510229   1.077   4.037  16.704 -0.4447 -0.3238  0.5945
  688MPD2     H10230   1.165   3.710  16.866 -0.3938 -0.6687 -0.8104
  688MPD2    H110231   1.201   3.992  16.545  2.0803 -0.6189  0.3728
  688MPD2    H210232   0.937   4.068  16.851  2.6254  1.6317  1.2881
  688MPD2    H310233   1.037   4.118  16.645 -2.9946  0.4146  3.2954
  688MPD2     N10234   1.303   3.773  16.624  0.1338  0.2527 -0.0759
  688MPD2    H510235   1.351   3.829  16.555  0.0131  0.0009 -0.3644
  688MPD2    N110236   0.989   3.825  17.002  1.3799 -0.3594 -0.2275
  688MPD2    H710237   1.026   3.739  17.041  0.7261 -1.0097 -1.0548
  689TMC3    C110238   0.885   3.829  17.213 -0.1496 -0.1064 -0.1884
  689TMC3    C210239   0.873   3.920  17.316 -0.1089  0.6046  0.1896
  689TMC3    C310240   0.894   3.877  17.443 -0.3309 -0.0508 -0.0767
  689TMC3    C410241   0.907   3.691  17.235 -0.3825  0.2775 -0.8038
  689TMC3    C510242   0.926   3.655  17.366 -0.2798 -0.2898 -0.3503
  689TMC3    C610243   0.919   3.746  17.467  0.0383  0.9511 -0.2266
  689TMC3     C10244   0.897   3.887  17.080 -0.1638  0.1418  0.5814
  689TMC3     O10245   0.831   3.988  17.055 -0.1915 -0.2522  0.1100
  689TMC3     H10246   0.855   4.026  17.300 -1.2054  0.2654 -0.7902
  689TMC3    H110247   0.920   3.622  17.153  0.2694  1.8079 -1.9982
  689TMC3    H210248   0.929   3.718  17.571  2.5182 -1.6137 -1.1518
  689TMC3    C710249   0.898   3.519  17.421 -0.5175  0.8273 -0.6903
  689TMC3    C810250   0.853   3.971  17.546 -0.3606  0.1787 -0.0549
  689TMC3    O110251   0.938   3.502  17.538 -0.2683 -0.6108 -0.0742
  689TMC3    O210252   0.770   4.052  17.511 -0.2086  0.5751  0.4144
  690MPD2     C10253   3.457   0.867  15.795 -0.0240  0.3878 -0.2293
  690MPD2    C110254   3.391   0.859  15.674 -1.2830  0.2599 -0.4903
  690MPD2    C210255   3.465   0.862  15.558  0.0142  1.1900  0.0762
  690MPD2    C310256   3.601   0.883  15.563 -0.1630 -0.1659  0.3224
  690MPD2    C410257   3.661   0.891  15.686 -0.1839  0.1124  0.2773
  690MPD2    C510258   3.590   0.885  15.798 -1.1051 -0.5701 -0.0092
  690MPD2     H10259   3.405   0.859  15.467 -0.4312 -0.7420  0.4526
  690MPD2    H110260   3.767   0.907  15.701 -0.2558 -0.3167  1.2802
  690MPD2    H210261   3.403   0.864  15.889  2.4336 -0.5508  1.1442
  690MPD2    H310262   3.645   0.890  15.891  2.4068 -0.2027 -2.1089
  690MPD2     N10263   3.676   0.899  15.446 -0.1754 -0.0114 -0.2482
  690MPD2    H510264   3.621   0.902  15.361  0.3016 -1.6723 -0.6131
  690MPD2    N110265   3.258   0.818  15.661 -0.4679  0.2041  0.0379
  690MPD2    H710266   3.234   0.781  15.569  1.3007  1.9456 -1.1159
  691TMC3    C110267   3.043   0.726  15.737  0.2784  0.2547  0.0075
  691TMC3    C210268   2.932   0.783  15.800 -0.2607 -0.4992  0.7986
  691TMC3    C310269   2.837   0.704  15.854  0.4865 -0.3956 -0.0206
  691TMC3    C410270   3.067   0.595  15.747 -0.5313 -0.2765 -0.0550
  691TMC3    C510271   2.980   0.524  15.826  0.7508 -0.2570  0.3361
  691TMC3    C610272   2.865   0.570  15.881  1.1289 -0.2482 -0.3672
  691TMC3     C10273   3.167   0.803  15.763 -0.0464  0.0058  0.4607
  691TMC3     O10274   3.173   0.862  15.871 -0.4981 -0.4839  0.0236
  691TMC3     H10275   2.918   0.890  15.807  0.3149 -0.4415  0.9933
  691TMC3    H110276   3.162   0.559  15.712 -0.9074 -1.7673  0.4810
  691TMC3    H210277   2.803   0.510  15.946  1.0961  2.2458  1.8795
  691TMC3    C710278   3.040   0.406  15.887 -0.3935 -0.0321  0.2449
  691TMC3    C810279   2.779   0.780  15.965 -0.0240 -0.4505  0.1661
  691TMC3    O110280   3.161   0.400  15.883  0.2022 -0.0742  0.0332
  691TMC3    O210281   2.835   0.773  16.073 -0.2453  0.1441  0.4042
  692TMC3    C110282   0.177   1.870  15.850 -0.0162  0.3117 -0.0869
  692TMC3    C210283   0.308   1.873  15.892 -0.6279  0.3931 -0.7339
  692TMC3    C310284   0.369   1.752  15.892 -0.4788 -0.2737  0.0190
  692TMC3    C410285   0.112   1.761  15.795  0.3904  0.2560 -0.4613
  692TMC3    C510286   0.188   1.648  15.778 -0.1852 -0.7593  0.4657
  692TMC3    C610287   0.321   1.652  15.817  0.5880  0.0168 -0.8210
  692TMC3     C10288   0.094   1.968  15.908 -0.0338 -0.0402 -0.2594
  692TMC3     O10289   4.718   1.934  15.933 -0.1158  0.1653 -0.1056
  692TMC3     H10290   0.356   1.953  15.947 -2.3065  0.7032  0.2792
  692TMC3    H110291   0.005   1.764  15.778  0.6903 -1.1554 -2.6076
  692TMC3    H210292   0.383   1.563  15.813 -1.2940 -1.2761 -0.8582
  692TMC3    C710293   0.120   1.526  15.784  0.0497  0.2259  0.0099
  692TMC3    C810294   0.354   1.693  16.024  0.4517 -0.5405 -0.3918
  692TMC3    O110295   0.001   1.515  15.739  0.1709 -0.3293  0.2642
  692TMC3    O210296   0.358   1.574  16.028 -0.1992 -0.0349 -0.3646
  693MPD2     C10297   4.294   0.162  10.670 -0.4805  0.5514 -0.0670
  693MPD2    C110298   4.249   0.029  10.689  0.2745  0.5302 -0.3202
  693MPD2    C210299   4.335   4.673  10.736  0.7575  0.4515 -1.0536
  693MPD2    C310300   4.469   4.715  10.763 -0.6734  0.0700 -0.2760
  693MPD2    C410301   4.506   0.108  10.742  0.3572 -0.3612  0.3217
  693MPD2    C510302   4.419   0.203  10.704 -0.0188 -0.3432 -0.4752
  693MPD2     H10303   4.306   4.569  10.743  2.1757  0.0935 -0.5026
  693MPD2    H110304   4.608   0.139  10.762  0.6253 -1.2002  0.2620
  693MPD2    H210305   4.228   0.242  10.639 -1.6829 -0.3754  0.1295
  693MPD2    H310306   4.441   0.307  10.683 -2.5401  0.7135  2.2766
  693MPD2     N10307   4.571   4.620  10.804  0.2166  0.1538 -0.2247
  693MPD2    H510308   4.658   4.661  10.836  1.7300 -2.4815 -0.9947
  693MPD2    N110309   4.121   4.738  10.641  0.2458 -0.3521 -0.6648
  693MPD2    H710310   4.070   0.078  10.603  2.8696  2.0403  0.8154
  694TMC3    C110311   3.920   4.624  10.645 -0.3356 -0.3121  0.2945
  694TMC3    C210312   3.867   4.540  10.551 -0.1508 -0.1549 -0.3244
  694TMC3    C310313   3.773   4.460  10.608  0.2305  0.1512  0.7599
  694TMC3    C410314   3.865   4.643  10.767 -0.1035  0.7581  0.6899
  694TMC3    C510315   3.762   4.567  10.811 -0.2634 -0.2875 -0.5392
  694TMC3    C610316   3.716   4.467  10.730  0.6427  0.0925  0.0384
  694TMC3     C10317   4.061   4.617  10.655  0.0475 -0.5522 -0.2902
  694TMC3     O10318   4.102   4.501  10.652  0.0723 -0.3860 -0.0272
  694TMC3     H10319   3.921   4.502  10.465 -1.1355  0.2270 -1.1112
  694TMC3    H110320   3.917   4.711  10.834  1.7346  0.2679 -0.2515
  694TMC3    H210321   3.629   4.406  10.751  0.0988  0.2188 -1.8437
  694TMC3    C710322   3.719   4.580  10.950  0.2850  0.2867  0.6868
  694TMC3    C810323   3.704   4.370  10.516 -0.1758  0.1707 -0.5187
  694TMC3    O110324   3.731   4.696  10.997 -0.1701 -0.2881  0.0993
  694TMC3    O210325   3.679   4.410  10.402 -0.1024 -0.4609 -0.0340
  695MPD2     C10326   1.231   1.578  13.520  0.4882  0.4798  0.0223
  695MPD2    C110327   1.134   1.515  13.592 -0.4099 -0.1708  0.0012
  695MPD2    C210328   1.010   1.493  13.536 -1.2027 -0.5674  0.4254
  695MPD2    C310329   0.987   1.531  13.407 -0.3191  0.8508  1.1630
  695MPD2    C410330   1.081   1.602  13.339 -0.0717 -0.1076 -0.0275
  695MPD2    C510331   1.202   1.623  13.392 -0.2587 -0.3952 -0.1100
  695MPD2     H10332   0.936   1.438  13.593 -1.1232  0.3673  1.4350
  695MPD2    H110333   1.071   1.642  13.239  0.2466 -2.9584 -1.2058
  695MPD2    H210334   1.326   1.599  13.566  0.8924 -0.3864 -0.4250
  695MPD2    H310335   1.282   1.674  13.340 -0.1007 -1.9810 -1.3976
  695MPD2     N10336   0.854   1.506  13.359 -0.3683  0.3309 -0.2896
  695MPD2    H510337   0.796   1.449  13.420 -0.8997  1.9917  0.7357
  695MPD2    N110338   1.144   1.462  13.723  0.5532 -0.2495 -0.5397
  695MPD2    H710339   1.068   1.426  13.779  1.7009 -0.2160  1.0438
  696TMC3    C110340   0.668   1.526  13.217  0.3283 -0.3486  0.5845
  696TMC3    C210341   0.590   1.471  13.321 -0.0141 -0.7420 -0.7669
  696TMC3    C310342   0.457   1.473  13.309  0.0362 -0.4583 -0.7014
  696TMC3    C410343   0.609   1.580  13.109  0.2407  0.2966  0.5985
  696TMC3    C510344   0.475   1.586  13.108  0.5940  0.0916  0.2693
  696TMC3    C610345   0.396   1.531  13.203 -0.4054 -0.6073 -0.7429
  696TMC3     C10346   0.810   1.560  13.240 -0.0334 -0.0729 -0.6186
  696TMC3     O10347   0.868   1.624  13.154  0.4779  0.0537  0.1499
  696TMC3     H10348   0.634   1.425  13.409 -1.2196 -0.4777 -0.0211
  696TMC3    H110349   0.668   1.644  13.045  2.0516 -2.4626 -0.5162
  696TMC3    H210350   0.288   1.539  13.195 -0.1877 -0.1380 -3.2421
  696TMC3    C710351   0.416   1.689  13.025  0.5322  0.0962  0.2351
  696TMC3    C810352   0.377   1.473  13.435  0.4604 -0.3539  0.1192
  696TMC3    O110353   0.476   1.723  12.923  0.4407 -0.5528  0.3800
  696TMC3    O210354   0.267   1.524  13.428  0.4778  0.2321  0.2386
  697MPD2     C10355   0.237   3.205  15.697  0.6994  0.6020 -0.9467
  697MPD2    C110356   0.192   3.180  15.566  0.4176 -0.1815 -0.1889
  697MPD2    C210357   0.184   3.291  15.484 -0.1255  0.1335  0.2503
  697MPD2    C310358   0.220   3.421  15.528 -0.1941 -0.1726  0.3439
  697MPD2    C410359   0.282   3.433  15.654 -0.0537 -0.1740  0.2757
  697MPD2    C510360   0.287   3.324  15.732  0.0687 -0.3214 -0.3670
  697MPD2     H10361   0.135   3.294  15.387  1.4653 -0.0358 -0.5503
  697MPD2    H110362   0.326   3.528  15.682  2.7736 -2.2546  2.9163
  697MPD2    H210363   0.240   3.127  15.772  0.2090 -0.1848 -1.7257
  697MPD2    H310364   0.335   3.325  15.829 -0.5028  1.0540 -0.1024
  697MPD2     N10365   0.199   3.528  15.432  0.2615 -0.5622  0.9327
  697MPD2    H510366   0.145   3.502  15.350  2.1421 -0.2598 -0.4046
  697MPD2    N110367   0.151   3.056  15.519  0.0750  0.0776  0.0809
  697MPD2    H710368   0.115   3.047  15.425 -2.6759 -0.0612  1.1487
  698TMC3    C110369   0.208   3.736  15.321 -0.2393  0.0153 -0.3730
  698TMC3    C210370   0.193   3.871  15.348 -0.3472  0.2894  0.3847
  698TMC3    C310371   0.103   3.946  15.274 -0.3080 -0.0159 -0.0908
  698TMC3    C410372   0.131   3.674  15.218 -0.0688 -0.5618  0.2109
  698TMC3    C510373   0.039   3.753  15.150  1.0850 -0.1055 -0.4526
  698TMC3    C610374   0.017   3.883  15.181 -0.1653 -0.0520  0.6794
  698TMC3     C10375   0.237   3.661  15.438  0.1366  0.4196 -0.1184
  698TMC3     O10376   0.293   3.720  15.531 -0.0231  0.1576  0.1144
  698TMC3     H10377   0.241   3.930  15.425 -0.5443  1.0878 -0.1007
  698TMC3    H110378   0.162   3.579  15.175  1.2579 -0.3843  0.7509
  698TMC3    H210379   4.676   3.934  15.132  2.1330  0.3565 -2.6703
  698TMC3    C710380   4.701   3.691  15.046 -0.3255  0.2366 -0.1883
  698TMC3    C810381   0.121   4.086  15.265 -0.1382 -0.5550 -0.4604
  698TMC3    O110382   4.689   3.743  14.938  0.3113  0.3945  0.0249
  698TMC3    O210383   0.023   4.137  15.215  0.4542  0.0314  0.5127
  699TMC3    C110384   4.527   2.269  13.031  0.0037  0.4150  0.4377
  699TMC3    C210385   4.594   2.143  13.031  0.2520  0.1229  0.0376
  699TMC3    C310386   4.550   2.052  13.126 -0.6619  0.3808 -0.2152
  699TMC3    C410387   4.412   2.283  13.096 -0.6226 -0.0199 -1.0113
  699TMC3    C510388   4.378   2.188  13.193 -0.1804  0.6648  0.0354
  699TMC3    C610389   4.452   2.077  13.223 -0.1757  0.1457 -0.6644
  699TMC3     C10390   4.551   2.362  12.922 -0.1900  0.3179  0.2533
  699TMC3     O10391   4.490   2.468  12.911  0.8839  0.3231 -0.1435
  699TMC3     H10392   4.679   2.117  12.968  0.9110 -0.9630  1.3681
  699TMC3    H110393   4.339   2.363  13.085 -1.3529 -0.2200  2.3091
  699TMC3    H210394   4.412   2.018  13.305 -1.9965 -0.9092 -2.2849
  699TMC3    C710395   4.256   2.203  13.261  0.3129 -0.6248 -0.1936
  699TMC3    C810396   4.620   1.925  13.154  0.5710 -0.0750 -0.2285
  699TMC3    O110397   4.253   2.180  13.385 -0.5988  0.4464  0.9445
  699TMC3    O210398   4.619   1.898  13.277  0.0446  0.2312 -0.1590
  700TMC3    C110399   3.908   3.874  17.144  0.6810  0.4469  0.1929
  700TMC3    C210400   4.013   3.864  17.054  0.7527  0.6565 -0.9603
  700TMC3    C310401   4.136   3.859  17.115  0.0876 -1.0393 -0.8674
  700TMC3    C410402   3.922   3.899  17.275  0.6999 -0.0827  0.0148
  700TMC3    C510403   4.049   3.925  17.322 -0.3566  0.2422  0.3106
  700TMC3    C610404   4.161   3.894  17.246  0.0059 -0.1362  0.3797
  700TMC3     C10405   3.832   3.989  17.102 -0.1286 -0.5731  0.6987
  700TMC3     O10406   3.716   3.993  17.145 -0.5281  0.1097 -0.1133
  700TMC3     H10407   4.006   3.820  16.955 -1.4520  0.0047 -0.5045
  700TMC3    H110408   3.833   3.929  17.330  1.5688  0.3487  1.1678
  700TMC3    H210409   4.257   3.906  17.295  0.5945 -1.9329 -0.3093
  700TMC3    C710410   4.066   4.044  17.411  0.0425  0.3497 -0.1979
  700TMC3    C810411   4.241   3.789  17.046  0.1533 -0.7153  0.6903
  700TMC3    O110412   4.179   4.066  17.457 -0.3421 -0.1651 -0.7072
  700TMC3    O210413   4.228   3.791  16.925 -0.4282 -0.1994  0.1052
  701TMC3    C110414   3.901   2.945  15.524  0.2317 -0.0335  0.5365
  701TMC3    C210415   3.937   2.893  15.405 -0.4520 -0.2284  0.5240
  701TMC3    C310416   4.051   2.945  15.350 -0.0322 -0.3413  0.2463
  701TMC3    C410417   3.981   3.025  15.599 -0.2972 -0.3777 -0.3335
  701TMC3    C510418   4.100   3.064  15.539  0.5340 -0.2646  0.2916
  701TMC3    C610419   4.136   3.034  15.411  0.1382 -0.0012 -0.5637
  701TMC3     C10420   3.784   2.885  15.592  0.5148  0.2704  0.9656
  701TMC3     O10421   3.746   2.780  15.545 -0.6763 -0.1110 -0.8616
  701TMC3     H10422   3.881   2.812  15.360  0.1083 -1.0432  1.2777
  701TMC3    H110423   3.959   3.065  15.697  1.5946  0.1354 -0.1156
  701TMC3    H210424   4.236   3.051  15.373 -0.6293  1.1897 -2.0270
  701TMC3    C710425   4.199   3.143  15.605 -0.7041  0.5125  0.1703
  701TMC3    C810426   4.101   2.877  15.229  0.0426 -1.1913  0.1169
  701TMC3    O110427   4.268   3.224  15.542  0.0512 -0.4907 -0.3582
  701TMC3    O210428   4.207   2.917  15.194 -0.1930  0.0045 -0.0712
  702MPD2     C10429   3.128   4.604  10.393  0.6314  1.1866 -0.0667
  702MPD2    C110430   3.096   4.730  10.439 -0.8852 -0.2331 -0.1073
  702MPD2    C210431   3.132   0.102  10.377 -0.4531  0.5028 -0.4588
  702MPD2    C310432   3.222   0.091  10.276  0.4755 -0.2330 -0.3290
  702MPD2    C410433   3.266   4.710  10.223  0.5030 -0.4771  0.3275
  702MPD2    C510434   3.221   4.600  10.291 -0.6581 -0.1925  0.5374
  702MPD2     H10435   3.107   0.197  10.422 -1.8791  0.8619 -2.0032
  702MPD2    H110436   3.336   4.697  10.141 -0.1704  0.7874 -0.4624
  702MPD2    H210437   3.094   4.510  10.435  0.2625  1.4377  0.1950
  702MPD2    H310438   3.262   4.501  10.279 -1.4000 -0.6313  1.5950
  702MPD2     N10439   3.291   0.207  10.230 -0.0803 -0.0539 -0.9768
  702MPD2    H510440   3.378   0.203  10.177  0.0238 -0.3194 -0.7845
  702MPD2    N110441   3.007   0.009  10.547  0.7167  0.2802 -0.2422
  702MPD2    H710442   3.005   0.105  10.580  1.5885  0.7430 -1.5587
  703TMC3    C110443   3.275   0.421  10.114 -0.3154 -0.5644 -0.4291
  703TMC3    C210444   3.177   0.513  10.079 -0.2421  0.3803 -0.4315
  703TMC3    C310445   3.209   0.645  10.100 -0.1166 -0.3133 -0.7143
  703TMC3    C410446   3.406   0.461  10.147 -0.3753  0.1007 -0.0818
  703TMC3    C510447   3.430   0.595  10.168  0.3983 -0.2950  0.3315
  703TMC3    C610448   3.327   0.686  10.152 -0.4757  0.1610 -0.3175
  703TMC3     C10449   3.225   0.330  10.219  0.4976  0.4725 -0.0048
  703TMC3     O10450   3.111   0.362  10.257 -0.2900  0.1328  0.1130
  703TMC3     H10451   3.074   0.487  10.055  0.2784 -3.2431  1.1833
  703TMC3    H110452   3.487   0.389  10.150 -1.9866 -1.5857  2.4637
  703TMC3    H210453   3.343   0.791  10.173  0.0015 -0.4244  2.3350
  703TMC3    C710454   3.568   0.640  10.170 -0.0762 -0.8784 -0.5674
  703TMC3    C810455   3.115   0.750  10.077 -0.2378  0.4565 -0.7088
  703TMC3    O110456   3.580   0.750  10.122 -0.0863  0.2846 -0.0434
  703TMC3    O210457   3.159   0.863  10.047 -0.5008  0.1674  0.2348
  704TMC3    C110458   1.094   3.259  12.874  0.4051  0.2874  0.2568
  704TMC3    C210459   1.222   3.293  12.871 -0.4444  0.4076 -0.2372
  704TMC3    C310460   1.311   3.205  12.933 -0.5354 -0.0514  0.6946
  704TMC3    C410461   1.059   3.144  12.944  0.2849 -0.1780  0.2192
  704TMC3    C510462   1.146   3.055  13.003 -0.5867  0.1713  0.5125
  704TMC3    C610463   1.277   3.091  12.999  0.6847  0.3616  0.2103
  704TMC3     C10464   0.991   3.322  12.789 -0.3930  0.2939 -0.2790
  704TMC3     O10465   0.877   3.318  12.830  0.1491  0.1399  0.0928
  704TMC3     H10466   1.250   3.365  12.795 -0.2647 -0.3063 -0.8590
  704TMC3    H110467   0.956   3.114  12.928  1.0271 -2.7933  0.2609
  704TMC3    H210468   1.361   3.027  13.022  1.1586  0.2673 -1.8251
  704TMC3    C710469   1.118   2.907  12.987  0.0202  0.5102 -0.4693
  704TMC3    C810470   1.435   3.196  12.859  0.1006  0.2685  0.6389
  704TMC3    O110471   1.211   2.840  12.951 -0.3361 -0.2397 -0.3767
  704TMC3    O210472   1.478   3.081  12.833  0.4215  0.3360 -0.3987
  705MPD2     C10473   0.223   1.685  16.887 -0.9862 -0.2973 -0.5324
  705MPD2    C110474   0.200   1.761  16.771 -0.0821 -0.3129 -0.3738
  705MPD2    C210475   0.102   1.860  16.768 -0.7579  0.9802  0.7228
  705MPD2    C310476   0.029   1.887  16.880  0.5392 -0.3725  0.3260
  705MPD2    C410477   0.067   1.836  16.995  0.8110  0.1220  0.2309
  705MPD2    C510478   0.140   1.720  16.993 -0.0792 -0.4938 -0.3680
  705MPD2     H10479   0.073   1.897  16.670 -2.5886 -0.4508  0.7225
  705MPD2    H110480   0.026   1.869  17.090 -3.1144  1.5651 -1.9653
  705MPD2    H210481   0.301   1.610  16.887 -1.3664 -0.6998 -0.3944
  705MPD2    H310482   0.151   1.680  17.093  0.3974 -0.1493 -0.2789
  705MPD2     N10483   4.650   1.955  16.874  0.5378  0.2850 -0.0855
  705MPD2    H510484   4.616   1.993  16.962 -0.4130 -0.3117 -0.1938
  705MPD2    N110485   0.283   1.749  16.654 -0.0419  0.0851  1.0326
  705MPD2    H710486   0.282   1.833  16.597  0.6173  0.0955  1.0361
  706TMC3    C110487   0.548   1.523  16.322 -0.3167  0.6620  0.4731
  706TMC3    C210488   0.628   1.634  16.291 -0.1654  0.6109 -0.0228
  706TMC3    C310489   0.602   1.747  16.366  0.1098 -0.1768  0.0933
  706TMC3    C410490   0.470   1.521  16.445 -0.9403 -0.7590 -0.1989
  706TMC3    C510491   0.447   1.645  16.503  0.4447 -0.5594 -0.2422
  706TMC3    C610492   0.519   1.757  16.471 -0.3585  0.1664  0.4294
  706TMC3     C10493   0.586   1.398  16.260  0.8832  0.0674  0.4000
  706TMC3     O10494   0.643   1.317  16.330  0.3425  0.3214 -0.2124
  706TMC3     H10495   0.690   1.629  16.202  0.7207 -1.8715  0.7223
  706TMC3    H110496   0.412   1.433  16.471 -0.6234 -1.1745 -0.8744
  706TMC3    H210497   0.504   1.855  16.513 -0.6521  0.6492 -0.8038
  706TMC3    C710498   0.361   1.639  16.624 -0.0304 -1.2504 -0.0714
  706TMC3    C810499   0.662   1.863  16.304  0.2092 -0.3352  0.3262
  706TMC3    O110500   0.384   1.532  16.686 -0.6374  0.6820 -1.0598
  706TMC3    O210501   0.712   1.851  16.193 -0.0386  0.8221  0.8954
  707TMC3    C110502   2.825   0.441  17.201 -0.4483  0.1243  0.2264
  707TMC3    C210503   2.846   0.534  17.302  0.2452  0.0254 -0.2425
  707TMC3    C310504   2.796   0.494  17.423 -0.1653 -0.1270  0.1423
  707TMC3    C410505   2.756   0.325  17.211  0.0278  0.0803 -0.7230
  707TMC3    C510506   2.704   0.295  17.333 -0.6220 -0.3632 -0.5524
  707TMC3    C610507   2.718   0.380  17.439 -0.3861 -0.1164  0.1983
  707TMC3     C10508   2.899   0.471  17.076  0.0728 -0.2962  0.0143
  707TMC3     O10509   2.880   0.585  17.037  0.0166 -0.0598 -0.5027
  707TMC3     H10510   2.911   0.620  17.289 -0.0881  0.0594 -1.6954
  707TMC3    H110511   2.755   0.256  17.127 -0.3209 -2.3329  1.2552
  707TMC3    H210512   2.667   0.345  17.527  1.1641 -0.1526  1.0824
  707TMC3    C710513   2.618   0.174  17.349 -0.4683 -0.6908 -0.0070
  707TMC3    C810514   2.825   0.579  17.532 -0.0020  0.1941 -0.1129
  707TMC3    O110515   2.567   0.160  17.461 -0.8637  0.6745 -0.7595
  707TMC3    O210516   2.833   0.695  17.505 -0.7313 -0.0289 -0.0391
  708MPD2     C10517   3.397   4.258  13.989  0.1920 -0.4336  0.4498
  708MPD2    C110518   3.407   4.393  14.005 -0.3765 -0.1963  0.0558
  708MPD2    C210519   3.299   4.451  14.062 -0.2105 -0.1453  0.4446
  708MPD2    C310520   3.190   4.381  14.115  0.5119  0.2059  0.1137
  708MPD2    C410521   3.192   4.243  14.103 -0.3376  0.1549  0.6688
  708MPD2    C510522   3.303   4.183  14.045 -0.8301  0.4613 -0.1313
  708MPD2     H10523   3.293   4.559  14.069  0.9974 -0.0341 -0.2822
  708MPD2    H110524   3.114   4.176  14.139  0.0058 -1.4629 -1.5606
  708MPD2    H210525   3.480   4.204  13.945  1.8126  2.6126 -0.2469
  708MPD2    H310526   3.308   4.075  14.037 -0.5564  0.6115 -1.7951
  708MPD2     N10527   3.081   4.452  14.172  0.7701 -1.0341  0.4026
  708MPD2    H510528   3.084   4.553  14.163  1.3033 -1.1631 -0.8639
  708MPD2    N110529   3.523   4.463  13.966 -1.0366  0.2022 -0.0570
  708MPD2    H710530   3.593   4.411  13.913  0.9597  2.4433  0.3621
  709TMC3    C110531   3.632   4.668  13.914  0.3912 -0.1112 -0.4262
  709TMC3    C210532   3.663   4.602  13.802  0.0429 -0.2241 -0.1186
  709TMC3    C310533   3.633   4.651  13.678 -0.2065  0.4657 -0.4862
  709TMC3    C410534   3.576   0.053  13.895 -0.2575  0.0315  0.5812
  709TMC3    C510535   3.522   0.094  13.775 -0.9434 -0.1131  0.1396
  709TMC3    C610536   3.559   0.022  13.663  0.2206  0.1044 -0.0151
  709TMC3     C10537   3.563   4.590  14.012 -0.1030  0.0521  0.1153
  709TMC3     O10538   3.517   4.654  14.103 -0.0720 -0.9710 -0.2401
  709TMC3     H10539   3.699   4.500  13.808  1.2284  0.1495 -1.0948
  709TMC3    H110540   3.533   0.099  13.984 -2.5565 -1.2203  0.1040
  709TMC3    H210541   3.530   0.053  13.563  0.4479 -0.2992 -0.2089
  709TMC3    C710542   3.379   0.105  13.789 -1.0382  0.1703 -0.2746
  709TMC3    C810543   3.714   4.602  13.570  0.3901  0.6155  0.4380
  709TMC3    O110544   3.340   0.146  13.897  0.2468  0.1867  0.4944
  709TMC3    O210545   3.794   4.512  13.598 -0.1839 -0.4275 -0.0169
  710TMC3    C110546   4.678   0.944   0.372  0.1208  0.0921  0.0403
  710TMC3    C210547   4.720   1.043   0.290 -0.1982 -0.2048 -0.6941
  710TMC3    C310548   0.098   1.020   0.213  0.0568  0.3268  0.4553
  710TMC3    C410549   0.013   0.835   0.401  0.1683  0.1358  0.5520
  710TMC3    C510550   0.116   0.799   0.323  0.0057 -0.0025 -0.0894
  710TMC3    C610551   0.154   0.889   0.223  0.2451 -0.2351  0.2119
  710TMC3     C10552   4.561   0.964   0.459  0.1652  0.2291 -0.5773
  710TMC3     O10553   4.553   0.885   0.551 -0.8335 -0.0912 -0.0387
  710TMC3     H10554   4.673   1.140   0.280 -0.6450 -0.4213 -0.6985
  710TMC3    H110555   4.721   0.765   0.478  1.7352 -1.1561  0.0270
  710TMC3    H210556   0.233   0.865   0.152 -1.3463  0.3781 -1.7775
  710TMC3    C710557   0.216   0.713   0.378  0.3425  0.1222 -0.5760
  710TMC3    C810558   0.150   1.112   0.109  0.1588 -0.4851 -0.8173
  710TMC3    O110559   0.194   0.660   0.486 -0.5166  0.6476  0.2859
  710TMC3    O210560   0.247   1.071   0.046  0.2253  0.1098 -0.7418
  711TMC3    C110561   4.344   2.344  14.942 -0.5346 -0.2092  0.1788
  711TMC3    C210562   4.404   2.320  15.063 -0.1947 -0.9998 -0.8511
  711TMC3    C310563   4.537   2.326  15.080  0.1649  0.0621 -0.1436
  711TMC3    C410564   4.428   2.396  14.841  0.5231  0.8065  0.2660
  711TMC3    C510565   4.569   2.394  14.858  0.1685  0.0006  0.0979
  711TMC3    C610566   4.627   2.371  14.982  0.0521 -0.8820 -0.2041
  711TMC3     C10567   4.260   2.235  14.882 -0.1318  1.2785  0.0178
  711TMC3     O10568   4.225   2.258  14.768  0.1761 -0.3301  0.1753
  711TMC3     H10569   4.343   2.271  15.138  0.6675  0.0899  0.5484
  711TMC3    H110570   4.385   2.419  14.745  0.6597 -3.5264 -0.8438
  711TMC3    H210571   4.734   2.357  14.995  0.3525  0.4341 -1.2225
  711TMC3    C710572   4.652   2.344  14.750 -0.5498  0.5919  1.4065
  711TMC3    C810573   4.575   2.235  15.182 -0.2075  0.0374  0.4621
  711TMC3    O110574   0.032   2.319  14.771  0.5186 -0.1500 -0.0492
  711TMC3    O210575   4.500   2.139  15.206 -0.6007 -0.1808  0.5598
  712MPD2     C10576   1.173   2.946  13.700 -0.2939  0.3797 -0.0465
  712MPD2    C110577   1.073   3.011  13.767  0.5115  0.1430  0.2837
  712MPD2    C210578   1.068   3.149  13.758  0.4739 -0.2121  0.2467
  712MPD2    C310579   1.165   3.220  13.681  0.5188 -0.1609 -0.5216
  712MPD2    C410580   1.269   3.146  13.628 -0.4721  1.0498  0.3346
  712MPD2    C510581   1.274   3.010  13.636  1.0806  0.3449 -0.5074
  712MPD2     H10582   0.992   3.206  13.810  1.4797  0.9215  0.4868
  712MPD2    H110583   1.348   3.195  13.572  0.0313  0.2477  0.3508
  712MPD2    H210584   1.173   2.838  13.710  0.2063  0.2560 -1.4027
  712MPD2    H310585   1.356   2.960  13.586 -0.1046 -1.6175 -0.4979
  712MPD2     N10586   1.171   3.362  13.686 -0.1528  0.1255  0.6376
  712MPD2    H510587   1.246   3.412  13.640 -1.2042  1.5069  0.4209
  712MPD2    N110588   0.968   2.943  13.833  0.5126  0.1993  0.3511
  712MPD2    H710589   0.878   2.986  13.854  0.4448 -0.1937  0.8706
  713TMC3    C110590   1.094   3.574  13.758  0.5435 -0.3984 -0.3814
  713TMC3    C210591   1.220   3.625  13.764  0.0554 -0.8488  0.2206
  713TMC3    C310592   1.242   3.752  13.793 -0.0428 -0.3899  0.4621
  713TMC3    C410593   0.982   3.656  13.782  0.2802 -0.3710  0.5185
  713TMC3    C510594   1.008   3.794  13.800 -0.1858 -0.0335 -1.0855
  713TMC3    C610595   1.138   3.841  13.796 -0.4044 -0.5991  0.1302
  713TMC3     C10596   1.065   3.436  13.736  0.3215  0.1030  0.5880
  713TMC3     O10597   0.951   3.405  13.748 -0.1234  0.2364  0.1046
  713TMC3     H10598   1.303   3.560  13.739 -0.1476 -1.2880  0.6915
  713TMC3    H110599   0.879   3.624  13.793 -0.2456  1.1409  0.1338
  713TMC3    H210600   1.156   3.941  13.759  2.8117 -1.0367  0.5550
  713TMC3    C710601   0.893   3.883  13.819 -0.2568 -0.1291  0.0897
  713TMC3    C810602   1.363   3.794  13.733 -0.3254  0.6280  0.4977
  713TMC3    O110603   0.780   3.844  13.784  0.2667  0.0815  0.1369
  713TMC3    O210604   1.346   3.854  13.626 -0.4385 -0.2127 -0.3284
  714MPD2     C10605   3.445   2.332   1.109 -0.1735  0.8147 -0.4797
  714MPD2    C110606   3.437   2.210   1.039  0.8771  0.0236  0.8427
  714MPD2    C210607   3.344   2.208   0.933  0.1203  0.4041 -0.3058
  714MPD2    C310608   3.261   2.320   0.908  0.1068  0.7882 -0.5991
  714MPD2    C410609   3.276   2.436   0.979 -0.6405  0.3743 -0.1872
  714MPD2    C510610   3.363   2.441   1.088 -0.2418  0.0401 -0.2709
  714MPD2     H10611   3.328   2.125   0.865  0.6966  0.3424 -0.3613
  714MPD2    H110612   3.208   2.519   0.963 -0.5307  0.5576  0.2820
  714MPD2    H210613   3.513   2.333   1.193 -2.0608  3.4348  0.9984
  714MPD2    H310614   3.375   2.527   1.152  2.0761  0.1892 -0.9175
  714MPD2     N10615   3.160   2.296   0.807  0.5418 -0.1968  0.1465
  714MPD2    H510616   3.151   2.202   0.769  0.1511 -0.3533  0.6284
  714MPD2    N110617   3.537   2.109   1.052 -0.5984  0.2323  0.4659
  714MPD2    H710618   3.608   2.121   1.124 -0.8315 -1.0826  0.9024
  715TMC3    C110619   3.671   1.930   0.996 -0.2921 -0.1534  0.0142
  715TMC3    C210620   3.681   1.796   0.972  0.0192 -0.8438 -0.1201
  715TMC3    C310621   3.813   1.750   0.970  0.1231  0.4176 -0.1885
  715TMC3    C410622   3.779   2.006   1.003 -0.2186 -0.6306 -0.4125
  715TMC3    C510623   3.907   1.957   1.008  0.1190  0.7893 -0.4144
  715TMC3    C610624   3.923   1.824   0.988 -0.0325  0.1885 -0.2835
  715TMC3     C10625   3.541   1.993   0.980  0.0367 -0.4572 -0.0022
  715TMC3     O10626   3.448   1.930   0.936 -0.0773 -0.1661 -0.2455
  715TMC3     H10627   3.597   1.728   0.976 -0.7744  0.2420  1.4979
  715TMC3    H110628   3.768   2.114   1.015  0.9087 -0.5034 -0.5212
  715TMC3    H210629   4.020   1.775   0.993 -0.0130  0.2670  0.0967
  715TMC3    C710630   4.023   2.041   1.028  0.5187  0.8009  0.4236
  715TMC3    C810631   3.827   1.607   0.965 -0.5296 -0.4250  0.4415
  715TMC3    O110632   4.118   2.005   0.957 -0.6827 -0.7544  0.0511
  715TMC3    O210633   3.757   1.542   0.887 -0.7684  0.0215  0.1047
  716MPD2     C10634   2.869   0.272   9.998 -0.4863 -0.5197 -0.1910
  716MPD2    C110635   2.896   0.338   9.876 -0.3045  1.0145 -0.6881
  716MPD2    C210636   2.999   0.287   9.800 -0.5287 -0.3104 -0.2855
  716MPD2    C310637   3.081   0.185   9.851  0.4371  0.2648 -1.3578
  716MPD2    C410638   3.059   0.130   9.976  0.4424 -0.4944 -0.1512
  716MPD2    C510639   2.954   0.181  10.046 -0.0650  0.0144  0.2542
  716MPD2     H10640   3.023   0.327   9.702  2.5361 -2.4175 -0.3594
  716MPD2    H110641   3.120   0.050  10.018  1.7963  0.0484 -1.0785
  716MPD2    H210642   2.790   0.324  10.051 -0.8836 -2.4875  1.1599
  716MPD2    H310643   2.934   0.134  10.142  0.1883 -1.5124 -0.4437
  716MPD2     N10644   3.196   0.154   9.769  0.1883  0.2224  0.5848
  716MPD2    H510645   3.205   0.191   9.674  0.8970 -1.5456 -0.0395
  716MPD2    N110646   2.817   0.454   9.852  0.4953  0.2398 -0.7372
  716MPD2    H710647   2.744   0.477   9.919  1.8564 -1.1147  1.2199
  717TMC3    C110648   3.393   0.074   9.696  0.4059 -0.1081  0.5287
  717TMC3    C210649   3.354   0.137   9.581  0.2105 -0.3689  0.7926
  717TMC3    C310650   3.442   0.223   9.525  1.3246 -0.2427 -0.8357
  717TMC3    C410651   3.521   0.083   9.740  0.2849  0.2683 -0.1372
  717TMC3    C510652   3.618   0.147   9.665 -0.1733 -0.0335  0.4460
  717TMC3    C610653   3.576   0.227   9.564  0.2658 -0.5165 -0.2031
  717TMC3     C10654   3.295   0.058   9.801  0.3931  0.3304  0.7524
  717TMC3     O10655   3.313   4.737   9.905 -0.0512 -0.2736 -0.0767
  717TMC3     H10656   3.254   0.126   9.539 -0.2724 -1.1528  2.1483
  717TMC3    H110657   3.545   0.057   9.842 -1.3632  3.6363  1.1017
  717TMC3    H210658   3.646   0.296   9.520 -2.4683  2.4704  0.1010
  717TMC3    C710659   3.752   0.150   9.704  0.0318 -0.6071 -0.2137
  717TMC3    C810660   3.393   0.329   9.431  0.4913 -0.0016  0.0221
  717TMC3    O110661   3.823   0.239   9.661  0.2625 -0.2702 -0.0849
  717TMC3    O210662   3.274   0.321   9.416 -0.5658  0.3913  0.4973
  718MPD2     C10663   2.886   3.521  12.993  0.1129  0.1563 -0.0197
  718MPD2    C110664   2.824   3.619  12.914  0.1356 -0.5011  0.0265
  718MPD2    C210665   2.692   3.595  12.876 -0.3414 -0.4274 -0.5948
  718MPD2    C310666   2.610   3.495  12.926  0.3324  0.3607 -0.5126
  718MPD2    C410667   2.675   3.404  13.004  0.0370  0.0972 -0.0184
  718MPD2    C510668   2.806   3.406  13.025  0.2238  0.9913 -0.0101
  718MPD2     H10669   2.647   3.664  12.806 -1.6436 -0.5488  0.1372
  718MPD2    H110670   2.617   3.324  13.049  1.6501 -0.3388  1.2859
  718MPD2    H210671   2.989   3.527  13.026 -0.0322 -1.6009  0.7718
  718MPD2    H310672   2.853   3.329  13.085  0.7276  1.6262  0.4124
  718MPD2     N10673   2.472   3.499  12.898 -0.1636  0.2818 -0.5541
  718MPD2    H510674   2.440   3.563  12.825  3.1641  1.3236 -1.1296
  718MPD2    N110675   2.899   3.743  12.885  0.2614 -0.5035  0.3926
  718MPD2    H710676   2.994   3.759  12.918  0.7067 -0.0558 -1.0775
  719TMC3    C110677   2.924   3.964  12.814  0.1789  0.2863 -0.0012
  719TMC3    C210678   2.839   4.080  12.804  0.1066  0.2075 -0.4411
  719TMC3    C310679   2.829   4.156  12.689  0.0613 -0.3921  0.0816
  719TMC3    C410680   3.006   3.943  12.703  0.0939  0.1820  0.0693
  719TMC3    C510681   3.004   4.034  12.599 -0.1382 -0.0669  0.3975
  719TMC3    C610682   2.905   4.128  12.579  0.8080  0.1030 -0.2113
  719TMC3     C10683   2.829   3.858  12.844  0.4981 -0.7161  0.0947
  719TMC3     O10684   2.710   3.875  12.832 -0.2001  0.0202 -0.2363
  719TMC3     H10685   2.770   4.095  12.886 -0.7094 -0.9897 -0.8949
  719TMC3    H110686   3.069   3.855  12.705  0.1141  0.2481  1.8962
  719TMC3    H210687   2.898   4.194  12.493 -0.3429 -0.6323 -0.6815
  719TMC3    C710688   3.106   4.032  12.494  0.2486  0.2449 -0.1818
  719TMC3    C810689   2.696   4.179  12.652 -0.3723 -0.6159  0.0240
  719TMC3    O110690   3.082   4.086  12.387  0.0218  0.1581 -0.4533
  719TMC3    O210691   2.677   4.242  12.546  0.3036  0.5035  0.4230
  720MPD2     C10692   1.394   0.691  14.216  0.2687  0.0713  0.3146
  720MPD2    C110693   1.443   0.705  14.084  0.1233  0.5003 -1.0329
  720MPD2    C210694   1.577   0.728  14.061  0.6869  0.5935  0.2640
  720MPD2    C310695   1.675   0.725  14.164  0.4726  0.1641 -0.2267
  720MPD2    C410696   1.618   0.704  14.292 -0.5510  0.3285  0.4409
  720MPD2    C510697   1.484   0.683  14.314  0.2757 -0.1915 -0.3202
  720MPD2     H10698   1.608   0.748  13.960 -0.5711 -0.2803 -0.2971
  720MPD2    H110699   1.688   0.701  14.375 -1.2255  1.4594  1.0575
  720MPD2    H210700   1.288   0.677  14.236  0.6553 -0.5297  1.9703
  720MPD2    H310701   1.442   0.665  14.412  2.3517 -1.2139  0.3747
  720MPD2     N10702   1.813   0.746  14.135 -0.1921  0.6592 -0.7979
  720MPD2    H510703   1.842   0.750  14.037  0.9323 -1.1027 -0.5304
  720MPD2    N110704   1.365   0.699  13.965 -0.6258  0.2427  0.1413
  720MPD2    H710705   1.410   0.708  13.874  0.8222  2.2989  1.0434
  721TMC3    C110706   2.023   0.827  14.164 -0.1881 -0.2508  0.0026
  721TMC3    C210707   2.086   0.918  14.240 -0.5013  0.5479 -0.1304
  721TMC3    C310708   2.219   0.917  14.263  0.2852 -0.0839  0.2283
  721TMC3    C410709   2.100   0.736  14.097 -0.6825 -0.6346  0.4374
  721TMC3    C510710   2.240   0.743  14.114 -0.5426  0.0523  0.3818
  721TMC3    C610711   2.304   0.836  14.193 -0.1265 -0.4402 -0.0571
  721TMC3     C10712   1.908   0.772  14.234 -0.0180 -0.4585 -0.2352
  721TMC3     O10713   1.910   0.777  14.357 -0.5741  0.1541 -0.3256
  721TMC3     H10714   2.021   0.982  14.297  0.8543 -0.7037  2.7931
  721TMC3    H110715   2.055   0.672  14.022  0.6164 -0.1597 -0.7364
  721TMC3    H210716   2.411   0.850  14.194 -0.3858  1.4918  0.1274
  721TMC3    C710717   2.323   0.693  14.013  0.0861  0.5777 -0.0550
  721TMC3    C810718   2.258   0.908  14.404  0.3311 -0.4048 -0.6888
  721TMC3    O110719   2.417   0.763  13.976  0.6497 -0.7436 -0.9324
  721TMC3    O210720   2.377   0.889  14.428  0.1986  0.1646  0.4766
  722MPD2     C10721   0.188   4.118  13.168  0.2696  0.0134  0.0996
  722MPD2    C110722   0.127   4.232  13.216 -0.3985  0.2889  0.5854
  722MPD2    C210723   0.032   4.293  13.128  0.0426 -0.8974  0.0216
  722MPD2    C310724   0.011   4.255  13.000 -0.0248  0.7095 -0.0601
  722MPD2    C410725   0.082   4.140  12.958 -0.5087  0.1415  0.1928
  722MPD2    C510726   0.169   4.079  13.042 -0.1163 -0.3484  0.0537
  722MPD2     H10727   4.725   4.384  13.164  0.1856 -0.8450  0.0736
  722MPD2    H110728   0.058   4.101  12.859  0.4255 -1.2569  0.5296
  722MPD2    H210729   0.259   4.063  13.230  0.1606  0.2668  0.4485
  722MPD2    H310730   0.224   3.993  13.008 -0.6130 -1.1237  1.2259
  722MPD2     N10731   4.647   4.318  12.921 -1.2679  0.0984 -0.8299
  722MPD2    H510732   4.610   4.402  12.965  2.0208  0.1309  1.8642
  722MPD2    N110733   0.147   4.302  13.340  0.0524  0.4458  0.3661
  722MPD2    H710734   0.111   4.396  13.349  0.1342  0.5970 -0.8065
  723TMC3    C110735   4.464   4.337  12.775 -0.7247  1.0328 -0.4313
  723TMC3    C210736   4.380   4.281  12.688  0.0682 -0.8704 -0.1005
  723TMC3    C310737   4.248   4.332  12.685 -0.0993 -1.2908  0.1871
  723TMC3    C410738   4.430   4.447  12.850 -0.0610 -0.2793  1.1519
  723TMC3    C510739   4.298   4.488  12.851 -0.2534 -0.8039  0.1067
  723TMC3    C610740   4.207   4.428  12.764 -0.1108  0.2707  0.3766
  723TMC3     C10741   4.584   4.265  12.809  0.7631  0.1416 -0.1028
  723TMC3     O10742   4.605   4.165  12.748 -0.5923 -0.4931 -0.4314
  723TMC3     H10743   4.407   4.210  12.610 -1.7880  0.2270 -1.7577
  723TMC3    H110744   4.490   4.490  12.928  2.3083  0.9101 -1.3473
  723TMC3    H210745   4.103   4.458  12.759  0.0604  0.9967  1.0654
  723TMC3    C710746   4.248   4.552  12.977 -0.6551  0.1118 -0.9700
  723TMC3    C810747   4.163   4.257  12.601  0.3174  0.2693  0.4000
  723TMC3    O110748   4.183   4.654  12.966 -0.3338 -0.4292  0.0749
  723TMC3    O210749   4.080   4.322  12.542  0.2198  0.0828  0.4886
  724TMC3    C110750   0.271   2.049  10.540  0.4612 -1.0734 -0.4116
  724TMC3    C210751   0.315   2.037  10.407  0.2994 -0.4058 -0.1786
  724TMC3    C310752   0.426   2.107  10.379 -0.3422  0.1399 -0.1615
  724TMC3    C410753   0.337   2.120  10.637  0.2725 -0.7562  0.1792
  724TMC3    C510754   0.447   2.187  10.594  0.1578 -0.3524  0.2126
  724TMC3    C610755   0.494   2.188  10.467  0.1667  0.3189  0.4081
  724TMC3     C10756   0.161   1.968  10.585 -0.6757 -0.4599 -0.0414
  724TMC3     O10757   0.147   1.953  10.709 -0.3751  0.1101  1.0759
  724TMC3     H10758   0.281   1.960  10.339 -0.3422 -0.5634  0.3130
  724TMC3    H110759   0.299   2.115  10.738 -2.2292 -0.7587 -0.7576
  724TMC3    H210760   0.573   2.255  10.437 -0.3843  0.7461 -0.0945
  724TMC3    C710761   0.520   2.273  10.685 -0.1993 -0.5180  0.3134
  724TMC3    C810762   0.439   2.131  10.237  0.5214 -0.1422  0.0540
  724TMC3    O110763   0.633   2.308  10.649 -0.1714 -0.5643  0.3363
  724TMC3    O210764   0.393   2.048  10.161  0.2300 -0.1194 -0.6897
  725TMC3    C110765   2.136   0.997  12.655  0.4728 -0.2406  0.0637
  725TMC3    C210766   2.032   1.068  12.591  0.1692  0.6283 -0.0829
  725TMC3    C310767   1.946   0.986  12.539  0.5459 -0.2230  0.1412
  725TMC3    C410768   2.164   0.862  12.652  0.4010  0.7430 -0.3725
  725TMC3    C510769   2.061   0.788  12.597 -0.0634  0.7475 -1.0550
  725TMC3    C610770   1.950   0.849  12.545 -0.3025 -0.1708  0.3401
  725TMC3     C10771   2.213   1.073  12.750  0.0844 -0.5665  0.0406
  725TMC3     O10772   2.175   1.189  12.777 -0.1557  0.2758  0.2411
  725TMC3     H10773   2.025   1.176  12.601 -1.1096  0.5931 -0.5572
  725TMC3    H110774   2.226   0.808  12.724 -2.8529 -2.1811  0.2158
  725TMC3    H210775   1.865   0.794  12.507  0.7698 -0.0882 -2.1471
  725TMC3    C710776   2.062   0.647  12.623 -0.3364  0.1639  0.6488
  725TMC3    C810777   1.821   1.037  12.493 -0.1584 -0.1609  0.1194
  725TMC3    O110778   2.164   0.579  12.621 -0.0626  0.5289 -0.5025
  725TMC3    O210779   1.723   0.967  12.513 -0.2158  0.1950 -0.7654
  726MPD2     C10780   4.560   2.717  10.475 -0.1524 -0.0694 -0.2310
  726MPD2    C110781   4.443   2.757  10.418 -0.4525  0.6882 -0.0962
  726MPD2    C210782   4.327   2.711  10.481 -0.2993 -0.4160 -0.0553
  726MPD2    C310783   4.325   2.624  10.581 -0.0149  0.2865 -0.0115
  726MPD2    C410784   4.443   2.573  10.629 -0.6490 -0.3454 -0.4187
  726MPD2    C510785   4.555   2.631  10.580 -0.5532 -0.0553  0.2443
  726MPD2     H10786   4.233   2.746  10.440  0.5765  1.7577 -0.1600
  726MPD2    H110787   4.451   2.495  10.704  0.4312  1.1042  0.9589
  726MPD2    H210788   4.656   2.758  10.444 -0.9316  1.1104 -1.0319
  726MPD2    H310789   4.651   2.592  10.614  0.5093  2.2366 -0.0952
  726MPD2     N10790   4.199   2.590  10.628 -0.0706 -0.5902  0.3123
  726MPD2    H510791   4.120   2.638  10.586  0.1771  1.3652  2.1267
  726MPD2    N110792   4.425   2.871  10.335  0.5190 -0.0854 -0.4101
  726MPD2    H710793   4.336   2.920  10.330  1.3033  1.1332 -2.6041
  727TMC3    C110794   4.477   3.058  10.195 -0.4951  0.7233 -0.5420
  727TMC3    C210795   4.583   3.135  10.162  0.6836  0.4328 -0.0834
  727TMC3    C310796   4.551   3.266  10.136  0.9865 -0.0467  0.1622
  727TMC3    C410797   4.348   3.099  10.212  0.4492 -0.3817 -0.0315
  727TMC3    C510798   4.324   3.228  10.172 -0.1905 -0.3902  0.5932
  727TMC3    C610799   4.424   3.317  10.140 -0.3927  0.7314 -0.0705
  727TMC3     C10800   4.523   2.938  10.270 -0.6994 -0.3255  0.5490
  727TMC3     O10801   4.640   2.895  10.254  0.3663  0.0976 -0.6854
  727TMC3     H10802   4.683   3.094  10.152 -0.2236 -2.1616  1.4004
  727TMC3    H110803   4.269   3.032  10.242  1.5883 -1.7029  0.0133
  727TMC3    H210804   4.414   3.420  10.108 -1.3846 -0.4754 -3.6453
  727TMC3    C710805   4.212   3.303  10.227 -0.0619  0.2817  0.1019
  727TMC3    C810806   4.662   3.351  10.165 -0.1053  0.0591 -0.1213
  727TMC3    O110807   4.231   3.422  10.249  0.4305  0.5014 -0.2127
  727TMC3    O210808   0.035   3.300  10.154  0.1706  0.6446 -0.1637
  728TMC3    C110809   3.864   0.925  15.294  0.9308 -0.8134 -0.2387
  728TMC3    C210810   4.003   0.929  15.281  0.1359  0.1006  0.2033
  728TMC3    C310811   4.054   0.966  15.160  1.0625 -0.8418 -0.9159
  728TMC3    C410812   3.779   0.928  15.188  0.0676 -0.2424  0.2822
  728TMC3    C510813   3.839   0.929  15.064  0.1657  0.1231 -0.1136
  728TMC3    C610814   3.972   0.962  15.047  0.3993  0.5685  0.6328
  728TMC3     C10815   3.813   0.916  15.429  0.4063  0.1078 -0.3226
  728TMC3     O10816   3.894   0.907  15.524 -0.1861 -0.4356 -0.0185
  728TMC3     H10817   4.066   0.935  15.368  2.9170  3.3728 -2.0580
  728TMC3    H110818   3.673   0.922  15.209  0.3214 -3.3888  0.7139
  728TMC3    H210819   4.026   0.961  14.953  0.4168  2.6797  0.6168
  728TMC3    C710820   3.753   0.945  14.951  1.2054  0.0231 -0.7596
  728TMC3    C810821   4.196   0.966  15.137 -0.4049  0.5125  0.1784
  728TMC3    O110822   3.645   0.887  14.963 -0.9557  0.3310 -0.1547
  728TMC3    O210823   4.263   0.911  15.224 -0.2169 -0.1139 -0.6278
  729MPD2     C10824   1.061   1.849  16.391 -0.5102 -0.4607 -0.4967
  729MPD2    C110825   1.185   1.903  16.428  0.7565  0.0449  0.3371
  729MPD2    C210826   1.218   1.920  16.561  0.0713  0.0311  0.1655
  729MPD2    C310827   1.142   1.864  16.663 -0.2313  0.3334  0.1044
  729MPD2    C410828   1.022   1.813  16.629  0.1965  0.4243  0.5387
  729MPD2    C510829   0.979   1.815  16.495  0.3050 -0.4403  0.2366
  729MPD2     H10830   1.313   1.969  16.580 -0.9296  1.5441  1.2400
  729MPD2    H110831   0.944   1.788  16.700 -1.2797 -0.7861 -1.5262
  729MPD2    H210832   1.023   1.831  16.291 -0.6021 -1.3558 -0.3009
  729MPD2    H310833   0.880   1.775  16.479  0.2064 -0.2568  0.3868
  729MPD2     N10834   1.180   1.885  16.797  0.0669  0.1105  0.5324
  729MPD2    H510835   1.109   1.865  16.867 -3.3082  2.3695 -2.2237
  729MPD2    N110836   1.269   1.947  16.326 -0.1107  0.8927 -0.0460
  729MPD2    H710837   1.231   1.942  16.232 -0.2146 -1.2670  0.1069
  730TMC3    C110838   1.317   1.947  16.975 -0.5370 -0.0382 -0.2324
  730TMC3    C210839   1.443   1.959  17.023  0.5726 -0.5322 -0.2425
  730TMC3    C310840   1.471   2.038  17.130 -0.6149 -0.0151 -0.4618
  730TMC3    C410841   1.207   2.020  17.033 -0.0757  0.5937  0.2659
  730TMC3    C510842   1.240   2.080  17.152 -0.9152 -0.2966  0.9604
  730TMC3    C610843   1.364   2.080  17.201 -0.4569  1.1455 -0.1904
  730TMC3     C10844   1.308   1.920  16.834 -0.4018  0.1217  0.1352
  730TMC3     O10845   1.414   1.922  16.772  1.1026 -0.0657  0.0261
  730TMC3     H10846   1.529   1.922  16.968  1.2655  2.0857 -0.9084
  730TMC3    H110847   1.110   2.024  16.985  0.4248 -0.5784 -0.8533
  730TMC3    H210848   1.379   2.125  17.299  1.1191  0.8793 -0.3067
  730TMC3    C710849   1.164   2.204  17.188  0.2262 -0.0647 -0.3160
  730TMC3    C810850   1.563   2.154  17.106 -0.3223  0.2715 -0.4385
  730TMC3    O110851   1.181   2.259  17.298 -0.3525 -0.1063 -0.0064
  730TMC3    O210852   1.648   2.125  17.025  0.7414  0.1771 -0.2702
  731MPD2     C10853   0.834   0.298  12.790  0.1690 -0.5341 -0.2368
  731MPD2    C110854   0.940   0.208  12.794 -0.1517 -1.0166 -0.0114
  731MPD2    C210855   0.982   0.166  12.924  0.0225  0.2438  0.1095
  731MPD2    C310856   0.911   0.201  13.035  0.6162  0.2620 -0.1668
  731MPD2    C410857   0.802   0.292  13.029 -0.8990 -0.2772  0.3317
  731MPD2    C510858   0.762   0.337  12.902 -0.0783 -0.1804  0.2248
  731MPD2     H10859   1.071   0.106  12.928  0.0999  0.2575 -1.1653
  731MPD2    H110860   0.749   0.327  13.117 -1.9123 -0.6312 -0.1367
  731MPD2    H210861   0.792   0.326  12.693 -0.6358  2.3543  0.9413
  731MPD2    H310862   0.674   0.400  12.898 -0.2915 -0.4730  0.3019
  731MPD2     N10863   0.952   0.146  13.155 -0.8945 -0.7557  0.4375
  731MPD2    H510864   1.040   0.095  13.154  0.0204  0.8103  0.8870
  731MPD2    N110865   1.014   0.191  12.676  0.6497 -0.0547 -0.5626
  731MPD2    H710866   0.967   0.214  12.590 -3.8034  0.4796  1.9856
  732TMC3    C110867   1.191   0.140  12.530  0.0542  0.0871  0.2249
  732TMC3    C210868   1.096   0.129  12.431 -0.3046 -0.1932  0.0671
  732TMC3    C310869   1.139   0.157  12.306  0.2053  0.1321  0.5327
  732TMC3    C410870   1.327   0.169  12.512 -0.0156  0.0740  0.3213
  732TMC3    C510871   1.360   0.191  12.381 -0.0789  0.5557  0.2966
  732TMC3    C610872   1.270   0.183  12.275  0.0739 -1.1335  0.9051
  732TMC3     C10873   1.141   0.144  12.671  0.4646 -0.2732  0.0454
  732TMC3     O10874   1.222   0.123  12.760 -0.3522 -0.6409  0.6838
  732TMC3     H10875   0.997   0.090  12.451 -0.7932  0.8777 -0.2948
  732TMC3    H110876   1.391   0.197  12.595 -0.6511 -0.1619  0.8935
  732TMC3    H210877   1.306   0.203  12.175 -0.3454  0.1917  1.0169
  732TMC3    C710878   1.479   0.272  12.364  0.2410  0.5933  0.0053
  732TMC3    C810879   1.062   0.153  12.186 -0.0146 -0.3890 -0.1295
  732TMC3    O110880   1.453   0.388  12.336 -0.6200  0.3272  0.0485
  732TMC3    O210881   1.128   0.129  12.087 -0.6934 -0.3600  0.8848
  733TMC3    C110882   2.008   3.481  12.945 -0.6049 -0.1586 -0.6196
  733TMC3    C210883   2.130   3.422  12.964 -0.1769  0.6655  0.6757
  733TMC3    C310884   2.243   3.494  12.931  0.0019  0.1036 -0.0800
  733TMC3    C410885   2.003   3.610  12.893  0.3340 -0.3200  0.1515
  733TMC3    C510886   2.118   3.680  12.888 -0.1633 -0.2198  0.1759
  733TMC3    C610887   2.240   3.621  12.883 -0.1985 -0.2774 -0.4406
  733TMC3     C10888   1.883   3.432  13.004  0.0213 -0.4719 -0.3543
  733TMC3     O10889   1.782   3.499  12.987  0.7907  0.2848  0.2950
  733TMC3     H10890   2.143   3.327  13.016 -1.0885  1.5083  2.4384
  733TMC3    H110891   1.908   3.662  12.894  0.2062 -0.5586  0.5098
  733TMC3    H210892   2.331   3.679  12.866 -1.2956  2.1275  1.8378
  733TMC3    C710893   2.104   3.814  12.829 -0.3098 -0.4273 -0.0222
  733TMC3    C810894   2.374   3.434  12.965  0.7189  0.7165  1.0267
  733TMC3    O110895   1.997   3.848  12.781  0.2622 -0.1249 -0.5499
  733TMC3    O210896   2.366   3.344  13.043 -0.3056 -0.0531  0.1296
  734MPD2     C10897   4.225   1.403  12.301  0.0827 -0.0708  0.2879
  734MPD2    C110898   4.143   1.293  12.270 -0.2537 -0.0144  0.2979
  734MPD2    C210899   4.102   1.282  12.145  0.1651  0.3423  0.0382
  734MPD2    C310900   4.129   1.379  12.046 -0.8581 -0.2495  0.7685
  734MPD2    C410901   4.201   1.486  12.078 -0.4065  0.5620  0.0310
  734MPD2    C510902   4.252   1.496  12.204  0.7243  0.0454  0.1340
  734MPD2     H10903   4.042   1.196  12.116  2.3119 -0.8165 -0.9752
  734MPD2    H110904   4.219   1.571  12.014  1.8533  0.9064  1.1160
  734MPD2    H210905   4.259   1.417  12.403  1.1959  3.3091 -0.5420
  734MPD2    H310906   4.306   1.583  12.240  0.0461 -0.4957  2.4318
  734MPD2     N10907   4.086   1.355  11.916  0.5337  0.3358 -0.4901
  734MPD2    H510908   4.041   1.266  11.895  0.4001  0.5467 -1.0855
  734MPD2    N110909   4.110   1.201  12.367  0.1877 -0.0830 -0.2185
  734MPD2    H710910   4.159   1.200  12.456 -0.5608 -0.7489  0.1903
  735TMC3    C110911   3.968   1.037  12.472 -0.0663 -0.0166  0.3394
  735TMC3    C210912   3.842   0.980  12.456  0.2368  0.2625  0.0395
  735TMC3    C310913   3.821   0.850  12.440  0.2254 -0.1355 -0.8062
  735TMC3    C410914   4.073   0.950  12.499  0.3950 -0.5495  0.1246
  735TMC3    C510915   4.051   0.815  12.493 -0.1438  0.2217  0.0034
  735TMC3    C610916   3.926   0.761  12.452  0.1011  0.0254  0.1235
  735TMC3     C10917   3.992   1.133  12.366 -0.1843  0.4355  0.0881
  735TMC3     O10918   3.891   1.154  12.297  0.5404 -0.2308  0.0636
  735TMC3     H10919   3.758   1.050  12.455 -0.1733 -0.1950  2.6219
  735TMC3    H110920   4.176   0.982  12.490  0.4056 -0.6305 -0.0411
  735TMC3    H210921   3.905   0.655  12.449  3.9770 -0.6673 -2.0533
  735TMC3    C710922   4.169   0.731  12.485  0.1994 -0.2158 -0.0312
  735TMC3    C810923   3.715   0.813  12.344 -1.0689  0.0651  0.1838
  735TMC3    O110924   4.280   0.773  12.497 -0.7229 -0.1346  0.5275
  735TMC3    O210925   3.667   0.700  12.338 -0.2047 -0.1799 -0.6636
  736MPD2     C10926   4.207   0.371  12.404 -0.7117 -0.2269  0.1337
  736MPD2    C110927   4.240   0.508  12.400 -0.2605 -0.0035  0.2540
  736MPD2    C210928   4.355   0.547  12.326 -0.7306 -0.1105 -0.1014
  736MPD2    C310929   4.430   0.458  12.262  0.0382  1.1166 -1.2060
  736MPD2    C410930   4.397   0.318  12.276  0.6591  0.6147 -0.6693
  736MPD2    C510931   4.280   0.275  12.336 -0.8268 -0.1996  0.0662
  736MPD2     H10932   4.370   0.653  12.312  3.1805 -0.4897  1.2182
  736MPD2    H110933   4.449   0.243  12.217  0.7795  1.0165 -1.0746
  736MPD2    H210934   4.127   0.335  12.467 -0.6212  1.3846  1.1467
  736MPD2    H310935   4.258   0.170  12.354  0.0643 -0.3682  0.1676
  736MPD2     N10936   4.540   0.490  12.186  0.4318 -0.3248  0.8921
  736MPD2    H510937   4.588   0.411  12.145  0.9261  0.0214  0.8027
  736MPD2    N110938   4.148   0.594  12.460  0.0752  0.0086  0.3049
  736MPD2    H710939   4.058   0.552  12.479 -1.2310  2.2318 -1.0546
  737TMC3    C110940   4.690   0.631  12.067 -0.1323  0.2784 -0.3277
  737TMC3    C210941   4.661   0.737  11.985 -0.4013  0.6865  0.2904
  737TMC3    C310942   4.717   0.749  11.856  0.3920  0.6714  0.0989
  737TMC3    C410943   0.038   0.532  12.022  0.8647 -0.4893 -0.0459
  737TMC3    C510944   0.089   0.543  11.894 -0.6057 -0.4643  0.6302
  737TMC3    C610945   0.062   0.649  11.808  0.6685  0.3947 -0.3304
  737TMC3     C10946   4.593   0.622  12.176  0.0582  0.4708 -0.0159
  737TMC3     O10947   4.548   0.730  12.214  0.3966 -0.0064 -0.1368
  737TMC3     H10948   4.606   0.818  12.032 -0.9177 -0.5857  1.8957
  737TMC3    H110949   0.053   0.444  12.084  1.8949  0.6080  1.2507
  737TMC3    H210950   0.104   0.658  11.708  1.8573  1.4020  0.2624
  737TMC3    C710951   0.182   0.442  11.844 -0.1246  0.1241 -0.0117
  737TMC3    C810952   4.708   0.878  11.796  0.2795 -0.0369  0.0302
  737TMC3    O110953   0.159   0.328  11.885 -0.0669  0.2055 -0.1122
  737TMC3    O210954   4.674   0.970  11.870 -0.5180  0.0691  0.5650
  738MPD2     C10955   0.222   4.369  15.243 -0.2085 -0.2862  0.8730
  738MPD2    C110956   0.309   4.259  15.257  0.2335  0.1601  0.2652
  738MPD2    C210957   0.438   4.286  15.244  0.7890 -0.1042 -0.0577
  738MPD2    C310958   0.483   4.413  15.222 -0.2706 -0.3479 -0.4941
  738MPD2    C410959   0.398   4.523  15.210  0.0706  0.8564  0.4716
  738MPD2    C510960   0.266   4.492  15.216  0.4607  0.3983 -0.3999
  738MPD2     H10961   0.511   4.206  15.254  1.0153 -0.0038 -0.8878
  738MPD2    H110962   0.432   4.625  15.198  0.0444  0.6407 -1.4425
  738MPD2    H210963   0.114   4.367  15.249 -0.2209 -0.0466  0.7332
  738MPD2    H310964   0.190   4.569  15.216  0.6920  0.6226 -1.6668
  738MPD2     N10965   0.611   4.442  15.179  0.0484  0.0570 -0.8568
  738MPD2    H510966   0.626   4.538  15.147  0.4034 -0.1236 -1.2266
  738MPD2    N110967   0.256   4.130  15.271  0.6142 -0.1664 -0.4112
  738MPD2    H710968   0.323   4.054  15.273  0.0593 -0.6737 -0.9074
  739TMC3    C110969   0.829   4.381  15.121  0.5011 -0.0765 -0.4817
  739TMC3    C210970   0.805   4.434  14.995  0.3788  0.0033  0.1140
  739TMC3    C310971   0.875   4.386  14.883 -0.2375  0.6249  0.7243
  739TMC3    C410972   0.933   4.294  15.138  0.2119  0.0731 -0.2874
  739TMC3    C510973   1.014   4.257  15.028  0.2800  0.5801 -0.5108
  739TMC3    C610974   0.984   4.296  14.898 -0.1798  0.2282 -0.1421
  739TMC3     C10975   0.715   4.358  15.202  0.5838  0.0271 -0.3259
  739TMC3     O10976   0.721   4.254  15.268 -0.4237 -0.4272  0.4744
  739TMC3     H10977   0.729   4.508  14.978 -0.8299 -0.8960  1.5685
  739TMC3    H110978   0.960   4.256  15.236  2.0816  2.7841  0.2211
  739TMC3    H210979   1.047   4.268  14.815 -0.2732  1.7703 -0.7229
  739TMC3    C710980   1.147   4.223  15.060  0.5014  0.9147  0.2565
  739TMC3    C810981   0.825   4.435  14.757 -0.3017  0.3763  0.1021
  739TMC3    O110982   1.176   4.244  15.177 -0.1121 -0.2094  0.5318
  739TMC3    O210983   0.708   4.477  14.760 -0.1120  0.0787 -0.3841
  740TMC3    C110984   0.738   0.935  14.300 -0.2510 -0.3527  0.3992
  740TMC3    C210985   0.774   0.817  14.364  0.2027  0.2797  0.9574
  740TMC3    C310986   0.899   0.778  14.330  0.1802  0.2953 -0.4164
  740TMC3    C410987   0.806   1.002  14.201 -0.1059 -0.6899 -0.1325
  740TMC3    C510988   0.934   0.959  14.174 -0.4663  0.2959 -0.0734
  740TMC3    C610989   0.983   0.845  14.241 -0.5101 -0.5344  0.9308
  740TMC3     C10990   0.630   1.012  14.358 -0.5902  0.0267  0.2488
  740TMC3     O10991   0.623   1.133  14.343 -0.3710  0.1079  0.8079
  740TMC3     H10992   0.723   0.781  14.453  1.1576 -0.2994  1.2634
  740TMC3    H110993   0.761   1.090  14.157  0.5210 -0.5043 -0.3967
  740TMC3    H210994   1.082   0.802  14.227 -0.7579 -0.4737 -1.0726
  740TMC3    C710995   1.015   1.019  14.066 -1.2477  0.0093  0.5439
  740TMC3    C810996   0.955   0.666  14.411  0.2203  0.4946 -0.8481
  740TMC3    O110997   0.955   1.053  13.964 -0.2228  0.1093  0.1353
  740TMC3    O210998   0.885   0.626  14.502  0.2222 -0.1472 -0.0088
  741TMC3    C110999   0.770   0.137  14.463  0.8225  0.7346 -0.4243
  741TMC3    C211000   0.632   0.139  14.478  0.1359  0.0220 -0.2577
  741TMC3    C311001   0.581   0.110  14.600  0.2545 -1.0928 -1.0068
  741TMC3    C411002   0.853   0.107  14.572 -0.4753  0.3934  0.4914
  741TMC3    C511003   0.801   0.089  14.694 -0.1733 -0.1626  0.1428
  741TMC3    C611004   0.660   0.083  14.703  0.1522 -0.7681  0.1157
  741TMC3     C11005   0.850   0.188  14.354  0.1276 -0.1444  0.0654
  741TMC3     O11006   0.971   0.172  14.350 -0.0216  0.0371  0.0206
  741TMC3     H11007   0.561   0.167  14.401  1.1307  0.8875 -0.8608
  741TMC3    H111008   0.960   0.120  14.558 -0.5092 -0.2145 -0.3250
  741TMC3    H211009   0.620   0.061  14.801 -1.4329  2.5698  0.2023
  741TMC3    C711010   0.873   0.055  14.816  0.2768 -0.0612 -0.5736
  741TMC3    C811011   0.449   0.043  14.598  0.5100 -1.1317 -0.1792
  741TMC3    O111012   0.810   0.085  14.918 -0.1470  0.2849 -0.5453
  741TMC3    O211013   0.363   0.089  14.521  0.0612  0.3522  0.2733
  742TMC3    C111014   0.967   3.357  15.325 -0.4900 -0.0484 -0.1329
  742TMC3    C211015   0.917   3.401  15.206 -0.6427  0.3809 -0.1474
  742TMC3    C311016   0.958   3.337  15.094  0.4693  0.2210 -0.0655
  742TMC3    C411017   1.028   3.228  15.335 -0.8949  0.3713  0.0796
  742TMC3    C511018   1.038   3.154  15.216 -0.0177 -0.5946  0.0095
  742TMC3    C611019   1.012   3.211  15.094 -0.1480  0.2026 -0.5328
  742TMC3     C11020   0.912   3.427  15.438 -0.0236  0.0968 -0.6445
  742TMC3     O11021   0.860   3.538  15.416 -0.6992 -0.3436 -0.3700
  742TMC3     H11022   0.862   3.494  15.204 -0.8917  0.2594  0.9377
  742TMC3    H111023   1.070   3.185  15.425 -3.1971 -0.0483  0.9573
  742TMC3    H211024   1.025   3.150  15.006  1.8597 -1.0819  0.6672
  742TMC3    C711025   1.092   3.016  15.214  0.0126  0.3744  0.3551
  742TMC3    C811026   0.893   3.377  14.972 -0.6116 -0.4438 -0.2926
  742TMC3    O111027   1.162   2.972  15.123  0.4209 -0.2663  0.5221
  742TMC3    O211028   0.881   3.293  14.885 -0.2188  0.7405 -0.6339
  743MPD2     C11029   2.903   0.704   0.921  0.0865 -0.2959 -0.1367
  743MPD2    C111030   2.873   0.572   0.925 -0.4250 -0.9774 -0.2608
  743MPD2    C211031   2.949   0.485   1.008  0.1688 -0.3734  0.0730
  743MPD2    C311032   3.056   0.539   1.082 -0.4630 -0.3847  0.2302
  743MPD2    C411033   3.079   0.674   1.081  0.4462  0.3143  0.5606
  743MPD2    C511034   3.017   0.754   0.988 -0.4693 -0.3694 -0.2129
  743MPD2     H11035   2.924   0.381   1.018 -0.5802 -0.3140 -1.2179
  743MPD2    H111036   3.155   0.726   1.139 -0.8919  1.9337  0.8583
  743MPD2    H211037   2.848   0.777   0.862 -1.5999 -1.0027  0.5677
  743MPD2    H311038   3.048   0.856   0.970 -2.6673  0.5139  1.0123
  743MPD2     N11039   3.130   0.453   1.166  0.0101 -0.0587 -0.1673
  743MPD2    H511040   3.108   0.356   1.149  0.2185 -0.3561  1.3331
  743MPD2    N111041   2.762   0.529   0.844 -0.1389 -0.3024 -0.1178
  743MPD2    H711042   2.739   0.592   0.767 -0.5962 -0.6347 -0.2556
  744TMC3    C111043   2.626   0.372   0.735 -0.5047  0.0638 -0.0371
  744TMC3    C211044   2.685   0.406   0.618 -0.1339 -0.0087  0.0041
  744TMC3    C311045   2.730   0.308   0.530 -0.2000 -0.1489 -0.4259
  744TMC3    C411046   2.589   0.244   0.756  0.1787  0.1133 -0.1681
  744TMC3    C511047   2.625   0.146   0.670  0.1246  0.1502  0.7213
  744TMC3    C611048   2.701   0.177   0.556 -0.9654 -0.4726  0.1048
  744TMC3     C11049   2.684   0.415   0.863 -0.6429  0.2243  0.9647
  744TMC3     O11050   2.687   0.338   0.957 -0.1064 -0.6363  0.8084
  744TMC3     H11051   2.696   0.512   0.598  0.5084 -0.4132 -1.7372
  744TMC3    H111052   2.541   0.211   0.847  0.9458 -1.5943 -0.3946
  744TMC3    H211053   2.716   0.108   0.474 -0.5554  0.5124 -0.6456
  744TMC3    C711054   2.612   0.009   0.703  0.4722  0.1116 -0.1289
  744TMC3    C811055   2.751   0.348   0.393 -0.3723  0.4069 -0.4054
  744TMC3    O111056   2.518   4.719   0.775 -0.3856  0.7693  0.2245
  744TMC3    O211057   2.751   0.264   0.307  0.4058  0.3773 -0.5891
  745TMC3    C111058   0.835   2.774  13.913  0.3295  0.1720 -0.3053
  745TMC3    C211059   0.792   2.757  14.040 -0.2921  0.7365  0.2933
  745TMC3    C311060   0.660   2.751  14.063  0.9771  0.5352 -0.8972
  745TMC3    C411061   0.753   2.784  13.807 -0.0913  0.1882 -0.0270
  745TMC3    C511062   0.619   2.788  13.841  0.0261 -0.2140  0.1192
  745TMC3    C611063   0.566   2.753  13.966 -0.0560  0.5824  0.2754
  745TMC3     C11064   0.969   2.813  13.876  1.1189 -0.4918 -0.1557
  745TMC3     O11065   1.057   2.731  13.876  0.1048 -0.0118 -0.6431
  745TMC3     H11066   0.855   2.733  14.125 -2.8700  1.0019  2.2903
  745TMC3    H111067   0.806   2.805  13.715  0.0263  0.5963  0.1326
  745TMC3    H211068   0.462   2.772  13.992  0.2151  0.2702  1.5907
  745TMC3    C711069   0.539   2.870  13.752 -0.0513 -0.0745 -0.1881
  745TMC3    C811070   0.619   2.836  14.174  0.4895 -0.2783  0.2089
  745TMC3    O111071   0.421   2.889  13.777 -0.0717  0.0768  0.1442
  745TMC3    O211072   0.498   2.848  14.204  0.2911  0.0086 -0.2255
  746TMC3    C111073   3.040   0.137  10.900  0.4012  0.3289 -0.9275
  746TMC3    C211074   3.052   0.047  10.796  1.0866  0.3792 -0.1226
  746TMC3    C311075   2.947   4.700  10.769 -0.0279  0.4863 -0.1799
  746TMC3    C411076   2.921   0.137  10.978  0.2716  0.1079 -0.0012
  746TMC3    C511077   2.820   0.048  10.945  0.0278 -0.7215  0.1649
  746TMC3    C611078   2.830   4.710  10.830  0.5246 -0.2371  0.3448
  746TMC3     C11079   3.122   0.251  10.895  0.1589  0.3258  0.4905
  746TMC3     O11080   3.227   0.238  10.837 -0.7367 -0.2806 -0.0380
  746TMC3     H11081   3.148   0.035  10.746  1.8499  0.2133  1.3882
  746TMC3    H111082   2.917   0.198  11.068 -1.7485 -0.3750  0.2378
  746TMC3    H211083   2.745   4.655  10.790 -0.0198  0.7857  0.0987
  746TMC3    C711084   2.707   0.029  11.032  0.6494  0.0628  0.0539
  746TMC3    C811085   2.956   4.652  10.632 -0.0935 -0.4481  0.3591
  746TMC3    O111086   2.599   4.733  10.985  0.1542 -0.4443 -0.3086
  746TMC3    O211087   2.924   4.534  10.610  0.4406  0.2676 -0.0995
  747TMC3    C111088   0.866   0.639  11.087 -0.5848  0.8614  0.2307
  747TMC3    C211089   0.795   0.537  11.134 -0.2805  0.2532  0.1582
  747TMC3    C311090   0.764   0.535  11.266  0.5052 -0.9568  0.8114
  747TMC3    C411091   0.926   0.731  11.177  0.5009  0.7278  0.4169
  747TMC3    C511092   0.892   0.722  11.309 -0.2583 -0.2264  0.2254
  747TMC3    C611093   0.813   0.627  11.357 -0.0382 -0.1932  0.1020
  747TMC3     C11094   0.883   0.664  10.946 -0.4390 -0.7147 -0.1895
  747TMC3     O11095   0.950   0.768  10.929 -0.1948 -0.2961 -0.1122
  747TMC3     H11096   0.735   0.472  11.071 -1.6123  1.3386  0.3123
  747TMC3    H111097   0.983   0.817  11.144 -0.2269  0.2192 -2.2229
  747TMC3    H211098   0.807   0.620  11.465 -3.9920 -2.0114 -0.2497
  747TMC3    C711099   0.976   0.793  11.408  0.2046 -0.1627  0.7678
  747TMC3    C811100   0.693   0.425  11.324  0.2554  0.3953 -0.4868
  747TMC3    O111101   0.927   0.810  11.517 -0.1583  0.4091  0.2181
  747TMC3    O211102   0.712   0.316  11.268  0.3705  0.2135  0.8178
  748MPD2     C11103   2.423   0.641   0.645  1.4847 -0.0988 -0.6690
  748MPD2    C111104   2.449   0.702   0.761  0.1576 -0.1127 -1.0703
  748MPD2    C211105   2.543   0.806   0.767  0.0361 -0.4499  0.0825
  748MPD2    C311106   2.598   0.845   0.645  0.4566 -0.3548  0.2460
  748MPD2    C411107   2.567   0.780   0.530 -0.1251  0.6399  0.0074
  748MPD2    C511108   2.477   0.684   0.530 -0.7764 -0.8407 -0.6274
  748MPD2     H11109   2.559   0.859   0.860  1.8236 -2.1303  0.7194
  748MPD2    H111110   2.608   0.806   0.433  0.9531 -1.5010 -0.1064
  748MPD2    H211111   2.358   0.554   0.644  0.1900  0.8841 -1.1113
  748MPD2    H311112   2.451   0.637   0.436 -0.1693 -2.6622  0.1260
  748MPD2     N11113   2.692   0.951   0.655 -0.3744 -0.5056  0.0241
  748MPD2    H511114   2.719   0.985   0.747  2.2521  0.7858 -1.2177
  748MPD2    N111115   2.372   0.654   0.876  0.2500  0.1513 -0.0941
  748MPD2    H711116   2.298   0.587   0.855 -1.0299  1.7446 -0.6224
  749TMC3    C111117   2.835   1.126   0.581  0.2823  0.5548 -0.3785
  749TMC3    C211118   2.920   1.119   0.689 -0.5640 -0.3912  0.6797
  749TMC3    C311119   3.029   1.207   0.688 -0.1700 -0.1784  0.2472
  749TMC3    C411120   2.852   1.225   0.486 -0.4296 -0.2848 -0.2782
  749TMC3    C511121   2.967   1.302   0.488 -0.3704 -0.3793  0.0573
  749TMC3    C611122   3.056   1.294   0.592  0.0442  0.3396 -0.3399
  749TMC3     C11123   2.750   1.022   0.547  0.0837  0.5030 -0.5313
  749TMC3     O11124   2.705   1.026   0.431  0.0025 -0.0853  0.0265
  749TMC3     H11125   2.914   1.038   0.761 -0.9680 -1.9553 -1.0954
  749TMC3    H111126   2.778   1.247   0.409  0.0890 -3.0647 -1.5728
  749TMC3    H211127   3.137   1.363   0.615 -0.2201  0.4881  0.1449
  749TMC3    C711128   2.988   1.416   0.396 -0.0932  0.3113  0.6367
  749TMC3    C811129   3.114   1.211   0.800  0.4261  0.4473 -0.5539
  749TMC3    O111130   3.065   1.498   0.439  0.0232  0.4810 -0.5973
  749TMC3    O211131   3.169   1.317   0.831 -0.1551 -0.0069  0.1965
  750MPD2     C11132   3.144   2.203  11.270  0.4733 -0.8274 -0.7663
  750MPD2    C111133   3.012   2.169  11.245  0.6024  0.3798 -0.4540
  750MPD2    C211134   2.974   2.059  11.165 -0.2217  0.8375  0.2158
  750MPD2    C311135   3.077   1.970  11.121 -0.4689  0.7403 -0.4612
  750MPD2    C411136   3.208   1.996  11.160  0.4602  0.2491  0.0192
  750MPD2    C511137   3.245   2.113  11.224 -0.0124  0.0971 -0.0935
  750MPD2     H11138   2.870   2.037  11.146 -0.1283 -0.5965  1.3757
  750MPD2    H111139   3.290   1.933  11.129  0.3805  0.2307 -0.1574
  750MPD2    H211140   3.179   2.297  11.311 -0.4732 -1.0083  0.4304
  750MPD2    H311141   3.345   2.131  11.259 -0.3573 -0.0281  0.9377
  750MPD2     N11142   3.050   1.857  11.034  0.1423  0.2121 -0.7736
  750MPD2    H511143   3.128   1.800  11.004  0.8798  0.7496  0.1233
  750MPD2    N111144   2.915   2.258  11.306  0.6999 -0.2972  0.3878
  750MPD2    H711145   2.953   2.328  11.370 -0.9087  0.6623  0.2895
  751TMC3    C111146   2.924   1.700  10.922  0.3390 -0.2882  0.2470
  751TMC3    C211147   2.804   1.636  10.905  0.1968 -0.3198 -0.2679
  751TMC3    C311148   2.816   1.510  10.853 -0.2078  0.0109  0.1368
  751TMC3    C411149   3.040   1.660  10.864  0.1539 -0.7710 -0.1066
  751TMC3    C511150   3.043   1.539  10.802 -0.4936  0.6395 -0.3240
  751TMC3    C611151   2.928   1.459  10.795 -0.1205 -0.6321  0.3554
  751TMC3     C11152   2.925   1.824  10.990  0.2567 -0.4850 -0.0503
  751TMC3     O11153   2.816   1.879  11.014  0.0983 -0.0104 -0.0632
  751TMC3     H11154   2.711   1.679  10.941  0.5801  0.1131  0.2160
  751TMC3    H111155   3.132   1.718  10.866  0.8459 -1.8545 -0.4034
  751TMC3    H211156   2.929   1.353  10.770 -0.7058 -0.3894 -0.7089
  751TMC3    C711157   3.154   1.522  10.703 -0.1706 -0.0085  0.0064
  751TMC3    C811158   2.709   1.412  10.875 -0.3073 -0.2657 -0.2315
  751TMC3    O111159   3.250   1.596  10.710 -0.0365  0.4346  0.3244
  751TMC3    O211160   2.715   1.313  10.800  0.1436  0.4594 -0.2842
  752TMC3    C111161   1.980   1.102  16.290  0.1669 -0.7671  0.0723
  752TMC3    C211162   2.023   0.976  16.259  0.9809  0.2526  0.0389
  752TMC3    C311163   2.148   0.947  16.307 -0.1793 -0.3652 -0.2422
  752TMC3    C411164   2.034   1.182  16.388 -0.3838  0.2730 -0.3122
  752TMC3    C511165   2.146   1.136  16.454 -0.2166  0.6529 -0.6256
  752TMC3    C611166   2.206   1.023  16.412  0.3569 -0.4255  0.0106
  752TMC3     C11167   1.877   1.152  16.197  0.4110 -0.1767  1.0371
  752TMC3     O11168   1.856   1.069  16.108  0.0306 -0.0980  0.1214
  752TMC3     H11169   1.983   0.913  16.180  0.5757  1.3718 -0.6594
  752TMC3    H111170   1.992   1.276  16.420  0.6681 -0.0126  1.9183
  752TMC3    H211171   2.282   0.972  16.471  1.0219  0.4908 -0.0424
  752TMC3    C711172   2.205   1.204  16.567  0.7648  0.9128  0.4259
  752TMC3    C811173   2.215   0.824  16.254  0.4662  0.2312 -0.0722
  752TMC3    O111174   2.325   1.185  16.585  0.1888 -1.0871  0.3615
  752TMC3    O211175   2.152   0.764  16.166 -0.0051  0.3098  0.2406
  753TMC3    C111176   4.033   3.023  13.436  0.2266 -0.7384  0.3122
  753TMC3    C211177   4.130   2.966  13.514  0.1642 -0.5826  0.3613
  753TMC3    C311178   4.127   2.832  13.526  0.4689 -0.6660  0.3456
  753TMC3    C411179   3.944   2.942  13.373 -0.6744  0.0452 -0.0727
  753TMC3    C511180   3.954   2.804  13.386 -0.2458 -0.2341  0.1214
  753TMC3    C611181   4.043   2.747  13.466 -0.4250 -0.1689  0.9107
  753TMC3     C11182   4.025   3.160  13.396  0.4344 -0.4957  0.5199
  753TMC3     O11183   3.949   3.198  13.302 -0.3711 -0.3421 -0.5308
  753TMC3     H11184   4.217   3.027  13.538  0.4843 -1.2009  0.7984
  753TMC3    H111185   3.867   2.994  13.318 -0.0079 -0.2004 -1.2348
  753TMC3    H211186   4.049   2.640  13.485  1.6985 -0.3662 -0.9423
  753TMC3    C711187   3.911   2.724  13.277  0.0612 -0.1974 -0.4251
  753TMC3    C811188   4.210   2.787  13.629  0.2262  0.9460 -0.6003
  753TMC3    O111189   3.930   2.601  13.282  0.2522  0.2781 -0.7764
  753TMC3    O211190   4.231   2.667  13.632 -0.7466  0.6343 -0.5939
  754MPD2     C11191   3.160   1.998  13.511  0.7805 -0.1814  0.4505
  754MPD2    C111192   3.151   1.872  13.453 -0.3441  0.7074  0.2104
  754MPD2    C211193   3.055   1.851  13.357 -0.1553 -0.1530  0.3668
  754MPD2    C311194   2.958   1.946  13.333 -0.4400  0.0280 -0.5286
  754MPD2    C411195   2.971   2.068  13.391 -0.5446  0.4195  0.0136
  754MPD2    C511196   3.066   2.098  13.485 -0.2348  0.1071  0.0346
  754MPD2     H11197   3.048   1.755  13.308  0.2187  0.6924 -1.3192
  754MPD2    H111198   2.899   2.147  13.373  0.0450  1.3717  1.8622
  754MPD2    H211199   3.243   2.022  13.577  1.9652 -0.0598 -1.0975
  754MPD2    H311200   3.068   2.202  13.516 -1.4039  0.0509  0.3273
  754MPD2     N11201   2.842   1.921  13.257  0.1945 -0.1790  0.2012
  754MPD2    H511202   2.767   1.990  13.256  0.0230 -0.3720 -0.1408
  754MPD2    N111203   3.245   1.770  13.480  0.1894  0.1209  0.3192
  754MPD2    H711204   3.332   1.815  13.504 -0.3947 -0.5645  3.6128
  755MPD2     C11205   2.339   2.458  12.818 -0.0944 -0.3376 -0.2336
  755MPD2    C111206   2.245   2.366  12.859  0.0699  0.2488 -0.2814
  755MPD2    C211207   2.291   2.248  12.912  0.1834 -0.4494 -0.1889
  755MPD2    C311208   2.430   2.218  12.923  0.3004  0.2149 -0.6747
  755MPD2    C411209   2.520   2.322  12.888 -0.5704 -0.3771 -1.1318
  755MPD2    C511210   2.472   2.443  12.841  0.2749  0.0981  0.5381
  755MPD2     H11211   2.215   2.183  12.952 -0.1753  0.7444  1.0457
  755MPD2    H111212   2.626   2.318  12.911 -0.5125 -1.9813 -1.6552
  755MPD2    H211213   2.325   2.551  12.764 -1.2596  0.5420  1.6105
  755MPD2    H311214   2.541   2.522  12.814  0.8439 -0.2665  0.9216
  755MPD2     N11215   2.485   2.100  12.980 -0.2406 -0.0983 -0.5025
  755MPD2    H511216   2.586   2.090  12.984 -0.2646 -0.5591 -1.1325
  755MPD2    N111217   2.103   2.380  12.837 -0.0552 -0.3025 -0.3070
  755MPD2    H711218   2.050   2.307  12.883  0.3350 -2.2976 -3.0351
  756MPD2     C11219   2.784   3.003   9.763  0.2009  0.2151 -0.0015
  756MPD2    C111220   2.668   3.006   9.838 -0.4126  0.0981  0.1225
  756MPD2    C211221   2.542   2.966   9.787  0.0729 -0.3239  0.4699
  756MPD2    C311222   2.532   2.921   9.654 -0.0330  0.0613  0.0022
  756MPD2    C411223   2.644   2.919   9.576 -0.9614 -0.1029  0.1144
  756MPD2    C511224   2.767   2.965   9.632 -0.1456  0.6216 -0.0590
  756MPD2     H11225   2.452   2.968   9.846 -1.5893  0.4796 -2.1197
  756MPD2    H111226   2.647   2.883   9.474 -3.3909  0.5646 -0.2015
  756MPD2    H211227   2.882   3.037   9.793  0.2894 -1.0211  1.1136
  756MPD2    H311228   2.850   2.961   9.563  0.5524 -1.0032  0.8569
  756MPD2     N11229   2.408   2.870   9.612  0.4813 -0.1081  0.2486
  756MPD2    H511230   2.322   2.889   9.663 -0.1543 -1.3002 -0.3739
  756MPD2    N111231   2.670   3.051   9.978 -0.3311 -0.8484  0.0446
  756MPD2    H711232   2.578   3.045  10.020  1.0254  1.0072  3.2251
  757MPD2     C11233   2.051   1.975   9.436 -0.5382  0.7600 -0.2279
  757MPD2    C111234   2.152   2.014   9.519 -0.4354  0.0161  0.1602
  757MPD2    C211235   2.176   2.149   9.528  0.1393  0.2599  1.0806
  757MPD2    C311236   2.102   2.242   9.461  0.3644 -0.2668  0.3337
  757MPD2    C411237   2.007   2.197   9.371  0.6495  0.1458  0.5330
  757MPD2    C511238   1.987   2.064   9.345  0.0382  0.0267  0.4008
  757MPD2     H11239   2.252   2.182   9.597  3.3425 -1.9653 -1.3953
  757MPD2    H111240   1.955   2.269   9.308  0.1350 -2.0880 -1.5921
  757MPD2    H211241   2.025   1.870   9.424 -0.4325  0.8343 -1.0480
  757MPD2    H311242   1.915   2.030   9.272  1.5167 -0.3036 -0.9039
  757MPD2     N11243   2.126   2.381   9.476  0.1460 -0.5085  0.3423
  757MPD2    H511244   2.207   2.406   9.533 -1.6896  0.7104  2.3948
  757MPD2    N111245   2.227   1.914   9.582  0.9896 -0.0444  0.0743
  757MPD2    H711246   2.206   1.815   9.566 -2.7037  0.7109  0.2515
  758MPD2     C11247   2.934   1.705  15.648 -0.1354 -0.3556 -0.6197
  758MPD2    C111248   2.939   1.607  15.749  0.5983  0.2268  0.2120
  758MPD2    C211249   2.853   1.624  15.862  0.1658 -0.4912 -0.0331
  758MPD2    C311250   2.777   1.742  15.880 -0.8351 -0.0879 -0.5303
  758MPD2    C411251   2.784   1.839  15.787 -0.1260  0.2916  0.0328
  758MPD2    C511252   2.856   1.810  15.673  0.2177 -0.3147  0.0352
  758MPD2     H11253   2.854   1.558  15.949  1.0820  1.6427  1.5725
  758MPD2    H111254   2.719   1.926  15.797 -1.6347 -0.9519  1.0655
  758MPD2    H211255   2.998   1.690  15.562 -0.0189 -0.4334 -0.5208
  758MPD2    H311256   2.849   1.888  15.599  2.4177 -1.6991 -1.6179
  758MPD2     N11257   2.709   1.764  16.004 -0.6003 -0.2562 -0.3231
  758MPD2    H511258   2.672   1.857  16.016  1.4447  0.3946  0.8539
  758MPD2    N111259   3.032   1.509  15.738  0.0474 -0.2270  0.1637
  758MPD2    H711260   3.090   1.513  15.655  2.8983 -4.0119  1.9722
  759MPD2     C11261   1.284   0.429   9.819 -0.1382  0.1848 -0.4560
  759MPD2    C111262   1.354   0.318   9.774  0.5969 -0.6267 -0.5068
  759MPD2    C211263   1.481   0.346   9.724 -0.1795 -0.0831 -0.6475
  759MPD2    C311264   1.542   0.476   9.742  0.3236  0.5151  0.2596
  759MPD2    C411265   1.470   0.587   9.786 -0.3446 -0.3027 -0.7848
  759MPD2    C511266   1.343   0.556   9.820 -0.4020 -0.6568 -0.2109
  759MPD2     H11267   1.536   0.264   9.680 -0.8301 -0.9353  0.1343
  759MPD2    H111268   1.506   0.685   9.816  1.9772 -1.3244 -0.2181
  759MPD2    H211269   1.191   0.417   9.874  0.1421  1.8344  0.3614
  759MPD2    H311270   1.287   0.632   9.873 -0.1151  0.6429 -1.7540
  759MPD2     N11271   1.673   0.493   9.704  0.0766 -0.3135  0.1240
  759MPD2    H511272   1.698   0.589   9.683 -1.4754 -0.1282 -0.8829
  759MPD2    N111273   1.295   0.191   9.752 -0.1034  0.1223  0.0320
  759MPD2    H711274   1.354   0.114   9.722  0.9368  1.0604 -0.3224
  760MPD2     C11275   1.319   2.319  11.853  0.8184 -0.0534  0.1179
  760MPD2    C111276   1.456   2.326  11.853  0.7754  0.4268  0.0128
  760MPD2    C211277   1.527   2.213  11.876  0.3648 -0.5917 -0.0234
  760MPD2    C311278   1.471   2.089  11.854  0.5849 -0.4406  0.0633
  760MPD2    C411279   1.334   2.080  11.856  0.7074  0.0148  0.3546
  760MPD2    C511280   1.262   2.197  11.855 -0.2451 -0.0553  0.1545
  760MPD2     H11281   1.633   2.222  11.897  0.6627 -0.6899 -1.5014
  760MPD2    H111282   1.274   1.990  11.844 -0.1451  0.4043  1.6889
  760MPD2    H211283   1.256   2.407  11.858 -0.4616 -1.0733  1.7686
  760MPD2    H311284   1.154   2.198  11.852 -0.3293 -2.6431  2.9094
  760MPD2     N11285   1.545   1.972  11.854  0.6501 -0.3883  0.3055
  760MPD2    H511286   1.493   1.890  11.826  2.9880 -1.5916 -0.5431
  760MPD2    N111287   1.538   2.435  11.828  0.2381 -0.5942 -0.1004
  760MPD2    H711288   1.637   2.416  11.822  0.4889  0.7496 -0.1732
  761MPD2     C11289   2.341   1.165  11.115  0.2724  0.4773 -0.2231
  761MPD2    C111290   2.378   1.161  10.981  0.0599 -1.0807  0.7221
  761MPD2    C211291   2.464   1.257  10.938 -0.7919 -0.0724  0.0463
  761MPD2    C311292   2.519   1.357  11.020  0.6429 -0.1003 -0.0106
  761MPD2    C411293   2.473   1.368  11.152  0.2427 -0.4335  0.1068
  761MPD2    C511294   2.383   1.265  11.198  0.4168  0.1197 -0.3143
  761MPD2     H11295   2.495   1.253  10.834  1.7589  1.3003  0.7548
  761MPD2    H111296   2.506   1.447  11.219  1.5574 -1.5193  0.7461
  761MPD2    H211297   2.273   1.091  11.157  0.1515  0.9395  0.3882
  761MPD2    H311298   2.354   1.268  11.302 -1.8396 -0.8513 -0.9011
  761MPD2     N11299   2.633   1.435  10.983 -0.3890  0.0187 -0.2815
  761MPD2    H511300   2.656   1.515  11.041 -0.4834 -0.1879  0.0394
  761MPD2    N111301   2.343   1.054  10.900 -0.2028  0.1358  0.4587
  761MPD2    H711302   2.315   0.969  10.947  1.4896 -0.9792 -0.5207
  762MPD2     C11303   2.695   0.996  10.218 -0.4634  0.4504 -0.0940
  762MPD2    C111304   2.698   0.878  10.278 -0.8533  0.0328 -0.0548
  762MPD2    C211305   2.798   0.783  10.262  0.6625  0.2975 -0.6332
  762MPD2    C311306   2.888   0.805  10.161 -0.0162 -0.1680  0.5016
  762MPD2    C411307   2.882   0.921  10.088  0.6479 -1.2196  0.3355
  762MPD2    C511308   2.793   1.023  10.126  0.5145  0.7474  0.3470
  762MPD2     H11309   2.795   0.692  10.321 -2.9572  2.2876  2.1940
  762MPD2    H111310   2.945   0.939  10.002 -1.4002  3.4184 -0.1686
  762MPD2    H211311   2.613   1.064  10.238 -1.0635 -0.2700 -0.0906
  762MPD2    H311312   2.795   1.116  10.071 -0.0779  0.2997 -0.4328
  762MPD2     N11313   2.996   0.716  10.143 -0.1319  0.0255 -0.3906
  762MPD2    H511314   2.995   0.636  10.206  1.8083 -1.0175 -1.7216
  762MPD2    N111315   2.594   0.863  10.371  0.2090 -0.3244  0.1270
  762MPD2    H711316   2.532   0.938  10.396 -0.4069 -0.8315  0.1190
  763MPD2     C11317   4.243   1.347  16.206  0.1466 -0.2507  0.0476
  763MPD2    C111318   4.222   1.422  16.093 -0.3668  0.6557 -0.5478
  763MPD2    C211319   4.228   1.563  16.109 -0.4424  0.1821  0.0617
  763MPD2    C311320   4.255   1.621  16.232 -0.0790  0.4713 -0.3379
  763MPD2    C411321   4.275   1.542  16.340 -0.6510 -0.5207  0.2069
  763MPD2    C511322   4.272   1.405  16.322 -0.1944  0.5926  0.1871
  763MPD2     H11323   4.226   1.626  16.021  1.7954 -0.7427 -0.6481
  763MPD2    H111324   4.306   1.587  16.434  3.3648 -2.0101 -0.4072
  763MPD2    H211325   4.237   1.239  16.212  1.4218 -0.2563  1.2044
  763MPD2    H311326   4.294   1.348  16.411  2.3492  2.2320  0.5969
  763MPD2     N11327   4.282   1.761  16.240  0.1082 -0.2531  0.5082
  763MPD2    H511328   4.278   1.818  16.157 -1.4341 -1.6546 -0.3843
  763MPD2    N111329   4.208   1.367  15.966  0.0980 -0.0270  0.1975
  763MPD2    H711330   4.193   1.431  15.888  0.2257  0.5564  0.6506
  764MPD2     C11331   2.393   3.309  17.182  0.4349  0.5233 -0.4128
  764MPD2    C111332   2.300   3.208  17.145  0.2316  0.3038  1.3232
  764MPD2    C211333   2.266   3.119  17.248  0.2367  0.5061  0.3880
  764MPD2    C311334   2.310   3.127  17.379 -0.0404  0.1311  0.1691
  764MPD2    C411335   2.402   3.227  17.417 -0.6879 -0.4254  0.4893
  764MPD2    C511336   2.436   3.317  17.317  0.0798 -0.1259  0.0162
  764MPD2     H11337   2.198   3.038  17.228 -0.1903  0.9748 -0.0703
  764MPD2    H111338   2.453   3.238  17.512 -1.4162 -0.2588  0.8644
  764MPD2    H211339   2.440   3.382  17.116  0.9186  1.1178  0.5879
  764MPD2    H311340   2.508   3.390  17.353 -1.0939  0.3584  1.3684
  764MPD2     N11341   2.253   3.036  17.473  1.0606  0.4615  0.7256
  764MPD2    H511342   2.186   2.969  17.435  0.7022  1.3660 -0.2585
  764MPD2    N111343   2.240   3.202  17.019 -0.1383  0.3776 -0.1263
  764MPD2    H711344   2.181   3.121  17.003 -0.9291  1.2979 -1.7969
  765MPD2     C11345   2.415   1.093  16.146  0.6829 -0.7891 -0.1378
  765MPD2    C111346   2.380   1.057  16.017  0.2887 -0.5680 -0.1374
  765MPD2    C211347   2.468   0.984  15.938  0.2771 -0.4486 -0.6767
  765MPD2    C311348   2.585   0.941  15.991  0.3652  0.4656 -0.1371
  765MPD2    C411349   2.624   0.994  16.116 -0.2725  0.1285  0.4004
  765MPD2    C511350   2.546   1.078  16.186  0.1006 -0.6907 -0.1229
  765MPD2     H11351   2.439   0.954  15.837 -1.8055  0.3750 -0.3384
  765MPD2    H111352   2.720   0.969  16.159 -1.8416  1.8996  4.9261
  765MPD2    H211353   2.353   1.147  16.217 -0.1930 -1.4176 -0.4166
  765MPD2    H311354   2.588   1.119  16.277  0.3532 -0.2113 -0.4587
  765MPD2     N11355   2.669   0.848  15.921 -0.0308 -0.8125  0.1876
  765MPD2    H511356   2.639   0.804  15.834  1.0649 -0.3382 -0.4217
  765MPD2    N111357   2.257   1.098  15.956  0.5395  0.6809  0.3927
  765MPD2    H711358   2.228   1.050  15.872 -0.0319  1.4300  0.1641
  766MPD2     C11359   2.150   0.870  15.541  0.2990  0.0806 -0.2969
  766MPD2    C111360   2.185   0.998  15.538  0.1927 -0.1997  0.9742
  766MPD2    C211361   2.314   1.031  15.503 -0.7829  0.6785  0.1556
  766MPD2    C311362   2.413   0.934  15.482 -0.4837 -0.3439  0.1832
  766MPD2    C411363   2.374   0.805  15.496  0.0168  0.1159 -0.7141
  766MPD2    C511364   2.250   0.774  15.525 -0.4265 -0.8086 -0.3702
  766MPD2     H11365   2.352   1.132  15.498 -0.2597  0.4085 -1.3510
  766MPD2    H111366   2.445   0.725  15.478  0.2868  0.5356 -1.5434
  766MPD2    H211367   2.056   0.840  15.586  2.1912 -0.0587  3.5206
  766MPD2    H311368   2.225   0.672  15.552 -2.1988 -0.5065 -0.8766
  766MPD2     N11369   2.540   0.980  15.445  0.4462 -0.1638  0.3097
  766MPD2    H511370   2.548   1.081  15.435  0.9209 -0.3233 -0.9254
  766MPD2    N111371   2.110   1.104  15.591 -0.1852 -0.2920  0.1959
  766MPD2    H711372   2.147   1.198  15.607 -1.7393  0.5439 -1.0869
  767MPD2     C11373   1.810   1.342  15.310 -0.6385  0.3621  0.6638
  767MPD2    C111374   1.948   1.346  15.295  0.0782  0.5321 -0.2716
  767MPD2    C211375   2.003   1.267  15.199  0.2987 -0.2319  0.3627
  767MPD2    C311376   1.925   1.174  15.130 -0.3874 -0.0563 -1.1707
  767MPD2    C411377   1.789   1.170  15.148 -0.1769  0.7134 -1.0467
  767MPD2    C511378   1.732   1.251  15.242 -0.3885  0.3077  0.4413
  767MPD2     H11379   2.108   1.274  15.172  0.0944  2.2258  0.2148
  767MPD2    H111380   1.729   1.092  15.101 -0.0260  0.0665 -0.1606
  767MPD2    H211381   1.771   1.402  15.392 -0.2835 -0.4736  1.4388
  767MPD2    H311382   1.627   1.251  15.270 -0.5762  0.4003 -0.2629
  767MPD2     N11383   1.986   1.110  15.023  0.9646  0.4063 -0.4684
  767MPD2    H511384   2.086   1.128  15.027  1.2628 -1.0274 -1.4912
  767MPD2    N111385   2.022   1.442  15.368  0.0925 -0.3083  0.2577
  767MPD2    H711386   1.965   1.512  15.415 -1.8313 -2.0398  0.4838
  768MPD2     C11387   2.170   4.547  10.861  0.1501 -1.2297 -0.1529
  768MPD2    C111388   2.193   4.507  10.993 -0.1468  0.1229  0.4881
  768MPD2    C211389   2.322   4.463  11.022  0.4576  0.5319  0.1129
  768MPD2    C311390   2.422   4.458  10.924 -0.2170  0.2910  0.1838
  768MPD2    C411391   2.392   4.506  10.794 -0.1296  0.8343  0.5123
  768MPD2    C511392   2.263   4.552  10.767  0.4644 -0.6570 -0.1348
  768MPD2     H11393   2.351   4.455  11.126 -0.0799 -1.5402  0.0942
  768MPD2    H111394   2.458   4.498  10.708 -1.6726 -3.4342 -0.2618
  768MPD2    H211395   2.074   4.586  10.827  1.4647  0.4321 -1.9763
  768MPD2    H311396   2.235   4.568  10.664 -1.1754  1.1730  0.6104
  768MPD2     N11397   2.552   4.415  10.950 -0.3220  0.3547 -0.2607
  768MPD2    H511398   2.614   4.402  10.871 -0.5218  1.0292 -0.5351
  768MPD2    N111399   2.092   4.508  11.092  0.1194 -0.0150  0.6352
  768MPD2    H711400   2.121   4.454  11.173 -1.0265  1.5799  2.1079
  769MPD2     C11401   4.099   2.625  14.799 -0.6640  0.1304  0.2116
  769MPD2    C111402   3.971   2.645  14.835  0.1291 -0.1511  1.0214
  769MPD2    C211403   3.944   2.699  14.954  0.1136  0.3577  0.4042
  769MPD2    C311404   4.041   2.732  15.043  0.6899  0.3080  0.0449
  769MPD2    C411405   4.169   2.709  15.006 -0.0530 -0.5003  0.9759
  769MPD2    C511406   4.199   2.659  14.883  0.5754  0.1492  0.2999
  769MPD2     H11407   3.841   2.709  14.985  0.0840  0.2164  0.3498
  769MPD2    H111408   4.254   2.730  15.070  1.0617 -0.3535 -0.5550
  769MPD2    H211409   4.121   2.576  14.704 -0.5392 -0.3218  0.4716
  769MPD2    H311410   4.301   2.648  14.847  0.3082 -0.2563 -0.3204
  769MPD2     N11411   4.010   2.806  15.159  0.5839 -0.7937  0.6371
  769MPD2    H511412   3.913   2.817  15.185  0.4714 -0.1874 -0.0469
  769MPD2    N111413   3.868   2.596  14.750  0.4030 -0.3238  0.0418
  769MPD2    H711414   3.898   2.550  14.665 -0.6493 -1.3966  0.2655
  770MPD2     C11415   3.708   1.631  14.753  0.3462  0.2739  0.1910
  770MPD2    C111416   3.576   1.675  14.730 -0.3705 -0.0846 -0.2552
  770MPD2    C211417   3.560   1.808  14.715  0.2509 -0.3335 -0.2016
  770MPD2    C311418   3.661   1.902  14.733 -0.2390 -0.0353 -0.4399
  770MPD2    C411419   3.793   1.861  14.766  0.0922 -0.4584 -1.0247
  770MPD2    C511420   3.810   1.724  14.769  0.0136  0.6967  0.2876
  770MPD2     H11421   3.463   1.844  14.682  0.4920  0.2227 -0.2982
  770MPD2    H111422   3.876   1.927  14.783  0.9578 -2.7147  3.4513
  770MPD2    H211423   3.736   1.528  14.737 -1.8535 -0.2127 -0.5489
  770MPD2    H311424   3.907   1.679  14.788  0.0851  0.4411 -0.6861
  770MPD2     N11425   3.624   2.038  14.700 -0.2407  0.1652  0.6575
  770MPD2    H511426   3.529   2.068  14.683 -0.4966 -0.6193  0.7036
  770MPD2    N111427   3.480   1.575  14.732  0.1782 -0.1830 -0.4124
  770MPD2    H711428   3.510   1.479  14.744 -2.0491 -0.8585 -0.1979
  771MPD2     C11429   0.058   0.819  13.859 -0.9262 -0.3724  0.6089
  771MPD2    C111430   4.686   0.864  13.788  0.2106  0.0548  0.3408
  771MPD2    C211431   4.583   0.779  13.768  0.0950 -0.2529 -0.1466
  771MPD2    C311432   4.585   0.647  13.806 -0.9589 -1.0368  0.1774
  771MPD2    C411433   4.692   0.607  13.888 -0.2252 -0.0651  0.3580
  771MPD2    C511434   0.062   0.692  13.913 -0.2966  0.3227  0.3658
  771MPD2     H11435   4.495   0.808  13.710  0.9856  0.8458 -0.9494
  771MPD2    H111436   4.697   0.512  13.940  0.5589 -1.0305 -1.4817
  771MPD2    H211437   0.138   0.887  13.886 -0.2146 -0.8686 -0.2616
  771MPD2    H311438   0.143   0.662  13.978  1.0595 -0.1891 -1.5627
  771MPD2     N11439   4.489   0.562  13.765 -0.5263  0.3060 -0.0518
  771MPD2    H511440   4.433   0.602  13.690 -0.7806 -1.1851 -0.6584
  771MPD2    N111441   4.672   0.993  13.728  0.2779  0.5646  0.7927
  771MPD2    H711442   4.583   1.024  13.691 -1.0389 -2.6979  1.2731
  772MPD2     C11443   4.159   1.444  13.723  0.2377 -0.0828  0.5408
  772MPD2    C111444   4.207   1.314  13.727  0.0823  0.2586  0.1063
  772MPD2    C211445   4.117   1.211  13.740 -0.1855  0.1342 -0.4888
  772MPD2    C311446   3.981   1.237  13.756  0.2736  0.3810  0.3013
  772MPD2    C411447   3.938   1.367  13.739  0.4191  0.0060  0.1681
  772MPD2    C511448   4.025   1.468  13.735  0.1986 -0.0558 -0.0783
  772MPD2     H11449   4.153   1.109  13.735  0.4184  0.2829  0.7978
  772MPD2    H111450   3.832   1.392  13.736 -0.1358 -2.2589  0.4132
  772MPD2    H211451   4.220   1.533  13.732 -1.3746  1.3077 -2.4075
  772MPD2    H311452   3.991   1.571  13.735  0.7635  0.1239  2.6400
  772MPD2     N11453   3.884   1.140  13.780 -0.3956 -0.1083  0.5652
  772MPD2    H511454   3.786   1.165  13.790 -0.8578 -1.3769 -0.7978
  772MPD2    N111455   4.348   1.285  13.699 -0.4598  0.1552 -0.5294
  772MPD2    H711456   4.386   1.191  13.704 -1.3283 -0.2071 -0.6054
  773MPD2     C11457   3.403   2.028   0.109  0.5559  0.3907 -0.0033
  773MPD2    C111458   3.364   1.919   0.032 -0.4065  0.0373  0.7099
  773MPD2    C211459   3.396   1.788   0.069  0.1643 -0.0230  0.0587
  773MPD2    C311460   3.500   1.770   0.155  0.7581  0.7910 -0.1866
  773MPD2    C411461   3.550   1.883   0.226  0.7621  0.5631  0.0736
  773MPD2    C511462   3.502   2.009   0.206 -0.1362  0.3556 -0.7969
  773MPD2     H11463   3.371   1.699   0.011 -0.9822 -0.5953  1.4329
  773MPD2    H111464   3.631   1.869   0.296  0.4246  3.0652  0.9601
  773MPD2    H211465   3.372   2.131   0.095 -2.1491 -0.5431 -0.8680
  773MPD2    H311466   3.532   2.093   0.268  0.2725  0.3022 -0.9226
  773MPD2     N11467   3.541   1.634   0.167 -0.2173 -0.6087  0.8644
  773MPD2    H511468   3.490   1.554   0.131 -2.1685  0.6147  0.8946
  773MPD2    N111469   3.288   1.935  17.671  0.1638 -0.2833 -0.1792
  773MPD2    H711470   3.244   1.855  17.629  0.0305 -0.5646  0.4967
  774MPD2     C11471   3.156   0.857  13.070  0.9234  0.1135  0.1915
  774MPD2    C111472   3.055   0.867  13.163 -0.3463  0.6085 -1.0092
  774MPD2    C211473   3.030   0.992  13.216  0.4293 -0.1033 -0.6252
  774MPD2    C311474   3.100   1.106  13.174 -0.3920 -1.2210 -0.1683
  774MPD2    C411475   3.208   1.091  13.087 -0.3062  0.1697  0.2651
  774MPD2    C511476   3.235   0.966  13.041 -0.1232 -0.3309  1.1501
  774MPD2     H11477   2.950   1.004  13.288  0.1850  0.7720 -1.0418
  774MPD2    H111478   3.269   1.171  13.048 -0.8325  0.4055 -0.0699
  774MPD2    H211479   3.183   0.764  13.022  0.4539  1.4983 -2.7395
  774MPD2    H311480   3.316   0.954  12.970 -2.1527  1.7352 -1.5392
  774MPD2     N11481   3.065   1.238  13.215  0.0822 -0.2111  0.6614
  774MPD2    H511482   3.124   1.316  13.190 -1.7926  1.2868  0.9790
  774MPD2    N111483   2.986   0.747  13.192  0.0794  1.1976  0.1850
  774MPD2    H711484   3.008   0.664  13.138  0.1133  1.1694  0.2415
  775MPD2     C11485   4.195   2.242  15.655 -0.2041  0.3676 -0.2396
  775MPD2    C111486   4.197   2.374  15.701 -0.1557  0.2220 -0.2401
  775MPD2    C211487   4.311   2.454  15.693 -0.0992 -0.0727  0.5244
  775MPD2    C311488   4.422   2.403  15.635 -0.6709 -0.0595 -0.5684
  775MPD2    C411489   4.413   2.271  15.582  0.0691 -0.1842  1.1693
  775MPD2    C511490   4.302   2.198  15.595  0.4050  0.5391  0.3282
  775MPD2     H11491   4.319   2.548  15.746  0.4165  1.6554 -2.5923
  775MPD2    H111492   4.503   2.227  15.540 -0.6993  0.8437 -1.6214
  775MPD2    H211493   4.119   2.166  15.669  1.4083 -1.2190 -0.1906
  775MPD2    H311494   4.308   2.094  15.564 -0.8553  0.6160 -0.1651
  775MPD2     N11495   4.532   2.476  15.593 -0.6015  0.9100  0.1397
  775MPD2    H511496   4.598   2.427  15.533 -0.1364 -2.1947  3.2113
  775MPD2    N111497   4.079   2.412  15.766 -0.2836  0.7475 -0.3770
  775MPD2    H711498   4.002   2.346  15.773  0.5294 -0.1182  0.3174
  776MPD2     C11499   2.916   2.782  11.874 -0.1698 -0.3234 -0.2700
  776MPD2    C111500   2.857   2.796  11.751 -0.1880  0.1141  0.0399
  776MPD2    C211501   2.876   2.911  11.678  0.2612 -0.1129  0.4282
  776MPD2    C311502   2.939   3.018  11.730 -0.2406  0.1358 -0.4583
  776MPD2    C411503   2.988   3.015  11.864  0.0056  0.0910  0.2407
  776MPD2    C511504   2.974   2.892  11.923  0.2731  0.2939 -0.2135
  776MPD2     H11505   2.844   2.921  11.574  1.8834 -0.4884 -0.1035
  776MPD2    H111506   3.025   3.098  11.923 -1.2157  0.8816 -0.1188
  776MPD2    H211507   2.921   2.691  11.934 -0.4540  1.1067  1.9112
  776MPD2    H311508   3.012   2.896  12.025 -1.6881 -1.0697  0.5742
  776MPD2     N11509   2.958   3.138  11.647 -0.4363 -0.3265 -0.3725
  776MPD2    H511510   2.924   3.127  11.552 -2.0886  1.1266  0.0484
  776MPD2    N111511   2.802   2.673  11.697  0.2243  0.1954 -0.5244
  776MPD2    H711512   2.797   2.592  11.758  1.0059 -1.0507 -2.1134
  777MPD2     C11513   3.839   0.057   0.733 -0.0270 -0.2470  0.0750
  777MPD2    C111514   3.708   0.074   0.756 -0.2146  0.2259 -0.0230
  777MPD2    C211515   3.616   4.723   0.700 -0.5924 -0.1639  0.0729
  777MPD2    C311516   3.655   4.618   0.617 -1.1659 -0.0600 -0.8667
  777MPD2    C411517   3.791   4.604   0.598 -0.1357  0.5981 -0.4022
  777MPD2    C511518   3.879   4.685   0.654 -0.4415 -0.6743 -0.4171
  777MPD2     H11519   3.511   4.735   0.722 -0.1853  2.3693  0.6321
  777MPD2    H111520   3.837   4.527   0.538  2.6853  1.1783  0.9973
  777MPD2    H211521   3.910   0.117   0.787 -0.0656  1.0431 -1.3165
  777MPD2    H311522   3.983   4.668   0.628 -0.7482  0.7230 -2.5824
  777MPD2     N11523   3.556   4.526   0.575  0.4977 -0.6985  0.4538
  777MPD2    H511524   3.459   4.546   0.597 -0.1080 -1.7278 -1.3422
  777MPD2    N111525   3.671   0.171   0.852  0.0472 -0.1433 -0.1062
  777MPD2    H711526   3.748   0.222   0.894  0.1169  0.4565 -0.9637
  778MPD2     C11527   4.337   0.688  14.812  0.0425 -0.3153  0.3032
  778MPD2    C111528   4.343   0.608  14.698 -0.0661 -0.1155  0.5056
  778MPD2    C211529   4.417   0.655  14.591  0.5235  0.1585 -0.0243
  778MPD2    C311530   4.480   0.784  14.595 -0.1623  0.0672 -0.1319
  778MPD2    C411531   4.475   0.855  14.714  0.6521  0.6381  0.5113
  778MPD2    C511532   4.403   0.804  14.821 -0.6590 -0.6189 -0.0639
  778MPD2     H11533   4.420   0.592  14.503  1.1626  0.3994 -0.1751
  778MPD2    H111534   4.522   0.949  14.739  2.9861  0.0008 -1.5306
  778MPD2    H211535   4.301   0.658  14.909 -1.1283  0.1902  0.0203
  778MPD2    H311536   4.402   0.857  14.916  1.8075 -1.2814  0.3431
  778MPD2     N11537   4.536   0.847  14.481 -0.9226 -0.3618  0.0833
  778MPD2    H511538   4.545   0.785  14.402 -1.2813 -0.3593  0.0426
  778MPD2    N111539   4.282   0.485  14.687 -0.4322 -0.5819 -1.1887
  778MPD2    H711540   4.275   0.442  14.595 -0.1349  1.5366 -2.1894
  779MPD2     C11541   4.126   3.847  14.443  0.4112 -0.7189  1.3080
  779MPD2    C111542   4.258   3.839  14.409 -0.8220 -0.4258  0.7041
  779MPD2    C211543   4.332   3.957  14.394 -0.0763  0.0963  0.1487
  779MPD2    C311544   4.275   4.082  14.412 -0.8151  0.9917 -0.1464
  779MPD2    C411545   4.141   4.083  14.449  0.1527  0.7245 -0.0778
  779MPD2    C511546   4.071   3.966  14.475 -0.5046 -0.0719  0.7264
  779MPD2     H11547   4.428   3.960  14.345  0.4922 -0.6439  1.2009
  779MPD2    H111548   4.082   4.172  14.465  0.4407  0.7742  0.6910
  779MPD2    H211549   4.068   3.756  14.449  1.6819 -1.8124 -2.6218
  779MPD2    H311550   3.966   3.961  14.500 -0.9352  3.0933 -0.4194
  779MPD2     N11551   4.358   4.199  14.383  0.1255 -0.0383  0.8147
  779MPD2    H511552   4.456   4.185  14.362  0.1096  0.4470  0.4006
  779MPD2    N111553   4.317   3.715  14.363  0.2001 -0.2770  0.1334
  779MPD2    H711554   4.416   3.700  14.377  0.2440  0.6380  0.7664
  780MPD2     C11555   4.602   3.984   0.436  0.3827  0.3138  0.0957
  780MPD2    C111556   4.514   4.069   0.496  0.0911 -0.5193  0.8922
  780MPD2    C211557   4.395   4.105   0.430  0.7951 -0.0704 -0.1381
  780MPD2    C311558   4.371   4.048   0.308  0.6466  0.7607 -0.2399
  780MPD2    C411559   4.460   3.957   0.247 -0.3295 -0.2874 -0.1533
  780MPD2    C511560   4.572   3.927   0.315  0.6630  0.3966  0.3788
  780MPD2     H11561   4.318   4.170   0.467  0.5560 -0.9852  0.9517
  780MPD2    H111562   4.437   3.912   0.151 -0.5879 -0.1555 -0.1526
  780MPD2    H211563   4.693   3.954   0.487  1.3787  1.4779 -0.9915
  780MPD2    H311564   4.649   3.857   0.284  0.2430 -0.7382  1.9241
  780MPD2     N11565   4.242   4.084   0.249  0.4464  0.0130  0.6771
  780MPD2    H511566   4.180   4.149   0.298 -0.5220 -0.2002 -0.2648
  780MPD2    N111567   4.549   4.124   0.621  0.3888  0.4465  0.1336
  780MPD2    H711568   4.624   4.074   0.667 -0.3795 -1.5505 -0.7744
  781MPD2     C11569   0.587   0.762  12.193  0.2948 -0.0394  0.2291
  781MPD2    C111570   0.628   0.852  12.292  0.0385 -0.2230 -0.8680
  781MPD2    C211571   0.743   0.926  12.269 -0.0282 -0.3716 -1.0514
  781MPD2    C311572   0.813   0.922  12.148  0.0176 -0.3413 -0.0923
  781MPD2    C411573   0.761   0.836  12.048  0.6835  0.1136  0.7746
  781MPD2    C511574   0.652   0.761  12.075  0.0933  0.1874 -0.4221
  781MPD2     H11575   0.760   0.994  12.352 -1.0110  2.0451 -2.8347
  781MPD2    H111576   0.814   0.831  11.953 -1.5454  1.5895 -0.5383
  781MPD2    H211577   0.504   0.692  12.198  0.6083 -0.5863 -2.6599
  781MPD2    H311578   0.611   0.706  11.991  0.3397  2.2581 -1.8887
  781MPD2     N11579   0.922   1.005  12.120 -0.1640  0.4280  0.2645
  781MPD2    H511580   0.964   1.003  12.027  2.7225 -0.3894  1.5702
  781MPD2    N111581   0.562   0.870  12.418 -0.2029  0.6467 -0.4296
  781MPD2    H711582   0.585   0.950  12.477  1.5240 -0.3377  0.2429
  782MPD2     C11583   3.362   2.277  10.298  0.2462  0.0126 -0.3424
  782MPD2    C111584   3.483   2.215  10.300  0.0547 -0.4202 -0.2429
  782MPD2    C211585   3.575   2.258  10.394  0.4974 -0.4131 -0.2999
  782MPD2    C311586   3.538   2.350  10.490 -0.4281 -0.1913  0.0627
  782MPD2    C411587   3.410   2.407  10.490 -0.0200 -0.3600  0.4823
  782MPD2    C511588   3.322   2.374  10.390 -0.2513 -0.4734  0.0131
  782MPD2     H11589   3.668   2.203  10.402  0.8381  0.2654  0.3897
  782MPD2    H111590   3.383   2.477  10.568 -0.8397  0.4686 -0.5412
  782MPD2    H211591   3.279   2.243  10.237  0.1794  0.0998 -0.2999
  782MPD2    H311592   3.230   2.430  10.388  1.0448  1.6218 -1.6540
  782MPD2     N11593   3.626   2.396  10.587  0.2838  0.5854 -0.3397
  782MPD2    H511594   3.589   2.437  10.672  2.5743  1.2562  0.3353
  782MPD2    N111595   3.527   2.105  10.218  0.0400  0.0747  0.5106
  782MPD2    H711596   3.619   2.068  10.237 -0.0247  0.9802  2.6489
  783MPD2     C11597   3.190   1.247  10.440 -0.0524  0.0969  0.1916
  783MPD2    C111598   3.204   1.371  10.503 -0.2977 -0.3648 -0.1088
  783MPD2    C211599   3.260   1.465  10.427  0.4867  0.3040 -0.4577
  783MPD2    C311600   3.303   1.441  10.301 -0.2357 -0.1702 -0.4095
  783MPD2    C411601   3.302   1.317  10.246  0.6427 -0.0250 -0.4618
  783MPD2    C511602   3.237   1.218  10.318  0.2782 -0.4340  0.4868
  783MPD2     H11603   3.271   1.564  10.469  1.6716  0.2185 -0.5784
  783MPD2    H111604   3.332   1.295  10.144  0.6737 -0.1391 -0.4278
  783MPD2    H211605   3.131   1.173  10.493  0.0228 -1.2617 -1.6218
  783MPD2    H311606   3.225   1.114  10.293  1.3121 -0.7806  1.4182
  783MPD2     N11607   3.361   1.552  10.231  0.6485 -0.1789  0.3216
  783MPD2    H511608   3.365   1.641  10.280 -1.3261  1.0819 -1.8200
  783MPD2    N111609   3.139   1.408  10.625 -0.1083  0.0256  0.4719
  783MPD2    H711610   3.061   1.352  10.659 -0.8713  1.1569  0.5663
  784MPD2     C11611   1.629   2.207   0.468  0.1010  0.8167 -0.3891
  784MPD2    C111612   1.650   2.314   0.551  0.1588  0.6418  0.3200
  784MPD2    C211613   1.586   2.433   0.518 -0.1099 -0.2769  0.3756
  784MPD2    C311614   1.486   2.441   0.420  0.4530 -0.5103  0.2142
  784MPD2    C411615   1.462   2.327   0.344  0.7692 -0.0448  0.2192
  784MPD2    C511616   1.536   2.221   0.366 -0.7454 -0.1529  0.4477
  784MPD2     H11617   1.604   2.528   0.569  1.1936  0.0199 -0.6169
  784MPD2    H111618   1.387   2.335   0.266  2.3370 -0.8048 -1.3599
  784MPD2    H211619   1.690   2.118   0.477 -1.7995 -0.3858  0.4321
  784MPD2    H311620   1.522   2.133   0.304  1.1826  1.6140 -2.4635
  784MPD2     N11621   1.419   2.564   0.405  0.4921 -0.1376  0.3932
  784MPD2    H511622   1.455   2.639   0.462  1.5397 -1.0154  0.8854
  784MPD2    N111623   1.738   2.321   0.661  0.2657 -0.1073 -0.0744
  784MPD2    H711624   1.738   2.404   0.718 -1.8201 -1.1893  1.4862
  785MPD2     C11625   1.563   1.459  11.188  0.6500 -0.4523  0.9762
  785MPD2    C111626   1.453   1.537  11.198  0.3147 -0.0995  0.2575
  785MPD2    C211627   1.334   1.474  11.213 -0.0153 -0.0007 -0.3198
  785MPD2    C311628   1.325   1.335  11.224  0.0494  0.3009 -0.6217
  785MPD2    C411629   1.437   1.256  11.219  0.5793  0.3876  0.0420
  785MPD2    C511630   1.555   1.323  11.195 -0.3316 -0.5107 -0.6949
  785MPD2     H11631   1.240   1.529  11.212 -0.5022 -0.8393 -0.0047
  785MPD2    H111632   1.439   1.148  11.223 -1.3863  0.3508 -0.2917
  785MPD2    H211633   1.664   1.498  11.187  0.1763  0.8433  2.0902
  785MPD2    H311634   1.633   1.250  11.179  1.6538  1.2746  0.8946
  785MPD2     N11635   1.193   1.279  11.242 -0.4031 -0.1023 -0.4280
  785MPD2    H511636   1.115   1.341  11.263 -0.5711 -0.2563 -0.5926
  785MPD2    N111637   1.455   1.681  11.191  0.5631 -0.1665 -0.6001
  785MPD2    H711638   1.367   1.726  11.216  0.4775 -0.2148 -0.8160
  786MPD2     C11639   0.665   3.701  14.645 -0.9508  0.8229  0.4386
  786MPD2    C111640   0.646   3.569  14.675 -0.2047 -0.0644  0.8415
  786MPD2    C211641   0.717   3.508  14.779 -0.3817  0.4008 -0.2589
  786MPD2    C311642   0.807   3.579  14.857 -0.1466 -0.0587 -0.5983
  786MPD2    C411643   0.831   3.718  14.828 -0.1023 -0.1067 -0.2099
  786MPD2    C511644   0.757   3.769  14.722 -0.3700  0.1510  0.0728
  786MPD2     H11645   0.690   3.404  14.793 -0.5762  0.2725 -1.6342
  786MPD2    H111646   0.908   3.776  14.877 -0.0534  2.2995 -3.1372
  786MPD2    H211647   0.605   3.758  14.574  0.8566  0.3579 -1.4758
  786MPD2    H311648   0.778   3.873  14.702 -0.4412  0.1725  0.1083
  786MPD2     N11649   0.878   3.514  14.962 -0.7493 -0.1068  0.1578
  786MPD2    H511650   0.918   3.573  15.034  1.8811 -2.0060  0.2471
  786MPD2    N111651   0.559   3.487  14.605  0.8177  0.1130  0.0998
  786MPD2    H711652   0.546   3.392  14.638  0.3496  0.5234  1.0968
  787MPD2     C11653   0.195   3.221  15.022  0.2786 -0.1577 -0.2960
  787MPD2    C111654   0.201   3.158  14.896  0.0782 -0.7897  0.0835
  787MPD2    C211655   0.245   3.027  14.892 -0.7642 -0.4090 -0.0176
  787MPD2    C311656   0.297   2.959  15.003  0.2305 -0.2759 -0.0277
  787MPD2    C411657   0.309   3.028  15.126  0.3302  0.4514  0.1902
  787MPD2    C511658   0.245   3.147  15.131 -0.1596  0.0760 -0.4193
  787MPD2     H11659   0.276   2.977  14.800  1.0779 -0.6614  0.7413
  787MPD2    H111660   0.341   2.976  15.215  1.4421 -1.4836 -1.3263
  787MPD2    H211661   0.160   3.323  15.037 -0.6376 -0.7253  1.4122
  787MPD2    H311662   0.247   3.191  15.230 -1.5646  1.4081 -0.9770
  787MPD2     N11663   0.346   2.830  14.978 -0.1085 -0.1972 -0.6061
  787MPD2    H511664   0.368   2.802  14.883  0.0419 -0.3756 -0.5164
  787MPD2    N111665   0.188   3.233  14.781  0.0004 -0.1159  0.0990
  787MPD2    H711666   0.183   3.334  14.792  0.2975 -0.1915  0.9037
  788MPD2     C11667   2.350   2.209   0.688 -0.4058 -0.0554  0.0772
  788MPD2    C111668   2.250   2.138   0.624  0.0217  0.0669  0.8394
  788MPD2    C211669   2.174   2.200   0.532  0.7110 -0.1980 -0.2834
  788MPD2    C311670   2.182   2.337   0.516 -0.2526  0.7589  0.1291
  788MPD2    C411671   2.271   2.413   0.582 -0.7870 -0.1997  0.1015
  788MPD2    C511672   2.357   2.346   0.669  0.5145 -0.2479 -0.1758
  788MPD2     H11673   2.096   2.145   0.482 -0.1071 -0.4310  1.2385
  788MPD2    H111674   2.270   2.521   0.575  1.4597 -0.1460  0.6080
  788MPD2    H211675   2.426   2.170   0.755 -0.9767  1.0707  1.3759
  788MPD2    H311676   2.428   2.411   0.720  1.8249  1.3294 -3.9744
  788MPD2     N11677   2.102   2.393   0.412 -0.1754 -0.9723  0.4460
  788MPD2    H511678   2.122   2.490   0.392 -0.1463 -0.9478  0.5946
  788MPD2    N111679   2.231   2.002   0.641 -0.1535  0.0375 -0.0764
  788MPD2    H711680   2.160   1.953   0.587 -1.1676 -0.5317  1.7656
  789MPD2     C11681   2.207   0.748  16.646  0.0628 -0.5198 -0.3162
  789MPD2    C111682   2.110   0.686  16.569 -0.0946  0.4498 -0.7368
  789MPD2    C211683   1.988   0.745  16.564  0.2838  0.5571 -0.2178
  789MPD2    C311684   1.953   0.868  16.631  0.2392 -0.3846  0.9853
  789MPD2    C411685   2.045   0.923  16.715  0.5785  0.4593  0.2489
  789MPD2    C511686   2.167   0.857  16.718 -0.0669  0.4479 -0.0785
  789MPD2     H11687   1.914   0.708  16.494  0.8920  0.0569 -0.5922
  789MPD2    H111688   2.028   1.015  16.770 -0.5132  1.0610 -1.0807
  789MPD2    H211689   2.308   0.711  16.657 -0.2803 -1.5112 -0.4232
  789MPD2    H311690   2.244   0.905  16.779  0.7319  0.3844 -1.0396
  789MPD2     N11691   1.825   0.926  16.627 -0.3355 -0.2078 -0.3611
  789MPD2    H511692   1.810   0.996  16.698 -0.1694  0.4664 -0.9953
  789MPD2    N111693   2.143   0.573  16.490  0.1721  0.4354  0.3177
  789MPD2    H711694   2.067   0.533  16.436  1.9196 -0.5544 -1.3952
  790MPD2     C11695   3.314   2.989  13.623 -0.4745  0.1817  0.0153
  790MPD2    C111696   3.323   3.110  13.555 -0.4470  1.0626 -0.5408
  790MPD2    C211697   3.268   3.117  13.435  0.1854 -0.5121 -0.2118
  790MPD2    C311698   3.202   3.009  13.373  0.3885  0.1837 -0.1708
  790MPD2    C411699   3.212   2.886  13.436 -0.8622 -0.2319  1.1106
  790MPD2    C511700   3.258   2.879  13.565 -0.5355 -0.4906 -0.1885
  790MPD2     H11701   3.269   3.215  13.389 -1.6412 -0.8112 -0.8894
  790MPD2    H111702   3.159   2.797  13.402  0.0206  0.2983 -1.6319
  790MPD2    H211703   3.343   2.978  13.727 -0.3420 -0.3430 -0.0779
  790MPD2    H311704   3.248   2.789  13.625  0.4014 -0.3652  0.1653
  790MPD2     N11705   3.141   3.032  13.248 -0.2251  0.1017 -0.0002
  790MPD2    H511706   3.124   3.131  13.230  0.5512  0.4744  1.2661
  790MPD2    N111707   3.402   3.210  13.615 -0.4893 -0.1897  0.2361
  790MPD2    H711708   3.436   3.195  13.710 -3.1569  1.0331  1.3776
  791MPD2     C11709   2.559   3.028  12.521 -0.1077 -0.1164 -0.4526
  791MPD2    C111710   2.609   2.936  12.606 -0.9085 -0.2166 -0.0997
  791MPD2    C211711   2.561   2.806  12.602  0.2232  0.3310 -0.3466
  791MPD2    C311712   2.455   2.776  12.515 -0.1481  0.0396  0.5026
  791MPD2    C411713   2.405   2.872  12.432 -0.1319 -0.1542 -0.1188
  791MPD2    C511714   2.458   2.997  12.435  0.0280 -0.3671  0.4567
  791MPD2     H11715   2.603   2.730  12.666 -0.6675  0.3742  0.2776
  791MPD2    H111716   2.325   2.852  12.361  0.0207 -0.2146 -0.2742
  791MPD2    H211717   2.609   3.124  12.527  0.7594 -0.5219 -1.0429
  791MPD2    H311718   2.416   3.068  12.364 -0.0759 -0.8785  0.0045
  791MPD2     N11719   2.409   2.646  12.511 -0.2840  0.6436 -0.1888
  791MPD2    H511720   2.463   2.589  12.576  1.4759  0.1475 -2.1086
  791MPD2    N111721   2.709   2.977  12.700 -0.0396 -0.0580  0.5281
  791MPD2    H711722   2.733   3.075  12.710 -1.1977  0.2208  0.5827
  792MPD2     C11723   3.675   2.805  11.561 -0.0512  0.5748  0.1195
  792MPD2    C111724   3.608   2.886  11.473  0.0647  0.3654 -0.0805
  792MPD2    C211725   3.505   2.836  11.401 -0.3580  0.0552  0.2148
  792MPD2    C311726   3.469   2.701  11.410 -0.4966  1.0039  0.3457
  792MPD2    C411727   3.540   2.613  11.491  0.3412 -0.1751  0.3867
  792MPD2    C511728   3.648   2.668  11.563  0.1572  0.5499 -0.2352
  792MPD2     H11729   3.454   2.901  11.331 -1.2175  1.9269  2.5867
  792MPD2    H111730   3.525   2.505  11.487 -1.6773  0.1987 -3.0263
  792MPD2    H211731   3.755   2.836  11.626  1.0874 -0.1206 -0.9605
  792MPD2    H311732   3.703   2.598  11.624 -0.0008  0.6303  0.0030
  792MPD2     N11733   3.370   2.653  11.324  0.0009  0.1467  0.4213
  792MPD2    H511734   3.368   2.551  11.320  0.7337  0.1028  1.2791
  792MPD2    N111735   3.666   3.015  11.469 -0.0454  0.6393 -0.1161
  792MPD2    H711736   3.756   3.038  11.510 -0.3913 -0.7421  1.4322
  793MPD2     C11737   2.581   2.733  10.630 -0.3371 -0.7168  0.7368
  793MPD2    C111738   2.665   2.841  10.655 -0.3791 -0.2712  0.0855
  793MPD2    C211739   2.763   2.829  10.757  0.6215 -0.3325 -0.5197
  793MPD2    C311740   2.770   2.714  10.834  0.1180 -0.2043 -0.0694
  793MPD2    C411741   2.680   2.610  10.804  0.3333  0.0907  0.2223
  793MPD2    C511742   2.586   2.622  10.708 -0.7275 -0.3701  0.3019
  793MPD2     H11743   2.842   2.902  10.769  0.0893  0.1799 -0.1246
  793MPD2    H111744   2.671   2.520  10.865 -2.2835  0.4442  0.3591
  793MPD2    H211745   2.504   2.731  10.554 -0.4164 -1.7877  0.8512
  793MPD2    H311746   2.517   2.539  10.694  0.2816 -1.1885  0.1147
  793MPD2     N11747   2.874   2.687  10.922 -0.1334 -0.2352  0.3204
  793MPD2    H511748   2.954   2.749  10.920 -0.1405 -0.3300 -3.9873
  793MPD2    N111749   2.675   2.957  10.575 -0.5841  0.2491  0.0221
  793MPD2    H711750   2.750   3.022  10.596  0.1764 -0.8275  0.6651
  794MPD2     C11751   2.760   2.474  17.198 -0.2758  0.0888 -0.7358
  794MPD2    C111752   2.783   2.350  17.137 -0.4076 -0.3167 -0.4096
  794MPD2    C211753   2.748   2.327  17.003  0.6161  0.0907 -0.5121
  794MPD2    C311754   2.683   2.427  16.937 -0.5320 -0.1352  0.8918
  794MPD2    C411755   2.644   2.538  16.999  0.5174 -0.2679 -0.8585
  794MPD2    C511756   2.692   2.566  17.124 -0.4933  0.4844  0.0922
  794MPD2     H11757   2.772   2.231  16.958  0.2235 -0.9301  1.4435
  794MPD2    H111758   2.580   2.605  16.943 -2.1188 -0.4217  1.9296
  794MPD2    H211759   2.812   2.500  17.289  2.4277 -0.9004 -1.9964
  794MPD2    H311760   2.659   2.659  17.169 -1.5425  0.0607  0.1940
  794MPD2     N11761   2.640   2.414  16.807  0.3846  0.3891 -0.5569
  794MPD2    H511762   2.589   2.488  16.761  0.1795 -1.4876 -3.3418
  794MPD2    N111763   2.871   2.252  17.194 -0.6795 -0.3111 -0.1858
  794MPD2    H711764   2.899   2.175  17.134 -1.9348 -0.3360 -0.7271
  795MPD2     C11765   0.747   4.348  13.965 -0.1177  0.4208  0.1004
  795MPD2    C111766   0.679   4.255  13.890  0.4808  0.0739  0.5477
  795MPD2    C211767   0.729   4.129  13.876 -0.6208 -0.4055 -0.1397
  795MPD2    C311768   0.856   4.100  13.933  0.1710  0.2675  0.6174
  795MPD2    C411769   0.920   4.190  14.002  0.0063  0.1148  0.4075
  795MPD2    C511770   0.871   4.309  14.022 -0.2829  0.2868  0.4536
  795MPD2     H11771   0.672   4.055  13.822 -2.5772  0.3449  0.9301
  795MPD2    H111772   1.015   4.174  14.053  0.0871  1.0715  0.5491
  795MPD2    H211773   0.708   4.443  14.001  2.1040  1.2348  0.3857
  795MPD2    H311774   0.914   4.383  14.088 -0.1379 -0.2807  0.9931
  795MPD2     N11775   0.932   3.985  13.901  0.6996  0.6598 -0.3566
  795MPD2    H511776   1.021   3.969  13.948  1.0140  1.7290 -0.5826
  795MPD2    N111777   0.555   4.278  13.829  0.1359 -0.7600 -0.5486
  795MPD2    H711778   0.516   4.197  13.781  1.6578 -0.9169 -1.4993
  796MPD2     C11779   0.148   1.042  15.956  0.2777 -0.0755 -0.2669
  796MPD2    C111780   0.216   1.119  16.044 -0.1772 -0.3263 -0.0907
  796MPD2    C211781   0.211   1.256  16.029  0.3043 -0.3811  0.2682
  796MPD2    C311782   0.154   1.310  15.916 -0.5717 -0.3822 -0.3227
  796MPD2    C411783   0.087   1.228  15.818 -0.5805 -0.6866 -0.5009
  796MPD2    C511784   0.079   1.093  15.850 -0.4042 -0.9139  0.7274
  796MPD2     H11785   0.269   1.314  16.100  1.8000 -2.2093  0.5390
  796MPD2    H111786   0.044   1.277  15.731 -0.0213 -0.4798 -0.6613
  796MPD2    H211787   0.147   0.933  15.964 -1.4702 -0.0511 -0.0570
  796MPD2    H311788   0.033   1.024  15.781 -1.8503  2.1250 -1.3663
  796MPD2     N11789   0.177   1.452  15.888  0.0189  0.5307 -0.0797
  796MPD2    H511790   0.246   1.483  15.956  1.8435  1.8324 -2.5448
  796MPD2    N111791   0.284   1.051  16.148  0.0465  0.1445 -0.0294
  796MPD2    H711792   0.309   0.955  16.123  1.5896  0.4640  0.3333
  797MPD2     C11793   1.435   0.637  17.441  0.2724 -0.2717 -0.2126
  797MPD2    C111794   1.433   0.758  17.522  0.5370 -0.2454  0.2019
  797MPD2    C211795   1.325   0.848  17.521 -0.0119 -0.5516  0.4229
  797MPD2    C311796   1.219   0.818  17.442 -0.3749 -0.0701  0.6004
  797MPD2    C411797   1.203   0.700  17.379  0.0912 -0.6730 -0.3494
  797MPD2    C511798   1.314   0.611  17.371  0.1178  0.6140  0.6673
  797MPD2     H11799   1.330   0.945  17.569  2.2017 -0.3260 -0.2334
  797MPD2    H111800   1.114   0.684  17.319  0.6227 -1.9744 -0.7856
  797MPD2    H211801   1.508   0.557  17.440 -0.9670 -1.4362  1.5894
  797MPD2    H311802   1.307   0.521  17.311 -0.2084  2.3305 -1.8684
  797MPD2     N11803   1.135   0.928  17.423 -0.1546 -0.3819 -0.0914
  797MPD2    H511804   1.166   1.012  17.471 -0.0407  1.3486 -3.1888
  797MPD2    N111805   1.547   0.801  17.593 -0.5329  0.4525  0.6679
  797MPD2    H711806   1.542   0.892  17.638  0.3178  1.8712 -2.1351
  798MPD2     C11807   1.476   1.529  17.483  0.6399  0.4277  0.1826
  798MPD2    C111808   1.417   1.405  17.506  0.4601  0.0882 -0.2950
  798MPD2    C211809   1.502   1.308  17.557 -0.3741  0.5767 -0.0416
  798MPD2    C311810   1.639   1.322  17.587  0.6197 -1.1058  0.1653
  798MPD2    C411811   1.701   1.440  17.545 -0.1760 -0.4312  0.4501
  798MPD2    C511812   1.618   1.541  17.498 -0.2709 -0.5721  0.2322
  798MPD2     H11813   1.462   1.209  17.572 -0.3283  0.4081 -1.0889
  798MPD2    H111814   1.809   1.452  17.552 -0.7827  4.1548  1.9005
  798MPD2    H211815   1.422   1.611  17.437 -1.7298 -2.2082 -1.7297
  798MPD2    H311816   1.653   1.639  17.468 -0.2321 -0.3800  0.8995
  798MPD2     N11817   1.699   1.207  17.643 -0.1905 -0.5880 -0.0642
  798MPD2    H511818   1.641   1.134  17.684 -0.6444  0.7410  1.6799
  798MPD2    N111819   1.286   1.381  17.467 -0.0415 -0.1279 -0.4746
  798MPD2    H711820   1.236   1.453  17.415 -0.2990 -2.0334 -2.8922
  799MPD2     C11821   0.168   2.333  14.359  0.2143  0.2575  0.4694
  799MPD2    C111822   0.151   2.226  14.270 -0.4797  0.3089  0.2723
  799MPD2    C211823   0.166   2.242  14.142  0.2887  0.1765  0.2313
  799MPD2    C311824   0.196   2.369  14.089  0.0268 -0.0276 -0.0042
  799MPD2    C411825   0.219   2.476  14.171 -0.1945 -0.7028 -0.4359
  799MPD2    C511826   0.203   2.456  14.307  0.6480 -0.6748  0.2424
  799MPD2     H11827   0.132   2.165  14.073 -1.8061  3.4057 -2.3501
  799MPD2    H111828   0.238   2.577  14.136 -0.3425 -1.6612 -3.2817
  799MPD2    H211829   0.142   2.318  14.463 -0.8079  1.5006  0.3921
  799MPD2    H311830   0.215   2.544  14.369  0.2989 -0.8712  0.5922
  799MPD2     N11831   0.210   2.392  13.946  0.4617 -0.4333 -0.3432
  799MPD2    H511832   0.247   2.484  13.926 -1.2461 -0.1164 -1.9682
  799MPD2    N111833   0.117   2.092  14.313 -0.4426 -0.0901  0.3599
  799MPD2    H711834   0.108   2.020  14.242 -0.3693 -0.7716  1.0412
  800MPD2     C11835   0.724   3.262  14.412 -0.3312 -0.4557 -0.2079
  800MPD2    C111836   0.815   3.245  14.307 -0.3947  0.6925 -0.0976
  800MPD2    C211837   0.801   3.127  14.236 -0.0127  0.2797  0.3672
  800MPD2    C311838   0.713   3.041  14.276  0.2704 -0.5083 -0.1639
  800MPD2    C411839   0.637   3.044  14.382 -0.0926 -0.8743  0.1978
  800MPD2    C511840   0.639   3.161  14.455  0.3349 -0.2032  0.0355
  800MPD2     H11841   0.868   3.105  14.153 -1.6038  1.2585 -1.1759
  800MPD2    H111842   0.555   2.973  14.391 -1.1241  0.4128  1.0176
  800MPD2    H211843   0.730   3.353  14.470 -0.7209 -1.1230  0.8658
  800MPD2    H311844   0.559   3.190  14.521 -1.1804  0.7236 -2.2139
  800MPD2     N11845   0.716   2.926  14.195 -0.0705 -0.3237 -0.3557
  800MPD2    H511846   0.797   2.929  14.134  1.0098 -3.0923  0.9755
  800MPD2    N111847   0.906   3.352  14.286 -0.1592 -0.2641  0.1859
  800MPD2    H711848   0.895   3.440  14.335  0.0792  0.9686 -1.9590
  801MPD2     C11849   0.887   4.035  14.317  0.1528 -0.3753 -0.6021
  801MPD2    C111850   0.825   3.914  14.299 -0.3544  0.4345 -0.3003
  801MPD2    C211851   0.690   3.901  14.340  0.0009  0.0497 -1.1498
  801MPD2    C311852   0.633   4.001  14.415 -0.6905  0.0846  0.4322
  801MPD2    C411853   0.701   4.118  14.436 -0.2308  0.2869 -0.3980
  801MPD2    C511854   0.824   4.138  14.384 -0.5224  0.2619  0.1737
  801MPD2     H11855   0.648   3.802  14.326 -0.2240 -0.0830  0.4431
  801MPD2    H111856   0.662   4.198  14.498 -0.2073  0.5456 -0.7155
  801MPD2    H211857   0.991   4.057  14.295  0.8666 -1.3929  1.7656
  801MPD2    H311858   0.870   4.235  14.404  2.0726 -0.9502  0.1227
  801MPD2     N11859   0.505   3.984  14.477  0.2659 -0.4381  0.4373
  801MPD2    H511860   0.473   4.042  14.554  0.8537  0.1503  0.2408
  801MPD2    N111861   0.886   3.810  14.238 -0.5533  0.2012 -0.1087
  801MPD2    H711862   0.833   3.724  14.224 -1.4599  1.1254 -2.3459
  802MPD2     C11863   0.162   0.105   0.566 -0.2664 -0.6403  0.0637
  802MPD2    C111864   0.108   0.069   0.438 -0.0790  0.0576 -0.6290
  802MPD2    C211865   0.174   4.719   0.355 -0.0804  0.1128  0.5183
  802MPD2    C311866   0.282   4.648   0.407 -0.1101  0.3983  0.9436
  802MPD2    C411867   0.337   4.688   0.527 -0.1744  0.0895  0.8376
  802MPD2    C511868   0.281   0.049   0.605  0.0227 -0.1575  0.4784
  802MPD2     H11869   0.136   4.683   0.259  1.7449  1.9295 -0.8816
  802MPD2    H111870   0.437   4.660   0.559  0.5437  1.7479  0.0938
  802MPD2    H211871   0.115   0.173   0.636  0.0987 -0.4371  0.1080
  802MPD2    H311872   0.333   0.080   0.695  0.6445  0.7326 -0.1847
  802MPD2     N11873   0.340   4.555   0.319  0.8367 -0.0064 -0.0948
  802MPD2    H511874   0.289   4.532   0.235  1.5231  0.3624 -0.6191
  802MPD2    N111875   4.736   0.136   0.389  0.1854 -0.1103  0.4075
  802MPD2    H711876   4.692   0.097   0.306  3.1054 -0.5702 -0.9177
  803MPD2     C11877   1.434   2.802  12.061  0.3309  0.4070  0.0344
  803MPD2    C111878   1.509   2.761  12.166  0.2054  0.6855 -0.5213
  803MPD2    C211879   1.464   2.658  12.255 -0.2965 -0.1108 -0.0923
  803MPD2    C311880   1.338   2.602  12.236  0.1677 -0.4198 -0.2282
  803MPD2    C411881   1.259   2.646  12.135  0.5819 -0.3164 -0.1196
  803MPD2    C511882   1.312   2.741  12.048  0.5405  0.2014 -0.4134
  803MPD2     H11883   1.522   2.627  12.341  0.3864  0.7254 -0.2542
  803MPD2    H111884   1.162   2.605  12.109  0.2803 -0.9076  1.9052
  803MPD2    H211885   1.474   2.867  11.984  1.3304 -0.2072  0.0281
  803MPD2    H311886   1.254   2.770  11.961  1.5950  0.4072 -1.0482
  803MPD2     N11887   1.299   2.497  12.331  0.3570 -0.5983 -0.2890
  803MPD2    H511888   1.365   2.457  12.396  1.4926  0.0425 -1.0436
  803MPD2    N111889   1.641   2.808  12.180 -0.1254  0.0560 -0.2299
  803MPD2    H711890   1.687   2.793  12.270  0.0975  0.7021 -0.2347
  804MPD2     C11891   0.601   3.888  16.472  0.0461 -0.3088  0.2739
  804MPD2    C111892   0.593   3.888  16.612  0.2289  0.1111  0.1362
  804MPD2    C211893   0.631   4.000  16.681  0.2287 -0.4051  0.2495
  804MPD2    C311894   0.675   4.114  16.612  0.0535 -0.1160  0.0200
  804MPD2    C411895   0.666   4.118  16.472  0.5572 -0.1504 -0.2064
  804MPD2    C511896   0.630   4.007  16.408  0.0374  0.0380  0.3064
  804MPD2     H11897   0.620   3.998  16.789 -0.6204 -1.8403  0.1356
  804MPD2    H111898   0.688   4.208  16.415  1.0825 -0.4305 -0.4510
  804MPD2    H211899   0.581   3.802  16.409 -0.8707 -0.8047  1.2365
  804MPD2    H311900   0.637   4.013  16.300 -0.6081 -0.9671  0.2049
  804MPD2     N11901   0.730   4.228  16.690 -0.0790  0.5965 -0.4761
  804MPD2    H511902   0.724   4.227  16.792 -2.2693 -0.1041 -0.5978
  804MPD2    N111903   0.558   3.773  16.688  0.2057  0.5690  0.1811
  804MPD2    H711904   0.568   3.785  16.789 -1.3395 -1.9506  0.6427
  805MPD2     C11905   4.712   2.085  15.392  0.2177 -0.5047  0.0960
  805MPD2    C111906   0.025   2.203  15.344  0.1554  0.5123  0.4584
  805MPD2    C211907   0.135   2.270  15.399  0.1033  0.2413  0.0320
  805MPD2    C311908   0.200   2.206  15.501 -0.2950 -0.3453  0.6773
  805MPD2    C411909   0.154   2.082  15.542 -0.0973 -0.1090  0.3563
  805MPD2    C511910   0.044   2.019  15.492 -0.4250 -0.2161 -0.1881
  805MPD2     H11911   0.169   2.368  15.367  0.8356 -0.2712 -0.7493
  805MPD2    H111912   0.220   2.035  15.613  1.4637  3.4670  1.2486
  805MPD2    H211913   4.626   2.028  15.362 -0.0599  1.1321 -2.2591
  805MPD2    H311914   4.738   1.926  15.524 -0.9258  0.3812  0.8441
  805MPD2     N11915   0.326   2.263  15.546  0.3228  0.1880 -0.3618
  805MPD2    H511916   0.356   2.343  15.493  1.3066  1.2205  1.7537
  805MPD2    N111917   4.694   2.274  15.241  0.6357  1.0272 -0.1053
  805MPD2    H711918   4.735   2.362  15.214  0.9583  0.7922 -0.3907
  806MPD2     C11919   0.278   1.782   0.081  0.7122  0.1637  0.5654
  806MPD2    C111920   0.279   1.915   0.123 -0.0095  0.0551 -0.4259
  806MPD2    C211921   0.344   2.008   0.049 -0.0532  0.5107 -0.5794
  806MPD2    C311922   0.416   1.973  17.696 -0.4365  0.0676 -0.1254
  806MPD2    C411923   0.409   1.836  17.648 -0.0636  0.4657  0.4197
  806MPD2    C511924   0.350   1.742  17.729  0.1513 -0.1327  0.3408
  806MPD2     H11925   0.341   2.114   0.073  1.3928  0.7248 -1.3342
  806MPD2    H111926   0.461   1.797  17.561  0.6284  0.2823  0.9244
  806MPD2    H211927   0.237   1.702   0.141  0.7124 -0.6966 -0.5689
  806MPD2    H311928   0.362   1.636  17.713 -0.0788  0.0058 -0.7322
  806MPD2     N11929   0.480   2.081  17.627 -0.5766 -0.1845  0.4838
  806MPD2    H511930   0.482   2.169  17.678 -0.1440  0.5485 -0.7722
  806MPD2    N111931   0.200   1.942   0.238  0.1359 -0.0264 -0.0535
  806MPD2    H711932   0.161   1.871   0.298 -2.2285  0.4046 -1.0624
  807MPD2     C11933   4.507   1.660   0.731 -0.2918  0.3958 -0.5167
  807MPD2    C111934   4.634   1.658   0.667  0.1453  0.8140  0.1201
  807MPD2    C211935   4.702   1.536   0.668  0.9080  0.2842 -0.5013
  807MPD2    C311936   4.643   1.419   0.705 -0.4467 -0.4129  0.3742
  807MPD2    C411937   4.517   1.424   0.758  0.0318 -0.2220  0.5187
  807MPD2    C511938   4.454   1.542   0.778 -0.7828 -0.2359  0.2441
  807MPD2     H11939   0.059   1.532   0.619  0.6761 -0.3068 -0.9168
  807MPD2    H111940   4.464   1.333   0.782  1.2220 -1.2042 -0.6314
  807MPD2    H211941   4.442   1.747   0.731 -0.3171  0.4025  1.8624
  807MPD2    H311942   4.361   1.536   0.832 -2.2168 -0.6623 -2.2571
  807MPD2     N11943   4.717   1.296   0.694 -0.1609 -0.7972  0.4360
  807MPD2    H511944   0.063   1.304   0.640 -1.8720  1.7782 -1.8501
  807MPD2    N111945   4.696   1.780   0.627 -0.0668 -0.4793  0.0191
  807MPD2    H711946   0.043   1.779   0.574 -1.0566  0.6740 -1.5756
  808MPD2     C11947   1.136   3.083   9.666 -0.0624  0.2581  0.7870
  808MPD2    C111948   1.041   3.174   9.698 -0.1394  0.2424  0.3856
  808MPD2    C211949   1.080   3.310   9.709 -0.4663 -0.2813  0.3212
  808MPD2    C311950   1.212   3.340   9.714  0.7642 -0.2225  0.4130
  808MPD2    C411951   1.308   3.243   9.704 -0.7882 -0.1868  0.3073
  808MPD2    C511952   1.269   3.112   9.677 -0.3181  0.7135 -0.0892
  808MPD2     H11953   1.005   3.385   9.728  0.6956  0.5617  1.6066
  808MPD2    H111954   1.415   3.259   9.717 -0.7067 -0.2476 -0.2675
  808MPD2    H211955   1.113   2.979   9.648  1.5561  0.5697 -2.9843
  808MPD2    H311956   1.339   3.031   9.664 -0.0605  0.9152  0.0510
  808MPD2     N11957   1.260   3.471   9.737  0.3411  0.0018 -0.6272
  808MPD2    H511958   1.360   3.478   9.751  0.1646  0.3621  0.4724
  808MPD2    N111959   0.900   3.140   9.719  0.0869  0.4286 -0.1286
  808MPD2    H711960   0.842   3.201   9.776  0.2948 -1.1459  1.7662
  809MPD2     C11961   2.095   3.804   9.919  0.0015 -0.2223 -0.1581
  809MPD2    C111962   2.006   3.725   9.987 -0.5769  0.0107  0.5828
  809MPD2    C211963   1.867   3.742   9.967 -1.1385 -0.5760  0.0522
  809MPD2    C311964   1.816   3.837   9.883 -0.6544  0.6682 -0.2331
  809MPD2    C411965   1.908   3.912   9.811  0.1419 -0.1505  0.0174
  809MPD2    C511966   2.041   3.886   9.825 -0.1417 -0.7164 -0.6203
  809MPD2     H11967   1.816   3.687  10.045 -1.1357 -0.5992  0.0379
  809MPD2    H111968   1.877   3.981   9.734 -0.1428  2.4020  2.4326
  809MPD2    H211969   2.203   3.799   9.925  0.1287  0.9369 -1.4610
  809MPD2    H311970   2.113   3.941   9.765 -0.7326 -0.5329 -1.1477
  809MPD2     N11971   1.676   3.851   9.852 -0.1920  0.3962  0.1702
  809MPD2    H511972   1.644   3.921   9.786  2.3399  1.2637 -0.1453
  809MPD2    N111973   2.037   3.637  10.087  0.2643  0.2519 -0.5428
  809MPD2    H711974   1.960   3.586  10.129  1.5638 -0.1808  1.3215
  810MPD2     C11975   0.361   2.850  10.748  1.1785 -0.3242  0.1863
  810MPD2    C111976   0.427   2.869  10.627 -0.2552  0.0329  0.5006
  810MPD2    C211977   0.495   2.991  10.604 -0.1726  0.0288 -0.0647
  810MPD2    C311978   0.495   3.094  10.690 -0.7985 -0.0063 -0.3087
  810MPD2    C411979   0.430   3.076  10.813  0.0231 -0.3783 -0.4291
  810MPD2    C511980   0.362   2.958  10.835 -0.1952 -0.4313  0.4474
  810MPD2     H11981   0.533   3.000  10.503  2.0710  0.0443  0.7761
  810MPD2    H111982   0.448   3.149  10.891  0.4249  0.2284 -1.0895
  810MPD2    H211983   0.318   2.756  10.780  0.1751  0.5622  1.4521
  810MPD2    H311984   0.308   2.935  10.926  0.4693 -1.1903  0.6562
  810MPD2     N11985   0.550   3.217  10.663  0.5029 -0.4907 -0.1381
  810MPD2    H511986   0.524   3.302  10.712 -2.6752 -1.7650  0.4375
  810MPD2    N111987   0.432   2.771  10.526  0.3253  0.3239  0.8535
  810MPD2    H711988   0.485   2.800  10.444 -2.5711  2.4591 -0.3009
  811MPD2     C11989   0.075   2.785   9.793  0.1785 -0.6935  0.3941
  811MPD2    C111990   0.112   2.844   9.913 -0.1578  0.1639  0.0328
  811MPD2    C211991   0.120   2.987   9.922  0.4388  1.1655 -0.2458
  811MPD2    C311992   0.061   3.063   9.824 -0.3007 -0.1337 -0.2119
  811MPD2    C411993   0.017   3.003   9.704 -0.5068 -0.0994  0.3591
  811MPD2    C511994   0.030   2.869   9.695  0.4749 -0.1511  1.3421
  811MPD2     H11995   0.147   3.044  10.010 -3.4157  1.9870  0.3805
  811MPD2    H111996   4.707   3.052   9.621  0.1946 -0.9810 -0.5838
  811MPD2    H211997   0.084   2.679   9.772  1.9582 -0.2590 -1.0216
  811MPD2    H311998   4.728   2.818   9.608  2.8661 -1.0236  0.7275
  811MPD2     N11999   0.058   3.207   9.837  0.2692 -0.5164  0.1608
  811MPD2    H512000   0.101   3.242   9.922  0.4260  0.9880 -0.5429
  811MPD2    N112001   0.156   2.749  10.014  0.0457  0.0414 -0.0784
  811MPD2    H712002   0.159   2.650   9.996 -0.2030 -0.2444  1.4497
  812MPD2     C12003   3.588   2.942  12.271 -0.5663  0.0982 -0.4502
  812MPD2    C112004   3.703   3.021  12.296 -0.3316  0.0981  0.2040
  812MPD2    C212005   3.811   2.960  12.358 -0.9844  0.5647 -0.0042
  812MPD2    C312006   3.806   2.833  12.408  0.1500 -0.3861 -0.4475
  812MPD2    C412007   3.681   2.761  12.397  0.0099  0.3234 -0.7788
  812MPD2    C512008   3.579   2.818  12.329  0.8428  0.1587 -0.3563
  812MPD2     H12009   3.898   3.023  12.371  0.5920 -1.2436 -1.9500
  812MPD2    H112010   3.664   2.665  12.443 -3.0636  1.8682  1.3387
  812MPD2    H212011   3.496   2.983  12.230 -1.1446 -2.1559 -1.4173
  812MPD2    H312012   3.485   2.763  12.336  0.8058  0.3508  0.6113
  812MPD2     N12013   3.920   2.774  12.471  0.2130  0.5753 -0.1642
  812MPD2    H512014   4.008   2.824  12.476  0.6668 -0.2281 -0.0295
  812MPD2    N112015   3.710   3.155  12.242 -0.8019  0.7183 -0.5713
  812MPD2    H712016   3.625   3.195  12.203 -2.4895 -2.6483 -0.2514
  813MPD2     C12017   3.409   4.431  12.668 -0.3775 -0.5627  0.8288
  813MPD2    C112018   3.377   4.563  12.690 -0.7769  0.6021  0.7605
  813MPD2    C212019   3.262   4.588  12.762  0.5127 -0.0837  0.1970
  813MPD2    C312020   3.178   4.487  12.810  0.4699  0.4455  0.9405
  813MPD2    C412021   3.213   4.356  12.781  0.1171 -0.0441 -0.8320
  813MPD2    C512022   3.324   4.332  12.710  0.1301  0.0719 -0.1695
  813MPD2     H12023   3.226   4.686  12.792 -0.0312 -0.4961  0.9036
  813MPD2    H112024   3.157   4.267  12.806  0.9795 -0.4447 -0.3593
  813MPD2    H212025   3.504   4.400  12.626  0.9658  4.8215 -0.1280
  813MPD2    H312026   3.359   4.231  12.688  1.9295  0.2284  1.9262
  813MPD2     N12027   3.074   4.530  12.895  0.0735  0.1434 -0.0959
  813MPD2    H512028   3.058   4.628  12.917  2.1604  0.6166 -0.7519
  813MPD2    N112029   3.467   4.666  12.642  0.3984  0.3881 -0.6953
  813MPD2    H712030   3.553   4.630  12.600  1.4622  1.5545  0.5132
  814MPD2     C12031   3.364   1.079  12.086  0.0818 -0.1503  0.3161
  814MPD2    C112032   3.356   1.165  11.977 -0.4201  0.2552 -0.2832
  814MPD2    C212033   3.405   1.298  11.992  0.0273 -0.3717  0.2365
  814MPD2    C312034   3.465   1.344  12.109  0.4197  1.1502 -1.3588
  814MPD2    C412035   3.470   1.257  12.218 -0.3975  0.2437  0.0547
  814MPD2    C512036   3.430   1.125  12.201  0.0374  0.6619  1.4536
  814MPD2     H12037   3.401   1.366  11.908 -1.0256  1.1860  1.5366
  814MPD2    H112038   3.516   1.287  12.311  0.1130 -0.6593  0.0917
  814MPD2    H212039   3.325   0.978  12.085  1.4310 -0.6654 -0.4096
  814MPD2    H312040   3.441   1.065  12.291  0.1057  0.1452  1.0999
  814MPD2     N12041   3.504   1.477  12.133  0.2777 -0.3155  0.2168
  814MPD2    H512042   3.520   1.504  12.230  0.7227 -0.2345  0.1168
  814MPD2    N112043   3.316   1.137  11.852 -0.1412  0.5209 -0.5588
  814MPD2    H712044   3.326   1.212  11.784  2.0702  1.7217  1.0522
  815MPD2     C12045   4.025   4.436  11.316  0.3459  0.3449 -0.4702
  815MPD2    C112046   4.030   4.302  11.358 -0.0879 -0.0489  0.6664
  815MPD2    C212047   3.942   4.260  11.462  0.1709 -0.2826 -0.2998
  815MPD2    C312048   3.850   4.345  11.513 -0.0380  0.5728 -0.3583
  815MPD2    C412049   3.851   4.479  11.472  0.8626  0.9589  0.0559
  815MPD2    C512050   3.935   4.520  11.373 -0.4234  0.2286 -0.4515
  815MPD2     H12051   3.934   4.156  11.492  2.6179 -0.7421 -1.3171
  815MPD2    H112052   3.787   4.559  11.507 -0.5776 -0.3678  0.4725
  815MPD2    H212053   4.084   4.482  11.237  0.7055  2.0924  0.8284
  815MPD2    H312054   3.941   4.624  11.343 -0.9339 -0.2060 -2.0476
  815MPD2     N12055   3.762   4.317  11.612 -0.1622 -0.0890 -0.4063
  815MPD2    H512056   3.684   4.381  11.629 -1.3919 -2.1564  1.7090
  815MPD2    N112057   4.125   4.216  11.295  0.7617 -0.3609  0.2508
  815MPD2    H712058   4.179   4.264  11.224  0.8176  0.1841  0.6557
  816MPD2     C12059   4.529   3.593  17.173  0.3597  0.7052  0.1438
  816MPD2    C112060   4.449   3.650  17.080  0.6267  0.0361  0.6157
  816MPD2    C212061   4.479   3.631  16.945 -0.0290  0.0221  0.4586
  816MPD2    C312062   4.602   3.585  16.912 -0.3082  0.4826 -0.2145
  816MPD2    C412063   4.683   3.528  17.008 -0.2606  0.2041 -0.4066
  816MPD2    C512064   4.648   3.530  17.138 -0.5676  0.1035 -0.5752
  816MPD2     H12065   4.429   3.675  16.860  0.2384  1.2179  0.9244
  816MPD2    H112066   0.033   3.474  16.981 -0.0343  0.6674 -0.5845
  816MPD2    H212067   4.512   3.596  17.280  0.5255 -0.3950  0.1935
  816MPD2    H312068   4.713   3.488  17.213 -2.4027 -1.5672  0.0699
  816MPD2     N12069   4.633   3.589  16.771  0.7421  0.2807  0.0092
  816MPD2    H512070   4.566   3.630  16.707  0.4613  0.4460  0.4070
  816MPD2    N112071   4.334   3.725  17.129 -0.3590 -0.1543  0.4010
  816MPD2    H712072   4.298   3.722  17.224 -0.7677 -1.3210  0.2127
  817MPD2     C12073   3.372   0.495   9.779 -0.3821  0.4600  0.2932
  817MPD2    C112074   3.462   0.601   9.814  0.2720  0.2486 -0.3402
  817MPD2    C212075   3.421   0.735   9.807  0.4798  0.6087 -0.1775
  817MPD2    C312076   3.307   0.765   9.735 -0.5629 -0.1516 -1.2077
  817MPD2    C412077   3.233   0.665   9.689  0.3519 -0.1731  0.4809
  817MPD2    C512078   3.257   0.534   9.717  0.5086  0.0111  0.6726
  817MPD2     H12079   3.483   0.812   9.849 -1.0788  2.5169 -1.3729
  817MPD2    H112080   3.132   0.684   9.652  1.4257  2.1286 -1.2910
  817MPD2    H212081   3.395   0.391   9.794  3.1353  1.2251  0.3672
  817MPD2    H312082   3.190   0.458   9.678  0.1683  0.5237  0.2513
  817MPD2     N12083   3.269   0.900   9.727  0.0279 -0.0642 -0.3445
  817MPD2    H512084   3.326   0.966   9.779 -1.9279  1.3715  0.0124
  817MPD2    N112085   3.593   0.579   9.863  0.3490 -0.2212  0.3572
  817MPD2    H712086   3.649   0.663   9.873  1.0522 -0.6514  0.0493
  818MPD2     C12087   1.845   0.795  10.192 -0.3683  0.2987 -0.5414
  818MPD2    C112088   1.763   0.736  10.284  0.0318 -0.5239  0.3827
  818MPD2    C212089   1.673   0.642  10.247  0.6958  0.1103  1.0270
  818MPD2    C312090   1.671   0.606  10.114 -0.4458 -0.3577 -0.0872
  818MPD2    C412091   1.736   0.681  10.021 -0.5782 -0.2240  0.6959
  818MPD2    C512092   1.830   0.774  10.058 -0.2019 -0.0242 -0.8486
  818MPD2     H12093   1.612   0.597  10.324 -3.0663 -0.9709 -2.5705
  818MPD2    H112094   1.732   0.652   9.916 -1.4669  1.7943  0.1835
  818MPD2    H212095   1.929   0.855  10.227  0.3942 -0.4370 -1.1179
  818MPD2    H312096   1.896   0.821   9.985 -0.2798  0.5034 -0.5810
  818MPD2     N12097   1.595   0.499  10.067 -0.7968 -0.0789 -0.1340
  818MPD2    H512098   1.599   0.477   9.968  0.0550 -0.1436 -0.0796
  818MPD2    N112099   1.775   0.755  10.420  0.5491  0.3687  0.3696
  818MPD2    H712100   1.714   0.700  10.479  0.5015  0.5568  0.4965
  819MPD2     C12101   0.454   1.941  15.472 -0.1479  0.5938  0.2807
  819MPD2    C112102   0.393   1.822  15.478  0.0483  0.3472 -0.2040
  819MPD2    C212103   0.447   1.717  15.548 -0.0326  0.5735  0.1078
  819MPD2    C312104   0.573   1.737  15.605 -0.2748  0.1317 -0.0130
  819MPD2    C412105   0.646   1.853  15.588  0.2697 -0.7786 -0.1667
  819MPD2    C512106   0.577   1.960  15.525 -0.3861 -0.1029 -0.5760
  819MPD2     H12107   0.399   1.620  15.556  1.2129  0.0989  1.9996
  819MPD2    H112108   0.743   1.860  15.635  0.8315  1.3570 -1.6186
  819MPD2    H212109   0.407   2.023  15.419  2.3812  0.6339 -1.8438
  819MPD2    H312110   0.621   2.059  15.519  0.3420 -0.5627 -3.0519
  819MPD2     N12111   0.628   1.628  15.675 -0.1145 -0.3981  0.2595
  819MPD2    H512112   0.575   1.541  15.669 -1.9907  0.7477 -0.0794
  819MPD2    N112113   0.270   1.814  15.410  0.5908 -0.0189  0.4960
  819MPD2    H712114   0.242   1.894  15.354 -0.1260 -0.0863  0.7541
  820MPD2     C12115   4.480   2.059  14.583  0.1677  0.1988 -0.4038
  820MPD2    C112116   4.564   2.127  14.671 -0.2859  1.6804 -0.3048
  820MPD2    C212117   4.626   2.063  14.774  0.2659  0.3301  0.2567
  820MPD2    C312118   4.602   1.932  14.789 -0.2445  0.4880 -0.4190
  820MPD2    C412119   4.520   1.866  14.699  0.1786  0.2581  0.6545
  820MPD2    C512120   4.462   1.929  14.594  0.3463 -0.6641 -0.0333
  820MPD2     H12121   4.676   2.113  14.856 -1.5338 -1.4027  2.3815
  820MPD2    H112122   4.503   1.761  14.721  0.3475 -0.5381 -3.0314
  820MPD2    H212123   4.436   2.112  14.499  2.2534 -0.2228 -1.7493
  820MPD2    H312124   4.406   1.865  14.527  0.1375  0.3037 -0.7790
  820MPD2     N12125   4.640   1.857  14.903  0.5279  0.4635  0.2830
  820MPD2    H512126   4.591   1.770  14.918  1.2719 -0.1143 -0.6635
  820MPD2    N112127   4.566   2.268  14.671  0.4670 -0.2416 -0.6687
  820MPD2    H712128   4.511   2.324  14.607 -1.4543  0.4260  1.5680
  821MPD2     C12129   0.479   3.114  13.571  0.3365 -0.1876 -0.2704
  821MPD2    C112130   0.602   3.056  13.587  0.3149 -0.0566 -0.5421
  821MPD2    C212131   0.713   3.101  13.521  0.4002  0.0566 -0.1015
  821MPD2    C312132   0.707   3.221  13.444  0.2970  0.0846 -0.4118
  821MPD2    C412133   0.586   3.281  13.440  0.1485  0.2270  0.3453
  821MPD2    C512134   0.474   3.230  13.499  0.2746 -0.0836 -0.6734
  821MPD2     H12135   0.805   3.045  13.535  0.0985 -0.3487  0.2737
  821MPD2    H112136   0.579   3.374  13.384 -1.8487  0.0065  0.2368
  821MPD2    H212137   0.393   3.084  13.630  1.2442 -2.5702 -0.1685
  821MPD2    H312138   0.382   3.287  13.495  0.4734  0.4973  3.0982
  821MPD2     N12139   0.811   3.281  13.378  0.0177  0.1714  0.4130
  821MPD2    H512140   0.794   3.364  13.321  0.7228 -0.1174 -0.2039
  821MPD2    N112141   0.624   2.940  13.669  0.1246 -0.0412 -0.2455
  821MPD2    H712142   0.723   2.920  13.673  0.0187 -0.0847  2.0314
  822MPD2     C12143   1.263   3.429  15.458 -0.1324 -0.1575 -0.8427
  822MPD2    C112144   1.248   3.377  15.583 -0.3846  0.1809 -0.1636
  822MPD2    C212145   1.187   3.454  15.677 -0.1007  0.6439  0.1170
  822MPD2    C312146   1.146   3.581  15.655  0.0895  0.4141 -0.2143
  822MPD2    C412147   1.155   3.632  15.528 -0.2035 -0.1132  0.3644
  822MPD2    C512148   1.212   3.553  15.432 -0.0910 -0.9306 -0.1577
  822MPD2     H12149   1.171   3.417  15.778 -1.5473  1.6155  0.2473
  822MPD2    H112150   1.129   3.734  15.504 -0.4633 -0.4280 -0.7218
  822MPD2    H212151   1.316   3.375  15.380  4.0598 -1.1771  2.7388
  822MPD2    H312152   1.220   3.584  15.329 -0.2467 -0.1548  0.0644
  822MPD2     N12153   1.080   3.645  15.765  0.5642 -0.3051 -0.5988
  822MPD2    H512154   1.051   3.592  15.846 -0.0142  0.3152 -0.3933
  822MPD2    N112155   1.299   3.244  15.622  0.2797 -0.3145  0.0331
  822MPD2    H712156   1.294   3.219  15.720 -1.0051  0.6030  0.2093
  823MPD2     C12157   0.916   3.640  16.575  0.6205 -0.0631 -0.3044
  823MPD2    C112158   0.936   3.572  16.458 -1.1210  0.5947 -0.3230
  823MPD2    C212159   0.982   3.438  16.456 -0.0348  0.0928 -0.0304
  823MPD2    C312160   1.033   3.385  16.574  0.4600  0.5540  0.2048
  823MPD2    C412161   1.006   3.454  16.689  0.0384  0.8598 -0.2938
  823MPD2    C512162   0.938   3.571  16.686 -0.3382  0.9291 -0.7162
  823MPD2     H12163   1.014   3.398  16.361 -0.1856 -0.3103  0.0847
  823MPD2    H112164   1.034   3.419  16.787 -0.7413 -0.0238 -0.3758
  823MPD2    H212165   0.868   3.737  16.582 -0.1202 -0.1381 -4.2259
  823MPD2    H312166   0.930   3.625  16.779 -1.4189 -1.8169  0.8037
  823MPD2     N12167   1.105   3.264  16.589  0.2164  0.4350 -0.5802
  823MPD2    H512168   1.139   3.246  16.683 -2.0132  1.9819  0.5153
  823MPD2    N112169   0.932   3.654  16.343  0.6964 -0.4144 -0.0113
  823MPD2    H712170   0.928   3.751  16.372 -0.6420 -0.7216  0.8371
  824MPD2     C12171   1.498   2.508  15.378  0.2474  0.7471 -1.0246
  824MPD2    C112172   1.601   2.587  15.420  0.9662 -0.2426  0.2801
  824MPD2    C212173   1.725   2.527  15.399 -0.1180 -0.8649 -1.1302
  824MPD2    C312174   1.747   2.410  15.329 -0.1664 -0.9738  0.2699
  824MPD2    C412175   1.642   2.341  15.281  0.2564 -0.2622  0.0908
  824MPD2    C512176   1.518   2.384  15.314  0.8029  0.1295  0.0381
  824MPD2     H12177   1.812   2.579  15.436 -0.1970 -0.3596 -1.6586
  824MPD2    H112178   1.653   2.253  15.218 -1.6110 -0.2868 -0.2048
  824MPD2    H212179   1.397   2.547  15.381  0.3458  0.7613  1.5576
  824MPD2    H312180   1.428   2.325  15.296  0.2377  0.9964  0.0056
  824MPD2     N12181   1.880   2.368  15.324 -0.6656 -0.8994  0.0115
  824MPD2    H512182   1.955   2.428  15.357 -0.6181  0.2654 -2.2264
  824MPD2    N112183   1.575   2.710  15.483 -0.2510 -0.0134 -0.9410
  824MPD2    H712184   1.480   2.745  15.490 -0.0073  0.1512  1.7374
  825MPD2     C12185   2.208   2.838  15.389  0.1529  0.3153 -1.0117
  825MPD2    C112186   2.292   2.756  15.314  0.6326  0.8713  0.3710
  825MPD2    C212187   2.396   2.810  15.242 -0.0416  0.5753  1.0735
  825MPD2    C312188   2.417   2.946  15.239 -0.0076 -0.0512  0.5542
  825MPD2    C412189   2.345   3.025  15.333 -0.9303  0.0585 -0.4146
  825MPD2    C512190   2.243   2.967  15.406  0.0413  0.4709  0.4055
  825MPD2     H12191   2.450   2.743  15.177 -0.9195  0.9898 -0.0736
  825MPD2    H112192   2.363   3.131  15.342  0.4231 -0.1026 -1.1455
  825MPD2    H212193   2.123   2.798  15.442  2.7448  1.0044  3.5987
  825MPD2    H312194   2.188   3.022  15.481  0.9023  2.9011 -0.7349
  825MPD2     N12195   2.532   3.006  15.172 -0.2701  0.6379  0.1564
  825MPD2    H512196   2.563   3.093  15.212  0.7832  1.2042 -1.8868
  825MPD2    N112197   2.264   2.617  15.323  0.5453  0.6990  0.2685
  825MPD2    H712198   2.181   2.592  15.376  0.1709 -0.6294 -0.9656
  826MPD2     C12199   2.175   2.558  13.776 -0.4745 -0.6920 -0.0279
  826MPD2    C112200   2.203   2.621  13.650 -0.0451  0.1231 -0.0925
  826MPD2    C212201   2.141   2.738  13.621 -0.1245  0.5532 -0.1032
  826MPD2    C312202   2.070   2.806  13.715  0.0543 -0.2801 -0.1864
  826MPD2    C412203   2.065   2.753  13.843 -0.0842  0.4877  0.4540
  826MPD2    C512204   2.116   2.631  13.872 -0.2544 -0.1725  0.3044
  826MPD2     H12205   2.165   2.800  13.536 -0.0877  0.3528 -0.2405
  826MPD2    H112206   2.018   2.806  13.925 -0.2626  0.0387  0.6404
  826MPD2    H212207   2.200   2.456  13.801 -1.4443 -0.7463  0.7170
  826MPD2    H312208   2.106   2.605  13.977 -1.2225  0.4926  0.3765
  826MPD2     N12209   2.006   2.926  13.693 -0.1160  0.2003  0.0170
  826MPD2    H512210   1.964   2.969  13.775 -1.1945  1.4048 -1.1685
  826MPD2    N112211   2.275   2.548  13.549 -0.1714  0.0384 -0.1895
  826MPD2    H712212   2.310   2.458  13.580  0.8197  1.2169  2.0838
  827MPD2     C12213   2.977   4.564   9.798  0.2207 -0.5532  0.1460
  827MPD2    C112214   2.901   4.462   9.851  0.5795 -0.4641  0.6199
  827MPD2    C212215   2.795   4.411   9.780  0.4407  0.4890 -0.2644
  827MPD2    C312216   2.759   4.482   9.668  0.4137 -0.1892 -0.4817
  827MPD2    C412217   2.840   4.573   9.611 -0.0021 -0.0237  0.3503
  827MPD2    C512218   2.957   4.615   9.674  0.8190 -0.7457  0.7278
  827MPD2     H12219   2.737   4.327   9.815  2.8508 -0.7340  0.8385
  827MPD2    H112220   2.822   4.623   9.516  0.5911 -0.4082  0.0369
  827MPD2    H212221   3.063   4.595   9.855  0.1005 -0.7394  0.4315
  827MPD2    H312222   3.011   4.698   9.631 -0.7866  0.2535  0.6816
  827MPD2     N12223   2.640   4.439   9.609  0.6675 -0.3357 -0.1201
  827MPD2    H512224   2.587   4.362   9.649  1.2503  0.1851  1.6714
  827MPD2    N112225   2.947   4.426   9.978  0.0063  0.0771 -0.7566
  827MPD2    H712226   3.033   4.471  10.004 -1.1120  1.2136  0.9823
  828MPD2     C12227   1.640   3.945  12.530  0.0259 -0.2331 -0.5022
  828MPD2    C112228   1.608   3.895  12.405  0.2154 -0.0262 -0.3418
  828MPD2    C212229   1.704   3.893  12.305  1.0466 -0.0837 -0.1362
  828MPD2    C312230   1.837   3.934  12.334  0.2747 -0.1952 -0.1915
  828MPD2    C412231   1.870   3.980  12.463  0.1539  0.1652  0.3753
  828MPD2    C512232   1.767   3.990  12.553 -0.5667 -0.8119  0.3345
  828MPD2     H12233   1.669   3.878  12.203  0.3092  0.7983 -0.0098
  828MPD2    H112234   1.969   4.021  12.478  1.3389 -2.1265 -1.2895
  828MPD2    H212235   1.565   3.937  12.608  0.9583 -1.7907  0.2198
  828MPD2    H312236   1.788   4.030  12.652 -1.3432 -0.8943  0.5343
  828MPD2     N12237   1.937   3.932  12.236  0.1487 -0.5138 -0.5391
  828MPD2    H512238   2.033   3.918  12.266 -1.1398 -2.0590  2.8406
  828MPD2    N112239   1.472   3.855  12.376  0.3530  0.1692 -0.4372
  828MPD2    H712240   1.462   3.825  12.280  2.2239 -0.2068 -0.5245
  829MPD2     C12241   1.232   3.757  11.564  0.2496 -0.1066 -0.1827
  829MPD2    C112242   1.112   3.793  11.624  0.6108  0.0870 -0.7004
  829MPD2    C212243   1.105   3.833  11.758  0.4017  0.2596  0.1434
  829MPD2    C312244   1.220   3.817  11.835 -0.1433  0.2891  0.3179
  829MPD2    C412245   1.344   3.793  11.773 -0.3111 -0.3024  0.3066
  829MPD2    C512246   1.346   3.757  11.639 -0.3031  0.3310 -0.3138
  829MPD2     H12247   1.009   3.852  11.805 -0.4757  0.4925 -1.7255
  829MPD2    H112248   1.426   3.759  11.835  1.4518  1.3217 -1.1300
  829MPD2    H212249   1.231   3.709  11.467 -2.7644  1.4310 -0.9298
  829MPD2    H312250   1.441   3.726  11.597 -0.8071 -4.4308  2.0560
  829MPD2     N12251   1.218   3.821  11.978 -1.2687  0.1165  0.0770
  829MPD2    H512252   1.308   3.816  12.025 -0.5847 -1.2257 -1.3759
  829MPD2    N112253   0.991   3.765  11.545 -0.1397 -0.1476 -0.1328
  829MPD2    H712254   0.994   3.693  11.474 -3.2091 -1.9772  1.5619
  830MPD2     C12255   1.048   0.906  15.569 -0.4045  0.5493  0.0925
  830MPD2    C112256   0.956   0.999  15.532  0.1700 -0.0171 -0.4809
  830MPD2    C212257   0.962   1.029  15.404 -0.1751  0.5007 -0.0313
  830MPD2    C312258   1.050   0.976  15.312 -0.3366 -0.3008  0.3525
  830MPD2    C412259   1.140   0.873  15.348 -0.4769 -0.0177  0.1009
  830MPD2    C512260   1.135   0.846  15.486 -0.6097 -0.6150 -0.6417
  830MPD2     H12261   0.896   1.109  15.371 -1.1564 -0.1027  0.4878
  830MPD2    H112262   1.208   0.814  15.287  0.1308  0.8284 -0.0331
  830MPD2    H212263   1.053   0.874  15.672 -0.2891 -1.2667 -0.4883
  830MPD2    H312264   1.202   0.772  15.528 -0.6805 -0.3664 -0.0907
  830MPD2     N12265   1.063   1.032  15.174  0.7829 -0.0550  0.4346
  830MPD2    H512266   1.140   1.004  15.114  2.0256 -1.3593  2.6587
  830MPD2    N112267   0.875   1.063  15.631 -0.2418 -0.7016  0.1802
  830MPD2    H712268   0.892   1.032  15.726  2.0524 -1.2593 -0.4102
  831MPD2     C12269   1.326   3.651  16.129 -0.3886  0.3708 -0.1144
  831MPD2    C112270   1.356   3.580  16.013 -0.5346 -0.9579 -0.6538
  831MPD2    C212271   1.312   3.448  15.990  1.2223 -0.1295  0.4086
  831MPD2    C312272   1.241   3.393  16.096 -0.5376  0.7939  0.4330
  831MPD2    C412273   1.246   3.455  16.219  0.5575  0.1515  0.0162
  831MPD2    C512274   1.272   3.583  16.234 -0.0335 -0.3187 -0.1698
  831MPD2     H12275   1.343   3.388  15.905 -0.0150  2.9424 -2.2093
  831MPD2    H112276   1.208   3.390  16.297  2.4737 -0.8152  0.1442
  831MPD2    H212277   1.360   3.753  16.142 -3.1829  1.3135 -0.1574
  831MPD2    H312278   1.249   3.631  16.328 -0.5217 -0.5028 -0.1979
  831MPD2     N12279   1.186   3.264  16.091  0.4088 -0.1891 -0.2103
  831MPD2    H512280   1.144   3.229  16.176  0.3622 -2.0069 -0.9750
  831MPD2    N112281   1.424   3.649  15.904  0.0097  0.6308  0.0002
  831MPD2    H712282   1.442   3.749  15.907 -4.4914  1.5427 -3.5395
  832MPD2     C12283   4.612   0.047  17.514  0.1980 -0.6842 -0.2991
  832MPD2    C112284   4.655   0.130  17.412  0.3410 -0.3323 -0.0020
  832MPD2    C212285   4.585   0.127  17.292  0.1252 -0.7214  0.3141
  832MPD2    C312286   4.488   0.036  17.270  0.0988 -0.1685 -0.3939
  832MPD2    C412287   4.447   4.696  17.372 -0.0801 -0.4167  0.1134
  832MPD2    C512288   4.503   4.701  17.495  0.5488  0.4324 -0.0073
  832MPD2     H12289   4.618   0.189  17.210 -0.8047  0.8722  1.1491
  832MPD2    H112290   4.364   4.627  17.358 -0.1673 -0.5862  1.4555
  832MPD2    H212291   4.665   0.021  17.604  0.5190 -1.8913 -0.8395
  832MPD2    H312292   4.472   4.638  17.577  3.2305 -1.3263 -0.3405
  832MPD2     N12293   4.419   0.029  17.148  0.0043 -0.0290 -0.3683
  832MPD2    H512294   4.353   4.692  17.140 -1.0689  0.8486 -0.0445
  832MPD2    N112295   0.033   0.209  17.442  0.3884 -0.1975 -0.1661
  832MPD2    H712296   0.069   0.208  17.537 -0.7522 -0.8724  0.2722
  833MPD2     C12297   1.794   1.465  12.899 -0.8061  0.3310 -0.0830
  833MPD2    C112298   1.816   1.505  12.769 -0.2397  0.5113 -0.3743
  833MPD2    C212299   1.945   1.527  12.723 -0.5847  0.3633  0.2758
  833MPD2    C312300   2.052   1.511  12.805 -0.1342  0.2449  0.2002
  833MPD2    C412301   2.034   1.455  12.930  0.1906 -0.5538 -0.4103
  833MPD2    C512302   1.907   1.438  12.973  0.3081 -0.6604 -0.1013
  833MPD2     H12303   1.960   1.574  12.627  0.4149  1.8105  1.1296
  833MPD2    H112304   2.121   1.435  12.992 -0.0023  0.1788  0.0924
  833MPD2    H212305   1.695   1.456  12.942 -0.3539 -2.0453  0.4447
  833MPD2    H312306   1.904   1.403  13.076 -2.0252 -0.9241 -0.2592
  833MPD2     N12307   2.182   1.543  12.768  0.4069 -0.5168  0.0767
  833MPD2    H512308   2.256   1.503  12.824  1.2008 -0.8451 -1.1911
  833MPD2    N112309   1.706   1.515  12.685  0.0045 -0.4687 -0.4669
  833MPD2    H712310   1.622   1.482  12.732  0.3604 -0.7568 -0.0315
  834MPD2     C12311   2.112   0.896  12.240  0.8622 -0.0913  0.5047
  834MPD2    C112312   2.064   1.014  12.190 -0.8195  0.6093  0.6035
  834MPD2    C212313   2.125   1.134  12.222  0.3990 -0.1948 -0.0749
  834MPD2    C312314   2.235   1.129  12.308  0.5727  0.3914 -0.1285
  834MPD2    C412315   2.296   1.012  12.346 -0.3001  0.5093  0.7656
  834MPD2    C512316   2.229   0.894  12.308  0.5826  0.0079 -0.2804
  834MPD2     H12317   2.095   1.229  12.179 -1.7092  0.1424  2.1343
  834MPD2    H112318   2.388   1.011  12.404 -0.5677  1.6684  1.2059
  834MPD2    H212319   2.084   0.804  12.190 -1.6727  0.9301  0.0612
  834MPD2    H312320   2.282   0.804  12.335 -0.0755 -0.2674  0.0847
  834MPD2     N12321   2.278   1.255  12.347  0.3686 -0.3345  0.0974
  834MPD2    H512322   2.222   1.334  12.317 -0.1513 -0.6387  0.2658
  834MPD2    N112323   1.968   1.009  12.092  0.2914  0.1191 -0.0520
  834MPD2    H712324   1.903   0.931  12.087 -0.1358  0.4960 -0.4328
  835MPD2     C12325   1.579   4.363  11.097 -0.0145 -0.6035  0.1458
  835MPD2    C112326   1.469   4.329  11.174 -0.0414  0.1254 -0.9518
  835MPD2    C212327   1.479   4.307  11.311 -0.0023 -0.8356  0.7427
  835MPD2    C312328   1.606   4.312  11.373 -0.3065 -0.3213  0.0180
  835MPD2    C412329   1.717   4.342  11.292 -0.1643  0.8571 -0.0787
  835MPD2    C512330   1.702   4.357  11.157  0.3825  0.0725 -0.4271
  835MPD2     H12331   1.387   4.294  11.365  0.0295 -0.0321  1.0023
  835MPD2    H112332   1.818   4.330  11.329 -0.1326  0.4234 -0.3059
  835MPD2    H212333   1.576   4.397  10.994  2.0094  4.2034  1.6849
  835MPD2    H312334   1.790   4.366  11.094  0.6529 -2.4657 -0.4094
  835MPD2     N12335   1.623   4.290  11.514  0.2355 -0.6580 -0.7603
  835MPD2    H512336   1.715   4.292  11.557  0.2423 -0.7269 -0.7719
  835MPD2    N112337   1.341   4.305  11.114 -0.0286  0.1674  0.2931
  835MPD2    H712338   1.270   4.281  11.182 -2.6655  0.8870 -2.2335
  836MPD2     C12339   1.032   4.167  11.854  0.3355  0.5487 -0.6097
  836MPD2    C112340   1.127   4.174  11.955 -0.0821 -0.1954 -0.2184
  836MPD2    C212341   1.089   4.162  12.089 -0.4510 -0.5223 -0.4646
  836MPD2    C312342   0.956   4.151  12.119  0.1864  0.2199  1.0805
  836MPD2    C412343   0.865   4.150  12.013  0.6262 -0.8207 -0.2770
  836MPD2    C512344   0.906   4.152  11.884  0.0291 -0.2119  0.3293
  836MPD2     H12345   1.161   4.188  12.165 -0.2422  3.1353 -1.8898
  836MPD2    H112346   0.759   4.153  12.036  0.9419 -0.0212  1.0317
  836MPD2    H212347   1.058   4.168  11.748  3.9325  2.1804  0.2722
  836MPD2    H312348   0.826   4.153  11.811  0.7116 -0.1838 -0.4087
  836MPD2     N12349   0.902   4.162  12.247  0.2521 -0.3162  0.5787
  836MPD2    H512350   0.801   4.164  12.254  0.0962  0.8380 -2.2079
  836MPD2    N112351   1.262   4.183  11.920  0.3849 -0.0644  0.3051
  836MPD2    H712352   1.286   4.207  11.824 -1.9652 -2.4585 -0.8822
  837MPD2     C12353   0.358   3.864  10.216  0.9885 -0.4747 -0.1560
  837MPD2    C112354   0.253   3.884  10.128 -0.6475 -0.3806 -0.1593
  837MPD2    C212355   0.194   4.010  10.127 -0.4619 -0.7993 -0.0813
  837MPD2    C312356   0.235   4.110  10.210  0.9644 -0.5658  0.4991
  837MPD2    C412357   0.336   4.090  10.298  0.4773 -0.0131  0.0429
  837MPD2    C512358   0.398   3.968  10.294  0.0306  0.2041  0.3916
  837MPD2     H12359   0.110   4.029  10.062  0.9148 -0.1733 -1.6655
  837MPD2    H112360   0.387   4.172  10.346 -0.6928 -0.8303  2.6512
  837MPD2    H212361   0.399   3.765  10.224  4.3933  0.7998 -1.8127
  837MPD2    H312362   0.483   3.949  10.358 -2.0191 -1.0657  2.7579
  837MPD2     N12363   0.176   4.235  10.196  0.2718  0.8110  0.5661
  837MPD2    H512364   0.116   4.253  10.116 -1.0516 -1.2223  1.0930
  837MPD2    N112365   0.191   3.784  10.048 -0.2214  0.1732  0.1206
  837MPD2    H712366   0.113   3.819   9.993  1.9497  2.9381 -1.1764
  838MPD2     C12367   2.977   1.934  11.537 -0.5886  0.2593 -0.2085
  838MPD2    C112368   3.030   1.836  11.615  1.0552  0.6958 -0.7698
  838MPD2    C212369   2.954   1.724  11.638  0.6776 -0.9424 -0.4434
  838MPD2    C312370   2.825   1.711  11.590  0.0829  0.4690 -0.5782
  838MPD2    C412371   2.770   1.814  11.519  0.5280 -0.4215  0.4908
  838MPD2    C512372   2.846   1.927  11.495 -0.0900 -0.3409 -0.2168
  838MPD2     H12373   2.998   1.657  11.711  0.3435  1.1050  1.6269
  838MPD2    H112374   2.670   1.799  11.479  1.1478  0.5350 -1.3795
  838MPD2    H212375   3.039   2.019  11.512 -0.7522  0.4682  0.0946
  838MPD2    H312376   2.809   2.013  11.442  1.7030 -0.2027 -1.2441
  838MPD2     N12377   2.749   1.596  11.620  1.0160  0.5780  0.0291
  838MPD2    H512378   2.800   1.535  11.684 -0.3280  0.9185  1.4229
  838MPD2    N112379   3.161   1.839  11.664  0.3260  0.1436 -0.3089
  838MPD2    H712380   3.195   1.757  11.714  0.9037  0.0756 -0.8191
  839MPD2     C12381   2.963   1.247  11.582 -0.2234 -0.8058  0.0789
  839MPD2    C112382   2.990   1.304  11.461  0.4215 -0.2030 -0.1596
  839MPD2    C212383   3.091   1.398  11.448 -0.1000 -0.4439 -0.2619
  839MPD2    C312384   3.178   1.423  11.555 -0.6280  0.8323  0.2690
  839MPD2    C412385   3.154   1.359  11.678 -0.4318  0.3680 -0.1924
  839MPD2    C512386   3.039   1.278  11.688  0.9624 -0.5453  0.1350
  839MPD2     H12387   3.121   1.438  11.352 -0.8422  1.2286  0.2058
  839MPD2    H112388   3.224   1.366  11.761 -0.5642  0.0705 -0.0594
  839MPD2    H212389   2.879   1.179  11.591 -0.4290 -0.5547  0.0400
  839MPD2    H312390   3.011   1.246  11.788 -0.4749 -1.8652 -0.6946
  839MPD2     N12391   3.285   1.517  11.552  0.0429  0.2918 -0.4651
  839MPD2    H512392   3.339   1.517  11.637 -0.1400 -0.3187 -0.3466
  839MPD2    N112393   2.902   1.280  11.348  0.0642  0.5627 -0.3209
  839MPD2    H712394   2.928   1.312  11.256  0.9692 -0.7751 -0.5390
  840MPD2     C12395   3.484   3.922  10.435 -0.3681 -0.0247  0.5299
  840MPD2    C112396   3.449   4.050  10.402 -0.4650 -0.0589  0.7741
  840MPD2    C212397   3.526   4.157  10.438 -0.2083 -0.1401  0.1160
  840MPD2    C312398   3.640   4.135  10.514  0.1907 -0.5314  0.2381
  840MPD2    C412399   3.674   4.005  10.555  0.2345  1.1350 -0.2490
  840MPD2    C512400   3.597   3.904  10.510 -0.4562  0.5747  0.8648
  840MPD2     H12401   3.505   4.260  10.411  1.4288  0.2488  0.2734
  840MPD2    H112402   3.768   3.983  10.605  0.1349 -0.9306 -0.9776
  840MPD2    H212403   3.423   3.837  10.405 -0.5569  0.5773 -0.7856
  840MPD2    H312404   3.625   3.800  10.529  0.6921  0.8362  0.5881
  840MPD2     N12405   3.710   4.243  10.559  0.4979  0.5750 -0.1686
  840MPD2    H512406   3.755   4.227  10.649 -2.7275  1.4850  1.6451
  840MPD2    N112407   3.327   4.066  10.332  0.6721  0.4367  0.3437
  840MPD2    H712408   3.267   3.984  10.324  1.2610 -0.0376  0.8456
  841MPD2     C12409   2.876   4.216  14.802  0.1998 -0.3899 -0.6294
  841MPD2    C112410   2.936   4.095  14.802 -0.1075  0.1497 -0.7972
  841MPD2    C212411   3.062   4.080  14.742  0.1416  0.0018  0.4991
  841MPD2    C312412   3.125   4.185  14.682  0.0005 -0.1884 -0.0863
  841MPD2    C412413   3.061   4.307  14.689  0.6618 -0.4497  0.5508
  841MPD2    C512414   2.943   4.330  14.753  0.3356  0.1417 -0.1824
  841MPD2     H12415   3.106   3.981  14.743 -0.0439 -0.0782  0.7051
  841MPD2    H112416   3.100   4.395  14.641 -1.8628  1.4296  1.9806
  841MPD2    H212417   2.777   4.238  14.840  0.1067 -0.0978 -1.0456
  841MPD2    H312418   2.904   4.431  14.755 -0.9969 -0.3863  0.3316
  841MPD2     N12419   3.248   4.156  14.615 -0.3103 -0.3470  0.1718
  841MPD2    H512420   3.284   4.062  14.625 -0.5208 -0.4390  0.0611
  841MPD2    N112421   2.872   3.982  14.856 -0.0039 -0.1453 -0.2718
  841MPD2    H712422   2.926   3.898  14.876  1.1503  0.2567 -1.6553
  842MPD2     C12423   4.102   0.387  16.985 -0.1229  0.7402 -0.0178
  842MPD2    C112424   4.002   0.303  17.032 -0.2018  1.3817  0.1107
  842MPD2    C212425   4.013   0.230  17.146  0.4266  0.3595  0.4596
  842MPD2    C312426   4.120   0.246  17.229 -0.1974  0.4988 -0.6415
  842MPD2    C412427   4.231   0.322  17.174 -0.4143  0.5549 -0.0696
  842MPD2    C512428   4.218   0.392  17.059 -0.0849 -0.0818 -1.0415
  842MPD2     H12429   3.929   0.170  17.178  0.8889 -1.1206 -1.1617
  842MPD2    H112430   4.323   0.338  17.229 -0.2655  2.0729 -0.7503
  842MPD2    H212431   4.085   0.437  16.890  0.4643  1.2621  0.1480
  842MPD2    H312432   4.296   0.464  17.040 -1.8226  2.0066 -0.2784
  842MPD2     N12433   4.129   0.197  17.358  0.0161 -0.4195  0.7786
  842MPD2    H512434   4.223   0.192  17.394  0.3722  2.6771  0.1977
  842MPD2    N112435   3.883   0.307  16.950 -0.3574 -1.0544 -0.3307
  842MPD2    H712436   3.886   0.371  16.871 -0.6595 -0.5023  0.0952
  843MPD2     C12437   0.879   0.970   0.016  0.1467 -0.5581 -0.2775
  843MPD2    C112438   1.013   0.938   0.052  0.2223  0.0176  0.4771
  843MPD2    C212439   1.099   1.039   0.083 -0.0414  0.3088  0.1486
  843MPD2    C312440   1.060   1.174   0.092 -0.5774  0.1139 -0.2441
  843MPD2    C412441   0.928   1.206   0.057  0.7420  0.4085  0.8940
  843MPD2    C512442   0.839   1.101   0.026  0.8895 -0.5327  0.0882
  843MPD2     H12443   1.202   1.009   0.093 -0.0373  0.7478  1.4575
  843MPD2    H112444   0.900   1.310   0.044  0.2335  0.1127 -0.3524
  843MPD2    H212445   0.809   0.895  17.737 -1.4891 -0.4067  2.5956
  843MPD2    H312446   0.738   1.127  17.756  1.0436 -0.8554 -0.7961
  843MPD2     N12447   1.149   1.285   0.121  0.5677  0.2867 -0.4289
  843MPD2    H512448   1.121   1.382   0.112 -0.5050 -0.1223 -1.3765
  843MPD2    N112449   1.063   0.802   0.037 -0.3942  0.7526 -0.0986
  843MPD2    H712450   1.008   0.737  17.738 -0.3981 -0.3458  1.1846
  844MPD2     C12451   4.402   4.362  16.847 -0.1397  0.5417  0.7203
  844MPD2    C112452   4.453   4.445  16.750 -0.7922 -0.5716 -0.0286
  844MPD2    C212453   4.556   4.534  16.779  0.1582 -0.5599 -0.1282
  844MPD2    C312454   4.605   4.538  16.910 -1.0371 -0.5379 -0.8745
  844MPD2    C412455   4.548   4.456  17.006  0.2944 -0.2139  0.3445
  844MPD2    C512456   4.455   4.362  16.965  0.9361 -0.5602  0.4965
  844MPD2     H12457   4.596   4.600  16.703  0.1519 -0.1210  0.2580
  844MPD2    H112458   4.580   4.460  17.109  1.4081 -1.0452  0.0286
  844MPD2    H212459   4.323   4.290  16.830 -0.5739  1.0147  0.6932
  844MPD2    H312460   4.418   4.300  17.046 -0.6171 -0.1062  0.1414
  844MPD2     N12461   4.704   4.630  16.946 -0.0289  0.0025  0.3793
  844MPD2    H512462   0.004   4.619  17.039  0.2962 -1.6021  0.0454
  844MPD2    N112463   4.386   4.448  16.623  0.2910 -0.3461  0.0240
  844MPD2    H712464   4.425   4.503  16.547  2.6019 -1.5133  0.3816
  845MPD2     C12465   4.693   0.829  16.838 -0.7773  0.6208 -0.0026
  845MPD2    C112466   0.003   0.795  16.962  0.2007  0.0911  0.4691
  845MPD2    C212467   0.085   0.680  16.976  0.2688 -0.6906  0.1631
  845MPD2    C312468   0.098   0.591  16.864  0.2781 -0.6044 -0.0692
  845MPD2    C412469   0.029   0.622  16.757 -0.2035  0.0686  0.1273
  845MPD2    C512470   4.704   0.742  16.732  0.3441  0.5377  0.2311
  845MPD2     H12471   0.135   0.657  17.070 -2.3177 -0.1909  1.6674
  845MPD2    H112472   0.021   0.546  16.680  0.1629  0.5827 -0.4198
  845MPD2    H212473   4.639   0.918  16.810  1.4652  1.7160 -0.9073
  845MPD2    H312474   4.657   0.761  16.637  0.6840  0.1852 -0.0081
  845MPD2     N12475   0.163   0.469  16.865 -0.3254 -0.1056 -0.0710
  845MPD2    H512476   0.154   0.412  16.781  2.4955 -0.2280 -0.2828
  845MPD2    N112477   4.716   0.888  17.074  0.1680 -0.4891  0.1548
  845MPD2    H712478   4.648   0.963  17.064 -0.8556 -1.2724  1.2374
  846MPD2     C12479   1.458   1.062  13.804 -0.2538 -0.3656 -0.0177
  846MPD2    C112480   1.328   1.076  13.765 -0.1942 -0.7147  0.0231
  846MPD2    C212481   1.221   1.036  13.848  0.7536 -0.2577 -0.1250
  846MPD2    C312482   1.246   1.010  13.984 -0.3965 -0.8766 -0.2186
  846MPD2    C412483   1.382   1.000  14.020 -0.1053  0.8038  0.1386
  846MPD2    C512484   1.484   1.022  13.931  0.0209  0.5913 -0.4135
  846MPD2     H12485   1.120   1.039  13.809  0.8014  2.5419 -0.0644
  846MPD2    H112486   1.400   0.979  14.125 -0.3144 -0.7663 -0.1278
  846MPD2    H212487   1.536   1.087  13.734 -2.5789  2.1608 -1.7377
  846MPD2    H312488   1.582   1.008  13.975 -0.4780 -0.6948  0.3041
  846MPD2     N12489   1.147   0.995  14.084 -0.1788  0.0021  0.0390
  846MPD2    H512490   1.185   0.976  14.176  1.4857 -0.1284 -0.6767
  846MPD2    N112491   1.306   1.116  13.626  1.1912 -0.0705  0.2536
  846MPD2    H712492   1.381   1.146  13.564  0.1536 -1.7847 -1.8245
  847MPD2     C12493   1.386   1.784  13.994 -0.3222  0.4651 -0.1658
  847MPD2    C112494   1.435   1.769  14.120 -0.4332 -0.2058 -1.0065
  847MPD2    C212495   1.554   1.708  14.144  0.1032  0.7130 -0.3015
  847MPD2    C312496   1.638   1.672  14.035  0.9165  0.4357  0.0135
  847MPD2    C412497   1.588   1.685  13.903  0.2974  0.5426 -0.0405
  847MPD2    C512498   1.462   1.741  13.883 -0.0415 -0.8598  0.0858
  847MPD2     H12499   1.598   1.725  14.242 -0.3224  1.0028 -0.1598
  847MPD2    H112500   1.638   1.645  13.817  0.5210  1.9255 -0.5597
  847MPD2    H212501   1.292   1.830  13.967 -2.0638 -1.1170  3.2330
  847MPD2    H312502   1.423   1.752  13.783 -2.6023 -1.7230  0.9908
  847MPD2     N12503   1.781   1.646  14.049 -0.8480  0.1129  0.2373
  847MPD2    H512504   1.828   1.633  13.960  1.3153  0.5432  1.3334
  847MPD2    N112505   1.369   1.828  14.228  0.1824 -0.3783  0.0985
  847MPD2    H712506   1.380   1.795  14.323 -3.4490 -1.3864  0.1664
  848MPD2     C12507   4.463   0.206  16.308  0.1624 -0.4743 -0.1785
  848MPD2    C112508   4.407   0.275  16.412  0.0684 -0.4426  0.6991
  848MPD2    C212509   4.400   0.417  16.409 -0.4466  1.1613 -0.4206
  848MPD2    C312510   4.445   0.487  16.300 -0.0269  0.7880 -0.3561
  848MPD2    C412511   4.507   0.420  16.200  0.6202  0.0744  0.0421
  848MPD2    C512512   4.509   0.281  16.207 -1.1447 -0.3000 -0.5879
  848MPD2     H12513   4.348   0.463  16.492  2.3871  3.7159 -0.0833
  848MPD2    H112514   4.541   0.468  16.109  2.2103  1.3342  1.3150
  848MPD2    H212515   4.468   0.097  16.304 -0.3409 -0.5815  1.9394
  848MPD2    H312516   4.553   0.230  16.122 -0.7152 -1.2630  0.2182
  848MPD2     N12517   4.411   0.627  16.277 -0.2053 -0.5383  0.2304
  848MPD2    H512518   4.430   0.668  16.186 -1.6304  0.5863  0.4408
  848MPD2    N112519   4.352   0.215  16.526 -0.1121  0.3125 -0.0827
  848MPD2    H712520   4.313   0.282  16.591 -0.8918  0.9016 -1.1456
  849MPD2     C12521   3.098   0.022  13.555 -0.3952 -1.0444 -0.0384
  849MPD2    C112522   3.165   0.043  13.674 -0.1834 -0.6549 -0.2344
  849MPD2    C212523   3.087   0.053  13.791 -0.0070 -0.0034 -0.4285
  849MPD2    C312524   2.959   0.018  13.794 -0.2784 -1.0613  0.0518
  849MPD2    C412525   2.904   4.727  13.675  0.3425 -0.6463  0.1144
  849MPD2    C512526   2.969   4.733  13.557 -0.0522  0.4989  0.3297
  849MPD2     H12527   3.137   0.068  13.887 -1.4620 -0.0798  0.3303
  849MPD2    H112528   2.805   4.684  13.663 -0.0422  0.5636 -1.0497
  849MPD2    H212529   3.151   0.017  13.461  0.0311 -1.6937  0.2380
  849MPD2    H312530   2.916   4.713  13.464  0.0300 -0.0787  0.4076
  849MPD2     N12531   2.876   0.004  13.904  0.3016 -0.0417  0.4884
  849MPD2    H512532   2.788   4.698  13.883 -0.2332  0.1758  2.2348
  849MPD2    N112533   3.308   0.068  13.675 -0.3348 -0.0666 -0.3392
  849MPD2    H712534   3.360   0.034  13.595  1.0171 -1.4167  1.1122
  850MPD2     C12535   1.945   2.235  14.925 -0.2111  0.4075  0.5582
  850MPD2    C112536   1.863   2.343  14.958  0.3496 -0.1370  0.1610
  850MPD2    C212537   1.911   2.468  14.977 -0.5096 -0.4278 -0.5923
  850MPD2    C312538   2.047   2.493  14.963 -0.7243  0.0482  0.0202
  850MPD2    C412539   2.134   2.392  14.927 -0.6903  0.1855 -0.1813
  850MPD2    C512540   2.082   2.263  14.916  0.2722  0.2679  0.8593
  850MPD2     H12541   1.836   2.542  15.000 -0.8064 -0.0774 -2.6408
  850MPD2    H112542   2.240   2.408  14.910 -0.5010  0.8556  1.6754
  850MPD2    H212543   1.913   2.134  14.901  0.1968  0.7099 -1.2478
  850MPD2    H312544   2.151   2.184  14.889 -2.7089 -1.6519 -1.0236
  850MPD2     N12545   2.102   2.623  14.980  0.3237 -0.6812  0.3014
  850MPD2    H512546   2.198   2.647  14.958 -0.1343 -0.5287 -1.5024
  850MPD2    N112547   1.721   2.306  14.956  0.3522 -0.1727  0.3957
  850MPD2    H712548   1.702   2.207  14.941  1.4899  0.1301 -2.9881
  851MPD2     C12549   1.621   1.724  15.028 -0.5378  0.4323  0.0965
  851MPD2    C112550   1.506   1.769  14.972 -0.3709  0.0624 -0.4964
  851MPD2    C212551   1.408   1.677  14.942 -0.9123  0.1434 -0.4884
  851MPD2    C312552   1.428   1.539  14.967 -0.5280 -0.4124 -0.4473
  851MPD2    C412553   1.551   1.492  15.015 -0.2424  0.4786  0.1687
  851MPD2    C512554   1.639   1.591  15.048  0.2698 -0.2539  0.4647
  851MPD2     H12555   1.311   1.699  14.900 -0.2853 -1.2136 -2.6486
  851MPD2    H112556   1.582   1.391  15.041 -0.7405  0.6734  1.5362
  851MPD2    H212557   1.696   1.799  15.050 -0.5141 -0.4386  2.9502
  851MPD2    H312558   1.735   1.561  15.088 -0.3404 -0.3192  1.8614
  851MPD2     N12559   1.327   1.453  14.922  0.4406 -0.4440 -0.1187
  851MPD2    H512560   1.237   1.493  14.899 -0.0887 -1.0377  0.9502
  851MPD2    N112561   1.481   1.906  14.971  0.0018  0.3537 -0.2889
  851MPD2    H712562   1.562   1.962  14.996  0.4420 -0.7364  0.7118
  852MPD2     C12563   0.785   1.097  10.619  0.0608 -1.0072 -0.3014
  852MPD2    C112564   0.901   1.114  10.694 -0.4225  0.1213 -0.2991
  852MPD2    C212565   1.018   1.148  10.624  0.7105  0.0463 -0.0409
  852MPD2    C312566   1.031   1.151  10.487 -0.4490  0.3337  0.2660
  852MPD2    C412567   0.912   1.129  10.420 -0.5463 -0.8449 -0.6150
  852MPD2    C512568   0.792   1.101  10.485  1.3601  0.3419 -0.2795
  852MPD2     H12569   1.110   1.145  10.681  1.2416  0.9461 -0.8511
  852MPD2    H112570   0.919   1.136  10.312 -1.8977 -0.4388 -0.6819
  852MPD2    H212571   0.687   1.076  10.660  0.4001  2.9565  2.5515
  852MPD2    H312572   0.699   1.087  10.429  0.9792 -0.6463  0.6030
  852MPD2     N12573   1.146   1.202  10.431 -0.1260  0.0394 -0.0012
  852MPD2    H512574   1.210   1.241  10.500 -1.5445  2.1099  0.1173
  852MPD2    N112575   0.907   1.124  10.836 -0.2479  0.8395 -0.0236
  852MPD2    H712576   1.000   1.144  10.872  0.5664 -0.3058 -1.5098
  853MPD2     C12577   2.612   0.719  12.146  0.2747  0.6962 -0.4796
  853MPD2    C112578   2.731   0.650  12.145  0.0352  0.2720  0.4379
  853MPD2    C212579   2.759   0.562  12.047 -0.2844 -0.7502 -0.0742
  853MPD2    C312580   2.676   0.544  11.943 -0.0200 -0.3199 -0.0646
  853MPD2    C412581   2.553   0.610  11.944  0.5820 -0.3527  0.6982
  853MPD2    C512582   2.521   0.698  12.046  0.4183 -0.0444 -0.6243
  853MPD2     H12583   2.857   0.515  12.044  0.2186  0.2261  1.0583
  853MPD2    H112584   2.480   0.596  11.864  0.2587 -0.9572  1.1019
  853MPD2    H212585   2.580   0.785  12.226  1.4249  0.5720  0.0861
  853MPD2    H312586   2.423   0.745  12.046 -0.5513 -2.0891 -0.5247
  853MPD2     N12587   2.699   0.469  11.826 -0.2039 -0.2813 -0.0492
  853MPD2    H512588   2.618   0.478  11.766  0.6135 -0.1722 -1.1232
  853MPD2    N112589   2.811   0.661  12.261 -0.2480  0.0136 -0.4701
  853MPD2    H712590   2.774   0.726  12.329 -1.1770 -1.2420  0.2119
  854MPD2     C12591   4.350   0.816  12.833  0.3305  0.6912 -0.1085
  854MPD2    C112592   4.480   0.811  12.791 -0.6968 -0.6800  0.4376
  854MPD2    C212593   4.566   0.737  12.874  0.0774 -0.9319 -0.7195
  854MPD2    C312594   4.531   0.695  12.998 -0.0222  0.1788  0.1027
  854MPD2    C412595   4.407   0.712  13.046  0.3721 -0.6299 -0.6994
  854MPD2    C512596   4.320   0.774  12.960 -0.5183 -0.0106  0.2680
  854MPD2     H12597   4.660   0.704  12.831  1.5111  0.7237  1.1129
  854MPD2    H112598   4.372   0.668  13.139  1.0715  0.2541 -0.0275
  854MPD2    H212599   4.270   0.873  12.787  0.3468  1.2462  0.5519
  854MPD2    H312600   4.223   0.796  13.004 -0.5399  0.6630 -0.1139
  854MPD2     N12601   4.635   0.617  13.057 -0.4877  0.5271  0.2743
  854MPD2    H512602   4.728   0.612  13.015 -0.8862 -1.0439 -0.4336
  854MPD2    N112603   4.515   0.877  12.668  0.3760  0.5195  0.0211
  854MPD2    H712604   4.437   0.919  12.618  1.4831  1.6791 -0.7426
  855MPD2     C12605   0.368   0.409  13.943  0.1574 -0.3930  0.0803
  855MPD2    C112606   0.322   0.296  13.880 -0.0103  0.3273  0.3691
  855MPD2    C212607   0.282   0.298  13.749 -0.0590  0.5926  0.4891
  855MPD2    C312608   0.283   0.416  13.674  0.0777  0.1992  0.3864
  855MPD2    C412609   0.342   0.531  13.737  0.6084  0.0610 -0.0371
  855MPD2    C512610   0.366   0.526  13.874 -0.4550 -0.5232 -0.4075
  855MPD2     H12611   0.246   0.207  13.704  0.1552 -0.6376  2.8056
  855MPD2    H112612   0.352   0.625  13.684 -1.3823  2.3838  3.5871
  855MPD2    H212613   0.412   0.405  14.042 -1.3687 -1.9337  0.6942
  855MPD2    H312614   0.394   0.619  13.922  0.3881 -0.4980 -0.9599
  855MPD2     N12615   0.248   0.432  13.540 -0.0759 -0.4770  0.2058
  855MPD2    H512616   0.250   0.528  13.506  1.5660 -0.1129  1.3429
  855MPD2    N112617   0.315   0.169  13.942 -0.2919  0.3654 -0.0469
  855MPD2    H712618   0.259   0.099  13.894  0.5838 -0.7415  0.5494
  856MPD2     C12619   2.370   1.214  13.344  0.2270 -0.2375  0.2298
  856MPD2    C112620   2.430   1.314  13.414 -0.2026 -0.6066  0.0852
  856MPD2    C212621   2.387   1.440  13.398  0.0445  0.4443  0.3457
  856MPD2    C312622   2.266   1.459  13.328  0.5505  0.9044 -0.4795
  856MPD2    C412623   2.201   1.352  13.271 -0.2767  0.1193  0.7748
  856MPD2    C512624   2.258   1.230  13.270  0.6315 -0.0571 -0.1390
  856MPD2     H12625   2.432   1.523  13.451 -0.5313  0.6176  0.5562
  856MPD2    H112626   2.107   1.372  13.220  0.3029  0.1219 -0.2813
  856MPD2    H212627   2.420   1.118  13.329  2.0502  0.6521  0.6306
  856MPD2    H312628   2.215   1.148  13.213  1.6753 -0.9860  0.3965
  856MPD2     N12629   2.206   1.585  13.313 -0.0034  0.4384 -0.3323
  856MPD2    H512630   2.111   1.605  13.285  0.1453  2.3053  0.4447
  856MPD2    N112631   2.530   1.290  13.511 -0.4056  0.2538  0.6244
  856MPD2    H712632   2.553   1.361  13.581  3.9140  0.8113 -1.3397
  857MPD2     C12633   3.917   3.817  12.522  0.5087  0.2907 -0.7422
  857MPD2    C112634   4.013   3.793  12.616 -0.9544  0.3266  0.2947
  857MPD2    C212635   4.089   3.899  12.651 -0.0911  0.0821 -0.1708
  857MPD2    C312636   4.079   4.019  12.586 -0.5528 -0.2096  0.1429
  857MPD2    C412637   4.000   4.041  12.482 -0.6500  1.0545 -0.3008
  857MPD2    C512638   3.915   3.938  12.457  0.0080  0.4301 -0.2543
  857MPD2     H12639   4.169   3.878  12.722 -0.5278  1.8006  0.8364
  857MPD2    H112640   3.987   4.131  12.424 -1.0395  1.7320  0.8523
  857MPD2    H212641   3.848   3.745  12.481  0.3705  1.4799 -2.5972
  857MPD2    H312642   3.841   3.947  12.378 -1.8360  1.1184  1.5416
  857MPD2     N12643   4.170   4.123  12.630  0.2098 -0.4651  0.4829
  857MPD2    H512644   4.239   4.088  12.696  0.1582 -1.5242 -0.0206
  857MPD2    N112645   4.021   3.661  12.679  0.8009  0.5829 -0.2828
  857MPD2    H712646   3.958   3.587  12.647 -0.3557  0.7014  1.6750
  858MPD2     C12647   3.972   2.325  16.614  0.1137  0.5257  0.3412
  858MPD2    C112648   4.111   2.337  16.623 -0.1003  0.5366  0.0119
  858MPD2    C212649   4.167   2.416  16.723  0.0261 -0.1213 -0.3914
  858MPD2    C312650   4.095   2.487  16.810  0.0765 -0.0331 -0.5442
  858MPD2    C412651   3.959   2.480  16.792 -0.9361 -0.0679  0.4265
  858MPD2    C512652   3.897   2.397  16.702 -0.0034  0.2622 -0.0756
  858MPD2     H12653   4.274   2.415  16.737 -0.2468 -1.2664  1.6393
  858MPD2    H112654   3.904   2.561  16.839 -2.6323 -0.3336 -1.1154
  858MPD2    H212655   3.918   2.257  16.549  1.8846 -0.4337 -0.1232
  858MPD2    H312656   3.789   2.392  16.703 -0.1091  2.7107  0.6046
  858MPD2     N12657   4.142   2.573  16.910 -0.3031 -0.3776 -0.7247
  858MPD2    H512658   4.070   2.615  16.967 -0.9937 -1.1441 -1.0324
  858MPD2    N112659   4.189   2.256  16.538 -0.0333 -0.2016  0.5658
  858MPD2    H712660   4.145   2.190  16.475  0.1790  1.0565 -0.8908
  859MPD2     C12661   3.854   4.264  15.633 -0.2283  0.3386  0.0867
  859MPD2    C112662   3.848   4.258  15.495 -0.8700  0.3441  0.3989
  859MPD2    C212663   3.874   4.143  15.427 -0.1370  0.2822 -0.9976
  859MPD2    C312664   3.900   4.026  15.493  0.1509 -1.1619 -0.8347
  859MPD2    C412665   3.910   4.032  15.629  0.5559 -0.6021  0.5809
  859MPD2    C512666   3.889   4.148  15.701 -0.5261 -0.0397 -0.4581
  859MPD2     H12667   3.866   4.142  15.319 -0.6993 -1.6078 -0.9355
  859MPD2    H112668   3.939   3.951  15.695 -0.5583  0.1145  1.9478
  859MPD2    H212669   3.833   4.358  15.682  0.0129  0.0734  0.7073
  859MPD2    H312670   3.908   4.146  15.808 -0.3673  2.7643 -0.4394
  859MPD2     N12671   3.921   3.898  15.432 -0.3710  0.5690 -0.2184
  859MPD2    H512672   3.939   3.819  15.493 -1.5075  1.6442  1.4946
  859MPD2    N112673   3.829   4.378  15.432 -0.1331 -0.4213 -0.0839
  859MPD2    H712674   3.829   4.460  15.492 -2.6226 -0.6473  0.2264
  860MPD2     C12675   0.858   0.135  11.976 -0.0278 -0.1853 -0.6777
  860MPD2    C112676   0.825   0.118  12.112  0.8495 -0.3797 -0.8163
  860MPD2    C212677   0.697   0.088  12.151  0.0974 -0.6910  0.1131
  860MPD2    C312678   0.597   0.068  12.059 -0.1586  0.1292  0.6087
  860MPD2    C412679   0.629   0.076  11.927  0.7548 -0.0484 -0.2614
  860MPD2    C512680   0.759   0.106  11.887  0.6195  0.0483 -0.2548
  860MPD2     H12681   0.679   0.078  12.257  1.4841  0.5868  0.4667
  860MPD2    H112682   0.556   0.064  11.849  0.3336 -0.9629  0.2711
  860MPD2    H212683   0.952   0.171  11.937 -0.1307  0.5772 -0.2072
  860MPD2    H312684   0.781   0.103  11.781 -4.5045  0.9609 -1.3392
  860MPD2     N12685   0.481   0.007  12.107  0.1904  0.3588 -0.3725
  860MPD2    H512686   0.469   4.721  12.204  0.7097  1.0701 -0.1136
  860MPD2    N112687   0.927   0.145  12.208 -0.2257 -0.7012  0.6555
  860MPD2    H712688   0.893   0.146  12.304 -0.9734 -1.7132  0.4069
  861MPD2     C12689   0.111   2.759  11.101 -0.0707  0.3452 -0.3236
  861MPD2    C112690   0.087   2.892  11.084 -0.1520  0.6968  0.2616
  861MPD2    C212691   0.026   2.935  10.971  0.0603  0.2678 -0.5315
  861MPD2    C312692   4.714   2.849  10.875 -0.2638 -0.1686  0.1172
  861MPD2    C412693   4.732   2.713  10.897 -0.4968  0.3252 -0.0510
  861MPD2    C512694   0.074   2.670  11.004  0.4633 -0.3363 -0.0916
  861MPD2     H12695   0.010   3.042  10.971  2.1417  0.5741 -0.0112
  861MPD2    H112696   4.707   2.641  10.820  0.8944 -1.8155  1.5139
  861MPD2    H212697   0.174   2.716  11.177 -0.4466 -0.8240 -0.6733
  861MPD2    H312698   0.112   2.568  11.002 -1.6432 -1.0984 -1.7628
  861MPD2     N12699   4.632   2.896  10.762  0.2773 -0.1219  0.4771
  861MPD2    H512700   4.608   2.827  10.691 -1.3838  0.3006  0.6280
  861MPD2    N112701   0.146   2.993  11.164  0.1849 -0.4249  0.1151
  861MPD2    H712702   0.121   3.091  11.156 -1.2551 -0.8230 -0.3041
  862MPD2     C12703   3.915   2.842  10.533 -0.0923 -0.1149 -0.6200
  862MPD2    C112704   3.966   2.881  10.655 -0.2940  0.4916 -0.6027
  862MPD2    C212705   3.898   2.868  10.775 -0.6431  0.2745  0.3964
  862MPD2    C312706   3.766   2.834  10.776  0.2007 -0.3575 -0.5940
  862MPD2    C412707   3.712   2.796  10.653  0.0936 -0.0934  0.2181
  862MPD2    C512708   3.786   2.794  10.534  0.5660 -0.0555 -0.6902
  862MPD2     H12709   3.939   2.922  10.860  2.0606  1.1530 -1.4714
  862MPD2    H112710   3.618   2.741  10.653  0.4471 -0.7151 -2.1066
  862MPD2    H212711   3.975   2.835  10.443 -0.7104  1.3229 -1.1551
  862MPD2    H312712   3.747   2.746  10.445 -1.7858 -0.0167  0.3200
  862MPD2     N12713   3.686   2.879  10.882 -0.0741 -0.0869 -0.9743
  862MPD2    H512714   3.744   2.919  10.956  2.3942 -2.8058 -1.4192
  862MPD2    N112715   4.096   2.946  10.659  0.2212  0.1877 -0.2066
  862MPD2    H712716   4.122   2.976  10.753  0.0111  1.5675 -0.5852
  863MPD2     C12717   2.649   1.247  16.635 -0.1214  0.9338 -0.1656
  863MPD2    C112718   2.730   1.361  16.632 -0.7117  0.3956 -0.0929
  863MPD2    C212719   2.829   1.381  16.726  0.0790 -0.8809  0.5469
  863MPD2    C312720   2.853   1.289  16.827  0.3830 -0.2404 -0.0764
  863MPD2    C412721   2.764   1.182  16.831  0.0327 -0.2256  0.5051
  863MPD2    C512722   2.670   1.158  16.735 -0.3357 -0.0614 -0.2379
  863MPD2     H12723   2.899   1.463  16.718 -0.9518 -0.1675 -1.0959
  863MPD2    H112724   2.775   1.108  16.909  2.5817  0.7017  1.0192
  863MPD2    H212725   2.574   1.230  16.559  0.6419  0.3014 -0.7657
  863MPD2    H312726   2.603   1.073  16.741 -2.3816  1.7022  2.0958
  863MPD2     N12727   2.961   1.304  16.925 -0.2037  0.4151  0.6488
  863MPD2    H512728   2.973   1.224  16.985 -0.0872  1.6049  2.2039
  863MPD2    N112729   2.694   1.467  16.545 -0.3701  0.2960 -0.7343
  863MPD2    H712730   2.624   1.449  16.474 -0.0018 -0.3577 -0.9345
  864MPD2     C12731   3.335   2.527  16.838 -0.4115  0.9571  0.1320
  864MPD2    C112732   3.457   2.527  16.906 -0.3472 -0.9147  0.5999
  864MPD2    C212733   3.544   2.636  16.908  0.5230 -0.2804 -0.8485
  864MPD2    C312734   3.484   2.754  16.860  0.1251  0.0644  0.5231
  864MPD2    C412735   3.354   2.766  16.816 -0.4088  0.7060 -0.4828
  864MPD2    C512736   3.283   2.650  16.805 -0.2367 -0.1088 -0.1820
  864MPD2     H12737   3.644   2.626  16.948  0.0990 -1.0218  0.0352
  864MPD2    H112738   3.306   2.862  16.798  0.5993  1.5995  1.5975
  864MPD2    H212739   3.268   2.443  16.826  0.7545  0.4346 -2.7201
  864MPD2    H312740   3.185   2.654  16.760  0.8987 -0.9790 -2.7355
  864MPD2     N12741   3.556   2.871  16.839 -0.0983  0.2301 -0.0990
  864MPD2    H512742   3.515   2.950  16.790  0.2740  0.7987  0.5032
  864MPD2    N112743   3.493   2.395  16.945 -0.5145  0.2755 -0.0059
  864MPD2    H712744   3.437   2.318  16.910  0.1988  0.3967 -1.4153
  865MPD2     C12745   3.876   3.121  16.048  0.4741 -0.3652  0.0244
  865MPD2    C112746   3.831   3.021  16.131  0.0626 -0.0173  0.5589
  865MPD2    C212747   3.777   3.058  16.256  0.1046  0.1115  0.2485
  865MPD2    C312748   3.783   3.185  16.303  0.4068  1.0383  0.3446
  865MPD2    C412749   3.846   3.277  16.220  0.0944  0.1946  0.0157
  865MPD2    C512750   3.886   3.247  16.094 -0.6397 -0.2931 -0.0026
  865MPD2     H12751   3.741   2.981  16.325  1.8639  0.2179  1.2868
  865MPD2    H112752   3.857   3.383  16.244  0.0325  1.1042 -4.1055
  865MPD2    H212753   3.932   3.101  15.957  1.6317 -0.5688  0.7745
  865MPD2    H312754   3.918   3.325  16.026  0.4043 -0.0904  0.7245
  865MPD2     N12755   3.747   3.223  16.437  0.2017 -0.2224 -0.2456
  865MPD2    H512756   3.765   3.319  16.463 -0.7575  0.0428 -0.5684
  865MPD2    N112757   3.843   2.888  16.087  0.0279  0.5772  0.5352
  865MPD2    H712758   3.864   2.885  15.988  0.0596  2.6327  0.4750
  866MPD2     C12759   0.882   3.769  11.184  0.3757 -0.5954 -0.5825
  866MPD2    C112760   0.840   3.635  11.201 -0.4746  0.1450  0.5097
  866MPD2    C212761   0.701   3.610  11.185 -0.7438  0.3915  0.9205
  866MPD2    C312762   0.614   3.713  11.152 -0.2288 -0.0725 -0.3846
  866MPD2    C412763   0.665   3.841  11.129 -0.0925 -0.6551  0.5643
  866MPD2    C512764   0.793   3.871  11.146 -0.0889 -0.2189 -0.1473
  866MPD2     H12765   0.655   3.513  11.194  1.3836 -0.7923 -0.8846
  866MPD2    H112766   0.601   3.921  11.094 -1.4107 -1.0084  2.1635
  866MPD2    H212767   0.988   3.788  11.173  0.5121 -0.7371  0.4840
  866MPD2    H312768   0.822   3.972  11.117 -0.6548 -0.0371 -0.0779
  866MPD2     N12769   0.469   3.698  11.142 -0.0013 -0.2053  0.9793
  866MPD2    H512770   0.427   3.784  11.108 -0.3665 -0.2698  1.2667
  866MPD2    N112771   0.929   3.527  11.228 -0.1219 -0.1435  0.0133
  866MPD2    H712772   1.027   3.544  11.208 -0.0043 -0.8223  0.0092
  867MPD2     C12773   2.142   2.655  16.172  0.2413 -0.0726  0.1880
  867MPD2    C112774   2.193   2.647  16.308  0.1593  0.4108 -0.5424
  867MPD2    C212775   2.169   2.747  16.403 -0.3900 -0.2963  0.3594
  867MPD2    C312776   2.097   2.858  16.370  0.5080  0.5045 -0.6530
  867MPD2    C412777   2.058   2.872  16.235  0.1565 -0.2865 -0.3552
  867MPD2    C512778   2.079   2.774  16.141  0.0971 -0.0349  0.5377
  867MPD2     H12779   2.217   2.743  16.500  1.9578 -0.6771 -0.8141
  867MPD2    H112780   2.008   2.965  16.213 -0.7035 -0.6077  0.2331
  867MPD2    H212781   2.141   2.578  16.096  0.8217  1.4995 -1.4192
  867MPD2    H312782   2.048   2.797  16.040  1.0511 -2.7453 -0.3717
  867MPD2     N12783   2.076   2.962  16.454  0.9183  0.1202  0.1760
  867MPD2    H512784   2.020   3.041  16.423 -0.4064 -1.4977 -1.4936
  867MPD2    N112785   2.285   2.540  16.340  0.1409 -0.2790 -0.2807
  867MPD2    H712786   2.320   2.479  16.266  1.6199 -0.6690  0.7326
  868MPD2     C12787   3.916   2.213  13.084 -0.6731  0.2396 -0.3482
  868MPD2    C112788   4.012   2.219  13.190 -0.2505  0.3451 -0.2089
  868MPD2    C212789   3.962   2.212  13.319 -0.1262  0.3482  0.1051
  868MPD2    C312790   3.824   2.200  13.341  0.0596  0.7864 -0.3497
  868MPD2    C412791   3.738   2.200  13.238  0.7078  0.3023 -0.4166
  868MPD2    C512792   3.781   2.207  13.103 -0.1314 -0.3582 -0.3823
  868MPD2     H12793   4.027   2.224  13.405  0.9929 -0.2281 -0.6625
  868MPD2    H112794   3.631   2.207  13.249  0.3153 -1.5295 -2.9193
  868MPD2    H212795   3.945   2.228  12.981  1.9647 -2.1810  0.0343
  868MPD2    H312796   3.701   2.218  13.031 -0.3776 -3.4635 -0.6109
  868MPD2     N12797   3.786   2.180  13.474  0.5038 -0.1818  0.1122
  868MPD2    H512798   3.861   2.161  13.539  1.3223 -0.2477 -0.8441
  868MPD2    N112799   4.155   2.214  13.172  0.7233  0.6409  0.9020
  868MPD2    H712800   4.181   2.222  13.074 -1.0336  2.4238  0.5953
  869MPD2     C12801   2.294   1.038   1.030 -0.5073  0.4231  0.3694
  869MPD2    C112802   2.178   1.025   1.099 -0.3063  0.6556  0.3153
  869MPD2    C212803   2.071   0.976   1.033  0.3478 -0.5586 -0.8013
  869MPD2    C312804   2.069   0.939   0.893  0.5951 -0.2766  1.0551
  869MPD2    C412805   2.185   0.972   0.821 -0.3397  0.6894 -0.4069
  869MPD2    C512806   2.292   1.023   0.894 -0.2800 -0.4206 -0.4130
  869MPD2     H12807   1.983   0.959   1.094  0.9578  0.1225  0.2443
  869MPD2    H112808   2.188   0.953   0.714  2.2492  0.4483 -0.2773
  869MPD2    H212809   2.385   1.073   1.078  0.8178 -0.3082 -1.6213
  869MPD2    H312810   2.388   1.040   0.846 -0.3747 -1.5806 -1.0188
  869MPD2     N12811   1.956   0.876   0.826  0.2818 -0.1529 -0.4171
  869MPD2    H512812   1.972   0.852   0.729  2.3898  0.1658 -0.1607
  869MPD2    N112813   2.178   1.054   1.239 -0.4791 -0.2625 -0.1786
  869MPD2    H712814   2.266   1.070   1.288 -0.5777  1.1705 -0.4671
  870MPD2     C12815   0.928   3.434   1.143  0.3530  0.1137 -0.0778
  870MPD2    C112816   0.840   3.405   1.036 -0.4290  0.3127  0.4072
  870MPD2    C212817   0.728   3.481   1.015 -0.5290 -0.8320  0.5965
  870MPD2    C312818   0.707   3.595   1.092 -0.0950  0.1304  0.1045
  870MPD2    C412819   0.793   3.616   1.197  0.7816 -0.7560  0.1333
  870MPD2    C512820   0.904   3.543   1.223 -0.9982  0.2446 -0.1317
  870MPD2     H12821   0.650   3.451   0.946 -0.1899  0.2444 -0.2678
  870MPD2    H112822   0.787   3.698   1.268  2.3586 -0.2996 -0.2709
  870MPD2    H212823   1.017   3.376   1.165  2.8470  3.8501 -0.3912
  870MPD2    H312824   0.966   3.584   1.303 -2.6241  1.5086  0.4920
  870MPD2     N12825   0.614   3.692   1.050  0.0707  0.2008 -0.0664
  870MPD2    H512826   0.549   3.675   0.973 -0.4689 -1.9548  0.8550
  870MPD2    N112827   0.863   3.294   0.953 -0.4169  0.5209  0.1312
  870MPD2    H712828   0.940   3.233   0.978 -0.6488  0.3383  0.3958
  871MPD2     C12829   1.379   2.758  16.040  0.0464  0.1455  0.0182
  871MPD2    C112830   1.351   2.701  16.166 -0.3837 -0.5137 -0.2785
  871MPD2    C212831   1.370   2.562  16.171 -0.3805  0.3808  0.4404
  871MPD2    C312832   1.406   2.497  16.055 -0.2066  0.0199  0.6168
  871MPD2    C412833   1.431   2.561  15.939  0.6816 -0.0066 -0.0297
  871MPD2    C512834   1.420   2.692  15.930 -0.4938 -0.1445  0.3761
  871MPD2     H12835   1.359   2.508  16.264  0.0603 -0.3590  0.0673
  871MPD2    H112836   1.430   2.497  15.851  0.4331 -1.9410  1.3595
  871MPD2    H212837   1.353   2.863  16.030  1.3414  0.4927  0.2273
  871MPD2    H312838   1.435   2.742  15.835  1.9579 -0.0254  0.8402
  871MPD2     N12839   1.449   2.359  16.075 -0.0475  0.2926  0.3254
  871MPD2    H512840   1.423   2.313  16.162 -0.3003 -0.2327 -0.0286
  871MPD2    N112841   1.295   2.780  16.265  0.0768  0.0977  0.0954
  871MPD2    H712842   1.296   2.882  16.267  1.7633  0.1170 -2.2541
  872MPD2     C12843   2.398   0.326  13.662 -0.0259 -0.2547  0.2828
  872MPD2    C112844   2.474   0.441  13.680  0.0958  0.0736  1.0555
  872MPD2    C212845   2.439   0.521  13.785  0.0859  0.5005  0.7563
  872MPD2    C312846   2.316   0.500  13.854  0.6095 -0.4718 -0.8811
  872MPD2    C412847   2.250   0.382  13.843  0.2342  0.0713 -0.1714
  872MPD2    C512848   2.282   0.303  13.736 -0.7889 -0.3659 -0.0798
  872MPD2     H12849   2.501   0.607  13.807  0.6054  0.4724 -0.6338
  872MPD2    H112850   2.169   0.347  13.906  1.3848  2.7050  2.7857
  872MPD2    H212851   2.433   0.248  13.595  0.2760  1.7175 -1.8608
  872MPD2    H312852   2.220   0.216  13.718 -2.9988  1.2979 -0.4873
  872MPD2     N12853   2.272   0.580  13.960  0.0622 -0.1579  0.5189
  872MPD2    H512854   2.191   0.547  14.011 -1.0543 -0.1235 -1.2298
  872MPD2    N112855   2.593   0.459  13.609 -0.2110  0.2410  0.2540
  872MPD2    H712856   2.640   0.548  13.621 -0.3631  0.2475  0.7848
  873MPD2     C12857   4.524   0.081   0.755 -0.2591 -0.2103 -0.3073
  873MPD2    C112858   4.411   0.090   0.841 -0.6943  0.6668 -0.6266
  873MPD2    C212859   4.311   4.730   0.844  0.3442 -0.2710  0.1621
  873MPD2    C312860   4.316   4.616   0.759 -0.8135 -0.4885  0.3055
  873MPD2    C412861   4.419   4.616   0.661 -0.2404 -0.4742 -0.2924
  873MPD2    C512862   4.525   4.706   0.674 -0.0274 -0.1889  0.0638
  873MPD2     H12863   4.219   0.001   0.900 -0.1482  0.3012 -0.7498
  873MPD2    H112864   4.436   4.526   0.603  0.4423  0.2252 -1.1650
  873MPD2    H212865   4.604   0.154   0.756 -1.1842  0.8147 -0.9434
  873MPD2    H312866   4.622   4.692   0.627  0.3123  2.0318  0.1189
  873MPD2     N12867   4.223   4.507   0.744 -0.0126 -0.3917 -0.7958
  873MPD2    H512868   4.244   4.435   0.676 -1.4561 -3.2583  1.7615
  873MPD2    N112869   4.397   0.214   0.911  0.1879 -0.2122  0.1607
  873MPD2    H712870   4.477   0.276   0.919 -0.7977  0.9406  1.0032
  874MPD2     C12871   3.570   0.628  16.284  0.4484 -0.2901 -0.0899
  874MPD2    C112872   3.655   0.601  16.386  0.3295 -0.2402 -0.2045
  874MPD2    C212873   3.778   0.657  16.374 -0.4698  0.3705 -0.1429
  874MPD2    C312874   3.811   0.743  16.270 -0.4832 -0.4012  0.2390
  874MPD2    C412875   3.725   0.760  16.162  0.3677 -0.5323  0.0019
  874MPD2    C512876   3.602   0.705  16.171 -0.2078  0.8890  0.2698
  874MPD2     H12877   3.859   0.623  16.438 -1.7656 -1.7532  0.3839
  874MPD2    H112878   3.741   0.843  16.094 -0.1953  0.9978  1.7343
  874MPD2    H212879   3.478   0.572  16.276 -0.2482  0.8818 -0.3707
  874MPD2    H312880   3.528   0.724  16.094 -0.6331  2.2385  1.0139
  874MPD2     N12881   3.935   0.809  16.278  0.0109  0.1838  0.7224
  874MPD2    H512882   3.975   0.807  16.371  1.5973  0.4977  0.0566
  874MPD2    N112883   3.615   0.520  16.492  0.2667  0.3669  0.3312
  874MPD2    H712884   3.518   0.491  16.490  0.6079 -0.6595 -2.0060
  875MPD2     C12885   4.573   3.229  14.849  0.5091  0.7081  0.2694
  875MPD2    C112886   4.581   3.357  14.790 -0.2597  0.3086  0.0388
  875MPD2    C212887   4.602   3.470  14.869  0.4587  0.0825 -0.0666
  875MPD2    C312888   4.622   3.456  15.002  0.3702 -0.3957  0.1166
  875MPD2    C412889   4.603   3.333  15.059 -0.9357  0.3313 -0.0085
  875MPD2    C512890   4.573   3.220  14.982 -0.4176 -0.6627 -0.8385
  875MPD2     H12891   4.599   3.567  14.822 -1.0129  0.2947  0.4410
  875MPD2    H112892   4.627   3.319  15.164  0.5934  2.2163 -0.1204
  875MPD2    H212893   4.573   3.137  14.792  1.6058 -0.4490  2.1696
  875MPD2    H312894   4.574   3.124  15.033 -0.5434  0.0479  0.5227
  875MPD2     N12895   4.658   3.568  15.090 -0.6771 -0.2146 -0.5775
  875MPD2    H512896   4.677   3.544  15.187 -0.6293 -0.0914 -0.5562
  875MPD2    N112897   4.553   3.382  14.651 -0.0234  0.5091 -0.3174
  875MPD2    H712898   4.563   3.475  14.612  2.7122  0.6676  0.8156
  876MPD2     C12899   3.346   0.299  16.231 -0.0383 -0.4683 -0.4073
  876MPD2    C112900   3.449   0.250  16.151 -0.2964  0.0435  0.5919
  876MPD2    C212901   3.509   0.127  16.183  0.6169 -0.8146  1.3966
  876MPD2    C312902   3.448   0.044  16.280  0.1900  0.5588  0.4076
  876MPD2    C412903   3.335   0.094  16.346 -0.5301  1.1811  0.3512
  876MPD2    C512904   3.291   0.221  16.330  0.3307  0.1418  0.2334
  876MPD2     H12905   3.586   0.085  16.119 -0.3102  0.9274 -0.8618
  876MPD2    H112906   3.289   0.030  16.421  3.1778 -1.2060  0.6271
  876MPD2    H212907   3.308   0.400  16.218  3.9208  0.9337 -1.0439
  876MPD2    H312908   3.205   0.256  16.387 -0.6949  0.2187 -1.3501
  876MPD2     N12909   3.481   4.648  16.290 -0.2537 -0.0856  0.0379
  876MPD2    H512910   3.569   4.622  16.247 -0.2979  1.4576 -1.0153
  876MPD2    N112911   3.491   0.335  16.046  1.0404 -0.9758  0.2968
  876MPD2    H712912   3.437   0.420  16.030 -0.7104 -2.2771 -0.6072
  877MPD2     C12913   3.384   0.571  15.317  0.8920  0.5878  0.5017
  877MPD2    C112914   3.502   0.505  15.332 -0.3461 -0.0431 -0.2509
  877MPD2    C212915   3.575   0.459  15.223 -0.3360  0.1755  0.3788
  877MPD2    C312916   3.514   0.464  15.102 -0.1275  0.1042  0.2972
  877MPD2    C412917   3.405   0.535  15.092 -0.1282 -0.0890  0.0656
  877MPD2    C512918   3.340   0.595  15.194  0.8977 -0.3044  0.5757
  877MPD2     H12919   3.668   0.407  15.242  1.0804  2.9681  0.9619
  877MPD2    H112920   3.363   0.545  14.993 -1.1720  1.1517  0.6318
  877MPD2    H212921   3.330   0.613  15.401  1.4641 -1.6185  1.9951
  877MPD2    H312922   3.248   0.650  15.175  0.2175 -1.6956 -0.1884
  877MPD2     N12923   3.550   0.404  14.982  0.2825  0.0696  0.9527
  877MPD2    H512924   3.485   0.425  14.906 -0.6294 -3.1440  0.8193
  877MPD2    N112925   3.558   0.498  15.459  0.0532  0.1162 -0.1155
  877MPD2    H712926   3.659   0.486  15.460  0.0131 -0.1711  0.4844
  878MPD2     C12927   3.899   4.586  13.087 -0.3737  0.4979  0.1157
  878MPD2    C112928   3.808   4.693  13.096  0.3314  0.3570  0.1690
  878MPD2    C212929   3.747   4.719  13.216 -0.0391 -0.5900  0.1273
  878MPD2    C312930   3.769   4.638  13.332  0.4325 -0.6395 -0.7382
  878MPD2    C412931   3.875   4.550  13.321  0.0909  0.3709  0.4316
  878MPD2    C512932   3.929   4.515  13.197  0.2458 -0.0699 -0.3046
  878MPD2     H12933   3.664   0.049  13.219  0.3817 -0.0238 -1.2500
  878MPD2    H112934   3.912   4.488  13.402 -0.7238 -1.7889 -0.8474
  878MPD2    H212935   3.943   4.560  12.991  0.9936  0.1088  0.8506
  878MPD2    H312936   3.993   4.428  13.207  1.0284  0.3877 -1.2629
  878MPD2     N12937   3.693   4.664  13.450  0.1428  0.4251  0.0246
  878MPD2    H512938   3.626   0.001  13.456  0.6762  0.8889  0.0456
  878MPD2    N112939   3.785   0.029  12.980 -0.3888  0.2399  0.3976
  878MPD2    H712940   3.834   4.734  12.898 -1.2076 -1.6483  0.6915
  879MPD2     C12941   3.669   1.695  17.138 -0.4102 -0.1292  0.2722
  879MPD2    C112942   3.753   1.590  17.164 -0.3907 -0.3399  0.0187
  879MPD2    C212943   3.752   1.476  17.083 -0.1825  0.3022  0.6581
  879MPD2    C312944   3.667   1.461  16.979  0.3513 -0.2213 -0.0557
  879MPD2    C412945   3.586   1.559  16.952  0.6524 -0.2817  0.0234
  879MPD2    C512946   3.590   1.677  17.025  0.0608 -0.5495  0.4178
  879MPD2     H12947   3.818   1.393  17.108 -0.5982 -0.5114 -0.9647
  879MPD2    H112948   3.518   1.549  16.868  1.5608  0.7718 -0.8376
  879MPD2    H212949   3.667   1.787  17.195  1.2182 -1.4260  2.4472
  879MPD2    H312950   3.518   1.753  16.996  0.1353 -1.1605 -1.3603
  879MPD2     N12951   3.659   1.345  16.896 -0.3729 -0.0881  0.1700
  879MPD2    H512952   3.599   1.351  16.815  0.2056  3.0985 -0.0233
  879MPD2    N112953   3.838   1.606  17.273  0.3830  0.0381 -0.4933
  879MPD2    H712954   3.833   1.696  17.320  0.8346 -0.4925  0.5880
  880MPD2     C12955   0.447   3.004   0.175 -0.6674 -0.8991  0.3104
  880MPD2    C112956   0.537   3.104   0.171 -0.3267 -0.3864  0.4418
  880MPD2    C212957   0.674   3.084   0.205 -0.1771 -0.5083  0.3336
  880MPD2    C312958   0.716   2.956   0.242  0.2401  0.4798  0.1186
  880MPD2    C412959   0.614   2.858   0.251 -0.0247  0.2581  0.2961
  880MPD2    C512960   0.480   2.886   0.219  0.1202 -0.5646  0.0861
  880MPD2     H12961   0.739   3.170   0.196 -0.7041 -0.3651 -1.9498
  880MPD2    H112962   0.634   2.758   0.287  1.8996  0.7882  0.6909
  880MPD2    H212963   0.341   3.019   0.158 -0.7730  0.1549  1.9204
  880MPD2    H312964   0.405   2.812   0.245 -0.4062  0.0250  0.2281
  880MPD2     N12965   0.856   2.938   0.271  0.0352 -0.6248 -0.1943
  880MPD2    H512966   0.905   3.024   0.297 -0.9731 -0.3720  0.8845
  880MPD2    N112967   0.483   3.225   0.115 -0.3239  0.0601 -0.4579
  880MPD2    H712968   0.382   3.233   0.111 -0.1652  1.7584 -1.1911
  881MPD2     C12969   0.190   3.810  17.181 -0.1404 -0.6089 -0.4991
  881MPD2    C112970   0.235   3.676  17.187 -0.0417  0.8598  0.6108
  881MPD2    C212971   0.238   3.623  17.312 -0.6026  0.2429  0.0923
  881MPD2    C312972   0.169   3.687  17.419  0.2049  0.2513  0.0233
  881MPD2    C412973   0.118   3.814  17.405 -0.1101  0.2945 -0.7240
  881MPD2    C512974   0.133   3.876  17.287 -0.4554 -0.9029 -0.3517
  881MPD2     H12975   0.303   3.538  17.330  0.4066  0.7555 -1.1430
  881MPD2    H112976   0.077   3.865  17.492  2.9696  1.0337  0.3008
  881MPD2    H212977   0.215   3.874  17.097  1.8009  0.4656  0.8951
  881MPD2    H312978   0.112   3.981  17.276  0.2552 -0.4865  2.4097
  881MPD2     N12979   0.169   3.650  17.555  0.6806  0.1366  0.0146
  881MPD2    H512980   0.150   3.720  17.626 -0.5604 -0.2476  0.0574
  881MPD2    N112981   0.313   3.629  17.078  0.1759  0.1325 -0.4279
  881MPD2    H712982   0.318   3.683  16.992 -1.4949  1.3025  0.2170
  882MPD2     C12983   3.811   0.336  14.167 -1.0619 -0.3816 -0.1596
  882MPD2    C112984   3.772   0.390  14.282 -0.1005 -0.4103  0.4092
  882MPD2    C212985   3.657   0.468  14.288 -0.6745  0.3374  0.1005
  882MPD2    C312986   3.574   0.475  14.176 -0.2059 -0.8061 -0.3779
  882MPD2    C412987   3.615   0.412  14.061  0.5072  0.4729 -0.7928
  882MPD2    C512988   3.737   0.354  14.056  0.2577 -0.1983  0.3102
  882MPD2     H12989   3.624   0.512  14.382 -0.1750 -1.6951  1.2318
  882MPD2    H112990   3.555   0.417  13.971 -0.2733  3.7694 -0.0644
  882MPD2    H212991   3.898   0.272  14.165 -1.0245 -0.3624  0.8408
  882MPD2    H312992   3.753   0.301  13.963  1.8073 -0.6056  0.8005
  882MPD2     N12993   3.452   0.551  14.169  0.7534 -0.0585 -0.0756
  882MPD2    H512994   3.405   0.559  14.079  1.9248  0.9104 -0.6000
  882MPD2    N112995   3.843   0.351  14.397  0.4717  0.0508  0.1993
  882MPD2    H712996   3.906   0.272  14.390  0.5016  0.1883 -1.0955
  883MPD2     C12997   0.620   0.732  15.774 -0.3696  0.1510  0.0272
  883MPD2    C112998   0.707   0.700  15.673  0.0555  0.8152 -0.2971
  883MPD2    C212999   0.816   0.618  15.700  0.0162  0.5010 -0.9251
  883MPD2    C313000   0.833   0.558  15.826 -0.3442  0.0189 -0.2749
  883MPD2    C413001   0.741   0.589  15.923 -0.7521 -0.0926 -0.4961
  883MPD2    C513002   0.638   0.676  15.900  0.2048 -0.0488 -0.0160
  883MPD2     H13003   0.883   0.589  15.619 -0.8103  0.2137 -1.5063
  883MPD2    H113004   0.748   0.556  16.026 -2.2287 -2.9428 -1.3153
  883MPD2    H213005   0.529   0.789  15.756 -1.0983 -1.7164 -2.2560
  883MPD2    H313006   0.560   0.704  15.969  1.3717 -3.9128  2.8463
  883MPD2     N13007   0.931   0.457  15.838  0.1792  1.0949 -0.0584
  883MPD2    H513008   0.997   0.454  15.760  0.5675 -0.5886  0.3399
  883MPD2    N113009   0.691   0.759  15.539  0.2072  0.1647 -0.2210
  883MPD2    H713010   0.752   0.721  15.467 -1.0556  0.1633 -1.2768
  884MPD2     C13011   3.000   1.363  15.291 -0.2555 -0.3929  0.1363
  884MPD2    C113012   2.948   1.435  15.185 -0.4898 -0.4037 -0.6368
  884MPD2    C213013   2.837   1.514  15.212  0.1568  0.0815 -0.4302
  884MPD2    C313014   2.771   1.527  15.336  0.0925  0.4622 -0.1089
  884MPD2    C413015   2.835   1.459  15.440 -0.4241 -0.0395  0.3540
  884MPD2    C513016   2.942   1.374  15.416  0.8385 -0.4862 -0.4349
  884MPD2     H13017   2.803   1.575  15.129  0.3492 -0.3439 -0.8184
  884MPD2    H113018   2.786   1.450  15.536 -0.7613 -1.0367  0.0926
  884MPD2    H213019   3.067   1.278  15.291 -0.4327 -0.5311  0.0470
  884MPD2    H313020   2.977   1.311  15.497 -0.1195 -1.5747 -0.8688
  884MPD2     N13021   2.648   1.605  15.345 -0.6117 -0.2185  0.0541
  884MPD2    H513022   2.612   1.644  15.258  1.5940  1.0613 -0.2936
  884MPD2    N113023   2.990   1.418  15.052  0.0318 -0.1324 -0.4855
  884MPD2    H713024   2.952   1.487  14.988  0.7971 -0.4454 -1.2718
  885MPD2     C13025   1.120   2.360   0.013 -0.0324  0.0667 -0.0170
  885MPD2    C113026   1.100   2.238   0.076  0.7213  0.2347  0.2454
  885MPD2    C213027   1.066   2.124   0.004 -0.5220  0.2615 -0.3799
  885MPD2    C313028   1.022   2.143  17.627 -0.0836  0.2215  0.2692
  885MPD2    C413029   1.020   2.271  17.576 -0.1739  0.6068  0.1864
  885MPD2    C513030   1.078   2.380  17.638 -0.3842  0.0469 -0.2645
  885MPD2     H13031   1.063   2.028   0.056 -0.4429  0.0271 -0.8090
  885MPD2    H113032   0.974   2.287  17.479  1.1158  0.5900 -0.4350
  885MPD2    H213033   1.135   2.451   0.071  0.1845  1.9477 -3.0265
  885MPD2    H313034   1.057   2.478  17.597  0.4028 -0.1199 -1.0628
  885MPD2     N13035   0.987   2.035  17.540  0.4277 -0.0179  0.1119
  885MPD2    H513036   1.004   1.944  17.580  0.4108 -0.7701 -1.5972
  885MPD2    N113037   1.126   2.242   0.213 -0.2241 -0.3444 -0.0924
  885MPD2    H713038   1.136   2.336   0.248 -2.0677  0.6017 -2.1060
  886MPD2     C13039   2.449   4.558  15.381  0.3914 -0.6164 -0.3815
  886MPD2    C113040   2.520   4.601  15.491 -0.2260 -0.0450 -0.0102
  886MPD2    C213041   2.575   4.728  15.493 -0.6935  0.1335  0.2223
  886MPD2    C313042   2.549   0.080  15.391  0.3119 -0.4382 -0.4670
  886MPD2    C413043   2.486   0.036  15.274 -0.2155  0.0516 -0.2480
  886MPD2    C513044   2.441   4.647  15.278  0.1423  0.1661 -0.4784
  886MPD2     H13045   2.628   0.005  15.585  1.0362 -1.9641 -0.4048
  886MPD2    H113046   2.471   0.112  15.198  0.7322  0.6839  0.2082
  886MPD2    H213047   2.416   4.456  15.367  0.7115 -0.6667 -0.7851
  886MPD2    H313048   2.378   4.621  15.193  0.0860 -0.1508 -0.3363
  886MPD2     N13049   2.589   0.217  15.396  0.8572  0.7097 -0.7025
  886MPD2    H513050   2.561   0.275  15.318 -0.4353  0.8305 -0.1471
  886MPD2    N113051   2.567   4.523  15.603  0.7225  0.0993 -0.0075
  886MPD2    H713052   2.609   4.571  15.683 -1.4535  0.6734  0.7924
  887MPD2     C13053   3.058   4.655  16.028 -0.1580 -0.7089 -1.4708
  887MPD2    C113054   2.931   4.680  15.977  0.1282  0.1634 -0.1353
  887MPD2    C213055   2.907   0.072  15.946  0.2711  0.1070 -0.1282
  887MPD2    C313056   2.994   0.173  15.955  0.0381  0.7116 -0.4138
  887MPD2    C413057   3.123   0.154  16.006  0.2682  0.9301 -0.4842
  887MPD2    C513058   3.150   0.021  16.038  0.6362  0.8744  0.0471
  887MPD2     H13059   2.812   0.101  15.903 -0.4339 -1.9239  0.0792
  887MPD2    H113060   3.192   0.236  16.022  0.9754  0.2605 -0.1037
  887MPD2    H213061   3.095   4.558  16.059 -1.9192 -1.3835 -1.4626
  887MPD2    H313062   3.249   0.001  16.079  0.9325  1.1595 -0.5193
  887MPD2     N13063   2.953   0.300  15.909 -0.2411  0.0926  0.3382
  887MPD2    H513064   2.854   0.310  15.890 -0.0064 -0.8084 -1.3616
  887MPD2    N113065   2.841   4.578  15.935 -0.3580 -0.0956 -0.9999
  887MPD2    H713066   2.757   4.602  15.883  0.6204  2.5762 -1.3771
  888MPD2     C13067   4.390   4.591  14.737 -0.3156 -0.0265  0.1226
  888MPD2    C113068   4.431   4.633  14.865  0.0651 -0.0544  0.0492
  888MPD2    C213069   4.463   0.029  14.888 -0.4394 -0.1081  0.6335
  888MPD2    C313070   4.475   0.116  14.788  0.6704 -0.3683  0.1755
  888MPD2    C413071   4.436   0.073  14.663  0.2406  0.2161 -0.1821
  888MPD2    C513072   4.396   4.684  14.638  0.1403  0.2002  0.5271
  888MPD2     H13073   4.497   0.040  14.990 -0.4547 -0.2430  0.6538
  888MPD2    H113074   4.441   0.135  14.574 -1.6542 -3.0976 -2.6152
  888MPD2    H213075   4.378   4.490  14.702 -1.5605  0.9491 -2.2657
  888MPD2    H313076   4.353   4.662  14.541  0.2732  0.1314  0.4835
  888MPD2     N13077   4.529   0.241  14.819 -0.0130 -0.1158  0.1469
  888MPD2    H513078   4.533   0.256  14.919 -0.3041  4.0309 -0.4430
  888MPD2    N113079   4.448   4.543  14.973  0.0311  0.4529 -0.4979
  888MPD2    H713080   4.496   4.586  15.052 -1.8740  0.8675  0.4431
  889MPD2     C13081   4.247   4.389  13.297  0.0695  0.3024  0.8562
  889MPD2    C113082   4.249   4.493  13.211 -0.0021  0.6433 -0.4431
  889MPD2    C213083   4.243   4.628  13.264  0.0922  0.5004  0.6147
  889MPD2    C313084   4.234   4.646  13.399 -0.2223 -0.4288 -0.5883
  889MPD2    C413085   4.219   4.537  13.478  0.2255 -0.1845 -0.3681
  889MPD2    C513086   4.216   4.415  13.429 -0.3877 -0.5187  0.2269
  889MPD2     H13087   4.275   4.708  13.199 -0.0712 -1.3470 -1.7415
  889MPD2    H113088   4.202   4.547  13.585 -0.7061  2.1225 -0.7462
  889MPD2    H213089   4.238   4.287  13.262 -1.5026  0.4772  0.7712
  889MPD2    H313090   4.203   4.334  13.500  1.2444  0.0973  1.2343
  889MPD2     N13091   4.251   0.036  13.449 -0.5878  0.2622  0.4616
  889MPD2    H513092   4.247   0.106  13.375 -2.3271 -0.5996 -0.2492
  889MPD2    N113093   4.286   4.475  13.075  0.0643  0.5154  0.6084
  889MPD2    H713094   4.296   4.378  13.050 -0.2470  0.8498 -0.8016
  890MPD2     C13095   3.636   1.106  14.484 -0.2645 -0.3626 -0.7634
  890MPD2    C113096   3.756   1.166  14.518 -0.5185  0.6626  0.0753
  890MPD2    C213097   3.815   1.132  14.637  0.6029  0.3667  0.2123
  890MPD2    C313098   3.738   1.052  14.727  0.2121 -0.6321  0.1749
  890MPD2    C413099   3.616   0.996  14.696  0.0636 -0.1523  0.7390
  890MPD2    C513100   3.572   1.027  14.571  0.5764 -0.0753 -0.6438
  890MPD2     H13101   3.914   1.172  14.655 -0.3978  2.2757  1.4350
  890MPD2    H113102   3.570   0.931  14.770  0.7369 -0.7039  0.6680
  890MPD2    H213103   3.597   1.122  14.384  0.7063 -0.0938 -1.0913
  890MPD2    H313104   3.478   0.982  14.542  0.5128  1.3118 -2.5570
  890MPD2     N13105   3.797   1.033  14.855  0.4066  0.2470 -0.3730
  890MPD2    H513106   3.892   1.069  14.863  0.1748  0.8565 -0.4401
  890MPD2    N113107   3.806   1.252  14.417  0.1031 -0.1051 -0.2180
  890MPD2    H713108   3.731   1.269  14.351  0.9003 -0.1340 -1.1311
  891MPD2     C13109   1.897   4.669  16.765  0.6676  0.6342 -0.3564
  891MPD2    C113110   1.784   4.590  16.772 -0.4543  0.0656 -0.1100
  891MPD2    C213111   1.789   4.483  16.861 -1.0068  0.2404  0.1375
  891MPD2    C313112   1.898   4.472  16.949 -0.2828  0.4115  0.4043
  891MPD2    C413113   2.001   4.563  16.950 -0.1646 -0.4150 -0.1539
  891MPD2    C513114   2.002   4.656  16.849  0.3976  0.1189 -0.0264
  891MPD2     H13115   1.707   4.413  16.873  0.3808 -1.3452  0.4859
  891MPD2    H113116   2.083   4.567  17.021 -1.6421  0.9220  1.4883
  891MPD2    H213117   1.887   0.015  16.699  0.0277  2.4824  2.1656
  891MPD2    H313118   2.082   4.728  16.838 -2.9455  3.7340 -0.5476
  891MPD2     N13119   1.880   4.374  17.051 -0.2828 -0.3894  0.0382
  891MPD2    H513120   1.809   4.304  17.034 -0.0844 -1.1130  2.1497
  891MPD2    N113121   1.671   4.614  16.682  0.3637 -0.2709  1.1037
  891MPD2    H713122   1.692   4.679  16.606 -1.4923  0.7241  1.4604
  892MPD2     C13123   3.202   0.832  14.942  0.2958  0.1189 -0.3952
  892MPD2    C113124   3.085   0.874  14.878 -0.4982  0.0069  0.3094
  892MPD2    C213125   3.080   0.888  14.739  0.2365  0.2398 -0.4390
  892MPD2    C313126   3.187   0.849  14.664  0.7509  0.0893 -0.4378
  892MPD2    C413127   3.304   0.826  14.730 -0.2348  0.1411 -1.3436
  892MPD2    C513128   3.312   0.810  14.867 -0.2373 -0.2556  0.1077
  892MPD2     H13129   2.988   0.915  14.688 -2.2544 -0.3881  3.6770
  892MPD2    H113130   3.401   0.806  14.684 -0.1837 -1.5569 -0.4944
  892MPD2    H213131   3.213   0.813  15.048  2.1264 -1.1336 -0.8011
  892MPD2    H313132   3.406   0.783  14.913 -0.6932 -0.6435  0.8220
  892MPD2     N13133   3.190   0.840  14.522  0.1732  0.0596 -0.1657
  892MPD2    H513134   3.275   0.809  14.477  0.4664  0.9192 -0.2067
  892MPD2    N113135   2.976   0.917  14.956  0.1801  0.1691  0.9026
  892MPD2    H713136   2.898   0.961  14.909 -2.0403 -1.4625  3.0125
  893MPD2     C13137   1.061   0.046   0.947  0.3067  0.0160  0.5739
  893MPD2    C113138   1.087   0.099   1.073 -0.5235  0.1460 -0.0276
  893MPD2    C213139   0.976   0.115   1.156  0.2257  0.4482 -0.1437
  893MPD2    C313140   0.844   0.085   1.115  0.9184  0.3027  1.1497
  893MPD2    C413141   0.831   0.029   0.985  0.1051 -0.1157  0.4764
  893MPD2    C513142   0.938   0.011   0.906 -0.1469  0.2239  0.2681
  893MPD2     H13143   0.989   0.153   1.257 -3.0380 -0.6513  0.7015
  893MPD2    H113144   0.733   0.001   0.950  0.2089 -2.1408  1.8416
  893MPD2    H213145   1.148   0.034   0.883  1.3871  2.3306  1.6051
  893MPD2    H313146   0.941   4.692   0.815  3.0002 -1.0572  1.1954
  893MPD2     N13147   0.736   0.089   1.199 -0.0918 -0.0876 -0.5926
  893MPD2    H513148   0.651   0.046   1.166 -1.8868  1.6678  1.7259
  893MPD2    N113149   1.216   0.142   1.101 -0.4709  0.0544 -0.1020
  893MPD2    H713150   1.276   0.140   1.019 -0.4713 -0.6685 -0.0921
  894MPD2     C13151   2.741   1.537   0.668 -0.1286  0.1770  0.2234
  894MPD2    C113152   2.758   1.626   0.777 -0.9511 -0.6308  0.3018
  894MPD2    C213153   2.801   1.754   0.757 -0.0618 -0.5884 -0.6304
  894MPD2    C313154   2.813   1.802   0.630  0.1982 -0.2259 -0.4440
  894MPD2    C413155   2.778   1.724   0.523  0.1732 -1.0631  0.0447
  894MPD2    C513156   2.756   1.588   0.545 -0.0628  0.1527 -0.7062
  894MPD2     H13157   2.837   1.823   0.832  0.4124 -2.3592  0.7873
  894MPD2    H113158   2.761   1.763   0.423 -0.0585  0.4597  0.6784
  894MPD2    H213159   2.708   1.434   0.671  1.2486 -0.2581  0.4142
  894MPD2    H313160   2.720   1.535   0.457 -0.4142 -0.2315 -0.3311
  894MPD2     N13161   2.861   1.934   0.617  0.2385  0.0326  0.0836
  894MPD2    H513162   2.872   1.989   0.702  0.8435 -1.9358  1.2542
  894MPD2    N113163   2.734   1.589   0.916 -0.0742 -0.0848  0.1663
  894MPD2    H713164   2.751   1.662   0.984 -0.8122  0.3658 -0.1309
  895MPD2     C13165   2.231   0.156  13.370  0.2543  0.0713  0.0319
  895MPD2    C113166   2.103   0.142  13.432  0.5933  0.0823  0.4066
  895MPD2    C213167   2.050   0.016  13.450 -0.9898 -0.3937  0.8358
  895MPD2    C313168   2.113   4.645  13.398  0.8344 -0.0614 -1.1589
  895MPD2    C413169   2.235   4.661  13.336 -0.2713 -0.2104  0.0066
  895MPD2    C513170   2.294   0.045  13.329 -0.1216 -0.4259 -0.1141
  895MPD2     H13171   1.948   0.000  13.483 -0.9545  0.9017  1.5400
  895MPD2    H113172   2.284   4.570  13.303 -1.9223 -0.6389 -1.2411
  895MPD2    H213173   2.280   0.251  13.353 -1.3706  0.8394 -0.3844
  895MPD2    H313174   2.394   0.047  13.288  0.6809  3.3760  1.9322
  895MPD2     N13175   2.041   4.522  13.412 -0.1474  0.6033 -0.3408
  895MPD2    H513176   1.951   4.521  13.459  0.9464 -0.1288  1.7494
  895MPD2    N113177   2.022   0.252  13.477 -0.1545 -0.3527 -0.0387
  895MPD2    H713178   1.938   0.220  13.523 -0.9363 -2.0790 -2.6399
  896MPD2     C13179   4.469   2.770   0.939 -0.2540 -0.3701 -0.0367
  896MPD2    C113180   4.402   2.755   0.814  0.6641  0.2261 -0.1741
  896MPD2    C213181   4.280   2.687   0.812  0.0528 -0.2715 -0.4669
  896MPD2    C313182   4.216   2.662   0.932 -0.3033 -0.9291  0.3777
  896MPD2    C413183   4.282   2.684   1.055  0.4092  0.2574 -0.6993
  896MPD2    C513184   4.409   2.730   1.050  0.5700 -0.6147 -0.3608
  896MPD2     H13185   4.220   2.678   0.722 -0.7996 -1.4958  0.2173
  896MPD2    H113186   4.249   2.656   1.154 -0.3596 -0.9319 -1.2872
  896MPD2    H213187   4.562   2.823   0.951 -0.8404  0.7154 -0.2320
  896MPD2    H313188   4.469   2.742   1.139 -1.6894 -0.4559  1.1381
  896MPD2     N13189   4.080   2.620   0.923 -0.3017 -0.2811  0.1422
  896MPD2    H513190   4.046   2.613   0.827  0.9021  0.0130 -0.3031
  896MPD2    N113191   4.465   2.803   0.696  0.4644  0.1462  0.1784
  896MPD2    H713192   4.558   2.841   0.704  1.0344 -1.2912  0.5259
  897MPD2     C13193   0.698   4.552  10.602 -0.4043 -0.5179 -0.4173
  897MPD2    C113194   0.581   4.607  10.551  0.1605  0.2665 -0.2159
  897MPD2    C213195   0.460   4.597  10.618 -0.1524 -0.0451  0.0272
  897MPD2    C313196   0.445   4.517  10.730 -0.0519  0.5524 -0.0726
  897MPD2    C413197   0.565   4.463  10.780 -0.5230  0.3479 -0.1232
  897MPD2    C513198   0.681   4.473  10.711 -0.2131  0.5500 -0.7486
  897MPD2     H13199   0.364   4.631  10.579 -0.6120 -1.0293  0.3027
  897MPD2    H113200   0.574   4.394  10.863  1.7576  1.8101  0.8644
  897MPD2    H213201   0.795   4.555  10.553  1.3738 -0.9615  3.0664
  897MPD2    H313202   0.769   4.426  10.753 -2.7809 -2.8067  0.8955
  897MPD2     N13203   0.322   4.471  10.778 -0.0015  0.0699  0.5318
  897MPD2    H513204   0.243   4.486  10.715  2.0151 -0.0748 -2.0073
  897MPD2    N113205   0.603   4.672  10.429 -0.3438 -0.2564 -0.3167
  897MPD2    H713206   0.698   4.684  10.395 -0.4760 -0.6331 -0.8161
  898MPD2     C13207   2.475   0.540  17.206 -0.0337 -0.6531 -1.0185
  898MPD2    C113208   2.376   0.533  17.302  0.4213  0.1341 -0.0971
  898MPD2    C213209   2.356   0.654  17.370 -0.2088 -0.0065 -0.2486
  898MPD2    C313210   2.426   0.772  17.336  0.0574  0.0996  0.6199
  898MPD2    C413211   2.529   0.764  17.241 -0.2879  0.7092  0.4616
  898MPD2    C513212   2.550   0.645  17.187  1.0220  0.1572 -0.4734
  898MPD2     H13213   2.283   0.653  17.450  1.4166 -1.1138  1.2032
  898MPD2    H113214   2.602   0.842  17.226  1.6227 -1.3158 -0.6183
  898MPD2    H213215   2.504   0.451  17.151 -1.3115 -0.1947 -2.4287
  898MPD2    H313216   2.636   0.639  17.122  0.0221 -0.4269 -1.7510
  898MPD2     N13217   2.374   0.889  17.391 -0.3272  0.1793  0.0099
  898MPD2    H513218   2.300   0.871  17.458  0.4780  0.2774  0.9184
  898MPD2    N113219   2.294   0.421  17.331 -1.3160  0.7081  0.1363
  898MPD2    H713220   2.232   0.435  17.411 -0.5980 -0.4009  0.8765
  899MPD2     C13221   3.221   0.831  17.078  0.0334 -0.9126  0.3220
  899MPD2    C113222   3.268   0.913  17.177  0.4534  0.9225 -0.3228
  899MPD2    C213223   3.277   0.858  17.303  0.5048 -0.7771 -0.2350
  899MPD2    C313224   3.231   0.730  17.339 -0.2337 -0.2992  0.0506
  899MPD2    C413225   3.185   0.653  17.239 -0.1680  0.1698 -0.2095
  899MPD2    C513226   3.182   0.703  17.109 -0.4967  0.7194  0.1105
  899MPD2     H13227   3.321   0.920  17.381  0.6426  0.0140 -0.9401
  899MPD2    H113228   3.146   0.552  17.248 -0.1428 -0.1150 -3.0535
  899MPD2    H213229   3.212   0.868  16.976 -0.8245 -0.6141  0.5041
  899MPD2    H313230   3.150   0.638  17.029 -0.8048  2.8445 -1.5162
  899MPD2     N13231   3.234   0.675  17.472 -0.6666 -0.0389 -0.3990
  899MPD2    H513232   3.233   0.574  17.480 -1.1908  0.0171  0.2350
  899MPD2    N113233   3.303   1.046  17.148 -0.1511  0.1825  0.1423
  899MPD2    H713234   3.283   1.068  17.051 -3.1164  1.7692  1.0932
  900MPD2     C13235   3.241   2.731  12.689  0.2069  0.1425  0.1188
  900MPD2    C113236   3.114   2.680  12.710 -0.7690  0.0462  0.2462
  900MPD2    C213237   3.015   2.706  12.618  0.0176  0.1554 -0.1824
  900MPD2    C313238   3.027   2.804  12.521 -0.1070  0.5533 -0.4801
  900MPD2    C413239   3.148   2.867  12.511  0.1325  0.3149  0.0791
  900MPD2    C513240   3.261   2.826  12.588 -0.5529  0.3543  0.1109
  900MPD2     H13241   2.917   2.667  12.644  0.6130 -0.0559  1.7727
  900MPD2    H113242   3.163   2.955  12.449  0.9053 -0.1423 -0.3932
  900MPD2    H213243   3.325   2.710  12.754  1.2436  1.9406 -0.6316
  900MPD2    H313244   3.355   2.877  12.569 -0.5216  0.2963  0.1097
  900MPD2     N13245   2.917   2.825  12.440 -0.0598  0.2670  0.2671
  900MPD2    H513246   2.836   2.764  12.441 -0.7424  1.1743  0.4668
  900MPD2    N113247   3.106   2.585  12.815  0.2969 -0.1083  0.1476
  900MPD2    H713248   3.190   2.579  12.871 -0.3209 -1.3367  0.9299
  901MPD2     C13249   2.745   1.634  12.702 -0.0692  0.2785 -0.2288
  901MPD2    C113250   2.888   1.626  12.719 -0.9482 -0.3384 -0.3644
  901MPD2    C213251   2.948   1.736  12.777 -0.1845  0.3740  0.2177
  901MPD2    C313252   2.872   1.843  12.829  0.3323 -0.0672  0.1482
  901MPD2    C413253   2.734   1.849  12.808  0.6841 -0.4134  0.0933
  901MPD2    C513254   2.673   1.748  12.737 -0.4107 -0.4256 -0.4673
  901MPD2     H13255   3.055   1.746  12.764 -0.1316 -1.2899 -0.6382
  901MPD2    H113256   2.677   1.938  12.829  1.0025 -0.0438 -0.6260
  901MPD2    H213257   2.684   1.567  12.643 -0.3758  2.4379 -2.3655
  901MPD2    H313258   2.565   1.749  12.722 -0.0695 -0.7526 -2.8934
  901MPD2     N13259   2.940   1.949  12.893 -0.1383 -0.0321 -0.3047
  901MPD2    H513260   3.040   1.939  12.903 -0.1665 -0.1364 -0.1231
  901MPD2    N113261   2.958   1.515  12.678 -0.2813  0.4175 -0.2594
  901MPD2    H713262   2.896   1.446  12.635  0.4324  0.1971 -0.9255
  902MPD2     C13263   1.745   0.486  12.705  0.2511  0.7404 -0.1668
  902MPD2    C113264   1.880   0.485  12.684  0.3334  0.4869 -0.3868
  902MPD2    C213265   1.952   0.366  12.688  0.3465  0.4665  0.3308
  902MPD2    C313266   1.882   0.247  12.703 -0.0508 -0.9131  0.1104
  902MPD2    C413267   1.745   0.249  12.718  0.2874  0.4097 -0.5222
  902MPD2    C513268   1.677   0.371  12.715  0.2158  0.6592 -0.2543
  902MPD2     H13269   2.058   0.379  12.670  0.0781  2.4256  0.0972
  902MPD2    H113270   1.684   0.160  12.712  1.2200 -0.2760  0.0576
  902MPD2    H213271   1.684   0.576  12.701 -1.9825 -0.7627  0.3344
  902MPD2    H313272   1.571   0.374  12.738 -0.3751 -2.1702 -2.5544
  902MPD2     N13273   1.942   0.119  12.714 -0.1302  0.4347  0.7480
  902MPD2    H513274   1.879   0.039  12.719 -1.3239  1.1769 -2.0875
  902MPD2    N113275   1.937   0.614  12.668 -0.0240 -0.5239  0.5443
  902MPD2    H713276   1.870   0.690  12.679 -0.2286 -0.9957  2.4604
  903MPD2     C13277   1.990   0.327  12.288 -0.2096 -0.7707 -0.3134
  903MPD2    C113278   1.958   0.197  12.317  0.1816  0.0778  0.5900
  903MPD2    C213279   1.826   0.154  12.334  0.3307 -0.6911  0.0704
  903MPD2    C313280   1.717   0.240  12.322 -0.4684 -0.6827  0.0118
  903MPD2    C413281   1.746   0.371  12.296  0.2901 -0.0418  0.1192
  903MPD2    C513282   1.881   0.409  12.271  0.3994 -0.6645  0.4941
  903MPD2     H13283   1.808   0.054  12.370  2.3851 -0.8113  0.7764
  903MPD2    H113284   1.671   0.450  12.299  0.4965  0.0504  2.4798
  903MPD2    H213285   2.086   0.377  12.275 -0.1557 -0.8499 -0.2130
  903MPD2    H313286   1.903   0.509  12.234  0.7594 -0.0558  2.3571
  903MPD2     N13287   1.591   0.194  12.359 -0.1522  0.6404 -0.6591
  903MPD2    H513288   1.589   0.100  12.397  0.4170  0.3880 -1.2562
  903MPD2    N113289   2.062   0.111  12.342 -0.3909 -0.7014  0.5012
  903MPD2    H713290   2.148   0.164  12.346  0.3390 -1.8581  0.0420
  904MPD2     C13291   2.027   3.798  14.365  0.0134  0.3142 -0.1749
  904MPD2    C113292   1.997   3.927  14.332 -0.2000 -0.6683  0.1955
  904MPD2    C213293   2.104   4.011  14.338 -0.2368 -0.2337  0.0336
  904MPD2    C313294   2.239   3.974  14.354  0.2270  0.1742  0.5925
  904MPD2    C413295   2.262   3.843  14.389  0.0924 -0.6794  0.0156
  904MPD2    C513296   2.155   3.759  14.398 -0.7069 -0.2789  1.0657
  904MPD2     H13297   2.087   4.113  14.306  1.3612 -0.3728 -1.2190
  904MPD2    H113298   2.365   3.809  14.400  0.7519  0.6300 -2.2004
  904MPD2    H213299   1.957   3.715  14.358 -0.6911  0.9241 -0.2738
  904MPD2    H313300   2.179   3.654  14.410  0.2823  0.1239  2.6491
  904MPD2     N13301   2.336   4.072  14.339 -0.5484 -0.1287  0.3323
  904MPD2    H513302   2.296   4.162  14.315  0.9045 -0.4478 -3.3062
  904MPD2    N113303   1.877   3.989  14.293  0.0913  0.6020  0.1013
  904MPD2    H713304   1.869   4.088  14.274  0.0584  0.9316  1.8700
  905MPD2     C13305   1.297   4.170  13.762 -0.4232  0.0437  0.1764
  905MPD2    C113306   1.419   4.115  13.794  0.1867  0.1395  0.4223
  905MPD2    C213307   1.518   4.143  13.703  0.1196  0.6137  0.0506
  905MPD2    C313308   1.500   4.216  13.585  0.3882 -0.1549 -0.5280
  905MPD2    C413309   1.382   4.276  13.562 -0.1874  0.4190 -0.0550
  905MPD2    C513310   1.276   4.244  13.647 -0.5710 -0.0994 -0.3415
  905MPD2     H13311   1.618   4.103  13.715 -0.8379 -2.1682 -1.2046
  905MPD2    H113312   1.368   4.348  13.482  1.4565  0.8747  0.0643
  905MPD2    H213313   1.206   4.156  13.819 -0.1243 -0.4289  0.5430
  905MPD2    H313314   1.174   4.282  13.652 -0.1627  0.8507  0.7131
  905MPD2     N13315   1.611   4.232  13.499 -0.4604  0.2328 -0.3027
  905MPD2    H513316   1.691   4.184  13.539  0.0346 -0.0944 -1.6753
  905MPD2    N113317   1.451   4.053  13.913 -0.3706  0.1143 -0.6455
  905MPD2    H713318   1.550   4.037  13.934 -0.4998  0.3876  0.2031
  906MPD2     C13319   3.564   4.536  11.212  0.5362  0.1380 -0.0141
  906MPD2    C113320   3.608   4.440  11.127 -0.1018 -0.2740 -0.8043
  906MPD2    C213321   3.589   4.311  11.157 -0.0214  0.7862  0.5219
  906MPD2    C313322   3.518   4.273  11.275 -0.6413  0.3542  1.0709
  906MPD2    C413323   3.456   4.375  11.352  0.3800  0.3244  0.5285
  906MPD2    C513324   3.489   4.503  11.320  0.0302 -0.3510  0.4311
  906MPD2     H13325   3.639   4.239  11.093 -1.6269 -0.9206  1.1767
  906MPD2    H113326   3.393   4.353  11.437 -0.7478 -0.0707 -0.4201
  906MPD2    H213327   3.581   4.639  11.185 -0.8689  0.2357 -0.5332
  906MPD2    H313328   3.451   4.584  11.381  0.7440  0.7961 -0.6365
  906MPD2     N13329   3.474   4.138  11.302  0.5206  0.4679  0.3708
  906MPD2    H513330   3.398   4.136  11.369  0.3765  0.7620  0.2172
  906MPD2    N113331   3.678   4.461  11.004  0.6282  0.4384  0.6249
  906MPD2    H713332   3.698   4.378  10.949 -1.0437 -0.2784  1.1073
  907MPD2     C13333   3.071   3.361  15.432 -0.2762 -0.3113  0.2989
  907MPD2    C113334   2.996   3.245  15.433 -0.4844  0.4690  0.5560
  907MPD2    C213335   2.984   3.168  15.550 -0.4475  0.1342  0.3452
  907MPD2    C313336   3.061   3.203  15.659 -0.5862  0.1181 -1.0019
  907MPD2    C413337   3.135   3.316  15.652 -0.0964  0.2788 -0.1370
  907MPD2    C513338   3.146   3.393  15.543  0.2655  0.7684 -0.2134
  907MPD2     H13339   2.923   3.078  15.544 -0.6649  0.1954  1.7556
  907MPD2    H113340   3.192   3.357  15.735 -2.4790  1.2860  1.0241
  907MPD2    H213341   3.083   3.429  15.348 -1.9965  2.7956  2.5686
  907MPD2    H313342   3.210   3.480  15.553 -1.0998  1.6712  0.6266
  907MPD2     N13343   3.050   3.118  15.777 -0.3331  0.8662 -0.8343
  907MPD2    H513344   2.979   3.046  15.769  1.9983 -1.4683 -0.3854
  907MPD2    N113345   2.942   3.197  15.314 -0.0013 -0.4334  0.5502
  907MPD2    H713346   2.870   3.127  15.324  0.8564 -1.0069  2.7868
  908MPD2     C13347   4.679   0.160   9.729  0.5635 -0.0821 -0.1575
  908MPD2    C113348   4.731   0.034   9.760  0.5555  0.5749  0.0201
  908MPD2    C213349   0.120   0.026   9.815  0.8441 -0.2977 -0.6089
  908MPD2    C313350   0.191   0.143   9.841  0.3130  0.5711  0.1819
  908MPD2    C413351   0.141   0.267   9.804 -0.2494 -0.9922  0.2953
  908MPD2    C513352   0.017   0.273   9.737  0.4493 -0.0728 -0.0328
  908MPD2     H13353   0.167   4.678   9.859 -0.5728 -0.3258  0.8116
  908MPD2    H113354   0.187   0.364   9.819 -0.2896 -1.1445  1.4061
  908MPD2    H213355   4.579   0.180   9.691 -0.4525 -1.3856  1.8226
  908MPD2    H313356   4.717   0.370   9.707  1.9523  0.3913 -0.5042
  908MPD2     N13357   0.310   0.134   9.920  0.3415  0.4114  0.5677
  908MPD2    H513358   0.333   0.040   9.949  2.7137  0.4658 -1.0936
  908MPD2    N113359   4.642   4.662   9.751 -0.1053 -0.5382  0.1956
  908MPD2    H713360   4.552   4.681   9.709  0.0048  2.1641  1.1354
  909MPD2     C13361   0.888   2.218  11.391  0.5762  0.0978  0.2458
  909MPD2    C113362   0.994   2.301  11.437  0.3610 -0.4326 -0.1839
  909MPD2    C213363   0.986   2.346  11.567  0.6544  0.2805  0.9535
  909MPD2    C313364   0.892   2.301  11.657 -0.0773 -0.4142 -0.0140
  909MPD2    C413365   0.798   2.201  11.615  0.1006 -0.8211  0.3095
  909MPD2    C513366   0.793   2.166  11.479 -0.9740 -0.2773  0.4203
  909MPD2     H13367   1.067   2.406  11.606  3.6788 -3.8865  1.0728
  909MPD2    H113368   0.721   2.152  11.674 -1.1632 -1.1514 -1.6253
  909MPD2    H213369   0.873   2.178  11.292 -1.7852  1.0561  0.2198
  909MPD2    H313370   0.720   2.089  11.456  1.6287 -2.0958 -1.7781
  909MPD2     N13371   0.900   2.346  11.791  0.1619 -0.2772  0.7063
  909MPD2    H513372   0.964   2.422  11.812  0.7030 -0.3057 -0.8362
  909MPD2    N113373   1.096   2.346  11.353 -0.1339  0.2213 -0.5120
  909MPD2    H713374   1.164   2.413  11.389 -0.3860  1.1300 -1.7406
  910MPD2     C13375   2.113   4.053  15.855  0.1204  0.8052  0.2392
  910MPD2    C113376   2.222   3.972  15.856 -0.5441  0.2870 -0.3459
  910MPD2    C213377   2.289   3.936  15.742 -0.5529 -0.4680  0.6196
  910MPD2    C313378   2.243   3.995  15.621 -0.4914  0.5941  0.1137
  910MPD2    C413379   2.127   4.069  15.620  0.1617 -1.1424 -0.4628
  910MPD2    C513380   2.063   4.097  15.737 -0.6998  0.0169 -0.2566
  910MPD2     H13381   2.376   3.871  15.750 -0.6490 -0.6608  0.1033
  910MPD2    H113382   2.087   4.099  15.524  0.6176  2.6188  0.5187
  910MPD2    H213383   2.052   4.067  15.944 -0.7591  2.3212 -0.6078
  910MPD2    H313384   1.964   4.141  15.730  0.5955  2.7150 -1.6234
  910MPD2     N13385   2.315   3.988  15.500  0.2493  0.4314 -0.2293
  910MPD2    H513386   2.287   4.052  15.427 -0.1599  1.4710  0.8354
  910MPD2    N113387   2.271   3.922  15.979 -0.0663  0.4119 -0.0020
  910MPD2    H713388   2.319   3.833  15.971  1.2735  1.2127 -0.8499
  911MPD2     C13389   0.087   0.709  16.383 -0.0165  0.0770 -0.3807
  911MPD2    C113390   0.118   0.602  16.300  0.0283 -0.5756  0.0352
  911MPD2    C213391   0.067   0.604  16.172  0.3012  0.6815 -0.5767
  911MPD2    C313392   4.737   0.713  16.126 -0.3394 -0.1794  0.6607
  911MPD2    C413393   4.719   0.824  16.200 -0.1496 -0.1061  0.8733
  911MPD2    C513394   0.022   0.814  16.329 -0.3535 -0.0263 -0.3729
  911MPD2     H13395   0.083   0.516  16.111  0.3521  1.1764 -1.2845
  911MPD2    H113396   4.654   0.901  16.160  0.7252  0.3701  0.3550
  911MPD2    H213397   0.116   0.703  16.487 -1.6043 -0.7619  0.0025
  911MPD2    H313398   4.737   0.900  16.390  0.5929 -0.8084  1.1205
  911MPD2     N13399   4.688   0.696  15.996 -0.5946  0.7837 -0.5460
  911MPD2    H513400   4.734   0.626  15.939 -1.7474  0.7509 -1.4493
  911MPD2    N113401   0.188   0.486  16.341 -0.2321  0.0547 -0.7213
  911MPD2    H713402   0.201   0.422  16.263 -0.4877 -1.8224  0.8094
  912MPD2     C13403   4.068   0.413  16.120 -0.7322  0.2643 -0.9760
  912MPD2    C113404   4.173   0.353  16.063  0.2782  0.0772 -0.4597
  912MPD2    C213405   4.195   0.220  16.104 -0.0124  0.0422  0.2251
  912MPD2    C313406   4.119   0.158  16.192 -0.3398  0.0875 -0.1729
  912MPD2    C413407   4.008   0.224  16.246  0.5179 -0.4578 -0.7098
  912MPD2    C513408   3.980   0.357  16.212 -0.1908  0.6816  0.7989
  912MPD2     H13409   4.274   0.159  16.063 -0.2519 -0.0743 -0.0613
  912MPD2    H113410   3.941   0.180  16.319 -1.1144 -0.4799 -2.2213
  912MPD2    H213411   4.043   0.515  16.095 -0.2936  0.7021  0.4167
  912MPD2    H313412   3.896   0.409  16.256 -0.2697 -0.8655  2.4200
  912MPD2     N13413   4.157   0.024  16.216  0.5179 -0.1402  0.4698
  912MPD2    H513414   4.238   4.729  16.165 -1.1303 -0.1335 -2.1792
  912MPD2    N113415   4.245   0.424  15.968  0.0684  0.6258 -0.3529
  912MPD2    H713416   4.208   0.517  15.948  0.0665  0.8840  0.8850
  913MPD2     C13417   0.526   0.740  10.322 -0.4814  0.6319 -0.3775
  913MPD2    C113418   0.492   0.839  10.410 -0.3689  0.1439 -0.5811
  913MPD2    C213419   0.427   0.953  10.360 -0.2869 -0.4930  0.2358
  913MPD2    C313420   0.424   0.973  10.226 -0.6965 -0.2828  0.0754
  913MPD2    C413421   0.471   0.883  10.135 -0.0820  0.0889 -0.3599
  913MPD2    C513422   0.521   0.769  10.188 -0.9012  0.4947  0.0154
  913MPD2     H13423   0.390   1.037  10.418  0.1109 -0.3778  0.3196
  913MPD2    H113424   0.468   0.896  10.027 -0.3937 -0.4813 -0.4208
  913MPD2    H213425   0.571   0.643  10.339 -0.3728  0.5989 -0.8508
  913MPD2    H313426   0.553   0.694  10.117  1.1139 -0.2333  1.7166
  913MPD2     N13427   0.381   1.090  10.161 -0.9602 -0.8025  0.3833
  913MPD2    H513428   0.369   1.084  10.061 -0.2058  1.9108  0.1419
  913MPD2    N113429   0.508   0.816  10.542  0.2997 -0.7358 -0.1740
  913MPD2    H713430   0.555   0.729  10.566 -0.3295 -1.2770 -0.8757
  914MPD2     C13431   2.849   1.064  11.923 -0.6256 -0.4058 -0.1188
  914MPD2    C113432   2.774   1.147  12.001  0.4781  0.2500 -0.8777
  914MPD2    C213433   2.820   1.181  12.127 -0.3796  0.5686 -0.1957
  914MPD2    C313434   2.935   1.128  12.185 -0.0885  0.1514  0.4348
  914MPD2    C413435   2.995   1.033  12.116  0.2223  0.0879  0.5283
  914MPD2    C513436   2.953   1.002  11.988  0.4153 -0.0139 -1.0165
  914MPD2     H13437   2.766   1.261  12.176 -0.7903 -0.8104  1.5867
  914MPD2    H113438   3.089   0.989  12.148  0.5755  1.3762  1.2660
  914MPD2    H213439   2.816   1.039  11.823 -0.7634  0.6070 -0.3230
  914MPD2    H313440   3.018   0.933  11.936  1.3072  0.8749 -1.0880
  914MPD2     N13441   2.983   1.189  12.301  0.2685 -0.2426  0.0660
  914MPD2    H513442   2.936   1.272  12.337  0.1897  0.7420 -2.2825
  914MPD2    N113443   2.667   1.209  11.927  0.1584  0.2833 -0.3268
  914MPD2    H713444   2.653   1.179  11.831 -0.3099 -2.5192  0.6359
  915MPD2     C13445   0.582   1.061  15.876  0.7326 -0.2605  0.7323
  915MPD2    C113446   0.522   1.179  15.827 -0.1451 -0.6554 -0.3111
  915MPD2    C213447   0.523   1.292  15.908  0.5203  0.4648  0.9544
  915MPD2    C313448   0.574   1.286  16.036  0.2221  0.3155 -0.8240
  915MPD2    C413449   0.632   1.171  16.079 -0.8111  0.1276 -0.0444
  915MPD2    C513450   0.633   1.058  16.004 -0.4285  0.0382 -0.3161
  915MPD2     H13451   0.472   1.385  15.886 -1.0600 -0.6261 -0.0038
  915MPD2    H113452   0.663   1.157  16.182  0.0825 -1.6175 -0.5527
  915MPD2    H213453   0.606   0.990  15.798  0.5706  0.8304 -0.3074
  915MPD2    H313454   0.684   0.969  16.038  1.7650  1.8812  1.2161
  915MPD2     N13455   0.564   1.400  16.118 -0.4610  0.1789  0.0489
  915MPD2    H513456   0.506   1.476  16.085 -0.2442 -0.4753 -1.8227
  915MPD2    N113457   0.469   1.168  15.701 -0.5364 -0.1268 -0.2116
  915MPD2    H713458   0.473   1.078  15.654 -1.9117 -1.4203  2.1921
  916MPD2     C13459   3.963   4.497  15.971 -0.1797  0.1055 -0.0029
  916MPD2    C113460   3.940   4.376  16.034 -0.9433  0.2700  0.4023
  916MPD2    C213461   4.029   4.268  16.016  0.0602 -0.2532 -0.4386
  916MPD2    C313462   4.131   4.277  15.921  0.5001  0.0610  0.3684
  916MPD2    C413463   4.145   4.399  15.857 -0.0927  0.2155  0.2150
  916MPD2    C513464   4.064   4.512  15.886  0.6615  0.2086 -0.3981
  916MPD2     H13465   4.021   4.180  16.078 -1.6835  0.9242  1.0146
  916MPD2    H113466   4.215   4.418  15.777 -0.8597  1.5650 -0.1339
  916MPD2    H213467   3.895   4.581  15.985  0.0025 -0.2290  2.9462
  916MPD2    H313468   4.089   4.605  15.837  1.3093  1.4271  2.2652
  916MPD2     N13469   4.211   4.161  15.891 -0.4871  0.2202  0.3557
  916MPD2    H513470   4.190   4.081  15.949  1.7344  0.0214  0.8817
  916MPD2    N113471   3.829   4.373  16.116  0.0485  0.0496 -0.2537
  916MPD2    H713472   3.788   4.464  16.131  0.7671  0.5667 -1.4493
  917MPD2     C13473   4.126   1.978  11.067 -0.3834 -0.0143 -0.2750
  917MPD2    C113474   4.153   2.032  11.192 -0.6508 -0.2802 -0.3347
  917MPD2    C213475   4.223   2.149  11.199 -0.5706  0.0824 -0.6730
  917MPD2    C313476   4.269   2.213  11.084 -0.0893 -0.2479 -0.6999
  917MPD2    C413477   4.229   2.163  10.961 -0.1049 -0.1094  0.4381
  917MPD2    C513478   4.159   2.050  10.953  0.5407 -0.1839  0.8659
  917MPD2     H13479   4.236   2.193  11.298  0.5388 -0.7859 -0.4224
  917MPD2    H113480   4.249   2.214  10.867 -2.3643 -1.3591 -0.7175
  917MPD2    H213481   4.056   1.896  11.057  0.1545 -0.5286  0.1700
  917MPD2    H313482   4.121   2.017  10.857  1.9543 -0.1018  0.2760
  917MPD2     N13483   4.329   2.347  11.087  0.5757 -0.2655  0.6157
  917MPD2    H513484   4.336   2.388  10.994  2.3694  1.1445  1.3886
  917MPD2    N113485   4.102   1.959  11.299  0.5539 -0.1024  0.0835
  917MPD2    H713486   4.046   1.880  11.268  0.0138 -0.6701  2.5112
  918MPD2     C13487   3.836   2.485  11.990 -0.1628 -0.0348 -0.0703
  918MPD2    C113488   3.960   2.437  12.024 -1.4587 -0.1487  0.1430
  918MPD2    C213489   3.978   2.305  11.982 -0.7300  0.3951  1.0983
  918MPD2    C313490   3.890   2.235  11.903 -0.2522 -0.1137 -0.8783
  918MPD2    C413491   3.770   2.291  11.862  1.0042  0.8716  0.0257
  918MPD2    C513492   3.747   2.419  11.910 -0.0580  0.3450  0.3670
  918MPD2     H13493   4.069   2.254  12.013 -1.2329 -1.2491 -0.1314
  918MPD2    H113494   3.691   2.245  11.804 -0.7087  0.8135  2.3861
  918MPD2    H213495   3.825   2.592  12.005 -1.0101 -0.2054  0.4977
  918MPD2    H313496   3.655   2.475  11.897 -0.2335 -0.1545 -0.5064
  918MPD2     N13497   3.915   2.099  11.863 -0.5658 -0.3308 -0.7691
  918MPD2    H513498   4.006   2.061  11.886 -0.7097 -0.1799  0.0372
  918MPD2    N113499   4.054   2.517  12.097  0.0454 -0.6108  0.2133
  918MPD2    H713500   4.134   2.463  12.126  0.1656  1.6244  4.0252
  919MPD2     C13501   0.032   1.113  11.609  0.2604  0.6101 -0.4615
  919MPD2    C113502   0.031   0.986  11.569 -0.4055 -0.0989  0.3612
  919MPD2    C213503   0.064   0.955  11.438  0.3602 -0.0045  0.2167
  919MPD2    C313504   0.093   1.049  11.345 -0.6985  0.3898 -0.5775
  919MPD2    C413505   0.100   1.176  11.390 -0.3408  0.0878  0.4937
  919MPD2    C513506   0.057   1.210  11.515 -0.1201 -0.0245  0.3678
  919MPD2     H13507   0.052   0.850  11.413 -1.6078  0.2489  0.0655
  919MPD2    H113508   0.137   1.254  11.324 -0.6179  0.4022  0.7086
  919MPD2    H213509   0.015   1.143  11.712 -2.2214 -4.0071  0.4685
  919MPD2    H313510   0.058   1.317  11.536  1.1326 -0.6246  3.3493
  919MPD2     N13511   0.124   1.031  11.210  0.7989  0.2476 -0.0426
  919MPD2    H513512   0.133   1.114  11.153  0.0390  0.8942  0.7990
  919MPD2    N113513   0.006   0.876  11.659  0.0098  0.5393 -0.3188
  919MPD2    H713514   0.008   0.783  11.620  0.9577  0.2906  0.3423
  920MPD2     C13515   4.645   1.270  10.263 -0.3259  0.1997  0.2205
  920MPD2    C113516   4.569   1.158  10.290  0.1481 -0.2106 -0.5699
  920MPD2    C213517   4.596   1.088  10.404 -0.4460  0.8025  0.0087
  920MPD2    C313518   4.707   1.118  10.482  0.1728 -0.2896  0.3526
  920MPD2    C413519   0.040   1.230  10.451 -0.1371 -0.3543  0.0899
  920MPD2    C513520   0.007   1.307  10.345  0.0728 -0.8946  0.0497
  920MPD2     H13521   4.531   1.004  10.428 -0.1454  0.5086 -0.1975
  920MPD2    H113522   0.119   1.275  10.510  1.3799 -0.9725 -1.4418
  920MPD2    H213523   4.619   1.334  10.179  2.3216 -0.9821 -1.5061
  920MPD2    H313524   0.061   1.401  10.332 -0.7453 -0.0560  2.6241
  920MPD2     N13525   4.729   1.041  10.598 -0.1873  0.0116 -0.0825
  920MPD2    H513526   4.666   0.961  10.607 -0.3739 -0.0372 -1.8273
  920MPD2    N113527   4.457   1.113  10.209  0.1044  0.1853 -0.1628
  920MPD2    H713528   4.424   1.019  10.227 -2.5033  1.2153  0.4023
  921MPD2     C13529   0.979   0.043  16.897 -0.0927 -0.1794  0.6338
  921MPD2    C113530   0.971   4.739  16.767  0.1296 -0.3380 -0.7120
  921MPD2    C213531   0.850   0.006  16.706  0.7238 -0.2652  0.7216
  921MPD2    C313532   0.743   0.066  16.760  0.4483 -0.5696  0.1827
  921MPD2    C413533   0.748   0.110  16.893 -0.1371 -0.3739 -0.3000
  921MPD2    C513534   0.870   0.098  16.955  0.4945  0.7858 -0.4018
  921MPD2     H13535   0.834   4.704  16.607 -0.1170 -0.1137  0.7957
  921MPD2    H113536   0.669   0.152  16.953 -0.0983 -0.2120 -0.3615
  921MPD2    H213537   1.072   0.031  16.952 -0.3642 -1.8791  0.7318
  921MPD2    H313538   0.878   0.139  17.055  0.2448 -1.2631  0.4397
  921MPD2     N13539   0.624   0.074  16.677 -0.2851 -0.1504  0.6925
  921MPD2    H513540   0.619   0.037  16.583 -1.6475  2.3361 -0.1964
  921MPD2    N113541   1.082   4.673  16.708 -0.6657 -0.3778 -0.4957
  921MPD2    H713542   1.168   4.663  16.761  0.8695 -0.5511 -3.0342
  922MPD2     C13543   1.534   2.632  16.944 -0.3498  0.3150 -0.5740
  922MPD2    C113544   1.449   2.615  17.059  0.6220 -0.2827 -0.2817
  922MPD2    C213545   1.439   2.490  17.112 -0.7530  0.0575  0.1708
  922MPD2    C313546   1.516   2.387  17.065 -0.0892 -0.3075  0.2562
  922MPD2    C413547   1.600   2.406  16.960 -0.1046  0.1946 -0.7650
  922MPD2    C513548   1.614   2.527  16.906  0.5318 -0.3684  0.6798
  922MPD2     H13549   1.373   2.459  17.193 -0.2173  0.5809  0.8121
  922MPD2    H113550   1.682   2.348  16.920 -0.1449  0.8138 -1.7577
  922MPD2    H213551   1.544   2.726  16.892  0.2428  1.3222  1.3869
  922MPD2    H313552   1.689   2.545  16.830 -0.8885  1.1754 -0.3598
  922MPD2     N13553   1.507   2.271  17.141 -0.1643 -0.1528 -0.1288
  922MPD2    H513554   1.428   2.276  17.204  0.0464 -1.1570  0.2115
  922MPD2    N113555   1.376   2.718  17.112 -0.5799 -0.3778  0.1870
  922MPD2    H713556   1.304   2.698  17.182 -1.5217 -0.2642 -0.7480
  923MPD2     C13557   3.443   0.689   9.072 -0.3805 -0.5040  0.3123
  923MPD2    C113558   3.333   0.652   9.143  0.1719  0.0605 -0.1350
  923MPD2    C213559   3.347   0.555   9.242 -1.1141 -0.2520 -0.5175
  923MPD2    C313560   3.469   0.492   9.260  0.4804 -0.1322  1.0038
  923MPD2    C413561   3.580   0.540   9.194  0.2568 -0.5342  0.3826
  923MPD2    C513562   3.567   0.637   9.102  0.3032 -0.1026 -0.6425
  923MPD2     H13563   3.259   0.531   9.300 -0.5590  2.9680  1.6565
  923MPD2    H113564   3.678   0.506   9.224  0.5712  0.7026  0.7428
  923MPD2    H213565   3.435   0.757   8.988 -0.3375 -0.7664  0.0981
  923MPD2    H313566   3.654   0.671   9.047 -0.1350  0.8945 -0.7261
  923MPD2     N13567   3.489   0.391   9.358  0.0235 -0.8070  0.0891
  923MPD2    H513568   3.582   0.356   9.380  0.0321 -1.7037 -1.3803
  923MPD2    N113569   3.222   0.718   9.108 -0.0278  0.2936  0.0382
  923MPD2    H713570   3.231   0.793   9.039 -0.5890 -0.2839 -0.6642
  924MPD2     C13571   2.604   2.735  16.476 -0.0148 -0.3413  0.2855
  924MPD2    C113572   2.732   2.762  16.528 -0.4110  0.5176 -0.4984
  924MPD2    C213573   2.840   2.753  16.439 -0.1747  0.1481  0.1003
  924MPD2    C313574   2.818   2.737  16.303 -0.2025 -0.1477 -0.9770
  924MPD2    C413575   2.691   2.720  16.256  0.0731 -0.4089 -0.9339
  924MPD2    C513576   2.583   2.714  16.342  0.8096  0.5960 -0.1792
  924MPD2     H13577   2.944   2.753  16.471 -0.4073  0.2680  0.8612
  924MPD2    H113578   2.665   2.709  16.151 -0.6814 -0.4098 -0.7514
  924MPD2    H213579   2.510   2.748  16.529 -0.0231  0.9401 -0.0548
  924MPD2    H313580   2.485   2.703  16.297 -0.0527  1.1988  1.5424
  924MPD2     N13581   2.928   2.741  16.221  0.2003  0.0441  0.4692
  924MPD2    H513582   3.018   2.758  16.266  0.4654  1.6931 -0.6936
  924MPD2    N113583   2.728   2.785  16.664  0.2948 -0.2976 -0.4463
  924MPD2    H713584   2.637   2.804  16.703  0.7162  0.8389 -0.0125
  925MPD2     C13585   2.244   0.798  14.686 -0.5422 -0.6418  0.5611
  925MPD2    C113586   2.135   0.822  14.603  0.3796  0.3320  0.6282
  925MPD2    C213587   2.002   0.792  14.653  0.1956  0.4062 -0.0654
  925MPD2    C313588   1.986   0.717  14.769  0.2030 -0.3929 -0.2893
  925MPD2    C413589   2.102   0.689  14.845 -0.4743 -0.6512 -0.0939
  925MPD2    C513590   2.223   0.731  14.803  0.0440 -0.2068  0.1308
  925MPD2     H13591   1.920   0.805  14.583  0.9698 -0.5616 -1.1709
  925MPD2    H113592   2.100   0.632  14.937 -2.2334 -1.3694 -0.5768
  925MPD2    H213593   2.344   0.832  14.660 -0.5770  0.4099  1.8072
  925MPD2    H313594   2.307   0.708  14.868  1.7050 -0.2861 -2.0507
  925MPD2     N13595   1.865   0.664  14.804 -0.4333 -0.2116  0.3057
  925MPD2    H513596   1.855   0.598  14.880 -1.6388 -1.1743 -0.6975
  925MPD2    N113597   2.147   0.884  14.477 -0.4981  1.1204  0.0239
  925MPD2    H713598   2.056   0.888  14.433  0.5571 -1.6137 -2.4233
  926MPD2     C13599   0.456   3.718  13.236 -0.7684  0.1153  0.7701
  926MPD2    C113600   0.421   3.835  13.305  0.2155 -1.5693 -0.0970
  926MPD2    C213601   0.497   3.947  13.270  0.7764  0.4406  0.0884
  926MPD2    C313602   0.585   3.950  13.166  0.2311  0.1082 -0.5746
  926MPD2    C413603   0.617   3.834  13.106 -0.5091 -0.7974  0.3789
  926MPD2    C513604   0.555   3.716  13.141 -0.3687  0.1561  0.0386
  926MPD2     H13605   0.464   4.033  13.327 -0.0599  0.6703 -0.7292
  926MPD2    H113606   0.693   3.827  13.029  0.3830  1.5100  1.0522
  926MPD2    H213607   0.416   3.618  13.253 -1.3776  0.5976  2.2451
  926MPD2    H313608   0.581   3.626  13.086  0.0633  0.1981  0.1809
  926MPD2     N13609   0.634   4.074  13.118 -0.0674  0.0659 -0.2563
  926MPD2    H513610   0.683   4.065  13.029  3.1180  0.3055  1.4713
  926MPD2    N113611   0.311   3.856  13.384 -0.5669  0.1193 -0.8274
  926MPD2    H713612   0.289   3.951  13.412 -0.7708 -0.6021  1.4657
  927MPD2     C13613   4.718   1.409  17.723 -0.1818 -0.4531 -0.2688
  927MPD2    C113614   0.082   1.322  17.756  0.3158 -0.5286 -0.5854
  927MPD2    C213615   0.203   1.342  17.691 -0.8685  0.1488 -0.5842
  927MPD2    C313616   0.217   1.446  17.598  0.7700  0.2629  0.3553
  927MPD2    C413617   0.111   1.533  17.574  0.2261 -0.2216 -1.1061
  927MPD2    C513618   4.732   1.508  17.635 -0.1232  1.0101  0.7962
  927MPD2     H13619   0.282   1.270  17.709 -2.5417 -2.0412 -1.9975
  927MPD2    H113620   0.116   1.615  17.503 -0.8368  0.4487 -0.3900
  927MPD2    H213621   4.624   1.401   0.020  1.0775  1.2319  2.2002
  927MPD2    H313622   4.640   1.563  17.615  0.5975  0.8725 -2.8148
  927MPD2     N13623   0.340   1.453  17.530 -0.5929 -0.2774  0.0704
  927MPD2    H513624   0.413   1.389  17.560 -0.8565 -1.0001 -0.8305
  927MPD2    N113625   0.063   1.218   0.087 -0.1797  0.0049  0.4661
  927MPD2    H713626   4.714   1.214   0.135 -0.3561  1.8583  0.2817
  928MPD2     C13627   2.620   4.463   0.669 -0.3281  0.7565 -0.2346
  928MPD2    C113628   2.726   4.544   0.644 -0.1709 -0.2416 -0.1928
  928MPD2    C213629   2.845   4.498   0.594  0.3234  0.5827  0.0744
  928MPD2    C313630   2.867   4.368   0.568  0.3862  1.1618 -0.6922
  928MPD2    C413631   2.759   4.291   0.579 -0.5108  0.9187  0.8724
  928MPD2    C513632   2.638   4.335   0.627 -0.4736  0.5566 -0.4116
  928MPD2     H13633   2.917   4.579   0.582  2.7004 -1.5768 -0.2969
  928MPD2    H113634   2.756   4.185   0.554 -2.4703  0.8423  1.4489
  928MPD2    H213635   2.525   4.503   0.702 -0.4136 -0.3290  0.8154
  928MPD2    H313636   2.553   4.271   0.647 -0.5747  0.2213 -1.9230
  928MPD2     N13637   2.992   4.324   0.522  0.1677 -0.0970  0.3958
  928MPD2    H513638   3.003   4.224   0.504  0.1384 -0.0050 -0.1420
  928MPD2    N113639   2.719   4.679   0.654 -0.5679  0.2844  0.1979
  928MPD2    H713640   2.801   4.738   0.643 -0.0093 -0.0973  2.4623
  929MPD2     C13641   2.134   4.657  10.051 -0.2963 -0.6872  0.0156
  929MPD2    C113642   2.031   4.563  10.057  0.6820 -1.3649 -0.4433
  929MPD2    C213643   1.903   4.606  10.020  0.1902  0.4246  0.3091
  929MPD2    C313644   1.890   4.739   9.971 -0.1412 -0.1599 -0.0210
  929MPD2    C413645   2.000   0.080   9.964 -0.3650  0.2633 -0.3057
  929MPD2    C513646   2.121   0.037   9.994 -0.4668 -0.2734  0.1832
  929MPD2     H13647   1.815   4.543  10.024 -0.6923  1.4916 -2.5872
  929MPD2    H113648   1.998   0.180   9.924  2.5948 -0.4211 -2.1674
  929MPD2    H213649   2.239   4.643  10.070 -0.1713 -1.7172 -1.4601
  929MPD2    H313650   2.201   0.107   9.973 -1.6022  0.6413 -1.1725
  929MPD2     N13651   1.770   0.063   9.944  0.1953  0.3185  0.5308
  929MPD2    H513652   1.771   0.161   9.919 -0.2354  0.3937  0.8142
  929MPD2    N113653   2.063   4.429  10.087  0.1734 -0.2093 -0.4789
  929MPD2    H713654   2.158   4.405  10.116 -0.1030 -0.7080  0.0174
  930MPD2     C13655   0.446   1.526  13.946  0.2807 -0.9947  0.2901
  930MPD2    C113656   0.385   1.605  13.856  0.0532 -0.4496 -0.3146
  930MPD2    C213657   0.367   1.566  13.719  0.3253 -0.0929 -0.1635
  930MPD2    C313658   0.430   1.448  13.680  0.2499  0.2755 -0.2899
  930MPD2    C413659   0.492   1.369  13.776 -0.4292  0.0443  0.3572
  930MPD2    C513660   0.491   1.402  13.913  0.1693 -0.1175 -0.2042
  930MPD2     H13661   0.336   1.639  13.646 -0.4234 -1.2183 -0.9711
  930MPD2    H113662   0.554   1.288  13.741  0.4045 -0.7971  3.7391
  930MPD2    H213663   0.455   1.566  14.046 -0.3891 -0.7461  0.2522
  930MPD2    H313664   0.536   1.338  13.988 -0.3501  0.6541  0.7794
  930MPD2     N13665   0.442   1.416  13.542  0.2289  0.7482  0.4501
  930MPD2    H513666   0.504   1.341  13.512 -1.8011 -0.7388  0.0144
  930MPD2    N113667   0.376   1.741  13.894  0.2761  0.3761  0.2765
  930MPD2    H713668   0.445   1.779  13.958  2.3228 -1.7623 -0.6953
  931MPD2     C13669   0.546   0.646   0.238  0.0539 -0.4475 -0.0054
  931MPD2    C113670   0.446   0.654   0.330 -0.4747  0.3306 -0.0128
  931MPD2    C213671   0.480   0.636   0.464 -0.2021 -0.2183  0.7734
  931MPD2    C313672   0.606   0.594   0.498 -0.5853  0.0972  0.7532
  931MPD2    C413673   0.697   0.557   0.401  0.2222 -0.5669 -0.6861
  931MPD2    C513674   0.665   0.581   0.269  0.1885  0.1972 -0.6234
  931MPD2     H13675   0.423   0.703   0.528 -0.3741  1.0619 -0.7159
  931MPD2    H113676   0.797   0.533   0.435 -0.3701  0.1997  1.6214
  931MPD2    H213677   0.536   0.676   0.135  0.0562 -2.0767 -0.4839
  931MPD2    H313678   0.746   0.584   0.197  0.3868  1.0515 -0.3583
  931MPD2     N13679   0.647   0.580   0.634  0.6829  0.2263  0.1477
  931MPD2    H513680   0.737   0.539   0.655 -0.2424 -1.1650  1.3359
  931MPD2    N113681   0.324   0.707   0.293 -0.0190  0.6641  0.4761
  931MPD2    H713682   0.317   0.723   0.193  2.6436  2.1568  0.5171
  932MPD2     C13683   1.292   0.705  11.976 -0.4593  0.4385 -0.0312
  932MPD2    C113684   1.397   0.659  11.905  0.0203  0.0290 -0.0036
  932MPD2    C213685   1.396   0.524  11.875  0.4577 -0.0142 -0.0998
  932MPD2    C313686   1.293   0.441  11.927  0.2238  0.2015 -0.2281
  932MPD2    C413687   1.192   0.490  12.002  0.2663  0.3213 -0.2880
  932MPD2    C513688   1.193   0.625  12.030 -0.2411 -0.0081 -0.6508
  932MPD2     H13689   1.462   0.485  11.798  2.0096  2.7766 -0.1875
  932MPD2    H113690   1.119   0.418  12.037  0.3464 -0.6246 -2.1139
  932MPD2    H213691   1.276   0.809  12.002 -2.5789 -0.3670  1.8989
  932MPD2    H313692   1.110   0.662  12.090  1.6348  1.6310  0.9406
  932MPD2     N13693   1.297   0.299  11.903 -0.2857 -0.4069  0.6580
  932MPD2    H513694   1.251   0.240  11.972 -1.9918  0.2321  0.0716
  932MPD2    N113695   1.513   0.737  11.872 -0.6718  0.2515 -0.7229
  932MPD2    H713696   1.583   0.702  11.807  1.2603  1.1555  0.8589
  933MPD2     C13697   2.843   0.675   0.284 -0.1507 -0.1538  0.4978
  933MPD2    C113698   2.827   0.543   0.266  1.2436 -0.7515  0.1544
  933MPD2    C213699   2.824   0.495   0.140  0.2379  0.8875  0.3745
  933MPD2    C313700   2.829   0.572   0.021 -0.3084  0.5293  0.0486
  933MPD2    C413701   2.851   0.709   0.042  0.9908  0.0959 -0.5950
  933MPD2    C513702   2.863   0.754   0.173 -0.2305  0.3514  0.0096
  933MPD2     H13703   2.811   0.389   0.121 -4.9832  1.8171 -1.1815
  933MPD2    H113704   2.873   0.784  17.723  2.0464  2.4325  2.0707
  933MPD2    H213705   2.828   0.716   0.383  0.7330 -0.2162  0.6608
  933MPD2    H313706   2.871   0.861   0.188  0.8707  0.1087  1.1288
  933MPD2     N13707   2.810   0.510  17.650  0.2399  0.3233 -0.3409
  933MPD2    H513708   2.819   0.409  17.642 -0.2324  0.3382 -1.0801
  933MPD2    N113709   2.789   0.477   0.386  0.2555  0.2026  0.3194
  933MPD2    H713710   2.807   0.529   0.472 -0.7510  1.4757 -0.2335
  934MPD2     C13711   4.283   2.406   1.279 -0.3905 -0.1578 -0.3007
  934MPD2    C113712   4.325   2.324   1.175  0.4555 -0.1344  0.1522
  934MPD2    C213713   4.240   2.228   1.125 -0.3652 -0.4000 -0.2486
  934MPD2    C313714   4.106   2.229   1.175 -0.2047  0.9691 -0.5850
  934MPD2    C413715   4.073   2.307   1.280  0.1568 -0.3783  0.2182
  934MPD2    C513716   4.158   2.398   1.328 -0.1838 -0.1216  0.4138
  934MPD2     H13717   4.275   2.161   1.047  0.1229  0.2111 -0.5518
  934MPD2    H113718   3.975   2.305   1.325 -0.3796 -1.2606 -0.9826
  934MPD2    H213719   4.346   2.483   1.322 -2.2901  1.6164 -0.7135
  934MPD2    H313720   4.123   2.473   1.397 -0.6579 -0.2156  0.2722
  934MPD2     N13721   4.009   2.136   1.130  0.3820 -0.0508 -0.6296
  934MPD2    H513722   3.917   2.156   1.166 -0.3859 -1.3238 -1.8580
  934MPD2    N113723   4.454   2.329   1.117 -0.1442 -0.1666  0.4633
  934MPD2    H713724   4.474   2.278   1.031 -1.1271  0.9691 -0.4529
  935MPD2     C13725   4.120   1.189   1.016  0.1668  0.0487  0.3114
  935MPD2    C113726   3.996   1.197   0.960  0.3772 -0.0176  0.2331
  935MPD2    C213727   3.929   1.324   0.964 -0.1395  0.6435 -0.2067
  935MPD2    C313728   3.988   1.434   1.022 -0.2906  0.0003  0.1423
  935MPD2    C413729   4.101   1.406   1.096  0.1551  0.4013 -0.2808
  935MPD2    C513730   4.171   1.290   1.088  0.0916 -0.5928  0.9045
  935MPD2     H13731   3.823   1.327   0.940 -0.2101 -0.5606 -0.0627
  935MPD2    H113732   4.144   1.487   1.154  0.5583 -0.5781  0.7858
  935MPD2    H213733   4.180   1.099   1.015  1.6689  1.0384  1.4390
  935MPD2    H313734   4.275   1.286   1.119  0.3064  0.5016  0.3528
  935MPD2     N13735   3.926   1.559   1.046 -0.1935 -0.3201  0.5997
  935MPD2    H513736   3.971   1.622   1.112 -1.1293  1.5103 -0.5306
  935MPD2    N113737   3.922   1.087   0.908  0.3809  0.2659  0.2177
  935MPD2    H713738   3.821   1.094   0.901  0.2454  1.4578  3.6430
  936MPD2     C13739   2.196   4.073  12.703  0.0866 -0.7883 -0.6281
  936MPD2    C113740   2.275   3.979  12.770 -0.0319 -0.4583 -0.1549
  936MPD2    C213741   2.409   3.994  12.778 -0.5953  0.0998 -0.9521
  936MPD2    C313742   2.471   4.091  12.705  0.4152 -0.9576 -0.1595
  936MPD2    C413743   2.397   4.185  12.646 -0.3328 -0.1654 -0.4301
  936MPD2    C513744   2.261   4.175  12.637 -0.7704 -0.1076  0.0802
  936MPD2     H13745   2.465   3.920  12.835 -0.9614  0.6410  0.0904
  936MPD2    H113746   2.434   4.278  12.605 -0.4126  0.2753  0.5204
  936MPD2    H213747   2.089   4.058  12.701 -0.1481  0.6274  2.0125
  936MPD2    H313748   2.204   4.233  12.565  0.5057  0.0709 -0.7824
  936MPD2     N13749   2.611   4.098  12.720  0.1265 -0.1037  0.5606
  936MPD2    H513750   2.647   4.019  12.772 -0.6151 -1.7113 -1.3573
  936MPD2    N113751   2.221   3.877  12.848  0.7084 -0.3220 -0.3314
  936MPD2    H713752   2.285   3.825  12.907 -0.4331 -0.0693  1.1142
  937MPD2     C13753   0.369   0.264  11.687  0.3992 -0.2552 -0.1948
  937MPD2    C113754   0.378   0.400  11.701 -0.1966 -0.2089  0.7290
  937MPD2    C213755   0.454   0.462  11.604 -0.0027  0.1443  0.3497
  937MPD2    C313756   0.526   0.397  11.511  0.2911  0.1576 -0.1493
  937MPD2    C413757   0.532   0.260  11.510  0.0142  0.1799  0.1046
  937MPD2    C513758   0.448   0.195  11.599  0.6644 -0.0942 -0.3623
  937MPD2     H13759   0.447   0.570  11.605  0.3685  0.1653  0.4813
  937MPD2    H113760   0.592   0.204  11.439  0.9182  0.7160  0.4414
  937MPD2    H213761   0.306   0.206  11.754 -0.9841  1.0377 -0.3638
  937MPD2    H313762   0.447   0.087  11.600 -2.7500 -0.0464  2.4213
  937MPD2     N13763   0.612   0.469  11.426 -1.2851  0.2137  0.5059
  937MPD2    H513764   0.606   0.570  11.430 -1.4456  0.2167  0.1118
  937MPD2    N113765   0.288   0.482  11.765  0.1592 -0.6614  0.3472
  937MPD2    H713766   0.308   0.580  11.747  0.4950 -0.7166  0.4080
  938MPD2     C13767   2.913   1.686  17.710  0.5792  0.2191  0.3522
  938MPD2    C113768   2.946   1.731   0.078 -0.3038  0.3375 -0.5108
  938MPD2    C213769   2.966   1.637   0.177 -0.2120 -0.1885 -0.2065
  938MPD2    C313770   2.933   1.500   0.165 -0.2164 -0.8502 -0.3725
  938MPD2    C413771   2.890   1.463   0.039 -0.5889 -0.4460 -0.1854
  938MPD2    C513772   2.881   1.555  17.691  0.0512 -0.0942 -0.5719
  938MPD2     H13773   3.002   1.666   0.274 -1.8811 -1.1222  0.6981
  938MPD2    H113774   2.870   1.360   0.013  0.4601 -1.2199  2.1094
  938MPD2    H213775   2.899   1.745  17.620  0.5777  0.2232  0.3552
  938MPD2    H313776   2.848   1.528  17.591 -1.1063 -0.2071 -0.1611
  938MPD2     N13777   2.946   1.399   0.266  0.1110 -0.1161  0.0759
  938MPD2    H513778   2.899   1.312   0.244 -1.3846  0.5869  0.4739
  938MPD2    N113779   2.981   1.866   0.104  0.0642 -0.2122 -0.2326
  938MPD2    H713780   3.012   1.882   0.200  2.0583  0.3804 -0.9902
  939MPD2     C13781   4.267   3.111   0.999 -1.3043 -0.3446 -1.0215
  939MPD2    C113782   4.313   3.118   0.871  0.3027  0.8198  0.3179
  939MPD2    C213783   4.238   3.067   0.766 -0.1650  0.1826 -0.1937
  939MPD2    C313784   4.121   3.001   0.795  0.2253  0.1168 -0.0569
  939MPD2    C413785   4.072   2.992   0.923 -0.5920 -0.1006  0.2048
  939MPD2    C513786   4.149   3.045   1.027  0.3757  0.4601  0.4610
  939MPD2     H13787   4.259   3.074   0.660 -1.4385  0.6845 -0.4078
  939MPD2    H113788   3.994   2.921   0.943 -0.1623 -0.3260  1.0836
  939MPD2    H213789   4.316   3.146   1.089  0.9261 -2.2276 -1.4678
  939MPD2    H313790   4.121   3.027   1.130 -0.6835 -0.5309 -0.0168
  939MPD2     N13791   4.053   2.942   0.687  0.2140  0.3349 -0.5735
  939MPD2    H513792   4.103   2.944   0.598  0.0283 -1.4709 -0.7165
  939MPD2    N113793   4.439   3.183   0.858  0.2702 -0.3262 -0.7548
  939MPD2    H713794   4.483   3.231   0.936  2.2564 -2.4008 -0.5993
  940MPD2     C13795   3.401   3.794  13.452  0.0764  1.0431 -0.6833
  940MPD2    C113796   3.319   3.685  13.413  0.0700  0.9608 -0.5794
  940MPD2    C213797   3.327   3.645  13.286 -0.6458  0.4674 -0.7568
  940MPD2    C313798   3.417   3.693  13.190 -0.3654  0.4943  0.2480
  940MPD2    C413799   3.485   3.806  13.229 -0.5332 -0.4083 -0.3748
  940MPD2    C513800   3.485   3.848  13.356 -0.6684 -1.4299  0.4223
  940MPD2     H13801   3.262   3.566  13.249 -0.6671 -0.4538  1.2737
  940MPD2    H113802   3.551   3.858  13.162  0.1902  0.0424  0.6869
  940MPD2    H213803   3.409   3.824  13.556  2.4857  2.8577 -1.3766
  940MPD2    H313804   3.562   3.916  13.389 -1.9360 -0.5434  1.5553
  940MPD2     N13805   3.425   3.650  13.057 -0.3268  0.0666  0.7923
  940MPD2    H513806   3.482   3.696  12.987 -0.9326 -1.4193 -0.6760
  940MPD2    N113807   3.225   3.619  13.494  0.0604  0.8224  0.1267
  940MPD2    H713808   3.150   3.567  13.449  1.2217  0.6316 -1.6017
  941MPD2     C13809   2.389   3.247   9.872  0.2330  0.1631 -0.6980
  941MPD2    C113810   2.466   3.303   9.969 -0.0562 -0.0741  0.0876
  941MPD2    C213811   2.431   3.276  10.103 -0.4140 -0.3314 -0.1774
  941MPD2    C313812   2.321   3.197  10.135  0.0020  0.4724  0.2946
  941MPD2    C413813   2.249   3.149  10.031 -0.8854 -0.3532  0.4987
  941MPD2    C513814   2.283   3.169   9.901  0.1164 -0.2156  0.2798
  941MPD2     H13815   2.493   3.303  10.188 -0.4951  1.1346 -0.5785
  941MPD2    H113816   2.159   3.093  10.054 -1.6192  0.6315  0.0213
  941MPD2    H213817   2.402   3.267   9.766 -0.3683 -2.5841 -1.3088
  941MPD2    H313818   2.218   3.130   9.823  0.7744  0.0757 -0.4074
  941MPD2     N13819   2.282   3.167  10.271 -0.0610 -0.2267  0.5844
  941MPD2    H513820   2.210   3.095  10.278 -1.5292  0.9695 -2.5066
  941MPD2    N113821   2.573   3.392   9.938  0.3202 -0.1100 -0.6826
  941MPD2    H713822   2.607   3.441  10.020 -0.1957  0.5889 -0.8835
  942MPD2     C13823   1.755   0.234   9.398  0.0208 -0.0234 -0.3431
  942MPD2    C113824   1.880   0.175   9.390  0.1482 -0.3025 -0.4610
  942MPD2    C213825   1.976   0.222   9.301  0.0655  0.6855  0.1943
  942MPD2    C313826   1.934   0.324   9.216  0.1198  0.1124  0.8955
  942MPD2    C413827   1.804   0.364   9.215 -0.4905 -0.2260  0.3161
  942MPD2    C513828   1.718   0.320   9.302 -0.4625  0.4015 -0.4402
  942MPD2     H13829   2.078   0.186   9.311  0.4192  2.3022  2.3498
  942MPD2    H113830   1.770   0.433   9.139  0.2772 -0.2661 -0.0567
  942MPD2    H213831   1.678   0.198   9.466 -0.8180 -0.5415 -1.5663
  942MPD2    H313832   1.615   0.354   9.299  0.2238  2.5061  0.1717
  942MPD2     N13833   2.018   0.395   9.121 -0.4555 -0.0878 -0.1850
  942MPD2    H513834   1.970   0.467   9.068  0.2617  0.3625 -0.2180
  942MPD2    N113835   1.924   0.073   9.476  0.5286  0.0682 -0.3032
  942MPD2    H713836   2.017   0.038   9.455  0.5032  0.2733 -0.7797
  943MPD2     C13837   1.040   2.885   9.985 -0.5822  0.6230 -0.0838
  943MPD2    C113838   0.978   2.781  10.054 -0.2699  0.3672  0.1048
  943MPD2    C213839   0.941   2.808  10.186 -0.0860  0.2325 -0.3949
  943MPD2    C313840   0.958   2.939  10.245 -0.5515 -0.2073 -0.0542
  943MPD2    C413841   1.003   3.045  10.165  0.5025 -0.1757 -0.1928
  943MPD2    C513842   1.044   3.014  10.036  0.3953  0.1041  0.3028
  943MPD2     H13843   0.895   2.727  10.241  0.6097 -1.5512 -2.4296
  943MPD2    H113844   1.004   3.142  10.213  1.0392 -0.4765  0.3938
  943MPD2    H213845   1.065   2.873   9.881 -1.9349  0.0629 -0.3416
  943MPD2    H313846   1.061   3.102   9.975  2.2132  1.0285  2.1304
  943MPD2     N13847   0.928   2.977  10.381 -0.4403 -0.0509 -0.2331
  943MPD2    H513848   0.934   3.073  10.412 -2.9864 -0.3558  1.2092
  943MPD2    N113849   0.966   2.653   9.991  0.4383  0.2564 -0.4055
  943MPD2    H713850   1.015   2.646   9.902  0.8092  0.7106 -0.2429
  944MPD2     C13851   4.738   2.076  11.181  0.6068 -0.1929  0.0404
  944MPD2    C113852   0.133   2.101  11.170  0.5529  0.2934 -0.6270
  944MPD2    C213853   0.181   2.206  11.238  0.1428  0.0703 -0.0304
  944MPD2    C313854   0.103   2.281  11.322 -0.3099 -0.1802 -0.1235
  944MPD2    C413855   4.707   2.258  11.320 -0.0064  0.0655 -0.1417
  944MPD2    C513856   4.656   2.155  11.253 -0.0754 -0.5836  0.3236
  944MPD2     H13857   0.287   2.228  11.238  0.2969 -0.6711  2.3033
  944MPD2    H113858   4.639   2.326  11.370  0.3640 -0.6007  1.2823
  944MPD2    H213859   4.680   2.005  11.123  1.8944  0.5252 -2.0819
  944MPD2    H313860   4.548   2.153  11.243  0.0134 -0.1145 -0.7244
  944MPD2     N13861   0.172   2.380  11.402 -0.2536 -0.4280 -0.1023
  944MPD2    H513862   0.271   2.387  11.380 -0.0858 -2.3642  0.0275
  944MPD2    N113863   0.207   2.025  11.074 -0.2734  0.6369  0.8109
  944MPD2    H713864   0.157   1.952  11.024 -0.6995  1.0132  0.6839
    1TMC1    C113865   3.708   2.707  14.219  0.0707  0.1182 -0.1558
    1TMC1    C213866   3.768   2.585  14.184 -0.4819  0.2933  0.1420
    1TMC1    C313867   3.746   2.549  14.050  0.0575  0.3321 -0.3001
    1TMC1    C413868   3.630   2.780  14.139 -0.2831  0.0303  0.7845
    1TMC1    C513869   3.599   2.734  14.013 -0.5865 -0.6698 -0.2709
    1TMC1    C613870   3.660   2.618  13.967  0.8732  0.0302  0.7439
    1TMC1     C13871   3.751   2.755  14.350 -0.4363  0.2305 -0.0793
    1TMC1     O13872   3.823   2.682  14.414  0.1831  0.7258 -0.5777
    1TMC1     H13873   3.796   2.507  14.254 -0.2956  0.7648  0.5881
    1TMC1    H113874   3.579   2.869  14.175  0.8495  0.7816  0.5671
    1TMC1    H213875   3.647   2.591  13.863 -2.8119  0.5261  1.0782
    1TMC1    C713876   3.542   2.823  13.912  0.1173 -0.1425  0.8141
    1TMC1    C813877   3.816   2.439  13.995 -0.0202  0.6088 -1.0519
    1TMC1    O113878   3.543   2.938  13.947 -0.3382 -0.1306  0.3083
    1TMC1    O213879   3.792   2.402  13.879  0.3629 -0.4469 -0.1828
    1TMC1    O313880   3.426   2.756  13.891 -0.4785 -0.0432 -0.0873
    1TMC1    H313881   3.438   2.660  13.908 -0.0298 -0.3272 -2.0302
    1TMC1    O513882   3.929   2.434  14.071  0.1279 -0.1110  0.3592
    1TMC1    H513883   3.986   2.363  14.034 -2.6142 -1.5921 -1.0381
    2MPD2     C13884   3.787   3.104  14.727  0.7193 -0.0556  0.7218
    2MPD2    C113885   3.698   3.155  14.628 -0.0894  0.2097 -0.8339
    2MPD2    C213886   3.672   3.077  14.517  0.2359  0.2864 -0.2634
    2MPD2    C313887   3.742   2.957  14.498  0.2199 -0.2411 -1.1239
    2MPD2    C413888   3.835   2.914  14.588 -0.4923 -0.2144  0.4740
    2MPD2    C513889   3.855   2.983  14.701 -0.5591  1.0398  0.2988
    2MPD2     H13890   3.592   3.102  14.448 -0.4696  1.5244  1.0085
    2MPD2    H113891   3.894   2.824  14.574 -1.0157 -0.7403  1.6449
    2MPD2    H213892   3.825   3.167  14.807 -2.7819  1.3705  1.2707
    2MPD2    H313893   3.926   2.936  14.768 -1.1052 -1.2644 -0.7660
    2MPD2     N13894   3.711   2.884  14.382  0.0221  0.2809  0.0436
    2MPD2    H513895   3.665   2.935  14.306 -0.0005 -0.7121 -0.6016
    2MPD2    N113896   3.625   3.272  14.667  0.0228 -0.3266 -0.2112
    2MPD2    H713897   3.656   3.306  14.757  0.4852  0.0110 -0.4960
    3TMC2    C113898   3.516   3.473  14.648 -0.6885 -0.6388 -0.1469
    3TMC2    C213899   3.548   3.505  14.774  0.8778  0.0741 -0.3177
    3TMC2    C313900   3.511   3.627  14.820 -0.5586  0.2729 -0.2834
    3TMC2    C413901   3.446   3.553  14.562 -0.0488  0.1914 -1.3604
    3TMC2    C513902   3.425   3.681  14.607 -0.4370  0.2084  0.0328
    3TMC2    C613903   3.469   3.718  14.728 -1.0745  0.0613 -0.2437
    3TMC2     C13904   3.535   3.344  14.591 -0.0078  0.0640  0.5121
    3TMC2     O13905   3.505   3.332  14.476 -1.1902  0.3901 -0.0761
    3TMC2     H13906   3.595   3.437  14.844  2.4103  0.2398 -1.1856
    3TMC2    H113907   3.432   3.525  14.458 -2.2142  0.3596 -1.1179
    3TMC2    H213908   3.462   3.820  14.763  0.5635 -0.1426  0.6638
    3TMC2    C713909   3.318   3.765  14.556 -0.5674  0.0235 -0.6200
    3TMC2    C813910   3.560   3.685  14.941 -0.3601 -0.7866 -0.3831
    3TMC2    O113911   3.285   3.851  14.637 -0.4408  0.5991  0.0570
    3TMC2    O213912   3.617   3.792  14.951  0.0913 -0.5981  0.4312
    3TMC2    O513913   3.510   3.609  15.038 -0.1602  0.0477 -0.0884
    3TMC2    H513914   3.453   3.539  14.999 -0.3238  0.6983 -1.0191
    4TMC2    C113915   2.899   4.012  13.678 -0.5820 -0.2987  0.1287
    4TMC2    C213916   2.992   4.047  13.584  0.3065 -0.1457 -0.1322
    4TMC2    C313917   3.118   3.997  13.598 -0.2893 -0.3260  0.7740
    4TMC2    C413918   2.936   3.943  13.792  0.6017  0.6175 -0.1535
    4TMC2    C513919   3.063   3.915  13.810  0.3930 -0.3561  0.1913
    4TMC2    C613920   3.156   3.937  13.714 -0.1356 -0.7021  0.1217
    4TMC2     C13921   2.756   4.005  13.643 -0.5155  0.1403  0.1363
    4TMC2     O13922   2.685   3.967  13.737  0.5200 -0.3359 -0.0983
    4TMC2     H13923   2.959   4.126  13.518  1.1886 -2.0070 -2.8107
    4TMC2    H113924   2.861   3.891  13.852  0.5885 -0.9853 -1.5458
    4TMC2    H213925   3.260   3.906  13.718 -0.4275 -1.8425 -1.3059
    4TMC2    C713926   3.109   3.871  13.939 -0.0848  0.0494 -0.2198
    4TMC2    C813927   3.232   4.061  13.532  0.2773 -0.3643  0.0395
    4TMC2    O113928   3.224   3.829  13.945  0.3092 -0.6162 -0.3866
    4TMC2    O213929   3.303   4.118  13.613  0.4962 -0.4386 -0.7341
    4TMC2    O513930   3.184   4.124  13.427  0.9652  0.0407  0.2305
    4TMC2    H513931   3.116   4.071  13.379 -1.1327  2.1793  0.8256
    5MPD2     C13932   2.347   4.020  13.338 -0.8914  0.0874  0.1559
    5MPD2    C113933   2.436   4.116  13.295 -0.5900  0.1462 -0.1993
    5MPD2    C213934   2.556   4.120  13.356 -0.0744 -0.2886  0.7689
    5MPD2    C313935   2.596   4.041  13.458 -0.8453 -0.2624  0.0973
    5MPD2    C413936   2.504   3.948  13.507  0.1641  0.0530 -0.3159
    5MPD2    C513937   2.382   3.940  13.449 -0.4075  0.4794  0.0412
    5MPD2     H13938   2.621   4.204  13.334  0.5725 -0.9280  0.2612
    5MPD2    H113939   2.525   3.882  13.591 -0.1777 -0.6179 -0.7541
    5MPD2    H213940   2.250   4.007  13.292 -1.0446 -0.4455  0.6265
    5MPD2    H313941   2.315   3.860  13.478  1.6549  0.2953  4.3922
    5MPD2     N13942   2.715   4.062  13.521  0.6031  0.3711 -0.3652
    5MPD2    H513943   2.785   4.098  13.456  0.5315  2.1067  0.5188
    5MPD2    N113944   2.417   4.184  13.174 -0.4312  0.5870 -0.5619
    5MPD2    H713945   2.320   4.195  13.143  0.0601  0.7548 -2.0472
    6MPD1     C13946   2.192   0.924  13.695 -0.4564  1.0213  0.8469
    6MPD1    C113947   2.200   0.991  13.575  0.1954  0.1395  0.3148
    6MPD1    C213948   2.193   0.920  13.458 -0.0367  0.8116 -0.5854
    6MPD1    C313949   2.194   0.781  13.461 -0.1392  0.4027  0.1104
    6MPD1    C413950   2.187   0.713  13.580  0.0535 -0.3913 -0.0539
    6MPD1    C513951   2.188   0.787  13.700 -0.2632 -0.7362  0.1567
    6MPD1     H13952   2.184   0.971  13.363  0.7148  3.2413  0.6633
    6MPD1    H113953   2.176   0.605  13.589 -0.4108 -0.4043 -0.8223
    6MPD1    H213954   2.192   0.984  13.786  0.2557 -0.8798  2.1094
    6MPD1    H313955   2.178   0.739  13.796  0.0462 -0.6687  0.2243
    6MPD1     N13956   2.197   0.716  13.334  0.0765  0.3700  0.7949
    6MPD1    H513957   2.172   0.618  13.328 -1.4965  0.7783  0.6433
    6MPD1    N113958   2.172   1.127  13.580  0.2395 -0.2666 -0.2154
    6MPD1    H613959   2.199   1.171  13.667  0.7581  2.0698 -1.5564
    6MPD1    H713960   2.216   1.187  13.511 -2.3625  1.9663  0.0673
    7MPD2     C13961   1.881   0.124  13.104 -0.5190  0.7103 -0.1777
    7MPD2    C113962   2.013   0.148  13.079  0.4792  0.0144 -0.0133
    7MPD2    C213963   2.091   0.045  13.039 -0.6622  0.3372 -0.5217
    7MPD2    C313964   2.045   4.654  13.040 -0.5463  0.0156 -0.6087
    7MPD2    C413965   1.908   4.630  13.069 -0.0386  0.1250 -0.5655
    7MPD2    C513966   1.827   4.738  13.090  0.5875 -0.0983 -0.6513
    7MPD2     H13967   2.183   0.071  12.988  0.2524  2.2820  2.1780
    7MPD2    H113968   1.862   4.534  13.085  0.5762 -0.0398  0.1904
    7MPD2    H213969   1.817   0.209  13.123  0.0380  0.9074  0.8014
    7MPD2    H313970   1.728   4.715  13.129  0.1831  1.7689 -0.5759
    7MPD2     N13971   2.114   4.543  12.985 -0.4589  0.0995  0.2642
    7MPD2    H513972   2.076   4.451  13.001  1.6060 -0.8562 -0.3776
    7MPD2    N113973   2.062   0.275  13.055  0.7116 -0.5928  0.3413
    7MPD2    H713974   2.161   0.285  13.038 -0.1363  4.5421 -1.3392
    8TMC3    C113975   2.309   4.446  12.871  0.6404  1.0643 -0.4024
    8TMC3    C213976   2.342   4.366  12.975 -0.5489  0.1493 -0.5223
    8TMC3    C313977   2.473   4.345  13.002  0.3039 -0.3132 -0.1854
    8TMC3    C413978   2.402   4.494  12.789  0.2626 -0.6588 -0.4312
    8TMC3    C513979   2.535   4.471  12.819  0.6125  0.2922 -0.7206
    8TMC3    C613980   2.572   4.391  12.923 -0.5541 -0.1734 -0.2393
    8TMC3     C13981   2.233   4.564  12.917 -0.5271  0.4367 -0.2058
    8TMC3     O13982   2.286   4.663  12.867 -0.1489 -0.7163  0.0600
    8TMC3     H13983   2.264   4.343  13.046 -0.4536 -2.7414 -1.3839
    8TMC3    H113984   2.377   4.547  12.697 -2.7077 -0.0304  0.7398
    8TMC3    H213985   2.676   4.363  12.934 -0.2908  1.0831  0.4084
    8TMC3    C713986   2.622   4.582  12.792 -0.5619 -0.2989 -0.3009
    8TMC3    C813987   2.518   4.237  13.096  0.0347 -0.2873  0.0595
    8TMC3    O113988   2.744   4.565  12.766 -1.0063 -0.5698 -0.1496
    8TMC3    O213989   2.635   4.198  13.098 -0.1053 -0.6538  0.0616
    9TMC3    C113990   2.185   0.696  13.098  1.4543 -0.4192 -0.2788
    9TMC3    C213991   2.282   0.679  13.003 -0.3344 -0.2964  0.1641
    9TMC3    C313992   2.273   0.577  12.913 -0.6335  0.5236  0.6345
    9TMC3    C413993   2.085   0.602  13.105 -0.4159 -0.0999 -0.2251
    9TMC3    C513994   2.079   0.504  13.009  0.0020 -0.9573 -0.0177
    9TMC3    C613995   2.179   0.480  12.919  0.4387  0.4639  0.2726
    9TMC3     C13996   2.218   0.775  13.210  0.1580 -0.4200 -0.3680
    9TMC3     O13997   2.302   0.863  13.190  0.0696 -0.1781  0.1654
    9TMC3     H13998   2.374   0.737  13.008 -0.9206  0.6461 -0.0493
    9TMC3    H113999   2.008   0.610  13.182  0.9379  0.7966  1.0390
    9TMC3    H214000   2.161   0.407  12.841 -1.1597 -0.4445  1.4879
    9TMC3    C714001   1.993   0.396  13.040  0.1358  0.3579 -0.5173
    9TMC3    C814002   2.386   0.544  12.828  0.0222 -1.2017  1.2972
    9TMC3    O114003   1.875   0.426  13.069 -0.1198 -0.3949  0.0073
    9TMC3    O214004   2.442   0.630  12.761 -0.3793 -0.4485  0.0255
   10MPD2     C14005   2.694   0.133  12.690  0.1672 -0.0874 -0.1802
   10MPD2    C114006   2.581   0.093  12.769  0.1625 -0.0851 -0.5379
   10MPD2    C214007   2.486   0.189  12.798  0.3683  0.6352 -0.3011
   10MPD2    C314008   2.498   0.322  12.777  0.0004  0.0912 -0.3283
   10MPD2    C414009   2.605   0.361  12.701  0.1390 -0.3339 -0.1517
   10MPD2    C514010   2.697   0.264  12.655 -0.7059  0.2904  1.0316
   10MPD2     H14011   2.394   0.153  12.843  0.7200 -0.8997 -0.8012
   10MPD2    H114012   2.622   0.466  12.678  1.5548 -0.2798  1.1394
   10MPD2    H214013   2.772   0.068  12.652  0.0087 -0.6814  0.4984
   10MPD2    H314014   2.786   0.303  12.607  0.9336 -1.5280  2.5900
   10MPD2     N14015   2.403   0.411  12.839  0.2369 -0.4306  0.4256
   10MPD2    H514016   2.357   0.360  12.914  1.4313 -2.0559  0.0782
   10MPD2    N114017   2.548   4.701  12.806 -0.3802  0.5042  0.6722
   10MPD2    H714018   2.453   4.690  12.841 -0.4566 -0.2173  0.2451
   11MPD2     C14019   3.063   3.859  14.444 -0.1867  0.0618  0.3626
   11MPD2    C114020   3.162   3.801  14.366  0.0425 -0.4690  0.6973
   11MPD2    C214021   3.142   3.804  14.232  0.2239  0.2693 -0.2981
   11MPD2    C314022   3.040   3.875  14.175  0.0488 -0.2885 -0.1572
   11MPD2    C414023   2.947   3.933  14.249 -0.0425 -0.3681  0.0018
   11MPD2    C514024   2.953   3.914  14.383  0.1525 -0.0782 -0.2674
   11MPD2     H14025   3.219   3.758  14.170  0.5201 -0.6717  0.7619
   11MPD2    H114026   2.865   3.984  14.199  0.0426 -0.1972  0.0353
   11MPD2    H214027   3.054   3.839  14.550  1.7986 -2.4613  0.0530
   11MPD2    H314028   2.873   3.952  14.445 -1.1483 -3.4316  0.1029
   11MPD2     N14029   3.015   3.893  14.039 -0.1609  0.1101 -0.3300
   11MPD2    H514030   2.934   3.946  14.010 -1.4282 -1.4880  0.2952
   11MPD2    N114031   3.275   3.743  14.425 -0.7145  0.6616  0.1111
   11MPD2    H714032   3.342   3.691  14.369 -0.3673  1.7859 -0.5183
    1MPD1     C14033   0.878   4.379  17.537  0.2059 -0.1926 -0.2187
    1MPD1    C114034   0.841   4.468  17.432 -0.3883 -0.2479 -0.0788
    1MPD1    C214035   0.927   4.569  17.391 -0.2516 -1.0888  0.3423
    1MPD1    C314036   1.048   4.583  17.459  0.6369  0.1657  0.0120
    1MPD1    C414037   1.077   4.501  17.559 -0.0055  0.0634  0.7444
    1MPD1    C514038   0.992   4.401  17.598 -0.0671 -0.5346 -0.9393
    1MPD1     H14039   0.892   4.634  17.312 -0.4296  0.0388  1.3473
    1MPD1    H114040   1.171   4.506  17.614  0.4087 -0.7583  0.1125
    1MPD1    H214041   0.818   4.295  17.567  2.4499 -0.5047  3.3660
    1MPD1    H314042   1.014   4.332  17.679  1.9369  0.4539 -0.6199
    1MPD1     N14043   1.149   4.672  17.418 -0.6870  0.5088 -0.4635
    1MPD1    H514044   1.242   4.680  17.459 -0.7494 -0.3421 -0.1646
    1MPD1    N114045   0.733   4.426  17.364 -0.4509 -1.0715 -0.0668
    1MPD1    H614046   0.699   4.502  17.305 -1.5163 -1.8314 -0.4163
    1MPD1    H714047   0.655   4.419  17.429 -1.1720 -0.1759 -0.8270
    2MPD1     C14048   1.987   0.339  17.725  0.1321  0.3980 -0.1526
    2MPD1    C114049   1.990   0.394  17.598  0.5996 -0.5346  1.1856
    2MPD1    C214050   1.889   0.354  17.516  0.3290 -0.5045  0.5112
    2MPD1    C314051   1.787   0.270  17.552 -0.0441 -0.8855  0.1020
    2MPD1    C414052   1.789   0.216  17.670 -0.4996  0.0683 -0.2038
    2MPD1    C514053   1.886   0.252   0.006 -0.0641  0.2677  0.1622
    2MPD1     H14054   1.883   0.396  17.417 -1.3243 -0.1048  0.7873
    2MPD1    H114055   1.719   0.143  17.712 -0.0127  0.2009  0.8476
    2MPD1    H214056   2.059   0.370   0.043 -1.6137 -2.1470  2.6125
    2MPD1    H314057   1.894   0.215   0.108  0.4085 -1.8699 -0.6453
    2MPD1     N14058   1.679   0.250  17.462  0.0044 -0.1527  0.4560
    2MPD1    H514059   1.693   0.287  17.369 -0.4117  0.7315  0.7426
    2MPD1    N114060   2.100   0.470  17.552 -0.2696 -0.5722  0.5580
    2MPD1    H614061   2.143   0.520  17.629 -0.6680 -0.7943  0.9265
    2MPD1    H714062   2.062   0.536  17.485  1.9118  1.8857  1.7671
    3TMC3    C114063   1.458   0.181  17.395  0.2303  0.0424 -0.0157
    3TMC3    C214064   1.460   0.272  17.291  0.1178 -0.5341  0.6319
    3TMC3    C314065   1.358   0.280  17.195 -0.4226 -0.0134  0.2643
    3TMC3    C414066   1.349   0.102  17.409 -0.1635 -0.8267 -0.3525
    3TMC3    C514067   1.245   0.112  17.317 -0.1952 -0.4583 -0.4492
    3TMC3    C614068   1.252   0.195  17.205  0.5000 -0.1602  0.1927
    3TMC3     C14069   1.562   0.177  17.496 -0.4719 -0.0700  0.6050
    3TMC3     O14070   1.531   0.126  17.602 -0.8117  0.1589  0.4833
    3TMC3     H14071   1.535   0.349  17.297  0.6953 -1.0908  0.5646
    3TMC3    H114072   1.349   0.033  17.493  1.5105 -1.3763 -0.8161
    3TMC3    H214073   1.171   0.192  17.132 -0.6630 -0.3915  1.4993
    3TMC3    C714074   1.134   0.026  17.322  0.0382 -0.2044 -0.0645
    3TMC3    C814075   1.362   0.371  17.091  0.6175 -0.0225 -0.3853
    3TMC3    O114076   1.049   0.039  17.236 -0.6657  0.1564 -0.1798
    3TMC3    O214077   1.269   0.368  17.012  0.1146 -0.1480 -0.2644
    4MPD1     C14078   1.609   0.645  16.760 -1.0302  0.5973 -0.0763
    4MPD1    C114079   1.704   0.596  16.845 -0.1402  0.4921 -0.4152
    4MPD1    C214080   1.666   0.524  16.951  0.3764 -0.3626  0.2098
    4MPD1    C314081   1.532   0.507  16.977  0.6422 -0.1875  0.2594
    4MPD1    C414082   1.435   0.577  16.905  0.5463  0.6055  0.1751
    4MPD1    C514083   1.481   0.644  16.795  0.4317  0.1701  0.0254
    4MPD1     H14084   1.749   0.478  17.002 -0.8055 -1.1409  1.4185
    4MPD1    H114085   1.327   0.567  16.913  0.4873  0.9830 -0.1633
    4MPD1    H214086   1.640   0.704  16.674  1.8624 -1.5711 -0.5164
    4MPD1    H314087   1.407   0.703  16.741 -1.7363 -1.8390  0.8608
    4MPD1     N14088   1.491   0.414  17.078 -0.5045  0.2137 -0.0269
    4MPD1    H514089   1.563   0.382  17.141 -1.5577 -0.8096  0.6507
    4MPD1    N114090   1.833   0.578  16.795  0.0940  0.3604 -0.3276
    4MPD1    H614091   1.872   0.660  16.749  1.1359  0.8831  1.4825
    4MPD1    H714092   1.900   0.561  16.869 -0.2720  1.0159  0.1585
    1TCq1    O114093   1.722   4.694  11.745  0.5364  0.2281  0.1164
    1TCq1    C114094   1.808   4.644  11.653 -0.7543 -0.2040 -0.1071
    1TCq1    O214095   1.780   4.588  11.546 -0.1090 -0.2748 -0.7007
    1TCq1    C214096   1.941   4.649  11.713 -0.3965 -0.2446  0.4681
    1TCq1    C314097   1.976   0.004  11.810 -0.5372 -0.2931 -0.4285
    1TCq1    C414098   2.109   0.027  11.852  0.1954 -0.6603  1.1948
    1TCq1    C514099   2.210   4.696  11.790  0.4615 -0.5998  0.0943
    1TCq1    C614100   2.171   4.596  11.697 -0.5963 -0.0891  0.4432
    1TCq1    C714101   2.043   4.577  11.655  0.1479 -0.3252  0.2145
    1TCq1    C814102   2.268   4.519  11.621  0.0358 -0.2596 -0.2905
    1TCq1    O414103   2.232   4.474  11.515  0.2080 -0.7864 -0.2379
    1TCq1    C914104   2.133   0.167  11.902  0.5688 -0.4023  0.1120
    1TCq1    O514105   2.252   0.203  11.922 -0.2822  0.5579  0.2062
    1TCq1    O614106   2.052   0.251  11.870  0.5259 -0.8411 -0.4001
    1TCq1    H114107   1.761   4.716  11.832  1.4988  1.0936 -0.5312
    1TCq1    H214108   1.902   0.079  11.837  0.7086 -0.0156  2.1635
    1TCq1    H314109   2.314   4.725  11.800 -0.9318  3.6376  2.2357
    1TCq1    H414110   2.024   4.492  11.589  0.5304  0.1668 -0.5337
    2MPD1     C14111   2.757   4.423  11.510 -1.0843 -0.4015 -0.1121
    2MPD1    C114112   2.752   4.443  11.646  0.6933  0.2686 -0.4371
    2MPD1    C214113   2.631   4.476  11.700  0.1685  0.1440  0.6674
    2MPD1    C314114   2.517   4.489  11.621 -0.4276  0.5961 -0.2317
    2MPD1    C414115   2.521   4.479  11.484  0.2723  0.3223 -0.1910
    2MPD1    C514116   2.640   4.442  11.434 -0.3470 -0.1787 -0.6955
    2MPD1     H14117   2.622   4.506  11.804 -0.9642  1.4144  0.1829
    2MPD1    H114118   2.442   4.472  11.411  0.7009 -2.7914 -0.3862
    2MPD1    H214119   2.849   4.382  11.470 -1.2632 -0.7439 -0.1721
    2MPD1    H314120   2.633   4.413  11.330 -2.0533 -1.6440 -0.1764
    2MPD1     N14121   2.388   4.512  11.683 -0.0151 -0.4820  0.1924
    2MPD1    H514122   2.385   4.540  11.781 -2.8363 -1.8298  0.4857
    2MPD1    N114123   2.869   4.446  11.723 -1.1794  0.0197 -0.2954
    2MPD1    H614124   2.957   4.411  11.686 -0.9052 -1.6160  1.9441
    2MPD1    H714125   2.854   4.404  11.814  0.1802  2.1019  0.8854
    1TMC1    C114126   1.187   0.491  10.545  0.3998  0.0988  0.1588
    1TMC1    C214127   1.134   0.456  10.668 -0.2635  1.0297  0.1957
    1TMC1    C314128   1.173   0.519  10.776 -0.6182 -0.0508 -0.0324
    1TMC1    C414129   1.289   0.587  10.530  0.0820  0.4083  0.6556
    1TMC1    C514130   1.334   0.642  10.648  0.5902  0.2027  0.4982
    1TMC1    C614131   1.285   0.610  10.772  0.2113  0.1061 -0.3867
    1TMC1     C14132   1.143   0.422  10.426  0.9453  0.5993 -0.1124
    1TMC1     O14133   1.160   0.479  10.320  0.2575  0.9604 -0.1198
    1TMC1     H14134   1.046   0.395  10.678  1.0764 -0.6842  1.5157
    1TMC1    H114135   1.341   0.608  10.438  0.2238  0.0945  0.6654
    1TMC1    H214136   1.347   0.629  10.859 -1.7462  0.5174  0.9250
    1TMC1    C714137   1.460   0.706  10.634  0.4009 -0.0580  1.0688
    1TMC1    C814138   1.174   0.450  10.902  0.5088  0.0316 -0.0485
    1TMC1    O114139   1.540   0.673  10.550  0.1349 -0.6234 -0.0398
    1TMC1    O214140   1.161   0.501  11.009  0.3579  0.2290  0.2694
    1TMC1    O314141   1.488   0.771  10.750  0.3497 -0.0549 -0.1371
    1TMC1    H314142   1.408   0.804  10.795 -2.4016 -3.0876 -2.8094
    1TMC1    O514143   1.157   0.323  10.876  0.5106  0.0947  0.8206
    1TMC1    H514144   1.170   0.297  10.783  1.3140 -0.3365  1.0549
    2MPD1     C14145   0.924   0.055  10.145  0.6079 -0.1408 -0.5495
    2MPD1    C114146   0.926   0.019  10.280  0.1264 -0.1477  0.1586
    2MPD1    C214147   0.968   0.109  10.372 -0.2156 -0.6787  0.6000
    2MPD1    C314148   1.015   0.235  10.337 -0.7232  0.1863 -0.5520
    2MPD1    C414149   1.004   0.274  10.208  0.1343 -0.0365  1.0227
    2MPD1    C514150   0.958   0.186  10.118  0.2029 -0.1870 -0.1808
    2MPD1     H14151   0.960   0.092  10.479  1.0682  1.2771  1.0187
    2MPD1    H114152   1.019   0.374  10.169  0.7810 -1.0663 -1.4118
    2MPD1    H214153   0.883   4.730  10.068 -2.2875  0.5259  0.4542
    2MPD1    H314154   0.949   0.211  10.013 -1.7651  0.3638  0.1184
    2MPD1     N14155   1.072   0.305  10.444 -0.3864  0.1041  0.9736
    2MPD1    H514156   1.084   0.256  10.532  0.4176  0.1514  0.8918
    2MPD1    N114157   0.859   4.642  10.327  0.2246  0.2900  0.2724
    2MPD1    H614158   0.850   4.564  10.262 -1.9716 -0.8378  1.9269
    2MPD1    H714159   0.914   4.606  10.405  0.1896  1.1092  0.6750
    1MPD1     C14160   4.446   4.294  11.633  0.9300  0.1161 -0.4451
    1MPD1    C114161   4.527   4.356  11.730 -0.0637 -0.4300  0.6119
    1MPD1    C214162   4.488   4.477  11.780  0.0946  0.1096 -0.0756
    1MPD1    C314163   4.372   4.547  11.733 -0.1657  0.4832  0.0543
    1MPD1    C414164   4.309   4.485  11.621  0.7246  0.5566  0.3225
    1MPD1    C514165   4.351   4.370  11.567 -0.1076  0.6709  0.3741
    1MPD1     H14166   4.561   4.517  11.850 -0.1456  1.5698 -0.6439
    1MPD1    H114167   4.246   4.553  11.564 -0.0232 -0.1467  0.3070
    1MPD1    H214168   4.470   4.196  11.594 -0.6033 -1.0138  1.4540
    1MPD1    H314169   4.320   4.337  11.469  1.3021  0.3016  0.0559
    1MPD1     N14170   4.351   4.679  11.781 -0.2332 -0.0130  0.5361
    1MPD1    H514171   4.417   4.706  11.854  1.4612  0.9833 -1.3692
    1MPD1    N114172   4.634   4.285  11.793 -0.0979 -0.7158  0.0007
    1MPD1    H614173   4.686   4.211  11.747 -0.3960  0.7514 -2.6622
    1MPD1    H714174   4.699   4.338  11.851 -1.0021  0.1227  0.2606
    2MPD1     C14175   3.227   0.428  11.715  0.2581 -0.2759 -0.4833
    2MPD1    C114176   3.309   0.320  11.681 -0.2617 -0.8742 -0.7088
    2MPD1    C214177   3.368   0.314  11.553 -0.9922  0.0719  0.2857
    2MPD1    C314178   3.341   0.420  11.468 -0.2556 -0.1042 -0.1691
    2MPD1    C414179   3.263   0.529  11.505  0.3362  0.8027  0.4799
    2MPD1    C514180   3.204   0.532  11.628  0.0049  1.0361  0.1238
    2MPD1     H14181   3.408   0.220  11.518  0.4916  0.6566  0.4247
    2MPD1    H114182   3.255   0.613  11.436 -2.8526  2.5602  3.0023
    2MPD1    H214183   3.165   0.428  11.803  0.1296  0.8454 -0.5652
    2MPD1    H314184   3.143   0.619  11.651  0.5505  1.1335  1.2108
    2MPD1     N14185   3.382   0.417  11.334  0.1475  0.2617  0.4178
    2MPD1    H514186   3.364   0.499  11.277  2.7026  0.4126 -0.1753
    2MPD1    N114187   3.308   0.206  11.762 -0.5303 -0.5011 -0.4942
    2MPD1    H614188   3.304   0.231  11.861  0.0633  0.6644 -0.7617
    2MPD1    H714189   3.392   0.149  11.762 -0.6303 -0.6535  0.0169
    3MPD1     C14190   3.367   4.422  10.662  0.5879  0.1500 -0.1224
    3MPD1    C114191   3.330   4.434  10.793  0.7131  0.4720  0.5378
    3MPD1    C214192   3.346   4.551  10.860  0.6819 -0.4007 -0.0357
    3MPD1    C314193   3.412   4.655  10.794  0.0319 -0.2132  0.9033
    3MPD1    C414194   3.447   4.640  10.660 -0.1193  0.5986  0.2758
    3MPD1    C514195   3.416   4.528  10.595  0.3439 -0.7469  0.5127
    3MPD1     H14196   3.322   4.560  10.965  1.3215  0.0051  0.0752
    3MPD1    H114197   3.509   4.716  10.614  0.7334 -0.6293 -0.5905
    3MPD1    H214198   3.358   4.331  10.604 -2.0028  0.5444 -0.3057
    3MPD1    H314199   3.471   4.519  10.501  0.1009  0.3461  0.2691
    3MPD1     N14200   3.431   0.038  10.856  0.2554  0.4527 -0.7128
    3MPD1    H514201   3.411   0.040  10.955 -3.9856  1.7923 -1.6099
    3MPD1    N114202   3.269   4.325  10.857  0.2426  1.0088 -0.4383
    3MPD1    H614203   3.305   4.320  10.952  0.3586  0.9610 -0.4839
    3MPD1    H714204   3.273   4.239  10.803 -2.0980 -1.0753  2.7239
    4MPD2     C14205   3.872   0.621  11.744  0.4823 -0.2446 -0.2937
    4MPD2    C114206   4.011   0.604  11.737 -0.0650  0.0368  0.2539
    4MPD2    C214207   4.080   0.706  11.676 -0.0194 -0.6131 -0.3818
    4MPD2    C314208   4.018   0.811  11.605  0.6020 -0.2140 -0.8424
    4MPD2    C414209   3.876   0.816  11.600  0.3799 -0.9199 -0.1924
    4MPD2    C514210   3.810   0.723  11.674  0.3971 -0.4089  0.0225
    4MPD2     H14211   4.187   0.694  11.680 -0.2023 -1.3167  2.2949
    4MPD2    H114212   3.818   0.881  11.535  0.4508 -1.0734 -0.4082
    4MPD2    H214213   3.804   0.546  11.783  1.8953 -0.7688  1.1970
    4MPD2    H314214   3.703   0.710  11.667  0.4176 -0.2344 -0.5923
    4MPD2     N14215   4.082   0.915  11.527  0.3956  0.2789 -0.0192
    4MPD2    H514216   4.033   0.978  11.465 -1.5417 -0.9469  0.2731
    4MPD2    N114217   4.081   0.501  11.811  0.2391  0.1790  0.0023
    4MPD2    H714218   4.182   0.510  11.807  0.3234 -0.2500  1.1759
    5TMC3    C114219   4.129   0.317  11.936 -0.0414  0.2507  0.6043
    5TMC3    C214220   4.126   0.192  11.871  0.4202  0.4963  0.3675
    5TMC3    C314221   4.242   0.137  11.828 -0.1178  0.4543  0.0760
    5TMC3    C414222   4.251   0.384  11.948 -0.3347 -0.0252  0.2120
    5TMC3    C514223   4.365   0.333  11.881 -0.0806  0.1052  0.4884
    5TMC3    C614224   4.361   0.209  11.834  0.3110 -0.5839  0.4779
    5TMC3     C14225   4.024   0.400  11.886 -0.6263 -0.1775 -0.5921
    5TMC3     O14226   3.920   0.342  11.865 -0.2010 -0.0009 -0.3599
    5TMC3     H14227   4.038   0.128  11.868 -1.3302  2.8877  0.5728
    5TMC3    H114228   4.259   0.471  12.012  0.3233  0.8558 -1.0808
    5TMC3    H214229   4.451   0.169  11.789  0.8132 -2.0892  2.8302
    5TMC3    C714230   4.426   0.437  11.799  0.0690 -0.1698  0.4868
    5TMC3    C814231   4.233   0.008  11.764 -0.0512  0.5187  0.5445
    5TMC3    O114232   4.371   0.546  11.807  0.6341 -0.7830 -0.1885
    5TMC3    O214233   4.128   4.700  11.735 -0.1448 -0.9000 -0.6259
    6TMC3    C114234   3.471   0.342  11.127 -0.2903 -0.4094 -0.1510
    6TMC3    C214235   3.468   0.238  11.037  0.3869  0.3577  0.1089
    6TMC3    C314236   3.521   0.257  10.912 -0.4767 -0.2632  0.0536
    6TMC3    C414237   3.561   0.450  11.107  0.4222 -0.4869  0.3957
    6TMC3    C514238   3.605   0.459  10.979  0.1120 -1.1215 -0.2254
    6TMC3    C614239   3.591   0.366  10.880 -0.6611 -0.4956  0.3174
    6TMC3     C14240   3.439   0.308  11.262 -0.0407  0.2293 -0.4674
    6TMC3     O14241   3.466   0.196  11.302 -0.3038  0.0180  0.4040
    6TMC3     H14242   3.417   0.146  11.065 -0.6984  0.5251 -1.3090
    6TMC3    H114243   3.578   0.537  11.169 -1.8284  0.5447 -0.4183
    6TMC3    H214244   3.644   0.376  10.786  1.5455  0.8300  1.7124
    6TMC3    C714245   3.721   0.543  10.975  0.2720  0.3665  1.3781
    6TMC3    C814246   3.499   0.154  10.811  0.7012 -0.1382 -0.3543
    6TMC3    O114247   3.776   0.558  11.083 -0.2227  0.1447 -0.2010
    6TMC3    O214248   3.542   0.187  10.704  0.4814  0.2071 -0.5059
    7MPD2     C14249   4.690   0.587  11.388 -0.2676 -0.3647  0.0655
    7MPD2    C114250   4.574   0.639  11.447 -0.2084  0.0486  0.0437
    7MPD2    C214251   4.536   0.589  11.572  0.1731 -0.4222  0.9033
    7MPD2    C314252   4.590   0.471  11.617 -0.3761  0.6122  0.4423
    7MPD2    C414253   4.695   0.412  11.546 -0.2539 -0.7670 -0.4681
    7MPD2    C514254   0.013   0.485  11.441 -0.0833  0.6156 -0.4627
    7MPD2     H14255   4.465   0.650  11.628 -0.1718 -1.8379  2.0168
    7MPD2    H114256   0.010   0.327  11.585 -0.0366 -0.4139 -0.0110
    7MPD2    H214257   4.737   0.640  11.307 -2.7725 -0.9048 -1.7325
    7MPD2    H314258   0.094   0.446  11.381  0.4203  1.0531 -0.0655
    7MPD2     N14259   4.532   0.392  11.724  0.0238 -0.6356 -0.5998
    7MPD2    H514260   4.581   0.305  11.743 -0.2649 -0.8119 -0.6708
    7MPD2    N114261   4.507   0.757  11.403  0.2876  0.2455  0.0079
    7MPD2    H714262   4.433   0.790  11.464 -0.6950 -1.5947 -0.1737
    8TMC3    C114263   4.424   0.931  11.260 -0.1544  0.1196 -0.4438
    8TMC3    C214264   4.348   0.931  11.145  0.2905  0.1483  0.0751
    8TMC3    C314265   4.221   0.970  11.167  0.1172 -0.1479 -0.1895
    8TMC3    C414266   4.395   0.987  11.379 -0.6004 -0.8143  0.0097
    8TMC3    C514267   4.262   1.013  11.402 -0.0756 -0.4963 -0.5037
    8TMC3    C614268   4.175   1.002  11.298  0.3432  0.3226  0.1443
    8TMC3     C14269   4.517   0.814  11.274  0.4697 -0.0572 -0.1373
    8TMC3     O14270   4.553   0.764  11.168 -0.2529 -0.5199 -0.1013
    8TMC3     H14271   4.376   0.893  11.047  2.1175  1.1486  0.2186
    8TMC3    H114272   4.464   0.986  11.463 -0.8262  0.3709  0.2108
    8TMC3    H214273   4.070   1.025  11.311 -0.2149  0.0731 -3.9106
    8TMC3    C714274   4.217   0.939  11.524  0.2281  0.0281 -0.3129
    8TMC3    C814275   4.128   0.888  11.102 -0.0741 -0.0642 -0.4720
    8TMC3    O114276   4.304   0.873  11.574 -0.2360  0.3596 -0.4864
    8TMC3    O214277   4.027   0.859  11.165  0.4821 -0.3814 -0.8514
    9MPD2     C14278   4.096   0.823  10.749  0.7851 -0.3986 -0.9158
    9MPD2    C114279   4.070   0.799  10.878  0.6511 -0.2461 -0.1349
    9MPD2    C214280   3.953   0.725  10.910  0.6921 -0.1894 -0.1070
    9MPD2    C314281   3.869   0.666  10.816 -1.4667  0.2299  0.1906
    9MPD2    C414282   3.894   0.702  10.688 -0.4359  0.2531  0.6529
    9MPD2    C514283   4.000   0.786  10.655  0.2462  0.1849 -0.0026
    9MPD2     H14284   3.937   0.703  11.015 -0.0317  0.1168 -0.1583
    9MPD2    H114285   3.841   0.661  10.602 -1.6243 -1.1105  2.0509
    9MPD2    H214286   4.184   0.881  10.725  1.5308 -1.5139 -0.8786
    9MPD2    H314287   4.026   0.801  10.551 -0.0874 -2.6516 -0.5198
    9MPD2     N14288   3.757   0.586  10.847 -0.3982 -0.0246 -0.4611
    9MPD2    H514289   3.698   0.568  10.767  2.4864 -0.4623 -2.4696
    9MPD2    N114290   4.154   0.863  10.973 -0.3150  0.1917 -0.2450
    9MPD2    H714291   4.244   0.894  10.938 -0.4841 -1.6201 -2.2759
    1MPD1     C14292   0.343   3.871  16.161 -0.2972  0.3164  0.1176
    1MPD1    C114293   0.347   3.805  16.280  0.1682  0.1992  0.1185
    1MPD1    C214294   0.247   3.832  16.374  0.1376  0.3081  0.1647
    1MPD1    C314295   0.157   3.937  16.351 -0.3342 -0.2285 -0.5491
    1MPD1    C414296   0.169   4.014  16.235  0.0721  0.1552  0.0750
    1MPD1    C514297   0.260   3.975  16.142  0.0302  0.2185 -0.0749
    1MPD1     H14298   0.247   3.769  16.462 -1.1223 -1.0797 -0.8277
    1MPD1    H114299   0.110   4.104  16.218 -1.9499 -1.9011 -3.9085
    1MPD1    H214300   0.420   3.857  16.085  1.4228  0.1882  1.8799
    1MPD1    H314301   0.262   4.028  16.047  0.9380 -0.5708 -0.4951
    1MPD1     N14302   0.070   3.987  16.450 -0.3662 -0.5229 -0.0814
    1MPD1    H514303   0.023   4.073  16.425  0.1522 -0.1691  0.1565
    1MPD1    N114304   0.415   3.682  16.281 -0.3211 -0.0601  0.8701
    1MPD1    H614305   0.498   3.697  16.223 -1.0944  2.3949  0.4001
    1MPD1    H714306   0.450   3.646  16.369  2.4000 -0.2071 -0.2424
    2TMC2    C114307   4.447   4.005  16.652 -0.1550 -0.2010 -0.4345
    2TMC2    C214308   4.446   3.984  16.788  0.5888 -0.3113 -0.4344
    2TMC2    C314309   4.566   3.969  16.852  0.5094 -0.3516 -0.6761
    2TMC2    C414310   4.568   4.003  16.583 -0.3312  0.5720  0.0541
    2TMC2    C514311   4.682   3.957  16.653 -0.1194 -0.4392  0.1182
    2TMC2    C614312   4.682   3.941  16.786  0.1798  0.1413  0.2302
    2TMC2     C14313   4.328   4.003  16.574 -0.1995 -0.1054  0.2355
    2TMC2     O14314   4.329   4.045  16.459 -0.3301  0.6292 -0.0733
    2TMC2     H14315   4.355   3.993  16.846  0.4360 -0.4542 -0.6511
    2TMC2    H114316   4.560   4.020  16.476  1.3017 -1.1987 -0.3421
    2TMC2    H214317   0.033   3.918  16.841 -0.0679 -2.7630 -0.6014
    2TMC2    C714318   0.062   3.923  16.578 -0.1173  0.5669 -0.3971
    2TMC2    C814319   4.574   3.984  16.994  0.3274 -1.1049 -1.0326
    2TMC2    O114320   0.125   3.829  16.629  0.3799 -0.3334  0.3161
    2TMC2    O214321   4.474   4.010  17.060  0.3122 -0.1257 -0.1260
    2TMC2    O514322   4.693   4.045  17.016 -0.0682  0.2528 -0.1981
    2TMC2    H514323   0.008   4.026  16.937  0.0079  2.2774 -0.6247
    3MPD1     C14324   3.844   3.833  16.508  0.0801 -0.6947  0.3033
    3MPD1    C114325   3.889   3.772  16.621  0.3117 -0.4392  0.6974
    3MPD1    C214326   4.025   3.790  16.648 -0.2905 -0.0324 -0.2542
    3MPD1    C314327   4.105   3.882  16.583  0.2187 -0.2968  0.1377
    3MPD1    C414328   4.047   3.951  16.475 -0.6725  0.2885 -0.0275
    3MPD1    C514329   3.919   3.926  16.435 -0.4659  0.4976  0.3473
    3MPD1     H14330   4.068   3.735  16.731 -0.2510 -2.5109 -1.8965
    3MPD1    H114331   4.106   4.023  16.419 -0.6011 -0.1086 -0.4594
    3MPD1    H214332   3.743   3.810  16.476 -0.1378  0.0448  0.4459
    3MPD1    H314333   3.880   3.969  16.343  1.3641  2.9046  0.7076
    3MPD1     N14334   4.235   3.920  16.627 -0.0225  0.9593  0.0817
    3MPD1    H514335   4.268   3.874  16.712  1.5138  1.7072 -0.1019
    3MPD1    N114336   3.813   3.676  16.679  0.3614  0.1376  0.5151
    3MPD1    H614337   3.714   3.697  16.668 -0.0382 -1.9879  0.0759
    3MPD1    H714338   3.831   3.676  16.779 -0.7279 -1.9145  0.7091
    1TMC1    C114339   2.424   3.019  12.973 -0.7437 -0.0325 -0.5926
    1TMC1    C214340   2.329   2.922  12.983 -0.4768  0.7038 -0.5841
    1TMC1    C314341   2.227   2.908  12.893 -0.2513 -0.1816  0.5616
    1TMC1    C414342   2.424   3.104  12.863 -0.0734  0.0023 -0.4912
    1TMC1    C514343   2.317   3.092  12.776 -0.2839 -0.4019 -0.2048
    1TMC1    C614344   2.220   3.000  12.794  0.2875  0.1737 -0.0375
    1TMC1     C14345   2.531   3.026  13.071  1.0096 -0.5950 -0.2896
    1TMC1     O14346   2.635   3.079  13.034 -0.0238  0.6366 -0.4334
    1TMC1     H14347   2.330   2.850  13.064  1.3109  0.6997 -0.6119
    1TMC1    H114348   2.494   3.186  12.874 -2.3880  2.0183 -0.5903
    1TMC1    H214349   2.138   3.006  12.724  0.0396 -1.8554  0.0659
    1TMC1    C714350   2.295   3.207  12.689  0.3440 -0.0941  0.1909
    1TMC1    C814351   2.112   2.836  12.947  0.0269 -0.5561 -0.8320
    1TMC1    O114352   2.184   3.233  12.646 -0.2587 -0.2056  0.4890
    1TMC1    O214353   2.127   2.735  13.015  0.3515 -0.0635 -0.2903
    1TMC1    O314354   2.409   3.270  12.661  0.1516  0.1709  0.0133
    1TMC1    H314355   2.494   3.226  12.684 -0.2549 -1.0855 -0.8704
    1TMC1    O514356   1.996   2.906  12.918  0.4670  0.0546 -0.2135
    1TMC1    H514357   2.006   2.995  12.877 -0.4653 -0.3688 -1.3494
    2MPD2     C14358   2.726   2.950  13.287 -0.8886 -0.1016 -0.4889
    2MPD2    C114359   2.589   2.916  13.285  0.3834  0.1570 -0.3311
    2MPD2    C214360   2.534   2.847  13.394 -0.1739  0.5753 -0.4593
    2MPD2    C314361   2.628   2.803  13.494  0.2182  0.3539 -0.5136
    2MPD2    C414362   2.762   2.828  13.479  1.2261  0.4048 -0.4345
    2MPD2    C514363   2.812   2.902  13.380 -0.1437 -0.5726  0.0715
    2MPD2     H14364   2.426   2.838  13.402 -0.2090  0.8690 -0.6103
    2MPD2    H114365   2.833   2.784  13.547 -1.2495  0.2672  2.0678
    2MPD2    H214366   2.766   3.014  13.209  0.5528  0.1852  0.4837
    2MPD2    H314367   2.917   2.929  13.380 -0.0722 -0.8432 -0.9083
    2MPD2     N14368   2.590   2.719  13.600 -0.4286 -0.2811 -0.0979
    2MPD2    H514369   2.507   2.663  13.585 -1.2955  0.9327  0.1391
    2MPD2    N114370   2.498   2.965  13.191 -0.1360 -0.2336  0.5557
    2MPD2    H714371   2.399   2.945  13.201 -0.1048 -0.5122  0.3340
    3TCq1    O114372   2.560   2.556  14.257 -0.3822  0.6547 -0.0996
    3TCq1    C114373   2.482   2.628  14.171 -0.7218  0.0391 -0.5955
    3TCq1    O214374   2.382   2.694  14.190  0.0260  0.2542  0.0776
    3TCq1    C214375   2.522   2.572  14.037 -0.4793 -0.5558  0.3941
    3TCq1    C314376   2.468   2.453  13.998 -0.2322 -0.4225  0.1349
    3TCq1    C414377   2.470   2.417  13.869 -0.4290  0.0890 -0.6193
    3TCq1    C514378   2.516   2.507  13.776  0.2753 -0.1797 -0.4749
    3TCq1    C614379   2.582   2.627  13.819  0.0693  0.4289  0.5035
    3TCq1    C714380   2.580   2.662  13.950  0.1759  0.2081  0.1532
    3TCq1    C814381   2.651   2.721  13.722  0.4899 -0.1020  0.2153
    3TCq1    O414382   2.733   2.797  13.771 -0.3303 -0.1735  0.4759
    3TCq1    C914383   2.399   2.301  13.823  0.7349  0.1548 -0.0480
    3TCq1    O514384   2.384   2.292  13.696 -0.3370  0.0812  0.6178
    3TCq1    O614385   2.321   2.251  13.907  0.5619  0.0940  0.2502
    3TCq1    H114386   2.607   2.487  14.206 -1.1378  0.0636  0.0135
    3TCq1    H214387   2.413   2.386  14.064 -2.1205 -0.0207 -1.0225
    3TCq1    H314388   2.508   2.476  13.672 -2.5156  0.6622 -0.5052
    3TCq1    H414389   2.616   2.761  13.978  1.9296 -0.8198  1.5805
    1MPD2     C14390   2.115   4.174  14.714 -0.1318 -0.6142  0.1592
    1MPD2    C114391   1.980   4.158  14.703 -0.4405  0.0895 -0.0570
    1MPD2    C214392   1.922   4.031  14.689 -0.0709  0.0806  0.1983
    1MPD2    C314393   2.002   3.916  14.688  0.4736 -0.5039 -0.0853
    1MPD2    C414394   2.141   3.934  14.704  0.4438 -0.0484 -0.5902
    1MPD2    C514395   2.190   4.062  14.719 -0.6546 -0.4193 -0.1108
    1MPD2     H14396   1.815   4.025  14.670 -0.0611 -0.6341  0.3855
    1MPD2    H114397   2.215   3.855  14.701 -1.0058 -1.4209  0.0485
    1MPD2    H214398   2.159   4.271  14.730 -0.7796 -0.0117 -1.7855
    1MPD2    H314399   2.298   4.068  14.726 -0.7283  0.6615  0.0939
    1MPD2     N14400   1.949   3.782  14.670  0.3885 -0.5585  0.1800
    1MPD2    H514401   2.011   3.702  14.678  1.1644 -0.0764 -0.9858
    1MPD2    N114402   1.909   4.284  14.709 -0.1162  0.2377  0.4653
    1MPD2    H714403   1.955   4.360  14.757  1.0018 -0.4187  0.4220
    2TMC3    C114404   1.715   4.417  14.726 -1.0831  0.0784  0.2667
    2TMC3    C214405   1.590   4.375  14.763  0.2058 -0.0595  0.5013
    2TMC3    C314406   1.472   4.428  14.727 -0.2870 -0.2276 -0.1744
    2TMC3    C414407   1.719   4.528  14.646  0.2300 -0.2927  0.7264
    2TMC3    C514408   1.605   4.603  14.642  0.5122 -0.3119  0.4370
    2TMC3    C614409   1.476   4.558  14.675  0.0812 -0.6940  0.5657
    2TMC3     C14410   1.784   4.301  14.666  0.1463  0.6420 -0.8034
    2TMC3     O14411   1.710   4.228  14.598 -0.6306  0.1822 -0.3626
    2TMC3     H14412   1.588   4.279  14.813  1.1646 -0.0495  0.5687
    2TMC3    H114413   1.814   4.544  14.595  0.7619 -1.5295  1.3185
    2TMC3    H214414   1.383   4.611  14.660  0.9310  0.8193  0.6751
    2TMC3    C714415   1.615   4.734  14.579 -0.7038  0.2805  0.7922
    2TMC3    C814416   1.375   4.340  14.663 -0.2105  0.5556 -0.0767
    2TMC3    O114417   1.515   0.029  14.519  0.0749 -0.4312  0.6461
    2TMC3    O214418   1.260   4.374  14.680  0.1394  0.1592  0.4835
    3TCq1    O114419   2.557   0.723  14.358 -0.3757 -0.4347  0.5319
    3TCq1    C114420   2.613   0.633  14.440  0.5609 -0.0601 -0.1545
    3TCq1    O214421   2.730   0.600  14.442  0.4003 -0.6804  0.0491
    3TCq1    C214422   2.510   0.564  14.521  0.7192  0.0901  0.3686
    3TCq1    C314423   2.544   0.522  14.651  1.0817  0.0426  0.5867
    3TCq1    C414424   2.454   0.457  14.727 -0.0371 -0.7074  0.7612
    3TCq1    C514425   2.325   0.443  14.686 -0.3493 -0.2846 -0.0452
    3TCq1    C614426   2.291   0.488  14.555 -0.4720 -0.0533  0.1045
    3TCq1    C714427   2.386   0.541  14.469  0.1596  0.9052  0.0274
    3TCq1    C814428   2.152   0.491  14.515 -0.2432  0.6547  0.4413
    3TCq1    O414429   2.128   0.550  14.410 -0.2592 -0.4354 -0.2388
    3TCq1    C914430   2.496   0.409  14.863  0.3368  0.2408  0.0642
    3TCq1    O514431   2.623   0.401  14.879 -0.3726 -0.6400 -0.8443
    3TCq1    O614432   2.409   0.345  14.929 -0.0892 -0.2412 -0.1073
    3TCq1    H114433   2.471   0.756  14.393 -0.8829 -0.8787 -0.3049
    3TCq1    H214434   2.648   0.532  14.677  1.4996 -0.8558 -0.7387
    3TCq1    H314435   2.254   0.406  14.759  2.5517 -2.0166  1.8812
    3TCq1    H414436   2.373   0.570  14.366  1.2430 -0.8007 -0.5960
    4MPD2     C14437   1.868   0.428  14.473 -0.1991 -0.3445 -0.2348
    4MPD2    C114438   1.954   0.349  14.541 -0.6157 -0.5742 -0.4341
    4MPD2    C214439   1.915   0.223  14.592  0.1862 -0.1595 -0.0937
    4MPD2    C314440   1.784   0.180  14.556  0.5188  0.5949  0.3976
    4MPD2    C414441   1.701   0.258  14.489 -0.3230 -0.0499 -0.1128
    4MPD2    C514442   1.741   0.380  14.445 -0.0635  0.2067  0.1450
    4MPD2     H14443   1.969   0.156  14.659 -0.3310 -0.5590 -0.0813
    4MPD2    H114444   1.594   0.240  14.478 -0.3565  0.0287  0.0831
    4MPD2    H214445   1.888   0.530  14.441 -1.8458  0.7533  2.1992
    4MPD2    H314446   1.670   0.443  14.391  0.5501  2.5350  2.0535
    4MPD2     N14447   1.740   0.054  14.598 -0.4566 -0.1258  0.5189
    4MPD2    H514448   1.805   4.737  14.652  0.0538  0.9796  1.0639
    4MPD2    N114449   2.078   0.396  14.578  0.0020  0.9388 -1.2340
    4MPD2    H714450   2.119   0.332  14.646 -0.1219  1.5448 -0.5868
    5TMC2    C114451   1.590   3.552  14.522 -0.0804 -0.4691  0.3988
    5TMC2    C214452   1.565   3.465  14.624  0.5130  0.0621 -0.1680
    5TMC2    C314453   1.657   3.473  14.726 -0.3364  0.3510 -0.0049
    5TMC2    C414454   1.713   3.615  14.511 -0.4417  0.0740  0.4452
    5TMC2    C514455   1.802   3.620  14.607 -0.1615 -0.3264  0.6189
    5TMC2    C614456   1.767   3.557  14.724  0.1165 -0.8600 -0.0401
    5TMC2     C14457   1.481   3.639  14.491 -0.2446  0.0836  0.2605
    5TMC2     O14458   1.370   3.586  14.484 -0.2580 -0.3892  0.4812
    5TMC2     H14459   1.461   3.441  14.645  0.2505  0.6819 -0.7317
    5TMC2    H114460   1.732   3.688  14.434 -1.1646 -1.2898 -1.0451
    5TMC2    H214461   1.820   3.577  14.817  1.6843 -0.7605 -0.9623
    5TMC2    C714462   1.826   3.754  14.629 -0.3796  0.1512 -0.0458
    5TMC2    C814463   1.597   3.455  14.852 -0.4850 -0.4893 -0.0555
    5TMC2    O114464   1.728   3.826  14.626  0.8908  0.1253  0.1367
    5TMC2    O214465   1.551   3.557  14.904  0.2995 -0.0236  0.0363
    5TMC2    O514466   1.537   3.337  14.840  0.1046  0.0635  0.7750
    5TMC2    H514467   1.592   3.267  14.799 -1.2880 -0.8305  0.4025
    6MPD2     C14468   1.237   4.088  14.565 -0.1385  0.4801 -0.6766
    6MPD2    C114469   1.374   4.106  14.571 -0.5237 -0.3020 -0.0625
    6MPD2    C214470   1.463   4.003  14.548 -0.4377  0.5182  0.0756
    6MPD2    C314471   1.413   3.882  14.523  0.4388  0.5660  0.5900
    6MPD2    C414472   1.279   3.860  14.510  0.1615 -0.3696 -0.3632
    6MPD2    C514473   1.193   3.966  14.533 -0.0328  0.7762  0.0699
    6MPD2     H14474   1.568   4.027  14.558 -0.3161 -0.2261  0.5464
    6MPD2    H114475   1.247   3.765  14.468  2.3528 -0.6760 -1.3737
    6MPD2    H214476   1.158   4.158  14.590 -0.6372 -0.7326  1.1978
    6MPD2    H314477   1.088   3.948  14.509  0.2907 -0.6005 -0.3256
    6MPD2     N14478   1.504   3.774  14.510  0.4916 -0.3740 -0.3442
    6MPD2    H514479   1.597   3.806  14.533  0.2198  0.8976 -0.9904
    6MPD2    N114480   1.436   4.226  14.616 -0.1414  0.3257 -0.6303
    6MPD2    H714481   1.538   4.223  14.614 -0.1489 -0.3849  0.1802
  945NH3     N114482   1.483   1.314   3.174  0.5466  0.3454  0.4968
  945NH3     H214483   1.482   1.399   3.228  1.1705 -0.6396  2.0403
  945NH3     H314484   1.446   1.237   3.229 -0.1571  0.5174  0.2604
  945NH3     H414485   1.582   1.299   3.158  1.1393  1.0059  3.5959
  946SOD     NA14486   3.413   0.011  14.289 -0.0503 -0.3136  0.3609
  947SOD     NA14487   4.389   3.762  12.879  0.1741 -0.6129  0.0711
  948SOD     NA14488   0.344   3.928   5.427  0.1940 -0.2275 -0.2789
  949SOD     NA14489   1.465   2.329   9.631 -0.5650  0.4309 -0.0377
  950SOD     NA14490   4.691   1.927  13.487  0.0273 -0.4324  0.2039
  951SOD     NA14491   1.722   1.552  10.922  0.1924 -0.2517  0.2008
  952SOD     NA14492   1.243   0.753  16.490 -0.2051  0.5968  0.1547
  953SOD     NA14493   2.970   1.718  16.782 -0.4894  0.2673 -0.2167
  954SOL     OW14494   2.056   3.046   4.933 -0.1597  0.0094  0.5930
  954SOL    HW114495   2.010   2.974   4.978 -0.2077  0.2132  0.8707
  954SOL    HW214496   2.093   3.006   4.854  2.2247  1.3929  1.0268
  955SOL     OW14497   3.059   3.420  16.267 -0.0997  0.0062  0.8775
  955SOL    HW114498   3.007   3.480  16.321  0.5807  1.4134 -0.0142
  955SOL    HW214499   3.122   3.474  16.219  0.2258 -2.8247 -1.8733
  956SOL     OW14500   0.011   4.396   5.653  0.1469  0.5938  0.1826
  956SOL    HW114501   0.083   4.455   5.678 -1.2186  0.9400  3.2508
  956SOL    HW214502   4.681   4.462   5.644 -1.7648 -1.2050  1.9717
  957SOL     OW14503   2.248   4.500   2.002  0.3780 -0.2287 -0.0741
  957SOL    HW114504   2.315   4.559   1.965  0.7334 -0.4821  0.1638
  957SOL    HW214505   2.303   4.446   2.059  0.3448 -1.2000 -0.9522
  958SOL     OW14506   4.617   1.038   3.915  0.1940  0.0892 -0.3921
  958SOL    HW114507   4.623   1.015   4.008  1.3526  0.6894 -0.3210
  958SOL    HW214508   4.525   1.033   3.889 -0.5276 -1.3020  2.4531
  959SOL     OW14509   3.528   4.062  10.905 -0.1402  0.0532 -0.8000
  959SOL    HW114510   3.564   4.020  10.983 -2.3874 -2.5848 -1.1715
  959SOL    HW214511   3.604   4.115  10.882  0.1392 -0.1737 -0.3961
  960SOL     OW14512   2.050   0.987   6.486  0.3025  0.2774  0.1890
  960SOL    HW114513   2.026   0.894   6.488 -2.7595  1.0473 -1.2421
  960SOL    HW214514   1.968   1.036   6.496 -0.1852 -0.5905  0.4743
  961SOL     OW14515   1.036   0.125   1.736 -0.2706 -0.5085 -0.2290
  961SOL    HW114516   1.071   0.160   1.655 -1.1242 -1.0147 -0.8197
  961SOL    HW214517   0.969   0.188   1.760  0.0182 -0.1776 -0.2958
  962SOL     OW14518   3.239   0.758   6.311  0.4915 -0.3871  0.1178
  962SOL    HW114519   3.265   0.815   6.239  2.8854 -0.1788  1.1494
  962SOL    HW214520   3.313   0.699   6.326 -1.4103 -3.0513 -0.9372
  963SOL     OW14521   0.555   1.987   6.846  0.2407 -0.7682  0.1862
  963SOL    HW114522   0.564   1.939   6.928  1.0785 -0.8660  0.0304
  963SOL    HW214523   0.462   1.971   6.827  0.6200  0.0071 -2.3594
  964SOL     OW14524   1.158   0.926   6.782 -0.0770 -0.6792  0.7296
  964SOL    HW114525   1.115   1.001   6.824  1.1313  0.3754  0.0971
  964SOL    HW214526   1.086   0.863   6.783  0.1168 -0.9192 -1.4587
  965SOL     OW14527   3.091   3.903   7.827 -0.2830 -0.3615  0.0664
  965SOL    HW114528   3.128   3.985   7.861  3.0306 -1.0736 -1.9014
  965SOL    HW214529   3.149   3.832   7.855  0.7919  0.1139 -0.9980
  966SOL     OW14530   0.764   0.034   3.900  0.5645 -0.0182  0.0460
  966SOL    HW114531   0.766   4.688   3.942 -3.8803 -0.4857 -0.6473
  966SOL    HW214532   0.740   0.086   3.976  0.5054 -1.7354  1.2082
  967SOL     OW14533   4.087   4.616  11.010 -0.4759  0.0493  0.4684
  967SOL    HW114534   4.130   4.649  11.089  1.6994 -1.5262 -0.0753
  967SOL    HW214535   4.161   4.573  10.969 -0.4952  1.1685 -0.7377
  968SOL     OW14536   3.156   4.369   1.978  0.1582 -0.1245  0.4610
  968SOL    HW114537   3.225   4.436   1.974 -0.8382  0.8039 -0.9238
  968SOL    HW214538   3.192   4.303   1.919 -0.0806 -0.8430  1.1264
  969SOL     OW14539   4.098   1.449   6.708  0.6487 -0.4906  0.2879
  969SOL    HW114540   4.024   1.510   6.712 -0.5361 -1.8626 -0.7548
  969SOL    HW214541   4.058   1.383   6.651  1.1788  0.9097 -1.7185
  970SOL     OW14542   1.666   3.356   1.096 -0.3655 -0.0514 -0.1792
  970SOL    HW114543   1.699   3.328   1.011 -1.1625  0.3364 -0.6101
  970SOL    HW214544   1.630   3.277   1.137  0.6015  1.0996  2.8708
  971SOL     OW14545   1.160   0.390   4.780 -0.1589  0.2541  0.5482
  971SOL    HW114546   1.169   0.437   4.864  3.0192  2.3087 -0.9796
  971SOL    HW214547   1.134   0.464   4.725 -0.4159  1.9749  2.9350
  972SOL     OW14548   0.271   3.645  14.170 -0.5852 -0.1668  0.3089
  972SOL    HW114549   0.340   3.690  14.219 -1.3256  0.3950  0.8222
  972SOL    HW214550   0.218   3.712  14.129 -0.2536  0.5264  1.0193
  973SOL     OW14551   2.651   3.084   0.407  0.4473  0.3064  0.5364
  973SOL    HW114552   2.639   3.077   0.502 -3.2914 -1.7716 -0.0910
  973SOL    HW214553   2.740   3.051   0.392  0.1602 -0.5682  0.7719
  974SOL     OW14554   4.582   3.609   8.092 -0.3340  0.9749 -0.3178
  974SOL    HW114555   4.677   3.593   8.098 -0.2029  1.7794 -0.2876
  974SOL    HW214556   4.553   3.547   8.025  1.1676 -0.1844  0.1018
  975SOL     OW14557   1.481   4.606   4.990 -0.3382 -0.0770 -0.1240
  975SOL    HW114558   1.450   4.671   5.053  0.4042 -0.0456  0.2102
  975SOL    HW214559   1.426   4.619   4.913  0.8976  0.9257 -0.8460
  976SOL     OW14560   2.240   4.589   1.002  0.3569  0.0266 -0.3508
  976SOL    HW114561   2.166   4.573   1.062 -0.6563  1.6170 -1.1841
  976SOL    HW214562   2.294   4.517   1.036 -0.0949 -0.7169 -1.2058
  977SOL     OW14563   1.611   4.115   7.541  0.1105  0.2548  0.5058
  977SOL    HW114564   1.604   4.057   7.466  1.6533  1.6002 -0.6779
  977SOL    HW214565   1.706   4.131   7.544  0.2170 -0.2980 -0.0546
  978SOL     OW14566   2.461   2.875   7.560 -0.5449  0.6018 -0.3323
  978SOL    HW114567   2.496   2.919   7.637  0.0447 -2.7150  1.2651
  978SOL    HW214568   2.389   2.818   7.586  0.3568 -1.3913 -2.1132
  979SOL     OW14569   3.886   3.393   2.999 -0.4782  0.2980 -0.4092
  979SOL    HW114570   3.893   3.428   2.911  0.9494  0.4891 -0.2157
  979SOL    HW214571   3.835   3.315   2.975  0.3975 -0.6079  0.6574
  980SOL     OW14572   2.157   4.237   1.011 -0.0317 -0.1858  0.2609
  980SOL    HW114573   2.206   4.155   1.000 -0.6597 -0.4237 -0.7505
  980SOL    HW214574   2.147   4.239   1.106 -0.2847 -0.6007  0.2418
  981SOL     OW14575   4.585   0.368   6.325 -0.0249  0.4518 -0.1988
  981SOL    HW114576   4.652   0.434   6.344 -1.8845  1.8031  1.6382
  981SOL    HW214577   4.510   0.413   6.364  1.0966 -0.3263  2.8128
  982SOL     OW14578   3.496   3.228   5.787  0.7918 -0.3816  0.4012
  982SOL    HW114579   3.590   3.250   5.784  0.4253  1.0749 -0.2206
  982SOL    HW214580   3.488   3.161   5.719 -1.5717  0.0039  0.3120
  983SOL     OW14581   3.074   4.599   5.223  0.1507 -0.5702 -0.2990
  983SOL    HW114582   3.051   4.650   5.300  2.2301  0.6778 -0.4937
  983SOL    HW214583   2.993   4.549   5.217  0.4408 -1.1402  0.5379
  984SOL     OW14584   3.470   3.768   2.887  0.4993 -0.1894  0.4292
  984SOL    HW114585   3.549   3.765   2.941  0.0890  1.7683  1.1174
  984SOL    HW214586   3.507   3.776   2.799  1.1790  0.5277  0.7800
  985SOL     OW14587   2.902   0.643   0.622 -0.1512 -0.8093 -0.4942
  985SOL    HW114588   2.948   0.726   0.627  0.9370 -1.5047  1.3953
  985SOL    HW214589   2.983   0.594   0.639 -0.7156 -1.5917 -0.0602
  986SOL     OW14590   0.394   2.717   5.651 -0.2249 -0.1773  0.2828
  986SOL    HW114591   0.391   2.783   5.582  1.1216 -0.0125  0.3741
  986SOL    HW214592   0.301   2.698   5.665 -0.8239  0.7595 -2.5012
  987SOL     OW14593   2.078   0.801  11.557 -0.6513 -0.4859  0.6379
  987SOL    HW114594   2.131   0.747  11.499 -0.5461 -0.0568  0.3374
  987SOL    HW214595   2.027   0.728  11.592  0.3475 -1.5210 -0.0562
  988SOL     OW14596   2.305   0.428  12.069  0.4421  0.0795 -0.3411
  988SOL    HW114597   2.219   0.467  12.085  0.7021  1.1610 -1.6704
  988SOL    HW214598   2.278   0.349  12.022  2.3114  1.0605 -3.0369
  989SOL     OW14599   3.893   2.465   5.388 -0.1493 -0.5911 -0.2161
  989SOL    HW114600   3.974   2.424   5.420 -0.3451 -1.9044 -1.3864
  989SOL    HW214601   3.924   2.522   5.318  0.1619  0.7633  1.0310
  990SOL     OW14602   2.723   2.707   5.518 -0.0006  0.3100 -0.4375
  990SOL    HW114603   2.738   2.618   5.552  2.0970  0.9584  0.3770
  990SOL    HW214604   2.700   2.757   5.597 -1.5680 -0.2971 -0.5124
  991SOL     OW14605   3.149   4.397  11.990  0.2740  0.5718 -0.0799
  991SOL    HW114606   3.115   4.486  11.980  0.0482  0.0528 -4.2217
  991SOL    HW214607   3.213   4.407  11.919  0.1392 -1.4192 -0.4660
  992SOL     OW14608   4.078   1.065   9.014  0.4156  0.3845  0.6664
  992SOL    HW114609   4.164   1.106   9.009 -0.5784  2.3900 -0.2866
  992SOL    HW214610   4.026   1.145   9.004 -0.5882 -0.1656  1.5589
  993SOL     OW14611   3.224   2.667   0.419  0.2047 -0.4953  0.2206
  993SOL    HW114612   3.194   2.583   0.385 -1.9341  1.0363 -1.7368
  993SOL    HW214613   3.314   2.640   0.433  0.6886  1.3865  0.7568
  994SOL     OW14614   4.125   2.727   7.461  0.0481 -0.2673  0.2819
  994SOL    HW114615   4.116   2.651   7.403 -2.6762 -1.5847  2.4341
  994SOL    HW214616   4.039   2.769   7.451 -1.3924 -3.3328 -0.1762
  995SOL     OW14617   4.412   1.816  12.253  0.5807  0.1114  0.2299
  995SOL    HW114618   4.459   1.768  12.184 -1.8122 -2.5894  0.4829
  995SOL    HW214619   4.417   1.910  12.236 -1.4293  0.4173  1.3831
  996SOL     OW14620   1.986   0.438   3.103 -0.0275 -0.1111 -0.1075
  996SOL    HW114621   2.059   0.497   3.088 -0.4668  0.5648  0.4114
  996SOL    HW214622   1.944   0.457   3.019 -0.1721 -1.2124 -0.2878
  997SOL     OW14623   2.127   4.057   4.412 -0.4226  0.3060 -0.1556
  997SOL    HW114624   2.219   4.040   4.432 -0.7239 -1.8613 -0.6652
  997SOL    HW214625   2.138   4.049   4.317  3.3088  2.1473  0.0951
  998SOL     OW14626   3.904   0.617   5.647 -0.1486 -0.1478  0.2386
  998SOL    HW114627   3.969   0.666   5.597  0.0580  1.7879  2.4151
  998SOL    HW214628   3.914   0.641   5.739 -0.4656  1.7176 -0.2111
  999SOL     OW14629   2.624   0.789   3.093  0.1171 -0.4542  0.3636
  999SOL    HW114630   2.706   0.742   3.110  0.2633 -0.3034  0.0765
  999SOL    HW214631   2.618   0.852   3.164 -0.9650 -1.0296  0.7853
 1000SOL     OW14632   0.560   0.839   7.884  0.1209 -0.2772 -0.0750
 1000SOL    HW114633   0.509   0.822   7.964  0.6876 -1.3372  0.0604
 1000SOL    HW214634   0.481   0.849   7.831 -0.3938 -0.5517  0.6483
 1001SOL     OW14635   1.848   1.393  17.211  0.0009  0.6113 -0.0501
 1001SOL    HW114636   1.896   1.433  17.139 -1.6945  0.6922 -1.1513
 1001SOL    HW214637   1.848   1.471  17.266 -0.7199  3.1963 -3.7191
 1002SOL     OW14638   0.874   0.152   2.066 -0.4407  0.8560  0.0509
 1002SOL    HW114639   0.842   0.185   1.982 -1.0778 -1.1216 -0.4748
 1002SOL    HW214640   0.851   0.225   2.124 -1.3307  0.1686  0.5507
 1003SOL     OW14641   2.995   0.895  10.517  0.1563 -0.0858 -0.3978
 1003SOL    HW114642   3.076   0.931  10.478 -0.8091  0.8270 -1.5906
 1003SOL    HW214643   3.010   0.801  10.507  2.3683 -0.1606  3.6168
 1004SOL     OW14644   3.856   3.724   2.680 -0.1009  0.0793 -0.5881
 1004SOL    HW114645   3.880   3.796   2.738  0.6862 -0.1688 -0.6168
 1004SOL    HW214646   3.762   3.743   2.684 -0.4296 -1.4799 -0.7066
 1005SOL     OW14647   1.361   0.181   6.570 -0.5711  0.0575  0.2258
 1005SOL    HW114648   1.323   0.096   6.548  1.3937 -0.3090 -1.7207
 1005SOL    HW214649   1.299   0.240   6.526 -1.2836 -1.2760 -0.5433
 1006SOL     OW14650   3.640   1.177   2.345  0.0485  0.3091 -0.5371
 1006SOL    HW114651   3.657   1.266   2.374  2.6270 -0.1293 -0.7097
 1006SOL    HW214652   3.561   1.152   2.393  0.9534 -0.8429  0.3579
 1007SOL     OW14653   0.767   1.296  14.477 -0.5847 -0.3515  0.2360
 1007SOL    HW114654   0.717   1.236  14.421 -2.7407  0.5656  1.1767
 1007SOL    HW214655   0.729   1.271  14.561 -0.6934  1.5622  0.7575
 1008SOL     OW14656   1.711   1.609   1.393 -0.5819  0.3537 -0.7393
 1008SOL    HW114657   1.735   1.686   1.445 -0.2867  0.7200 -1.4254
 1008SOL    HW214658   1.678   1.654   1.315 -0.9885 -1.0457 -1.3675
 1009SOL     OW14659   1.667   0.093   8.763  0.1117 -0.0420 -0.0596
 1009SOL    HW114660   1.636   0.174   8.724  0.1719  0.6056  1.2283
 1009SOL    HW214661   1.621   0.077   8.845 -1.0786 -1.4741 -1.0138
 1010SOL     OW14662   4.621   1.476  17.065  0.4408 -0.0489  0.8647
 1010SOL    HW114663   4.657   1.491  16.978  0.5835 -2.2090  0.5665
 1010SOL    HW214664   4.529   1.459  17.044  0.9551  0.4947 -1.7751
 1011SOL     OW14665   4.062   3.716  11.295  0.2890  0.3887  0.2566
 1011SOL    HW114666   4.066   3.698  11.201 -2.3693  2.3811 -0.2187
 1011SOL    HW214667   4.003   3.789  11.276  0.9966  0.4353 -1.7829
 1012SOL     OW14668   1.852   2.416   1.220  0.2900 -0.9922 -0.1289
 1012SOL    HW114669   1.785   2.418   1.288  0.9690 -2.3756  0.5802
 1012SOL    HW214670   1.860   2.327   1.185 -2.7248 -1.3389  0.0731
 1013SOL     OW14671   2.672   0.655  10.819  0.3724  0.6780  0.0802
 1013SOL    HW114672   2.693   0.723  10.754 -0.5696 -1.2960 -2.3170
 1013SOL    HW214673   2.687   0.581  10.760 -0.2999 -0.4483  1.3536
 1014SOL     OW14674   2.479   3.642   5.215 -0.3161 -0.2853  0.6039
 1014SOL    HW114675   2.406   3.669   5.160 -0.6407 -3.6640 -0.6450
 1014SOL    HW214676   2.540   3.716   5.214 -0.6658  0.0034  0.9941
 1015SOL     OW14677   0.037   4.483   3.167 -0.2670  0.5897  0.2526
 1015SOL    HW114678   0.073   4.539   3.098 -0.8755 -0.2765 -0.7766
 1015SOL    HW214679   0.117   4.449   3.206  0.3100  3.2146  1.3720
 1016SOL     OW14680   0.267   2.019  16.533  0.1596  0.2326  0.3238
 1016SOL    HW114681   0.255   2.050  16.443 -0.4248 -0.6389  0.1041
 1016SOL    HW214682   0.250   2.104  16.574  1.1907  0.0481  1.1382
 1017SOL     OW14683   2.908   2.847   4.213  0.0769 -0.4894 -0.2924
 1017SOL    HW114684   2.872   2.877   4.130  1.8922 -1.6919 -1.5307
 1017SOL    HW214685   2.903   2.752   4.212  1.8190 -0.5809 -0.5634
 1018SOL     OW14686   4.358   1.359   5.626 -0.1452  0.2498  0.1629
 1018SOL    HW114687   4.439   1.378   5.674 -0.0251 -0.4930  0.2511
 1018SOL    HW214688   4.312   1.442   5.612  1.1793  1.1584  1.1804
 1019SOL     OW14689   1.900   3.334   2.958  0.5752  0.4217  0.2820
 1019SOL    HW114690   1.872   3.245   2.939  0.0295  0.7843 -0.6133
 1019SOL    HW214691   1.973   3.331   2.895  1.3185  0.4198  1.1426
 1020SOL     OW14692   1.037   1.429   9.605  0.4200 -0.7103 -0.2363
 1020SOL    HW114693   1.069   1.371   9.675 -2.8502  0.4426  2.1750
 1020SOL    HW214694   1.061   1.516   9.636  3.8573 -2.2106  1.2988
 1021SOL     OW14695   4.158   2.557   5.896 -0.2085  0.0763 -0.4519
 1021SOL    HW114696   4.078   2.574   5.944  1.2336  1.1750  1.5850
 1021SOL    HW214697   4.211   2.494   5.945 -3.2176 -1.5585  0.6890
 1022SOL     OW14698   3.789   2.121  15.427  0.1700  0.2291 -0.8824
 1022SOL    HW114699   3.710   2.148  15.379 -0.6161 -0.2298  0.1493
 1022SOL    HW214700   3.783   2.026  15.418 -0.1011  0.3988 -2.4410
 1023SOL     OW14701   0.441   4.074  12.062 -0.2617 -0.2779  0.8846
 1023SOL    HW114702   0.451   4.161  12.025  1.5932 -1.1051 -0.5287
 1023SOL    HW214703   0.483   4.021  11.995 -1.2092 -0.4424  0.4254
 1024SOL     OW14704   4.012   0.152   1.731 -0.4452 -0.0362  0.0817
 1024SOL    HW114705   4.016   0.233   1.678 -3.8340 -0.6835 -1.1793
 1024SOL    HW214706   4.007   0.078   1.671 -1.0454  0.0966 -0.0271
 1025SOL     OW14707   0.940   0.774   6.762 -0.1103  0.1952  0.1154
 1025SOL    HW114708   0.859   0.735   6.792  0.2614 -1.9853 -1.7778
 1025SOL    HW214709   0.976   0.706   6.706  2.3947  0.8327  0.9154
 1026SOL     OW14710   3.513   1.221   1.852  0.0675  0.2746  0.3988
 1026SOL    HW114711   3.461   1.290   1.893 -0.6035 -0.2074  0.3515
 1026SOL    HW214712   3.463   1.204   1.772 -1.1642  0.2732  1.1710
 1027SOL     OW14713   3.265   2.624   9.184 -0.1436 -0.7519 -0.0854
 1027SOL    HW114714   3.303   2.573   9.112 -1.5078 -2.0411  0.0848
 1027SOL    HW214715   3.344   2.655   9.227 -0.8743 -0.6532  1.1968
 1028SOL     OW14716   0.786   3.085  13.089 -0.3383  0.3748  0.8606
 1028SOL    HW114717   0.697   3.050  13.087 -0.7190  1.3477  0.8744
 1028SOL    HW214718   0.775   3.165  13.039  0.3744  0.5456  0.9766
 1029SOL     OW14719   4.053   4.064   3.169 -0.9907 -0.7294 -0.7086
 1029SOL    HW114720   4.033   3.980   3.210 -2.1699  0.7731  1.7377
 1029SOL    HW214721   4.146   4.047   3.153 -0.7663  0.5557 -0.7596
 1030SOL     OW14722   3.033   2.993   0.965 -0.0561  0.2040  0.3706
 1030SOL    HW114723   3.108   2.976   0.908  0.5895  0.7195  1.0853
 1030SOL    HW214724   2.962   2.995   0.900  2.0513 -2.7181 -2.0277
 1031SOL     OW14725   3.264   2.492   6.524 -0.2284  0.1859 -0.0971
 1031SOL    HW114726   3.234   2.413   6.479 -0.2919 -0.1375  0.5166
 1031SOL    HW214727   3.347   2.463   6.561 -1.0448  0.4126  1.9016
 1032SOL     OW14728   4.002   1.071   2.260  0.7521 -0.3783  0.1096
 1032SOL    HW114729   3.980   1.163   2.246 -2.1709 -0.8648  1.5266
 1032SOL    HW214730   4.082   1.052   2.211  0.2421  3.6856 -2.2755
 1033SOL     OW14731   2.721   0.149   7.405 -0.0710  0.4568 -0.2741
 1033SOL    HW114732   2.724   0.201   7.325 -1.5657 -3.1018 -2.6428
 1033SOL    HW214733   2.648   0.202   7.439 -0.7168  0.4595 -1.6501
 1034SOL     OW14734   1.186   3.249   3.665 -0.1556  0.0935  0.2714
 1034SOL    HW114735   1.212   3.236   3.756 -1.3608  1.4027  0.7877
 1034SOL    HW214736   1.269   3.237   3.618 -1.1320 -1.1171 -1.1563
 1035SOL     OW14737   0.358   0.439   8.276 -0.4397 -0.9413  0.2235
 1035SOL    HW114738   0.319   0.354   8.255 -2.3319  0.0882 -0.4565
 1035SOL    HW214739   0.299   0.505   8.240  1.7836  1.9011  1.8088
 1036SOL     OW14740   1.143   1.660   9.651 -0.4315  0.4117  0.2760
 1036SOL    HW114741   1.229   1.687   9.621 -0.5533  1.0500  0.4859
 1036SOL    HW214742   1.096   1.742   9.637 -0.7155 -0.0075 -1.1863
 1037SOL     OW14743   2.022   3.015  10.311  0.6249  0.1100  0.4853
 1037SOL    HW114744   2.001   2.926  10.338 -2.0644 -0.2844 -2.8533
 1037SOL    HW214745   1.988   3.013  10.222  0.7376 -0.2226  0.4506
 1038SOL     OW14746   1.954   3.938   1.342 -0.3381  0.0777  0.6416
 1038SOL    HW114747   1.967   3.981   1.426 -1.5894  0.9495  0.3908
 1038SOL    HW214748   1.871   3.892   1.356 -1.8476  1.6033 -3.4467
 1039SOL     OW14749   1.662   2.333  10.057  0.1824 -0.0389 -0.3702
 1039SOL    HW114750   1.641   2.370   9.971  1.3166  1.0234 -0.1839
 1039SOL    HW214751   1.718   2.391  10.108 -0.2958 -0.8163  1.0300
 1040SOL     OW14752   1.494   1.026   0.011  0.3190  0.0487 -1.0455
 1040SOL    HW114753   1.530   0.956   0.066 -0.5923  0.5881  0.2253
 1040SOL    HW214754   1.442   1.075   0.074  2.0785  1.8154 -0.9740
 1041SOL     OW14755   2.133   3.774   1.247  0.2226  0.4005  0.6870
 1041SOL    HW114756   2.058   3.830   1.267 -0.6369 -1.6258  3.1718
 1041SOL    HW214757   2.154   3.791   1.155 -0.4254  0.8839  0.6350
 1042SOL     OW14758   3.298   1.372   2.537  0.2336 -0.3227  0.3529
 1042SOL    HW114759   3.210   1.359   2.503  0.6475  0.5882 -1.0879
 1042SOL    HW214760   3.278   1.431   2.610 -0.4393  0.1588 -0.2303
 1043SOL     OW14761   0.979   0.028   6.855 -0.6594  0.4160 -0.0370
 1043SOL    HW114762   0.939   0.017   6.941 -0.6085 -4.6847 -0.6227
 1043SOL    HW214763   1.047   0.094   6.851 -0.1283 -0.2247 -1.8245
 1044SOL     OW14764   0.001   1.485  12.110 -0.1368 -0.3485 -0.4547
 1044SOL    HW114765   4.719   1.394  12.132  1.0014 -0.0774  1.7715
 1044SOL    HW214766   0.079   1.508  12.160  0.3142  0.3034 -1.4774
 1045SOL     OW14767   1.630   4.484   3.143  0.9331  0.1962 -0.4810
 1045SOL    HW114768   1.644   4.401   3.187  1.2661  0.6054  0.1898
 1045SOL    HW214769   1.556   4.467   3.084  1.8421 -1.9199 -0.9811
 1046SOL     OW14770   3.929   1.298   2.001  0.1111 -0.2156  0.1690
 1046SOL    HW114771   3.958   1.233   1.936 -0.6056  0.4922 -0.8643
 1046SOL    HW214772   3.863   1.237   2.034  0.1723  0.0341  0.7358
 1047SOL     OW14773   2.740   3.499   3.041  0.0498  0.3637 -0.3336
 1047SOL    HW114774   2.703   3.556   3.108  0.2821  0.9126 -0.6758
 1047SOL    HW214775   2.812   3.557   3.017  0.8212  0.1741  1.4840
 1048SOL     OW14776   3.382   3.277   9.117  0.3450 -0.6744  0.2386
 1048SOL    HW114777   3.333   3.238   9.044  2.6039  0.9790 -2.1399
 1048SOL    HW214778   3.408   3.200   9.168 -3.0562 -1.5824  0.6382
 1049SOL     OW14779   3.905   3.321   6.830 -0.3013  0.3933  0.0033
 1049SOL    HW114780   3.815   3.290   6.842  0.1535 -1.1511 -0.6034
 1049SOL    HW214781   3.946   3.252   6.882 -0.4017 -0.0338 -0.4885
 1050SOL     OW14782   2.745   2.718   5.952  0.5138 -0.0069  0.2265
 1050SOL    HW114783   2.748   2.748   6.043  0.3192  0.6276  0.0256
 1050SOL    HW214784   2.822   2.767   5.922  2.5639 -1.6084  2.9380
 1051SOL     OW14785   1.908   1.794  15.281  0.3739 -0.1053  0.4449
 1051SOL    HW114786   1.868   1.869  15.325 -0.2747  0.8990 -1.8948
 1051SOL    HW214787   1.898   1.720  15.341  1.5840 -0.2323  0.4842
 1052SOL     OW14788   4.099   4.029  11.695 -0.1357  0.5530  0.2337
 1052SOL    HW114789   4.016   4.076  11.682  0.3985  1.2790 -0.4682
 1052SOL    HW214790   4.130   4.029  11.605 -1.1672 -1.2107 -0.1232
 1053SOL     OW14791   3.735   1.541  15.549  0.4340 -0.1310 -0.0681
 1053SOL    HW114792   3.646   1.577  15.545  0.5317  0.1885  0.7360
 1053SOL    HW214793   3.760   1.552  15.457  1.3705  0.4291  0.2557
 1054SOL     OW14794   3.760   3.738   9.177  0.1661 -0.1862  0.0157
 1054SOL    HW114795   3.774   3.662   9.121 -2.0926  0.1525 -1.0019
 1054SOL    HW214796   3.825   3.710   9.241 -2.3668  0.4792  2.8964
 1055SOL     OW14797   2.377   2.419   2.731  0.0755 -0.5211 -0.4497
 1055SOL    HW114798   2.347   2.410   2.821  0.7066 -0.9369 -0.2796
 1055SOL    HW214799   2.467   2.387   2.739  0.1685 -0.0941  0.1918
 1056SOL     OW14800   2.180   3.809   1.797 -0.1985 -0.4938  0.3775
 1056SOL    HW114801   2.237   3.858   1.738  0.0610  0.5076  1.4598
 1056SOL    HW214802   2.156   3.881   1.856  0.6646  0.2924 -0.2466
 1057SOL     OW14803   3.438   2.731   4.978  0.2133  0.1924 -0.1091
 1057SOL    HW114804   3.374   2.663   4.956 -0.4137 -0.1759  2.9794
 1057SOL    HW214805   3.386   2.793   5.029  0.8701 -0.5840  1.4943
 1058SOL     OW14806   3.140   1.064   3.252  0.3127  0.4799 -0.5563
 1058SOL    HW114807   3.071   1.023   3.304  2.3403  1.4548  2.9147
 1058SOL    HW214808   3.208   1.077   3.318 -0.2862 -1.5296  0.4523
 1059SOL     OW14809   2.053   2.043   5.316 -0.3371  0.5219  0.1382
 1059SOL    HW114810   2.113   2.036   5.241  0.1662  0.6063  0.5295
 1059SOL    HW214811   1.966   2.029   5.279 -0.2629  1.0593 -0.2371
 1060SOL     OW14812   1.164   0.928  10.067  0.5119 -0.1154  0.9714
 1060SOL    HW114813   1.167   1.011  10.115  1.3525  0.3270  0.1612
 1060SOL    HW214814   1.240   0.878  10.095  1.6265  0.5707 -0.8137
 1061SOL     OW14815   3.053   4.288   6.505 -0.1272  0.4977  0.0066
 1061SOL    HW114816   3.019   4.199   6.509  0.4277  0.3317  1.0224
 1061SOL    HW214817   2.978   4.326   6.459  1.8166 -0.1921 -3.7184
 1062SOL     OW14818   4.605   4.623   5.035 -0.0117  0.0888 -0.0634
 1062SOL    HW114819   4.591   4.587   5.122 -1.1414  1.3356  0.2567
 1062SOL    HW214820   4.662   4.556   4.996  0.4933  0.3144  0.2935
 1063SOL     OW14821   3.048   4.279   1.559  0.2829  0.0757  0.3392
 1063SOL    HW114822   3.073   4.226   1.483  1.1344  3.2701 -1.5731
 1063SOL    HW214823   3.098   4.231   1.625  1.5732  0.6894 -0.1990
 1064SOL     OW14824   3.790   1.503   8.370 -0.2926  0.3132 -0.2338
 1064SOL    HW114825   3.744   1.428   8.408  1.1599 -0.7829 -0.6515
 1064SOL    HW214826   3.718   1.566   8.365  0.5683  1.1759 -1.5924
 1065SOL     OW14827   0.677   1.870   1.349  0.4301  0.3321 -0.3311
 1065SOL    HW114828   0.592   1.834   1.322 -0.5238  2.0264  0.4434
 1065SOL    HW214829   0.694   1.808   1.421 -0.6934  1.0662  0.5641
 1066SOL     OW14830   2.022   3.778   8.058 -0.8586  0.6734 -0.0137
 1066SOL    HW114831   2.065   3.856   8.094 -0.1879  0.2061  0.2111
 1066SOL    HW214832   1.974   3.744   8.133 -0.8512  1.5763  0.4041
 1067SOL     OW14833   1.801   1.680  16.786 -0.1745 -0.5208  0.1648
 1067SOL    HW114834   1.706   1.677  16.780  0.1207 -4.4624 -2.3849
 1067SOL    HW214835   1.830   1.715  16.701 -0.4147 -0.9835 -0.1015
 1068SOL     OW14836   1.127   3.990  15.305 -0.1330  0.2085 -0.0046
 1068SOL    HW114837   1.218   3.964  15.292 -0.4645 -1.2800  0.6882
 1068SOL    HW214838   1.146   4.084  15.306  3.7345 -0.5590 -1.2317
 1069SOL     OW14839   0.517   3.102   0.489  0.5647  0.3770 -0.4017
 1069SOL    HW114840   0.491   3.067   0.403 -2.0499  0.2841  0.4278
 1069SOL    HW214841   0.476   3.188   0.481 -2.5732 -1.1844 -1.1787
 1070SOL     OW14842   4.345   1.662   9.990 -0.2778 -0.2907 -0.3739
 1070SOL    HW114843   4.386   1.625   9.912  0.5851  0.3489 -0.2255
 1070SOL    HW214844   4.267   1.607  10.001 -0.0999 -0.4543  0.0695
 1071SOL     OW14845   4.495   2.649   3.653 -0.1568  0.1951 -0.1576
 1071SOL    HW114846   4.531   2.642   3.565  0.1386  2.4769 -0.2068
 1071SOL    HW214847   4.442   2.728   3.650 -1.0672 -0.3505  1.6994
 1072SOL     OW14848   0.730   1.396   0.227  0.3252 -0.0605 -0.4917
 1072SOL    HW114849   0.695   1.421   0.141  0.4046 -0.6633 -0.6951
 1072SOL    HW214850   0.662   1.338   0.260 -1.0222  1.6613 -0.2518
 1073SOL     OW14851   4.641   0.685   8.127 -0.0655  0.2534 -0.0812
 1073SOL    HW114852   4.666   0.774   8.105  1.3568 -0.4494 -1.2884
 1073SOL    HW214853   4.668   0.637   8.048 -1.9856 -0.9883  0.0112
 1074SOL     OW14854   2.492   3.257   7.052  0.2655  0.3621  0.3968
 1074SOL    HW114855   2.527   3.304   7.128 -0.5480 -0.6916  1.4344
 1074SOL    HW214856   2.408   3.223   7.083 -0.1483 -1.7808 -3.0683
 1075SOL     OW14857   2.842   4.295   7.060 -0.3058  0.2547  0.0127
 1075SOL    HW114858   2.933   4.324   7.060 -0.3311  0.3305 -1.0754
 1075SOL    HW214859   2.856   4.204   7.086  0.9521  1.1941  2.5618
 1076SOL     OW14860   4.520   2.940   9.913  0.2342  0.2201 -0.2352
 1076SOL    HW114861   4.479   3.021   9.882 -2.4294 -0.8764  0.3873
 1076SOL    HW214862   4.575   2.926   9.836 -0.8854  2.1928 -1.4218
 1077SOL     OW14863   3.980   1.543   5.440  0.1122  0.1008 -0.3802
 1077SOL    HW114864   3.899   1.500   5.413 -0.6333  0.9044  0.6024
 1077SOL    HW214865   3.948   1.633   5.441  0.7256  0.3283 -1.1231
 1078SOL     OW14866   2.085   1.516   7.051  0.0426 -0.2753  0.0799
 1078SOL    HW114867   2.003   1.549   7.087  1.5106  2.2605  1.1218
 1078SOL    HW214868   2.144   1.584   7.082  0.9623 -1.1872  0.3382
 1079SOL     OW14869   2.423   4.251   8.026  0.4098 -0.7481 -0.4057
 1079SOL    HW114870   2.512   4.276   8.048 -0.2125  0.9886  0.2023
 1079SOL    HW214871   2.369   4.264   8.105  2.7241 -0.4876  1.1211
 1080SOL     OW14872   2.374   2.640  14.876  0.0378  0.6571 -0.2211
 1080SOL    HW114873   2.453   2.588  14.891 -0.7376 -0.2749  0.6006
 1080SOL    HW214874   2.353   2.600  14.792 -1.1712 -0.2932  0.5283
 1081SOL     OW14875   2.168   1.040   9.292  0.4895 -0.2238 -0.0559
 1081SOL    HW114876   2.243   1.099   9.291 -0.2062  0.6069 -3.2605
 1081SOL    HW214877   2.184   0.969   9.230  1.8117  2.1225 -2.3750
 1082SOL     OW14878   0.070   4.130   3.404  0.0984  0.8267  0.0090
 1082SOL    HW114879   0.084   4.041   3.436  2.4124  0.6402 -1.4955
 1082SOL    HW214880   4.731   4.113   3.353 -0.5665  1.1485  0.9457
 1083SOL     OW14881   4.322   3.246   2.264 -0.3600  0.0936 -0.0759
 1083SOL    HW114882   4.282   3.164   2.236  1.9767 -1.1304  0.1240
 1083SOL    HW214883   4.247   3.304   2.249 -0.6037 -0.3847 -0.6796
 1084SOL     OW14884   2.397   4.190   6.720 -0.1846  0.0749 -0.1289
 1084SOL    HW114885   2.367   4.265   6.669 -0.8621 -0.0612  0.0657
 1084SOL    HW214886   2.313   4.146   6.735  0.6807 -1.3485  0.5619
 1085SOL     OW14887   3.672   0.133   3.961  0.2298  0.3114 -0.1929
 1085SOL    HW114888   3.746   0.129   4.023  0.6696 -1.0727 -0.8101
 1085SOL    HW214889   3.718   0.185   3.895  3.1707 -0.2129  1.4320
 1086SOL     OW14890   1.200   0.159   0.131  0.1567  0.2157  0.4726
 1086SOL    HW114891   1.188   0.237   0.184  1.8419  0.5308  0.3958
 1086SOL    HW214892   1.176   0.093   0.196  1.4832  1.0291  1.7647
 1087SOL     OW14893   2.889   4.220   4.150  0.5505  0.3822  0.3001
 1087SOL    HW114894   2.820   4.269   4.104 -0.1458 -0.6158  0.2754
 1087SOL    HW214895   2.856   4.130   4.152  1.5540  0.0036 -0.3653
 1088SOL     OW14896   0.708   4.145   0.815 -0.0205 -0.1052 -0.2183
 1088SOL    HW114897   0.671   4.120   0.730  1.0139  1.9245 -1.2701
 1088SOL    HW214898   0.750   4.065   0.844  1.2033 -0.5001 -3.0393
 1089SOL     OW14899   3.753   1.141  10.530 -0.5182 -0.1026  0.6463
 1089SOL    HW114900   3.725   1.222  10.573 -1.0708 -0.7902  1.5870
 1089SOL    HW214901   3.714   1.083  10.595  1.0458  0.0840  1.7498
 1090SOL     OW14902   1.804   3.252   8.913 -0.0474  0.0067 -0.2670
 1090SOL    HW114903   1.856   3.175   8.937 -0.4943  0.4699  2.1898
 1090SOL    HW214904   1.821   3.308   8.989 -1.0807  0.7514 -0.5945
 1091SOL     OW14905   4.730   4.383   2.837  0.3592  0.2853  0.1012
 1091SOL    HW114906   0.077   4.411   2.806  0.4504 -0.5307 -0.3872
 1091SOL    HW214907   4.678   4.389   2.758  0.0398 -0.2929  0.2721
 1092SOL     OW14908   2.991   3.999   0.857 -0.0516  0.3827 -0.0158
 1092SOL    HW114909   2.921   3.974   0.917 -0.2241  2.5172  0.6728
 1092SOL    HW214910   2.966   3.932   0.793  2.2730 -0.8063  0.2941
 1093SOL     OW14911   0.104   4.061  14.921  0.5832  0.5639 -0.0026
 1093SOL    HW114912   0.011   4.040  14.918  0.3282  1.6359  0.2931
 1093SOL    HW214913   0.095   4.121  14.995 -3.5604  0.3919 -0.3959
 1094SOL     OW14914   0.366   2.416   2.060  0.4143  0.3462  0.2766
 1094SOL    HW114915   0.440   2.365   2.092 -0.2436 -0.1387  1.0217
 1094SOL    HW214916   0.372   2.497   2.111 -2.2849 -1.0420  2.7883
 1095SOL     OW14917   0.480   2.673   6.068  0.5377 -0.1449 -0.5486
 1095SOL    HW114918   0.426   2.625   6.131  2.4162 -1.4755  0.0666
 1095SOL    HW214919   0.534   2.601   6.035  2.6879  1.1602  0.1411
 1096SOL     OW14920   3.823   0.005   6.108  0.2403  0.3684  0.0324
 1096SOL    HW114921   3.839   4.701   6.024 -2.5772  0.0913 -0.3512
 1096SOL    HW214922   3.888   4.705   6.166 -1.7131 -0.4637  1.6875
 1097SOL     OW14923   0.108   3.089  13.372 -0.3520  1.0528  0.4355
 1097SOL    HW114924   0.099   3.175  13.332  1.0542  0.3877 -1.3692
 1097SOL    HW214925   0.040   3.043  13.322  1.7231 -0.5182 -0.9948
 1098SOL     OW14926   0.200   4.233   5.921 -0.2490 -0.3753  0.1992
 1098SOL    HW114927   0.157   4.274   5.996 -0.3311 -0.0067 -0.0499
 1098SOL    HW214928   0.259   4.301   5.888 -1.1358 -0.8620 -2.3541
 1099SOL     OW14929   4.399   1.742   0.011  0.5217 -0.4069  0.4550
 1099SOL    HW114930   4.375   1.821   0.059  1.2396 -0.7327  1.3510
 1099SOL    HW214931   4.460   1.778  17.703  1.7875 -2.1254  0.6876
 1100SOL     OW14932   1.380   0.655   2.252  0.6264  0.1100  0.0730
 1100SOL    HW114933   1.474   0.641   2.241  0.3492 -0.4473 -1.7223
 1100SOL    HW214934   1.361   0.574   2.299 -0.9122  0.9872  0.9626
 1101SOL     OW14935   0.082   4.133   8.090 -0.2307 -0.3235  0.1960
 1101SOL    HW114936   0.019   4.070   8.055 -0.8886 -1.4307  3.4341
 1101SOL    HW214937   0.079   4.197   8.019 -0.9306  0.3082  0.8030
 1102SOL     OW14938   0.733   3.791   9.239  0.0451 -0.0264 -0.3679
 1102SOL    HW114939   0.747   3.873   9.192 -0.1284  2.1949  3.4627
 1102SOL    HW214940   0.814   3.746   9.214 -1.1289 -1.8705 -0.8251
 1103SOL     OW14941   4.371   1.944  14.111  0.0042 -0.3609 -0.2840
 1103SOL    HW114942   4.389   1.851  14.126  3.8929  0.4513 -0.0132
 1103SOL    HW214943   4.435   1.985  14.169 -0.2848  0.0624 -0.2664
 1104SOL     OW14944   3.380   1.746  14.141 -0.7733  0.3052 -0.4843
 1104SOL    HW114945   3.415   1.805  14.073  1.2820 -0.6876 -0.2989
 1104SOL    HW214946   3.459   1.706  14.177  0.4011 -0.5050 -3.9133
 1105SOL     OW14947   1.599   3.550   2.111  0.2509 -0.2932  0.0703
 1105SOL    HW114948   1.659   3.591   2.048 -2.5862  2.0233 -1.0957
 1105SOL    HW214949   1.632   3.596   2.188 -0.0024 -0.7611  0.4585
 1106SOL     OW14950   1.726   3.885   7.798 -0.4666  0.2032  0.1243
 1106SOL    HW114951   1.751   3.802   7.757  0.2597 -0.2103  1.3663
 1106SOL    HW214952   1.631   3.878   7.802 -0.4977  1.4194  1.5183
 1107SOL     OW14953   4.727   1.228   4.965  0.1237  0.3422  0.5884
 1107SOL    HW114954   4.721   1.225   5.060  2.0310  2.0447  0.7503
 1107SOL    HW214955   4.638   1.241   4.931  0.3634  2.4006  0.7352
 1108SOL     OW14956   1.402   2.312   4.710 -0.1683 -0.0346 -0.3020
 1108SOL    HW114957   1.349   2.380   4.753  0.3411  0.2320 -0.0951
 1108SOL    HW214958   1.487   2.309   4.754 -0.5968 -0.5212  0.4961
 1109SOL     OW14959   0.170   0.905   6.050 -0.6389 -0.2283  0.7404
 1109SOL    HW114960   0.246   0.912   6.108  1.1216 -0.5246 -1.5493
 1109SOL    HW214961   0.141   0.996   6.055  1.9168  0.5345  2.1909
 1110SOL     OW14962   4.149   3.480  11.856 -0.6409  0.3147 -0.9821
 1110SOL    HW114963   4.133   3.500  11.764 -2.3591 -1.2726 -1.0437
 1110SOL    HW214964   4.203   3.555  11.880  0.0348 -1.0462  1.7222
 1111SOL     OW14965   0.987   0.826   9.464  0.1920 -0.2111 -0.3640
 1111SOL    HW114966   1.006   0.750   9.518  1.4467 -0.4316 -1.0883
 1111SOL    HW214967   1.036   0.897   9.506 -0.2727 -0.3784  0.4609
 1112SOL     OW14968   2.105   2.696   5.082 -0.0446 -0.2567  0.1771
 1112SOL    HW114969   2.024   2.649   5.103 -1.4882  2.1618 -0.0204
 1112SOL    HW214970   2.111   2.732   5.170  1.1199 -2.0816  0.8456
 1113SOL     OW14971   0.134   0.634   7.234 -0.1072  0.7740  0.0401
 1113SOL    HW114972   0.182   0.603   7.310 -2.0054  1.9669  1.7176
 1113SOL    HW214973   0.046   0.654   7.265 -0.0802  0.1371  0.5091
 1114SOL     OW14974   2.087   2.979   2.651 -0.0909 -0.5755  0.4129
 1114SOL    HW114975   2.048   2.899   2.687  0.1310 -1.5551 -1.4731
 1114SOL    HW214976   2.024   2.993   2.580  2.3383  0.4837 -1.5603
 1115SOL     OW14977   2.317   3.604   0.266  0.3740 -0.1358  0.2647
 1115SOL    HW114978   2.237   3.646   0.236  0.6430  0.6200  0.5932
 1115SOL    HW214979   2.377   3.630   0.196 -0.6289 -2.5210 -1.4683
 1116SOL     OW14980   4.325   0.429   9.202 -0.1456 -0.8143  0.2490
 1116SOL    HW114981   4.304   0.417   9.295 -0.1411  1.2236  0.5074
 1116SOL    HW214982   4.414   0.462   9.210 -0.2385 -0.6112  0.4524
 1117SOL     OW14983   1.853   3.268   4.001  0.8116 -0.1237 -0.2649
 1117SOL    HW114984   1.845   3.329   4.074 -1.6285 -1.5045  0.6177
 1117SOL    HW214985   1.893   3.197   4.052 -1.4086 -2.4334 -1.7631
 1118SOL     OW14986   1.249   2.934   3.382 -0.1212 -0.5260 -0.3798
 1118SOL    HW114987   1.319   2.997   3.398 -1.6685  0.8814  0.8131
 1118SOL    HW214988   1.223   2.926   3.474  0.4914 -3.8833 -0.4905
 1119SOL     OW14989   2.576   2.319   2.407 -0.4136  0.0198 -0.0323
 1119SOL    HW114990   2.607   2.398   2.451 -1.9588 -0.0027  1.0852
 1119SOL    HW214991   2.656   2.289   2.364  1.7504 -1.5061  5.0894
 1120SOL     OW14992   2.636   4.108   1.722 -0.1216 -0.4427  0.0219
 1120SOL    HW114993   2.701   4.174   1.747  0.5145 -1.5555  1.2887
 1120SOL    HW214994   2.696   4.038   1.699  0.1195  0.5865 -2.5270
 1121SOL     OW14995   0.918   0.363   3.892 -0.1625  0.0854 -0.2711
 1121SOL    HW114996   0.985   0.298   3.873  1.2783  0.7662  2.4915
 1121SOL    HW214997   0.936   0.388   3.982 -1.9640  0.4807 -0.0154
 1122SOL     OW14998   0.233   0.777  15.677 -0.0971  0.0136  0.4341
 1122SOL    HW114999   0.289   0.852  15.658  0.3399 -0.8830 -1.8327
 1122SOL    HW215000   0.179   0.757  15.601 -1.4168  1.5355  0.9649
 1123SOL     OW15001   0.026   1.815  11.390  0.1362 -0.5100 -0.3269
 1123SOL    HW115002   0.063   1.873  11.456 -0.1112 -0.7227 -0.0010
 1123SOL    HW215003   4.672   1.823  11.406  0.5667 -0.3609  2.0902
 1124SOL     OW15004   3.732   0.144   5.279 -0.1748 -0.0113  0.0154
 1124SOL    HW115005   3.716   0.052   5.299 -0.1481 -0.4055 -1.7979
 1124SOL    HW215006   3.643   0.178   5.268 -0.0604 -0.4503 -2.3100
 1125SOL     OW15007   0.877   1.460   0.462 -0.5276  0.4056 -0.0257
 1125SOL    HW115008   0.863   1.554   0.475  0.4773 -0.1318  4.8006
 1125SOL    HW215009   0.810   1.427   0.402 -0.3740 -0.6535  0.3904
 1126SOL     OW15010   0.405   4.275  14.577 -0.2668  0.3120  0.3970
 1126SOL    HW115011   0.314   4.270  14.548 -0.5933  1.5792  1.2284
 1126SOL    HW215012   0.442   4.332  14.510 -1.8372 -0.8183 -1.4144
 1127SOL     OW15013   1.835   3.164   5.891  0.0257  0.1839  0.5301
 1127SOL    HW115014   1.752   3.155   5.845  0.4463  1.6880 -0.4921
 1127SOL    HW215015   1.864   3.077   5.920 -1.2740 -0.4839 -0.1496
 1128SOL     OW15016   2.827   4.273  17.108  0.3029 -0.1170 -0.2536
 1128SOL    HW115017   2.888   4.257  17.180  1.2051  0.5835 -0.8627
 1128SOL    HW215018   2.751   4.220  17.132  0.5717 -0.2349  0.3223
 1129SOL     OW15019   4.599   1.926   9.235 -0.3753 -0.3104  0.2365
 1129SOL    HW115020   4.584   1.912   9.329  0.4418 -0.8698  0.2807
 1129SOL    HW215021   4.528   1.988   9.217  1.5936  2.2421  1.2888
 1130SOL     OW15022   0.481   4.139   4.514 -0.1666  0.2260  0.2634
 1130SOL    HW115023   0.536   4.217   4.512  0.5173 -0.2443  0.8710
 1130SOL    HW215024   0.394   4.179   4.523 -0.4700 -0.0532 -1.4785
 1131SOL     OW15025   2.060   3.065   4.513  0.5791  0.5861  0.1854
 1131SOL    HW115026   2.029   3.142   4.465  0.0174 -1.9180 -3.5474
 1131SOL    HW215027   2.130   3.035   4.456 -1.0602 -1.9786 -0.5181
 1132SOL     OW15028   0.080   3.809   8.547 -0.4187  0.4335  0.0342
 1132SOL    HW115029   4.724   3.802   8.554 -0.6467  2.1035 -1.5464
 1132SOL    HW215030   0.109   3.748   8.480 -1.1242 -0.8557  0.9083
 1133SOL     OW15031   4.565   1.985  17.157 -0.2094 -0.0579 -0.2692
 1133SOL    HW115032   4.519   1.952  17.235 -0.2578 -0.3768 -0.4337
 1133SOL    HW215033   4.521   2.070  17.151  1.1778  0.6671 -0.1123
 1134SOL     OW15034   1.607   0.714   4.744 -0.3121 -0.1662 -0.0305
 1134SOL    HW115035   1.534   0.676   4.695 -2.3915  2.2054  1.2524
 1134SOL    HW215036   1.674   0.704   4.677  1.8906  1.0649  1.9809
 1135SOL     OW15037   4.581   1.154  10.945  0.4471  0.0557  0.3178
 1135SOL    HW115038   4.510   1.217  10.959  1.3074  0.4197  3.0611
 1135SOL    HW215039   4.642   1.186  11.012  2.3371 -1.4909 -0.6926
 1136SOL     OW15040   1.895   2.078   7.768  0.7697 -1.3545  0.4202
 1136SOL    HW115041   1.901   2.053   7.860  0.7691  4.1793  1.9215
 1136SOL    HW215042   1.978   2.044   7.733  1.7126  0.0845  1.2443
 1137SOL     OW15043   1.496   3.719   1.823  0.3553  0.1437 -0.3867
 1137SOL    HW115044   1.575   3.723   1.878 -0.4685 -0.3262  0.8187
 1137SOL    HW215045   1.467   3.807   1.844  0.6796 -0.2154  1.5842
 1138SOL     OW15046   1.966   4.451  14.035 -0.6084  0.1709 -0.3962
 1138SOL    HW115047   2.004   4.423  13.952 -1.7788  0.0188 -0.8899
 1138SOL    HW215048   1.952   4.545  14.021 -2.6137  0.0086  0.5081
 1139SOL     OW15049   0.393   3.694   4.748  0.5703  0.0510  0.7771
 1139SOL    HW115050   0.484   3.689   4.779  0.5673 -1.6388  0.5148
 1139SOL    HW215051   0.408   3.760   4.681  0.1977 -0.5106  0.1508
 1140SOL     OW15052   3.083   0.359  13.785  0.0087  0.5669  0.4178
 1140SOL    HW115053   3.033   0.380  13.864  0.4505  1.2170  0.5206
 1140SOL    HW215054   3.109   0.268  13.794 -0.2917  0.2855 -1.5602
 1141SOL     OW15055   0.728   4.054  14.884 -0.1096 -0.8055 -0.1718
 1141SOL    HW115056   0.679   4.130  14.853 -0.2867 -0.4321  1.0302
 1141SOL    HW215057   0.672   4.007  14.945 -2.0829  0.8390 -0.7147
 1142SOL     OW15058   0.879   2.215   2.632 -0.1324  0.2347  0.3867
 1142SOL    HW115059   0.883   2.121   2.651  0.7526 -0.0058 -1.0298
 1142SOL    HW215060   0.849   2.240   2.719  2.1244 -0.5971  1.4199
 1143SOL     OW15061   1.409   3.993   4.322  0.3410  0.2341  0.3108
 1143SOL    HW115062   1.475   3.981   4.254 -0.9634 -0.9414 -0.7667
 1143SOL    HW215063   1.331   3.961   4.275 -0.3331  2.7602 -0.2835
 1144SOL     OW15064   1.639   3.455  10.056 -0.4047  0.2709 -0.4802
 1144SOL    HW115065   1.610   3.544  10.037 -1.3337 -0.3961 -2.1177
 1144SOL    HW215066   1.675   3.464  10.145 -0.0030  0.5753 -0.6785
 1145SOL     OW15067   1.893   1.561  13.792 -0.0232  0.1538 -0.4464
 1145SOL    HW115068   1.922   1.470  13.793 -3.7668 -1.0183 -0.6510
 1145SOL    HW215069   1.931   1.601  13.714  2.3465 -0.4286  0.4047
 1146SOL     OW15070   1.172   1.924   8.451  0.9905  0.2801  0.2080
 1146SOL    HW115071   1.160   1.885   8.537  1.0461 -1.5046 -0.6015
 1146SOL    HW215072   1.211   2.009   8.472 -1.5337  1.8402 -1.4689
 1147SOL     OW15073   1.115   4.696   1.432 -0.2260  0.2294 -0.4768
 1147SOL    HW115074   1.134   0.042   1.395 -1.3257  1.8683  2.7446
 1147SOL    HW215075   1.184   4.646   1.389 -0.1428  0.0630 -0.1524
 1148SOL     OW15076   4.117   3.831   6.152  0.0568  0.3645 -0.5945
 1148SOL    HW115077   4.164   3.755   6.185  0.7996  1.4579  0.8447
 1148SOL    HW215078   4.028   3.805   6.176  0.1242 -0.6824 -1.4723
 1149SOL     OW15079   3.518   1.644   8.389 -0.1067 -0.6199  0.6631
 1149SOL    HW115080   3.482   1.577   8.448 -1.9834 -0.5840 -0.4527
 1149SOL    HW215081   3.512   1.723   8.442 -2.0984 -1.2708  1.4073
 1150SOL     OW15082   3.057   0.452   8.282 -0.1391 -0.2224 -0.0979
 1150SOL    HW115083   3.045   0.360   8.260 -0.5900 -0.1753 -0.0579
 1150SOL    HW215084   3.073   0.444   8.376 -2.3370 -0.9745  0.2087
 1151SOL     OW15085   2.958   1.940   8.592 -0.5504  0.4176  0.4287
 1151SOL    HW115086   3.017   1.868   8.613 -0.9393  0.6659  2.3260
 1151SOL    HW215087   3.005   2.009   8.637 -0.2818 -0.5075  1.5528
 1152SOL     OW15088   4.422   4.347   8.539 -0.1012 -0.4104 -0.2093
 1152SOL    HW115089   4.450   4.294   8.614  1.9417  1.1463  0.1011
 1152SOL    HW215090   4.502   4.373   8.495  0.1242  0.3503  0.6445
 1153SOL     OW15091   1.363   1.338   2.784 -0.0755  0.3759  0.1285
 1153SOL    HW115092   1.459   1.340   2.788  0.0552 -2.6327 -1.6479
 1153SOL    HW215093   1.357   1.260   2.730  1.3056 -0.9916  1.9760
 1154SOL     OW15094   2.298   4.620   3.183  0.1806  0.4429  0.0606
 1154SOL    HW115095   2.300   4.621   3.279  0.3084  1.9909  0.0453
 1154SOL    HW215096   2.215   4.574   3.169 -0.5756  1.1598  2.1067
 1155SOL     OW15097   2.002   3.965  13.952  0.7683 -0.6554 -0.7308
 1155SOL    HW115098   2.067   4.007  14.007  0.6641 -1.3562 -0.0797
 1155SOL    HW215099   2.039   3.993  13.868  1.3860  0.2747 -0.1449
 1156SOL     OW15100   1.215   4.543  10.000 -0.0191 -0.4267  0.2817
 1156SOL    HW115101   1.274   4.496   9.940  0.8309  1.3538 -0.2783
 1156SOL    HW215102   1.133   4.504   9.971  0.6821 -0.0095 -2.2730
 1157SOL     OW15103   3.951   3.940   5.685  0.1941 -0.4964 -0.1653
 1157SOL    HW115104   3.870   3.900   5.653 -0.0146 -0.3627  0.2044
 1157SOL    HW215105   4.015   3.906   5.622  0.5540 -0.7339  0.3296
 1158SOL     OW15106   1.335   3.129   8.362 -0.5641 -0.5181 -0.0355
 1158SOL    HW115107   1.422   3.129   8.323  0.3171  1.8570  1.9138
 1158SOL    HW215108   1.330   3.222   8.383 -0.5503 -0.7624  1.0268
 1159SOL     OW15109   4.553   2.015  11.854  0.1989 -0.2910 -0.4259
 1159SOL    HW115110   4.496   2.037  11.780  2.9412  1.6504 -1.9578
 1159SOL    HW215111   4.589   1.932  11.823 -1.0089 -1.2584  0.7936
 1160SOL     OW15112   3.739   1.142   3.643  0.0796 -0.0738 -0.6134
 1160SOL    HW115113   3.834   1.129   3.655  0.3173  1.4252 -0.9357
 1160SOL    HW215114   3.701   1.064   3.684 -0.4617  1.2590  1.4122
 1161SOL     OW15115   2.025   2.333   8.551 -0.1471 -0.0830 -0.2664
 1161SOL    HW115116   2.117   2.312   8.563 -0.5488 -0.8135  1.6051
 1161SOL    HW215117   2.011   2.292   8.466 -0.1209  0.5288 -0.5681
 1162SOL     OW15118   1.893   3.697   8.306  0.3653  0.3015  0.1448
 1162SOL    HW115119   1.875   3.713   8.398 -0.6609 -0.2256  0.0358
 1162SOL    HW215120   1.876   3.604   8.292  1.7127  0.1959 -0.9130
 1163SOL     OW15121   0.238   1.572   9.496  0.2444 -0.6792  0.1510
 1163SOL    HW115122   0.192   1.550   9.577 -2.2139  0.7353 -0.8629
 1163SOL    HW215123   0.316   1.517   9.498  0.2444 -0.6237  1.8920
 1164SOL     OW15124   4.496   1.189  11.863 -0.1850  0.0283 -0.0090
 1164SOL    HW115125   4.544   1.106  11.852 -0.8173  0.0149 -2.5674
 1164SOL    HW215126   4.460   1.185  11.952 -0.2969  1.9547  0.0266
 1165SOL     OW15127   3.313   2.900  15.017  0.2454 -0.6461  0.4849
 1165SOL    HW115128   3.404   2.908  14.992  0.1592  2.7872  1.2547
 1165SOL    HW215129   3.276   2.896  14.929  2.0754  0.7413 -0.3359
 1166SOL     OW15130   4.633   1.599   9.463 -0.6395  0.2777 -0.0104
 1166SOL    HW115131   4.645   1.694   9.466 -0.4446  0.2742 -0.6154
 1166SOL    HW215132   4.677   1.576   9.381  0.1837 -0.6804  0.6977
 1167SOL     OW15133   0.397   0.923   8.552  0.3876  0.1018  0.2881
 1167SOL    HW115134   0.366   1.000   8.504 -0.2229 -0.8328 -0.8142
 1167SOL    HW215135   0.473   0.890   8.503  1.2960  1.2934  0.9001
 1168SOL     OW15136   2.488   0.534   3.492 -0.2208  0.2175 -0.1358
 1168SOL    HW115137   2.555   0.499   3.433 -0.5144 -0.3794 -0.1109
 1168SOL    HW215138   2.458   0.450   3.525 -0.6786 -0.8368 -3.2029
 1169SOL     OW15139   0.741   4.085  15.479  0.2299 -0.1946 -0.2163
 1169SOL    HW115140   0.786   4.000  15.475 -0.9209 -0.9215  2.2560
 1169SOL    HW215141   0.755   4.116  15.390 -1.4687  1.7818  0.2278
 1170SOL     OW15142   3.053   3.754   7.345  0.2414 -0.2174  0.2850
 1170SOL    HW115143   3.018   3.700   7.416  1.2598 -0.2606  0.7565
 1170SOL    HW215144   3.088   3.827   7.397 -0.0533  0.5526 -0.6006
 1171SOL     OW15145   4.362   0.730   3.515 -0.3077  0.3145 -0.2102
 1171SOL    HW115146   4.389   0.720   3.606  1.6095  0.9732 -0.7231
 1171SOL    HW215147   4.293   0.797   3.519 -0.8736 -0.4446  2.3317
 1172SOL     OW15148   2.005   1.492  16.374 -0.3248  0.0107  0.2002
 1172SOL    HW115149   2.043   1.554  16.312 -1.9461 -0.2671 -1.0889
 1172SOL    HW215150   2.048   1.526  16.453 -0.2518 -0.7502  0.4805
 1173SOL     OW15151   2.679   3.270   6.334 -0.0061  0.2191  0.3090
 1173SOL    HW115152   2.701   3.208   6.403 -0.3581  0.5501  0.7216
 1173SOL    HW215153   2.614   3.216   6.291  0.9806 -0.8136  0.1012
 1174SOL     OW15154   1.328   2.543   6.117  0.1485  0.1602  0.2320
 1174SOL    HW115155   1.256   2.480   6.107 -0.8251  2.0433 -4.2969
 1174SOL    HW215156   1.282   2.625   6.136  0.1498  0.1497  0.2828
 1175SOL     OW15157   0.512   2.766   6.403 -0.0414  0.0019 -0.3148
 1175SOL    HW115158   0.580   2.815   6.356  0.3468 -2.0818 -1.9514
 1175SOL    HW215159   0.440   2.825   6.379 -0.3647 -0.9731 -1.7364
 1176SOL     OW15160   0.594   1.135  17.463  0.3168 -0.0640 -0.3830
 1176SOL    HW115161   0.604   1.209  17.523  0.8598 -0.2000 -0.3068
 1176SOL    HW215162   0.635   1.064  17.512  0.2785 -0.8467 -1.4812
 1177SOL     OW15163   3.164   2.709   1.748  0.3690  0.1005 -0.0754
 1177SOL    HW115164   3.112   2.759   1.684 -1.8077  0.0114  1.6065
 1177SOL    HW215165   3.149   2.759   1.828  0.7192  0.5432 -0.2858
 1178SOL     OW15166   3.312   1.965  17.070  0.4394  0.3974 -0.2305
 1178SOL    HW115167   3.310   1.872  17.090 -0.2211  0.6203  0.7353
 1178SOL    HW215168   3.348   2.005  17.149  0.3755  2.7707 -1.3697
 1179SOL     OW15169   2.804   1.430   2.531  0.1707  0.1245  0.6101
 1179SOL    HW115170   2.757   1.510   2.553 -2.3339 -1.4557  1.0545
 1179SOL    HW215171   2.751   1.361   2.571 -0.4582  0.6005  0.5992
 1180SOL     OW15172   3.687   4.355   8.177  0.3326  0.4864  0.9059
 1180SOL    HW115173   3.700   4.349   8.272 -0.3266  0.6655  1.0082
 1180SOL    HW215174   3.669   4.448   8.166 -0.2856 -0.0357 -2.5222
 1181SOL     OW15175   0.416   4.060   5.871 -0.0924 -0.3635 -0.0952
 1181SOL    HW115176   0.466   4.133   5.833 -1.8437  1.5654  1.3407
 1181SOL    HW215177   0.331   4.103   5.869  0.6518  1.2209  2.9995
 1182SOL     OW15178   0.621   4.518   6.389 -0.9867  0.3415  0.5759
 1182SOL    HW115179   0.559   4.518   6.316 -2.9721 -1.5580  2.2737
 1182SOL    HW215180   0.577   4.467   6.457  4.3176 -1.4676  2.7405
 1183SOL     OW15181   1.941   1.071   4.554 -0.0466 -0.0627 -0.1107
 1183SOL    HW115182   1.849   1.052   4.538  0.1924 -0.8126 -0.5778
 1183SOL    HW215183   1.955   1.028   4.638 -1.3140 -0.5653 -0.1571
 1184SOL     OW15184   2.779   2.702  14.872 -0.7400 -0.0667 -0.5751
 1184SOL    HW115185   2.826   2.746  14.943 -1.9010 -0.6816  0.5662
 1184SOL    HW215186   2.691   2.722  14.904 -1.6510 -2.7620 -1.4679
 1185SOL     OW15187   3.431   3.430   4.811  0.3284  0.3438 -0.3472
 1185SOL    HW115188   3.438   3.525   4.802  0.4929  0.0363 -3.3974
 1185SOL    HW215189   3.505   3.395   4.761  1.9055  1.1693  1.3877
 1186SOL     OW15190   4.173   4.078   2.763 -0.0156 -0.3537  0.1397
 1186SOL    HW115191   4.108   4.106   2.698  1.5682  0.3197 -1.1387
 1186SOL    HW215192   4.248   4.132   2.738 -0.0738 -0.9427 -1.3109
 1187SOL     OW15193   2.053   4.082   5.379 -0.4705  0.4210  0.2609
 1187SOL    HW115194   2.117   4.142   5.416 -1.7242  0.1746  2.8094
 1187SOL    HW215195   1.978   4.101   5.435 -0.8812  0.5645 -0.3434
 1188SOL     OW15196   3.763   2.767   7.364  0.2812  0.0490 -0.2062
 1188SOL    HW115197   3.686   2.740   7.415 -0.0914  0.0038 -0.7876
 1188SOL    HW215198   3.734   2.730   7.281 -0.5194  0.3441 -0.0696
 1189SOL     OW15199   2.062   0.268   8.252 -0.1725  0.7116 -0.1828
 1189SOL    HW115200   2.030   0.344   8.204  0.8280 -0.6558 -2.9880
 1189SOL    HW215201   2.044   0.200   8.187  0.5765  1.3618 -1.0601
 1190SOL     OW15202   1.987   0.597  11.704 -0.0613 -0.6237  0.1268
 1190SOL    HW115203   2.047   0.529  11.675 -0.1453 -0.6468  0.0065
 1190SOL    HW215204   2.025   0.614  11.790  0.7960  3.7269 -1.0766
 1191SOL     OW15205   2.161   0.175  14.211 -0.7645  0.5648 -0.5982
 1191SOL    HW115206   2.185   0.149  14.122  1.7329  2.3741 -0.4701
 1191SOL    HW215207   2.142   0.268  14.201 -1.2984  0.5218  0.0098
 1192SOL     OW15208   0.648   4.189  17.257  0.0613 -0.1257  0.3571
 1192SOL    HW115209   0.666   4.146  17.340 -0.2543  0.0903  0.5322
 1192SOL    HW215210   0.677   4.276  17.284 -0.5632 -0.4569  2.0241
 1193SOL     OW15211   3.806   3.439   7.673 -0.0232  0.2186 -0.0283
 1193SOL    HW115212   3.801   3.437   7.578  1.2632 -1.3442 -0.0707
 1193SOL    HW215213   3.881   3.496   7.692  1.3924 -1.8844  0.6524
 1194SOL     OW15214   3.840   2.621   9.010 -0.4311  0.6171  0.4070
 1194SOL    HW115215   3.914   2.655   8.959 -0.0481 -1.9398 -0.7727
 1194SOL    HW215216   3.863   2.529   9.022 -0.1562  0.6460  0.1076
 1195SOL     OW15217   0.436   3.444   2.218  0.2972  0.3924  0.2204
 1195SOL    HW115218   0.386   3.368   2.186 -1.9022  1.5993  0.7937
 1195SOL    HW215219   0.520   3.399   2.209 -1.0155 -2.0429  0.1525
 1196SOL     OW15220   3.737   3.000   6.045 -0.0912 -0.2086  0.0973
 1196SOL    HW115221   3.782   3.079   6.075  0.8003 -0.9507  0.7220
 1196SOL    HW215222   3.648   3.007   6.080  0.2692  0.6407  0.8321
 1197SOL     OW15223   3.502   2.241   2.187 -0.3344  0.2580  0.0200
 1197SOL    HW115224   3.426   2.255   2.131 -0.4596  2.3098  0.6789
 1197SOL    HW215225   3.490   2.155   2.225 -0.4481  0.0015 -0.5948
 1198SOL     OW15226   0.183   1.627   1.490  0.9501 -0.6147  0.3863
 1198SOL    HW115227   0.138   1.712   1.491  0.8293 -0.6617 -1.3004
 1198SOL    HW215228   0.101   1.579   1.476  0.0710  0.7419  0.8894
 1199SOL     OW15229   1.663   3.943  11.284  0.1222  0.1750  0.0765
 1199SOL    HW115230   1.742   3.975  11.240  1.6858 -2.2002  1.1893
 1199SOL    HW215231   1.707   3.888  11.349 -2.6577 -1.1747  0.7979
 1200SOL     OW15232   0.005   1.628   5.485 -0.3409  0.0996  0.0135
 1200SOL    HW115233   4.659   1.618   5.444 -0.1288  1.8174 -0.8671
 1200SOL    HW215234   4.735   1.606   5.578  1.3997 -2.8483 -0.4939
 1201SOL     OW15235   2.637   0.428   9.353  0.0653 -0.0665 -0.1915
 1201SOL    HW115236   2.619   0.507   9.302 -4.4951 -0.2632  1.1167
 1201SOL    HW215237   2.733   0.430   9.360  0.1129 -0.5487 -0.7222
 1202SOL     OW15238   0.151   4.521   6.323 -0.3853 -0.1374  0.0475
 1202SOL    HW115239   0.190   4.443   6.362 -2.3343 -1.4391 -0.5802
 1202SOL    HW215240   0.102   4.555   6.398  0.2035  0.0544  0.3398
 1203SOL     OW15241   1.483   4.698  11.196 -0.2666 -0.1027 -0.3645
 1203SOL    HW115242   1.419   4.663  11.133 -2.2328  0.0631  1.5528
 1203SOL    HW215243   1.486   4.624  11.256 -1.8753 -0.1912 -0.3947
 1204SOL     OW15244   1.937   0.272   7.443 -0.2070 -0.1734  0.0855
 1204SOL    HW115245   2.027   0.252   7.465 -0.1744  0.7648  0.7920
 1204SOL    HW215246   1.946   0.365   7.422  1.5468 -0.3339  0.1304
 1205SOL     OW15247   0.231   4.515   3.768 -0.0556  0.0992 -0.1485
 1205SOL    HW115248   0.304   4.473   3.723  1.3205  1.8428  0.4592
 1205SOL    HW215249   0.267   4.553   3.849 -0.2537  0.0194 -0.0221
 1206SOL     OW15250   2.173   3.289   3.659 -0.4010 -0.2625  0.1740
 1206SOL    HW115251   2.079   3.288   3.680 -0.3964 -0.7285  0.1820
 1206SOL    HW215252   2.181   3.384   3.663  2.0596 -0.5456  1.6652
 1207SOL     OW15253   0.475   1.672  12.087 -0.1683 -0.3106 -0.3288
 1207SOL    HW115254   0.563   1.687  12.052 -0.0929  0.9795  0.3962
 1207SOL    HW215255   0.427   1.746  12.048 -1.0679  0.4107  2.1814
 1208SOL     OW15256   0.337   3.190   2.562  0.1545  0.0810  0.3074
 1208SOL    HW115257   0.375   3.276   2.577 -1.1722  0.5941  0.7712
 1208SOL    HW215258   0.244   3.211   2.557  0.4265  0.7343 -1.6932
 1209SOL     OW15259   0.551   0.531   8.015 -0.1972  0.4690 -0.9654
 1209SOL    HW115260   0.530   0.560   7.926  1.7849 -0.3300 -1.6931
 1209SOL    HW215261   0.473   0.482   8.038  0.4455 -1.3865 -2.7625
 1210SOL     OW15262   1.197   2.518   1.288  0.2405  0.1467 -0.1192
 1210SOL    HW115263   1.120   2.575   1.280 -0.7131 -1.0369  0.4989
 1210SOL    HW215264   1.221   2.539   1.379  1.3381 -1.0410 -0.1409
 1211SOL     OW15265   4.320   2.644  11.594 -0.0718 -0.2836 -0.7462
 1211SOL    HW115266   4.245   2.584  11.600 -1.7140  1.7618 -1.0318
 1211SOL    HW215267   4.309   2.700  11.671  2.4900 -2.3648  1.0956
 1212SOL     OW15268   2.880   3.335  12.513 -0.2473  0.0207  0.4851
 1212SOL    HW115269   2.926   3.351  12.430 -0.8071 -0.6269  0.0548
 1212SOL    HW215270   2.943   3.284  12.563 -1.6590  0.4906  2.7208
 1213SOL     OW15271   2.235   3.543   3.702 -0.2704 -0.4277  0.3449
 1213SOL    HW115272   2.146   3.563   3.731 -0.1189 -0.3942  0.7779
 1213SOL    HW215273   2.281   3.627   3.701  1.1832 -1.2201  0.6945
 1214SOL     OW15274   1.767   2.751  14.728  0.7377 -0.3261  0.1906
 1214SOL    HW115275   1.678   2.786  14.735  0.8573 -0.1092  0.6043
 1214SOL    HW215276   1.747   2.667  14.768  2.5674 -0.6216  0.4590
 1215SOL     OW15277   0.897   3.873  15.430 -0.0760  0.1426  0.4298
 1215SOL    HW115278   0.981   3.902  15.395  0.5564 -0.3973  1.4914
 1215SOL    HW215279   0.901   3.778  15.427 -0.3570  0.0901  1.6638
 1216SOL     OW15280   3.549   3.234  15.068  0.5704 -0.0272 -0.4820
 1216SOL    HW115281   3.558   3.296  15.140 -0.8296 -1.5365  0.9684
 1216SOL    HW215282   3.457   3.211  15.082  0.4307  0.2533 -0.9396
 1217SOL     OW15283   1.306   0.556   4.184  0.4782 -1.1753 -0.3006
 1217SOL    HW115284   1.358   0.521   4.112  0.4259 -1.6566 -0.1029
 1217SOL    HW215285   1.385   0.576   4.235  1.6693 -1.4231 -2.0603
 1218SOL     OW15286   1.439   0.484   3.323 -0.0450  0.4049  0.1691
 1218SOL    HW115287   1.344   0.485   3.331 -0.1628  1.0667 -1.3447
 1218SOL    HW215288   1.473   0.524   3.403 -0.5389  0.1771  0.4925
 1219SOL     OW15289   3.643   2.995   6.477  0.2269  0.2214 -0.4973
 1219SOL    HW115290   3.718   2.935   6.475 -0.9539 -1.4221  3.9556
 1219SOL    HW215291   3.610   2.974   6.564  0.7512  3.0806  0.3725
 1220SOL     OW15292   0.579   3.016   8.436 -0.7102 -0.3414  0.4626
 1220SOL    HW115293   0.646   3.057   8.491 -0.4950 -0.6141  0.4103
 1220SOL    HW215294   0.635   2.946   8.401 -2.4180 -1.0152 -0.8899
 1221SOL     OW15295   3.634   2.576   8.005 -0.7471 -0.2324  0.1887
 1221SOL    HW115296   3.665   2.577   7.914 -0.7262  1.4175  0.2236
 1221SOL    HW215297   3.700   2.512   8.033 -0.8803 -0.2639  0.4257
 1222SOL     OW15298   3.914   0.037   4.792 -0.4209  0.1325 -0.0133
 1222SOL    HW115299   3.868   0.064   4.871 -0.0712 -0.8431  0.5332
 1222SOL    HW215300   3.862   4.702   4.761  0.5936 -0.0056 -1.4400
 1223SOL     OW15301   0.079   3.212   1.674 -0.3752  0.4487 -0.2135
 1223SOL    HW115302   4.737   3.262   1.685 -1.8411 -1.9586 -0.0342
 1223SOL    HW215303   0.058   3.146   1.741 -0.0180  0.6664  0.1118
 1224SOL     OW15304   4.197   1.624   3.114 -0.1901  0.5017  0.5371
 1224SOL    HW115305   4.266   1.662   3.169  1.3483 -1.3944 -0.0953
 1224SOL    HW215306   4.230   1.643   3.027 -0.4652  1.3981  0.6260
 1225SOL     OW15307   2.312   2.832   4.749 -0.2223  0.2133  0.5067
 1225SOL    HW115308   2.376   2.789   4.692  0.2882  0.8315  0.6186
 1225SOL    HW215309   2.329   2.924   4.728 -0.4266  0.3455  0.9199
 1226SOL     OW15310   3.733   1.674   9.227 -0.1006 -0.5433 -0.0230
 1226SOL    HW115311   3.764   1.731   9.297 -1.1005  0.6997 -0.5736
 1226SOL    HW215312   3.705   1.744   9.168 -1.6816 -0.9165  0.2727
 1227SOL     OW15313   4.537   3.525   2.611  0.1355  0.0637  0.1180
 1227SOL    HW115314   4.459   3.471   2.619 -0.0437 -0.0534 -2.6277
 1227SOL    HW215315   4.585   3.479   2.542  1.6034  0.6672  0.7344
 1228SOL     OW15316   1.280   1.260  12.421 -0.1014  0.2347 -0.1088
 1228SOL    HW115317   1.271   1.165  12.417 -0.6781  0.3915 -2.6103
 1228SOL    HW215318   1.248   1.270  12.511 -1.4873 -1.7207 -0.3833
 1229SOL     OW15319   0.617   4.100   4.825 -0.4608 -0.6847 -0.3640
 1229SOL    HW115320   0.711   4.106   4.844 -0.6496  0.9137  0.1007
 1229SOL    HW215321   0.628   4.090   4.731  1.7574 -0.3316 -0.1479
 1230SOL     OW15322   1.356   1.674   4.149 -0.1717 -0.5807  0.4998
 1230SOL    HW115323   1.388   1.634   4.068  1.3426  0.6266  0.5034
 1230SOL    HW215324   1.264   1.651   4.160 -0.4519  1.0963  1.6979
 1231SOL     OW15325   4.538   1.635  13.447  0.3871 -0.5039  0.3779
 1231SOL    HW115326   4.548   1.684  13.528  1.1447 -2.5201  1.5189
 1231SOL    HW215327   4.459   1.586  13.469  0.8983 -0.5585  2.0416
 1232SOL     OW15328   1.149   0.354  16.525  0.1639  0.0291 -0.1631
 1232SOL    HW115329   1.122   0.415  16.456  0.3222  0.5842  0.2612
 1232SOL    HW215330   1.161   0.273  16.477  4.8184  0.1311  0.7734
 1233SOL     OW15331   2.809   0.616   1.264  0.0283 -0.1972 -0.8099
 1233SOL    HW115332   2.884   0.625   1.205 -0.7684 -1.2410 -1.9943
 1233SOL    HW215333   2.757   0.691   1.234  0.4948 -0.0129 -1.1630
 1234SOL     OW15334   3.712   3.635   6.933  0.7079  0.1546  0.5916
 1234SOL    HW115335   3.769   3.712   6.939  0.9572  0.1514 -1.8363
 1234SOL    HW215336   3.714   3.622   6.838  1.8273 -0.9548  0.7603
 1235SOL     OW15337   0.877   1.955  12.664  0.0728 -0.5695 -0.3033
 1235SOL    HW115338   0.905   2.007  12.739  0.0022 -1.1506  0.1296
 1235SOL    HW215339   0.811   1.898  12.701 -1.4239  0.4788 -1.3744
 1236SOL     OW15340   3.731   4.576   7.624  0.0416 -0.1250 -0.0853
 1236SOL    HW115341   3.649   4.586   7.576 -0.4213 -2.1131  0.2874
 1236SOL    HW215342   3.726   4.516   7.698 -1.4580 -0.4351 -0.4393
 1237SOL     OW15343   4.109   0.874   0.572 -0.0020 -0.2073  0.0658
 1237SOL    HW115344   4.124   0.861   0.666 -0.0013  1.7041  0.3155
 1237SOL    HW215345   4.153   0.958   0.556 -0.0408  0.1786  2.0133
 1238SOL     OW15346   4.135   0.108   3.562 -0.2810 -0.1115  0.2262
 1238SOL    HW115347   4.121   0.014   3.565  0.1305 -0.1275  1.4277
 1238SOL    HW215348   4.157   0.121   3.469 -0.7817 -0.2637  0.0894
 1239SOL     OW15349   3.119   2.731  15.145  0.6172  0.0477  0.3304
 1239SOL    HW115350   3.108   2.658  15.084  0.1607  0.2227  0.2042
 1239SOL    HW215351   3.172   2.797  15.099 -2.3315  1.2094 -1.4144
 1240SOL     OW15352   2.065   4.575   6.994 -0.3632 -0.0082  0.1022
 1240SOL    HW115353   2.062   4.606   6.904 -1.7861  0.7570  0.4185
 1240SOL    HW215354   1.980   4.531   6.990 -0.1776 -0.1121 -2.7408
 1241SOL     OW15355   1.879   4.066   6.639  0.4008 -0.0911  0.2718
 1241SOL    HW115356   1.903   4.003   6.571 -0.2040 -2.4854  2.2555
 1241SOL    HW215357   1.838   4.011   6.705  1.3822 -0.0677  0.9029
 1242SOL     OW15358   1.114   2.289   7.096  0.4630  0.3265  0.9263
 1242SOL    HW115359   1.208   2.276   7.109  0.2943  0.5683  2.4325
 1242SOL    HW215360   1.111   2.377   7.135 -0.8928  0.4981  0.4019
 1243SOL     OW15361   4.181   3.563   5.040 -0.5179  0.0225 -0.4795
 1243SOL    HW115362   4.123   3.638   5.055 -0.5183 -0.2634  1.0301
 1243SOL    HW215363   4.150   3.529   4.957 -1.5075  0.3248 -0.2264
 1244SOL     OW15364   0.600   0.110   5.472  0.4161  0.3081  0.1894
 1244SOL    HW115365   0.674   0.168   5.455  1.3485 -0.9654 -0.1091
 1244SOL    HW215366   0.621   0.031   5.422 -0.0244  1.6104 -2.0637
 1245SOL     OW15367   3.759   2.546   8.352  0.2494 -0.0657  1.0272
 1245SOL    HW115368   3.779   2.459   8.318 -1.3106 -0.3055  0.7234
 1245SOL    HW215369   3.811   2.610   8.304 -0.0618  0.7132  1.7197
 1246SOL     OW15370   0.695   3.979  15.798 -0.5285 -0.0689 -0.1781
 1246SOL    HW115371   0.717   3.945  15.712  2.5511  1.6179 -0.0555
 1246SOL    HW215372   0.665   4.069  15.787 -1.5114 -0.0468  2.6305
 1247SOL     OW15373   3.308   1.057  16.417 -0.1938  0.7862 -0.5930
 1247SOL    HW115374   3.324   1.144  16.380 -2.8760  1.2389 -0.7322
 1247SOL    HW215375   3.397   1.023  16.424  0.1113  1.8692  0.6926
 1248SOL     OW15376   4.427   2.388   4.685  0.4355 -0.0810  0.1084
 1248SOL    HW115377   4.334   2.366   4.687  0.4939 -0.2996  0.4121
 1248SOL    HW215378   4.451   2.347   4.602 -0.5202 -1.7574  0.6692
 1249SOL     OW15379   2.616   3.526   7.975  0.2174  0.3493  0.5586
 1249SOL    HW115380   2.587   3.499   7.888  0.6521  0.0079  0.5206
 1249SOL    HW215381   2.697   3.575   7.964  0.4194  0.1635  1.2540
 1250SOL     OW15382   3.214   1.926   3.747  0.2947  0.0654 -0.0143
 1250SOL    HW115383   3.140   1.981   3.723  0.6097  0.5232  0.0711
 1250SOL    HW215384   3.232   1.882   3.663 -2.7356 -2.4747  0.6702
 1251SOL     OW15385   0.322   0.280   8.714 -0.1265 -0.6596 -0.1676
 1251SOL    HW115386   0.333   0.341   8.641  0.0863 -1.2134 -0.5925
 1251SOL    HW215387   0.370   0.334   8.776  0.7469  0.9574 -2.2586
 1252SOL     OW15388   1.745   1.447   4.896 -0.7537  0.2352  0.1491
 1252SOL    HW115389   1.669   1.396   4.867 -0.0536 -0.6064 -0.1664
 1252SOL    HW215390   1.729   1.436   4.990  0.1727 -1.5606  0.0843
 1253SOL     OW15391   3.399   2.016  13.225 -0.5741  0.3945  0.0885
 1253SOL    HW115392   3.361   1.929  13.234  0.4816 -0.1144 -0.3754
 1253SOL    HW215393   3.485   1.994  13.260  0.6318  3.5723 -0.8463
 1254SOL     OW15394   2.535   3.827   1.741  0.2090 -0.2744 -0.2013
 1254SOL    HW115395   2.530   3.922   1.744 -2.0490 -0.4028  0.4660
 1254SOL    HW215396   2.501   3.811   1.829 -0.5037 -1.7411 -0.7204
 1255SOL     OW15397   0.631   1.520   2.696 -0.2619  0.0516 -0.2105
 1255SOL    HW115398   0.651   1.582   2.766 -1.4921 -2.4459  2.3504
 1255SOL    HW215399   0.537   1.507   2.700 -0.1691 -0.3227  0.8113
 1256SOL     OW15400   0.514   0.983   0.273 -0.4187 -0.1944  0.0196
 1256SOL    HW115401   0.454   1.002   0.345  0.0530  0.4801  0.2439
 1256SOL    HW215402   0.585   0.957   0.332  1.6274  1.8870 -1.4933
 1257SOL     OW15403   0.653   1.479   4.197  0.4457 -0.7026  0.1224
 1257SOL    HW115404   0.678   1.533   4.272  0.1701  2.2479 -1.8686
 1257SOL    HW215405   0.661   1.539   4.123  2.9124 -1.5779 -0.3025
 1258SOL     OW15406   2.842   1.638   1.746 -1.4280 -0.2398  0.4502
 1258SOL    HW115407   2.811   1.602   1.829 -0.5833  0.0590  0.8919
 1258SOL    HW215408   2.783   1.713   1.735  0.7849  0.9899 -2.8636
 1259SOL     OW15409   2.618   3.221   9.222  0.6399  0.5269 -0.5392
 1259SOL    HW115410   2.612   3.126   9.229  1.6712  0.4747 -0.4401
 1259SOL    HW215411   2.592   3.239   9.312  0.1924  0.8485 -0.7314
 1260SOL     OW15412   1.256   0.441   5.798 -0.4418 -0.6976  0.3456
 1260SOL    HW115413   1.251   0.531   5.831 -0.4328  0.2742 -2.2570
 1260SOL    HW215414   1.332   0.454   5.740  0.2309 -1.3074  1.0962
 1261SOL     OW15415   2.807   2.761   7.570  0.0913 -0.4623 -0.6334
 1261SOL    HW115416   2.773   2.693   7.513 -1.6241 -1.7173  1.8767
 1261SOL    HW215417   2.775   2.719   7.650 -2.0620  1.1342 -0.6390
 1262SOL     OW15418   1.515   3.094   6.274  0.0755  0.2847  0.3343
 1262SOL    HW115419   1.562   3.048   6.204 -1.8222 -0.3477 -0.5187
 1262SOL    HW215420   1.430   3.110   6.233  0.4060  1.8028  0.2545
 1263SOL     OW15421   1.744   3.560   6.541  0.1156 -0.0312 -0.4574
 1263SOL    HW115422   1.819   3.585   6.487 -0.6324  0.3598 -1.3160
 1263SOL    HW215423   1.737   3.471   6.506 -0.3084  0.0742 -0.6439
 1264SOL     OW15424   1.302   0.448  11.500 -0.2901  0.2843  0.4188
 1264SOL    HW115425   1.317   0.378  11.563 -0.8297 -0.3977 -0.2095
 1264SOL    HW215426   1.243   0.508  11.545  0.9801 -0.0385  2.4857
 1265SOL     OW15427   2.812   3.813   1.595 -0.6999 -0.0939  0.3117
 1265SOL    HW115428   2.777   3.724   1.594 -2.3904  0.5594  1.7864
 1265SOL    HW215429   2.862   3.810   1.677 -0.7741  3.4047  0.4555
 1266SOL     OW15430   0.632   0.174   5.800  0.0631 -0.1134 -0.7298
 1266SOL    HW115431   0.554   0.182   5.854  1.0236 -0.0966  0.6658
 1266SOL    HW215432   0.598   0.210   5.719  0.1441  0.4106 -0.5355
 1267SOL     OW15433   0.407   0.790   5.542 -0.2672  0.1029 -0.5844
 1267SOL    HW115434   0.394   0.787   5.637 -0.2063 -3.4752 -0.6891
 1267SOL    HW215435   0.350   0.863   5.517 -0.6477 -0.0413 -0.1347
 1268SOL     OW15436   2.324   3.886   3.605 -0.3485 -0.0440  0.7257
 1268SOL    HW115437   2.392   3.845   3.551  1.7003  1.9006  1.8482
 1268SOL    HW215438   2.349   3.978   3.597 -1.1616  0.0881 -0.3440
 1269SOL     OW15439   0.313   4.518   4.609  0.8914 -0.1534  0.1728
 1269SOL    HW115440   0.226   4.557   4.615  1.8571  1.6268  2.2003
 1269SOL    HW215441   0.345   4.571   4.536 -1.3104  1.2163  0.2031
 1270SOL     OW15442   3.255   0.226  12.891  0.0612 -0.3387  0.2914
 1270SOL    HW115443   3.235   0.319  12.879 -1.4486 -0.7552 -0.4899
 1270SOL    HW215444   3.269   0.188  12.805 -1.7291 -1.3634  0.4574
 1271SOL     OW15445   3.833   0.100   7.595 -0.4103 -0.0331  0.4798
 1271SOL    HW115446   3.816   0.011   7.624 -2.9971  0.1077 -0.5681
 1271SOL    HW215447   3.836   0.148   7.678  3.0789  1.9724 -0.7647
 1272SOL     OW15448   0.514   4.022  10.607 -0.2896  0.2856 -0.3111
 1272SOL    HW115449   0.455   3.951  10.581 -0.9344  1.0618 -0.9626
 1272SOL    HW215450   0.592   4.020  10.552 -0.8384 -0.6974 -1.0454
 1273SOL     OW15451   2.811   2.829   1.070 -0.0452  0.7340 -0.0506
 1273SOL    HW115452   2.897   2.872   1.068 -1.1813  2.9947 -0.3780
 1273SOL    HW215453   2.751   2.903   1.077  0.9883  1.8238 -2.6832
 1274SOL     OW15454   3.402   4.456   9.108 -0.1426 -0.3422  0.3932
 1274SOL    HW115455   3.325   4.429   9.059 -1.1468  4.3634 -0.6132
 1274SOL    HW215456   3.414   4.381   9.166 -2.2134 -1.2153 -0.3145
 1275SOL     OW15457   3.786   0.767   6.269  0.3167  0.5432  0.0037
 1275SOL    HW115458   3.846   0.825   6.222 -0.8055  2.4482  0.9219
 1275SOL    HW215459   3.710   0.825   6.266 -0.2238 -0.1349  0.6324
 1276SOL     OW15460   2.106   0.849   8.284 -0.4274 -0.4415  0.2626
 1276SOL    HW115461   2.189   0.860   8.236 -0.5471 -0.9377 -0.0664
 1276SOL    HW215462   2.052   0.918   8.244  0.3757  1.2023  2.0462
 1277SOL     OW15463   0.230   1.399   3.253 -0.0678 -0.1882  0.0011
 1277SOL    HW115464   0.204   1.309   3.232 -0.6955 -0.4077  1.7690
 1277SOL    HW215465   0.252   1.402   3.346 -1.2249 -0.7086  0.3015
 1278SOL     OW15466   1.068   0.384   2.867 -0.3115  0.3017  0.3899
 1278SOL    HW115467   0.999   0.451   2.871 -0.6014  0.0218 -0.0204
 1278SOL    HW215468   1.094   0.376   2.959  1.6228  2.0173 -0.0128
 1279SOL     OW15469   2.295   0.359   6.156 -0.2399  0.3435  0.1981
 1279SOL    HW115470   2.367   0.353   6.093  0.9253  2.1933  1.3274
 1279SOL    HW215471   2.328   0.426   6.216 -1.6832  1.5585 -0.3626
 1280SOL     OW15472   3.444   3.732   7.763  0.6446  0.5106 -0.5401
 1280SOL    HW115473   3.453   3.804   7.826 -1.4663  1.7233 -1.6593
 1280SOL    HW215474   3.358   3.739   7.723  0.3693 -0.6808 -0.1750
 1281SOL     OW15475   4.412   1.330   7.482  0.0380 -0.2557  0.0425
 1281SOL    HW115476   4.448   1.290   7.403  2.3537 -0.3506  1.1173
 1281SOL    HW215477   4.473   1.403   7.493 -3.4617  2.4166  1.6210
 1282SOL     OW15478   3.067   1.198   4.842  0.5289 -0.2570 -0.4101
 1282SOL    HW115479   3.069   1.207   4.937  0.7640 -0.8492 -0.3579
 1282SOL    HW215480   3.010   1.122   4.834  1.5289 -1.0355 -0.1143
 1283SOL     OW15481   4.352   1.332   9.224 -0.3240 -0.0198  0.6523
 1283SOL    HW115482   4.337   1.401   9.289 -0.0152 -1.7708  2.5913
 1283SOL    HW215483   4.316   1.369   9.144  1.3199 -1.6899 -0.8575
 1284SOL     OW15484   2.646   3.858   5.242 -0.5229 -0.4842  0.3040
 1284SOL    HW115485   2.656   3.829   5.333 -1.5516  1.0746  0.9089
 1284SOL    HW215486   2.736   3.881   5.221  0.0594 -1.1624  2.0929
 1285SOL     OW15487   1.835   3.454   5.306  0.2987  0.0976 -0.2864
 1285SOL    HW115488   1.837   3.359   5.293 -0.5365  0.1549 -0.8227
 1285SOL    HW215489   1.904   3.462   5.371  0.4673 -0.2875 -0.4170
 1286SOL     OW15490   3.746   3.303   5.786 -0.2153  0.3158 -0.3764
 1286SOL    HW115491   3.745   3.360   5.863  1.5018  1.5556 -1.2810
 1286SOL    HW215492   3.841   3.295   5.783 -0.1620  0.9011 -0.1672
 1287SOL     OW15493   2.858   1.806   9.138 -0.3239  0.1047  0.2512
 1287SOL    HW115494   2.795   1.855   9.191 -0.4050  1.5807 -1.1917
 1287SOL    HW215495   2.856   1.833   9.046  0.5760 -0.5443  0.0451
 1288SOL     OW15496   2.074   0.278  10.445  0.1385 -0.4304 -0.5076
 1288SOL    HW115497   2.080   0.309  10.536  1.0002 -0.2095 -0.6327
 1288SOL    HW215498   2.045   0.188  10.459  1.5442 -0.6397  1.0850
 1289SOL     OW15499   0.380   3.854   3.104  0.2987 -0.0278 -0.2240
 1289SOL    HW115500   0.417   3.941   3.113  0.3528 -0.1566  0.8412
 1289SOL    HW215501   0.345   3.839   3.192 -1.5523 -0.2133 -0.9921
 1290SOL     OW15502   0.952   4.055   8.600  0.2650  0.0426 -0.3887
 1290SOL    HW115503   0.881   4.119   8.589  1.7268  1.7500  0.0314
 1290SOL    HW215504   0.991   4.056   8.512 -0.1987 -0.9094 -0.6032
 1291SOL     OW15505   3.012   0.086   0.420  0.3432 -0.1220  0.2200
 1291SOL    HW115506   3.094   0.069   0.465 -0.9896 -2.1542  1.8477
 1291SOL    HW215507   2.999   0.008   0.366 -0.6698 -0.2074  0.5748
 1292SOL     OW15508   0.947   0.562   1.576  0.3040 -0.4283  0.3742
 1292SOL    HW115509   0.977   0.472   1.558 -0.7930 -0.5975 -0.5996
 1292SOL    HW215510   0.852   0.570   1.569  0.6732  2.8532 -0.9136
 1293SOL     OW15511   3.289   1.625   0.377  0.3034 -0.2533 -0.3014
 1293SOL    HW115512   3.359   1.613   0.441 -1.0429 -2.0724  0.8348
 1293SOL    HW215513   3.228   1.555   0.401 -0.1002  0.4645  0.7418
 1294SOL     OW15514   0.472   2.479   6.396  0.5690  0.3215  0.7497
 1294SOL    HW115515   0.381   2.460   6.371  0.0976  3.6119 -0.0399
 1294SOL    HW215516   0.476   2.574   6.389  1.7802  0.3762  2.1731
 1295SOL     OW15517   0.774   4.227   6.442 -0.4559 -0.2479  0.0353
 1295SOL    HW115518   0.809   4.288   6.377 -1.4931 -0.0921 -0.3778
 1295SOL    HW215519   0.769   4.274   6.525 -1.4682  0.8900 -0.6609
 1296SOL     OW15520   2.258   3.919   7.068 -0.0926  0.0539 -0.0502
 1296SOL    HW115521   2.232   3.975   6.995  1.2209  1.9305  0.9389
 1296SOL    HW215522   2.251   3.832   7.028 -1.7406 -0.7942  2.0839
 1297SOL     OW15523   2.647   0.298   2.539 -0.2392 -0.3973 -0.5035
 1297SOL    HW115524   2.561   0.270   2.507  1.8796 -2.5929 -4.2544
 1297SOL    HW215525   2.632   0.293   2.633  0.2326  2.5659 -0.2735
 1298SOL     OW15526   3.400   4.374   8.173  0.4040  0.0661 -0.4119
 1298SOL    HW115527   3.475   4.319   8.150 -0.4976 -0.5025 -1.9655
 1298SOL    HW215528   3.410   4.397   8.265  1.5162  2.5163 -1.1394
 1299SOL     OW15529   3.828   2.607   5.923 -0.2823 -0.5037  0.0285
 1299SOL    HW115530   3.820   2.512   5.914  0.6898 -0.5246 -0.6604
 1299SOL    HW215531   3.777   2.619   5.844 -1.2910  0.3917  0.8205
 1300SOL     OW15532   0.717   3.653   6.320 -0.2354  0.4192  0.0466
 1300SOL    HW115533   0.726   3.741   6.357  3.8914 -0.0826  0.2286
 1300SOL    HW215534   0.707   3.589   6.390  1.0286 -0.0341 -0.1792
 1301SOL     OW15535   0.065   4.619   8.965 -0.2515 -0.4541 -0.4115
 1301SOL    HW115536   0.052   4.554   8.896  1.1802 -0.1235 -0.9879
 1301SOL    HW215537   0.159   4.629   8.979 -0.5764  1.2640  0.5413
 1302SOL     OW15538   1.211   0.308   6.105 -0.8192  0.1465 -0.4205
 1302SOL    HW115539   1.244   0.323   6.016 -4.8101  1.8846 -1.6039
 1302SOL    HW215540   1.264   0.244   6.152  0.3723  0.1042 -1.8098
 1303SOL     OW15541   0.568   1.009   6.368 -0.1238  0.0423 -0.3171
 1303SOL    HW115542   0.650   0.960   6.371  0.9638  1.8235 -0.4705
 1303SOL    HW215543   0.506   0.937   6.373 -0.6007  0.3864 -1.3452
 1304SOL     OW15544   0.120   1.170   1.388 -0.1661  0.4306 -0.5880
 1304SOL    HW115545   0.034   1.177   1.348 -1.2372 -2.9206  1.2038
 1304SOL    HW215546   0.142   1.078   1.375  1.6524  0.9365 -1.1437
 1305SOL     OW15547   1.046   1.412  15.360 -0.0485 -0.0772 -0.1954
 1305SOL    HW115548   1.128   1.362  15.366 -0.0002 -0.0973 -1.0782
 1305SOL    HW215549   0.986   1.361  15.306  0.5485 -1.0418  0.0440
 1306SOL     OW15550   2.739   3.797   7.146  0.3989  0.5735  0.3274
 1306SOL    HW115551   2.678   3.775   7.074 -2.1560 -0.6012  2.8509
 1306SOL    HW215552   2.689   3.755   7.216  2.2013 -1.9166  0.1111
 1307SOL     OW15553   0.488   3.468  10.864 -0.4931 -0.1625 -0.2576
 1307SOL    HW115554   0.445   3.554  10.860  0.1374  0.1945  0.5759
 1307SOL    HW215555   0.410   3.413  10.874  0.3883 -1.5689 -1.1890
 1308SOL     OW15556   1.012   1.807   1.876 -0.4648  0.1307  0.0138
 1308SOL    HW115557   1.030   1.894   1.840 -0.1085  0.2780  0.5407
 1308SOL    HW215558   0.984   1.832   1.964 -1.0064 -0.5655  0.0339
 1309SOL     OW15559   0.478   4.230  11.675  0.2959 -0.2263  0.0658
 1309SOL    HW115560   0.444   4.249  11.588  2.2446  0.5008 -0.5246
 1309SOL    HW215561   0.428   4.291  11.730  2.1653  0.3023  1.1932
 1310SOL     OW15562   1.907   3.303   6.117  0.2606  0.4919 -0.3470
 1310SOL    HW115563   1.829   3.357   6.109  0.3983  0.5987 -0.9639
 1310SOL    HW215564   1.902   3.244   6.041 -1.0416  1.1180 -0.7445
 1311SOL     OW15565   3.153   3.333   1.703  0.0104 -0.4707  0.1045
 1311SOL    HW115566   3.103   3.253   1.689 -1.5156  0.8959 -2.2585
 1311SOL    HW215567   3.241   3.302   1.682 -0.3722 -2.4415  1.4123
 1312SOL     OW15568   1.634   1.665   3.419  0.3495 -0.3157 -0.5265
 1312SOL    HW115569   1.575   1.682   3.346 -0.2278  1.9216  0.4576
 1312SOL    HW215570   1.635   1.569   3.421 -0.3057 -0.2875  1.3131
 1313SOL     OW15571   1.858   4.545  10.579 -0.5618 -0.4881 -0.1973
 1313SOL    HW115572   1.838   4.481  10.648 -0.0689 -1.0415 -0.5748
 1313SOL    HW215573   1.782   4.530  10.522 -1.2852  2.0416  0.0972
 1314SOL     OW15574   1.341   1.990   1.881 -0.1327  0.3503  0.0428
 1314SOL    HW115575   1.254   2.005   1.843  0.1493 -0.2220 -0.8541
 1314SOL    HW215576   1.315   1.988   1.973  1.0527  0.9512  0.3899
 1315SOL     OW15577   1.926   3.315   3.755  0.3910  0.0174 -0.0187
 1315SOL    HW115578   1.841   3.297   3.714  0.1634 -0.0909  0.5090
 1315SOL    HW215579   1.912   3.287   3.845 -0.8729 -1.2746 -0.6193
 1316SOL     OW15580   4.732   1.863  10.901  0.0479 -0.0009 -0.9183
 1316SOL    HW115581   4.657   1.923  10.896 -1.0886 -1.4567 -1.5949
 1316SOL    HW215582   0.038   1.894  10.823  0.3787  1.5291 -0.1126
 1317SOL     OW15583   1.191   0.491   6.314  0.6757  0.5594 -0.3164
 1317SOL    HW115584   1.205   0.444   6.232 -0.6160 -2.2298  1.0762
 1317SOL    HW215585   1.280   0.502   6.348  0.6795  0.5105 -0.3102
 1318SOL     OW15586   1.146   1.702   6.003 -0.0014 -0.0997  0.0429
 1318SOL    HW115587   1.107   1.667   6.084  0.8336  0.0791  0.5210
 1318SOL    HW215588   1.062   1.739   5.977  0.9581  1.0522 -1.4285
 1319SOL     OW15589   3.853   0.274   6.424  0.7139  0.0233  0.1399
 1319SOL    HW115590   3.758   0.271   6.433  0.5540 -1.3018 -1.9780
 1319SOL    HW215591   3.862   0.295   6.331  1.4036 -1.4147 -0.1215
 1320SOL     OW15592   0.469   2.336  11.357  0.1075  0.2705  0.1994
 1320SOL    HW115593   0.559   2.352  11.328 -0.4735  1.6526 -0.8778
 1320SOL    HW215594   0.465   2.244  11.382 -0.3762  0.0278 -0.7639
 1321SOL     OW15595   1.687   2.964   8.130  0.7245  0.2208 -0.8272
 1321SOL    HW115596   1.740   2.933   8.057 -1.4660 -0.7106 -2.0358
 1321SOL    HW215597   1.682   2.893   8.194  1.7498  1.0831  0.1900
 1322SOL     OW15598   0.094   2.859   2.786  0.2002 -0.0788 -0.1082
 1322SOL    HW115599   0.177   2.907   2.792  0.1811  0.0654 -1.0344
 1322SOL    HW215600   0.103   2.827   2.696  2.2404 -0.6274  0.2940
 1323SOL     OW15601   1.726   0.786   2.513  0.6693 -0.7263 -0.0091
 1323SOL    HW115602   1.814   0.804   2.547 -0.9983  1.6962  3.0407
 1323SOL    HW215603   1.714   0.703   2.559 -0.8236 -0.3943  0.1990
 1324SOL     OW15604   2.659   1.224   5.464  0.3103  0.9030 -0.6025
 1324SOL    HW115605   2.624   1.274   5.539  0.9213 -2.8157  2.1489
 1324SOL    HW215606   2.588   1.160   5.460  0.0481  1.0694  1.2120
 1325SOL     OW15607   1.757   2.274  13.385  0.6694  0.0807  0.1233
 1325SOL    HW115608   1.735   2.270  13.292  0.5808  1.3389  0.0873
 1325SOL    HW215609   1.670   2.280  13.423  0.5598 -1.7208  0.1579
 1326SOL     OW15610   3.261   2.534   4.914  0.1119  0.1648  0.0957
 1326SOL    HW115611   3.187   2.578   4.872  0.3904 -1.3519 -1.9614
 1326SOL    HW215612   3.237   2.513   5.004  0.7208  1.5001  0.5759
 1327SOL     OW15613   2.179   4.077   7.838 -0.1093  0.2424  0.1523
 1327SOL    HW115614   2.143   3.991   7.814 -0.3937  0.6993 -1.0549
 1327SOL    HW215615   2.240   4.038   7.900 -1.8139 -0.1077  1.5923
 1328SOL     OW15616   2.403   2.965   5.544 -0.3918  0.3284 -0.4458
 1328SOL    HW115617   2.460   3.016   5.488 -2.4028  0.8829 -1.9948
 1328SOL    HW215618   2.461   2.903   5.588 -0.5448 -0.6721 -1.6475
 1329SOL     OW15619   0.020   2.239   3.530 -0.1636 -0.3370 -0.1862
 1329SOL    HW115620   4.670   2.252   3.499 -1.1321 -1.6727  2.0411
 1329SOL    HW215621   0.063   2.322   3.509  0.5275 -0.2890  1.4392
 1330SOL     OW15622   4.078   3.334   8.608 -0.1078  0.1905 -0.2382
 1330SOL    HW115623   4.027   3.413   8.594  1.6094  1.3018 -0.2942
 1330SOL    HW215624   4.146   3.351   8.543  0.9496 -0.1567  0.7774
 1331SOL     OW15625   0.120   3.891   7.309  0.1457  0.0816 -0.4292
 1331SOL    HW115626   0.175   3.936   7.374 -2.3726  0.7386  1.2822
 1331SOL    HW215627   0.034   3.898   7.351 -0.6020 -2.2286 -1.5973
 1332SOL     OW15628   3.526   3.353   3.562 -0.1070  0.1884  0.3737
 1332SOL    HW115629   3.463   3.291   3.598 -0.4025  0.1258 -0.2462
 1332SOL    HW215630   3.600   3.291   3.558  0.4599  0.9204 -0.6000
 1333SOL     OW15631   1.539   4.603   3.366 -0.1752 -0.3830  0.2483
 1333SOL    HW115632   1.583   4.548   3.302 -0.9620 -1.4605  0.6225
 1333SOL    HW215633   1.593   4.682   3.363 -0.9233  0.0919 -0.9001
 1334SOL     OW15634   3.992   3.736  10.765  0.3971 -0.1468  0.1298
 1334SOL    HW115635   3.954   3.648  10.766  0.9195 -0.3697  0.3697
 1334SOL    HW215636   4.080   3.718  10.733  0.5771  0.2076  0.4392
 1335SOL     OW15637   3.707   1.047   7.995  0.4893  0.1194 -0.1170
 1335SOL    HW115638   3.705   1.070   7.902  1.0055 -0.5276 -0.2833
 1335SOL    HW215639   3.708   1.135   8.033 -0.9236  0.4642 -0.8815
 1336SOL     OW15640   3.696   2.982   2.300  0.1530 -0.2089 -0.2581
 1336SOL    HW115641   3.681   2.927   2.378 -6.6322  2.1271  0.0921
 1336SOL    HW215642   3.640   2.941   2.234  0.1441 -1.6399  0.6161
 1337SOL     OW15643   3.065   4.007   0.113  0.5942  0.0313  0.7401
 1337SOL    HW115644   2.980   4.051   0.122  0.1315 -0.6746 -0.2927
 1337SOL    HW215645   3.129   4.077   0.119  2.1831 -1.4930  1.4424
 1338SOL     OW15646   0.406   0.062   2.866  0.2002 -0.2824  0.4678
 1338SOL    HW115647   0.310   0.066   2.861  0.0850 -0.6381  2.4164
 1338SOL    HW215648   0.414   4.706   2.874  1.1673 -0.1252  1.3828
 1339SOL     OW15649   4.409   4.124   1.820  0.3812  0.1310 -0.4713
 1339SOL    HW115650   4.414   4.158   1.909 -1.7263  1.6777 -0.9503
 1339SOL    HW215651   4.499   4.137   1.790  0.8167  0.3186  0.9531
 1340SOL     OW15652   0.091   4.541  11.215 -0.3326  0.6725  0.0513
 1340SOL    HW115653   0.101   4.478  11.286 -0.7250  0.0239 -0.4676
 1340SOL    HW215654   0.128   4.616  11.261 -0.8318  1.1172 -0.2778
 1341SOL     OW15655   4.415   2.798   3.216 -0.4337 -0.3598 -0.3557
 1341SOL    HW115656   4.361   2.875   3.197 -0.6532 -0.6508 -0.9232
 1341SOL    HW215657   4.484   2.812   3.151  1.8234  0.8635  2.2936
 1342SOL     OW15658   4.116   4.269  14.139 -0.6054  0.4056  0.5193
 1342SOL    HW115659   4.078   4.331  14.202 -0.9334 -1.9081  2.6167
 1342SOL    HW215660   4.065   4.191  14.156 -1.4628  0.7423 -0.5554
 1343SOL     OW15661   2.181   0.129  11.015  0.0199  0.5184 -0.0690
 1343SOL    HW115662   2.140   0.204  10.972 -1.0286 -0.5521 -0.9429
 1343SOL    HW215663   2.130   0.052  10.989 -1.3823  0.7863  1.9165
 1344SOL     OW15664   1.397   1.280   1.248 -0.2193 -1.0748 -0.2968
 1344SOL    HW115665   1.445   1.250   1.325  0.4035  1.5078  0.3039
 1344SOL    HW215666   1.308   1.287   1.285 -1.0289 -0.4431 -2.4084
 1345SOL     OW15667   3.797   1.524  13.149  0.0768  0.2823  0.0938
 1345SOL    HW115668   3.849   1.604  13.157  2.0118 -0.8817 -0.8763
 1345SOL    HW215669   3.837   1.465  13.213  0.1381  0.5062  0.2636
 1346SOL     OW15670   0.323   2.026   1.943  0.0820 -0.3835  0.0468
 1346SOL    HW115671   0.311   2.054   2.034 -0.7374 -2.0588  0.4576
 1346SOL    HW215672   0.238   1.984   1.934  1.6075 -3.2174 -1.0389
 1347SOL     OW15673   1.138   0.466   8.793 -0.2291 -0.2356 -0.4757
 1347SOL    HW115674   1.196   0.409   8.744 -1.2094 -0.6413 -1.1706
 1347SOL    HW215675   1.120   0.536   8.730  2.7907  1.3725  0.4778
 1348SOL     OW15676   1.132   0.379   3.135 -0.1985 -0.2447  0.4735
 1348SOL    HW115677   1.065   0.398   3.201  0.3031  0.2217  0.8500
 1348SOL    HW215678   1.188   0.328   3.193  1.2202  0.0108 -0.6741
 1349SOL     OW15679   1.459   0.638  11.101  0.1117 -0.7772 -0.1179
 1349SOL    HW115680   1.500   0.691  11.170 -0.5654 -1.0962  0.5330
 1349SOL    HW215681   1.526   0.576  11.072  0.9210  0.1183 -0.1473
 1350SOL     OW15682   0.531   2.651   1.249 -0.1139  0.8931 -0.6791
 1350SOL    HW115683   0.548   2.577   1.307  3.0377  0.4955 -2.1147
 1350SOL    HW215684   0.471   2.605   1.191 -1.9360  1.0246  1.0855
 1351SOL     OW15685   1.826   2.700   0.332  0.5117 -0.3998  0.9281
 1351SOL    HW115686   1.778   2.734   0.407 -1.4588 -0.0328 -0.5097
 1351SOL    HW215687   1.908   2.687   0.379  0.1604  1.6851  2.1017
 1352SOL     OW15688   4.180   2.841   9.849 -0.6284 -0.0716 -0.0313
 1352SOL    HW115689   4.191   2.777   9.920  0.8707 -1.0120 -1.1171
 1352SOL    HW215690   4.150   2.917   9.899  3.3239  2.4904 -1.5683
 1353SOL     OW15691   3.325   0.007   4.621 -0.8413 -0.3275 -0.6512
 1353SOL    HW115692   3.381   4.737   4.543 -0.7971  1.0003 -0.7925
 1353SOL    HW215693   3.279   4.664   4.637 -0.7139  0.1958  2.2864
 1354SOL     OW15694   3.779   0.434   3.058  0.0378  0.1223  0.0279
 1354SOL    HW115695   3.765   0.484   3.138  0.4729 -0.7654  0.6626
 1354SOL    HW215696   3.695   0.388   3.070  0.6844 -1.1033 -0.0722
 1355SOL     OW15697   0.691   0.170   4.133 -0.0484  0.3900 -0.1954
 1355SOL    HW115698   0.730   0.251   4.164  0.0918 -0.0860  0.8756
 1355SOL    HW215699   0.700   0.116   4.211 -0.2047  0.9207  0.1881
 1356SOL     OW15700   3.763   3.483   6.018  0.2444 -0.4275  0.3317
 1356SOL    HW115701   3.817   3.559   5.998 -1.1262  0.5314  0.2847
 1356SOL    HW215702   3.723   3.524   6.094  1.6401 -1.3007  1.5345
 1357SOL     OW15703   1.259   2.966  12.673 -0.0414 -0.3207  0.4793
 1357SOL    HW115704   1.292   2.984  12.761  4.2626  1.9804 -1.5731
 1357SOL    HW215705   1.310   2.892  12.640 -1.3131 -0.1926 -1.7846
 1358SOL     OW15706   3.896   3.554   3.202 -0.4121  0.4061  0.5866
 1358SOL    HW115707   3.882   3.488   3.134  0.3376 -0.7527  1.5349
 1358SOL    HW215708   3.812   3.543   3.247 -0.6395  3.7039  0.9125
 1359SOL     OW15709   1.384   2.234   7.196 -0.2200  0.2518 -0.4168
 1359SOL    HW115710   1.435   2.296   7.144  0.6279 -0.7788 -0.8165
 1359SOL    HW215711   1.457   2.175   7.216  1.2916  2.5440  0.8986
 1360SOL     OW15712   2.694   1.782   4.465 -0.4028  0.1201  0.1017
 1360SOL    HW115713   2.710   1.702   4.515 -0.2985 -0.4079 -0.7626
 1360SOL    HW215714   2.716   1.844   4.534  0.1664  0.4835 -0.3997
 1361SOL     OW15715   3.083   3.781   5.289  0.0669  0.0237 -0.2261
 1361SOL    HW115716   3.023   3.840   5.243  1.2638  0.9471 -0.5951
 1361SOL    HW215717   3.138   3.749   5.217 -0.4795 -0.9825 -0.2107
 1362SOL     OW15718   3.241   3.248   4.889 -0.2563  0.4206  0.3301
 1362SOL    HW115719   3.311   3.312   4.885  0.5566 -0.4017  1.4657
 1362SOL    HW215720   3.170   3.304   4.858 -1.9607 -1.1509  1.3958
 1363SOL     OW15721   0.696   3.544  13.626  0.2066  0.2976  0.3272
 1363SOL    HW115722   0.684   3.612  13.560 -0.7164 -1.4295 -1.3005
 1363SOL    HW215723   0.784   3.513  13.604  0.4850  2.6454 -1.8988
 1364SOL     OW15724   3.291   0.173   3.026 -0.5627 -0.0872 -0.0836
 1364SOL    HW115725   3.357   0.239   3.007 -1.7066  1.0452 -0.1334
 1364SOL    HW215726   3.284   0.120   2.947  2.0728  1.0314 -1.0794
 1365SOL     OW15727   1.042   2.702   2.650 -0.1716  0.0723  0.2410
 1365SOL    HW115728   1.113   2.697   2.587  0.4522 -5.4569  1.4303
 1365SOL    HW215729   1.048   2.792   2.682  0.2790  0.1288 -0.0144
 1366SOL     OW15730   0.449   0.532   8.812  0.0368  0.0200 -0.2765
 1366SOL    HW115731   0.439   0.620   8.846  1.1528  0.8842 -2.1752
 1366SOL    HW215732   0.450   0.555   8.719 -0.8071  2.7190  0.4079
 1367SOL     OW15733   0.394   1.254   0.918 -0.0043  0.2077 -0.0183
 1367SOL    HW115734   0.309   1.255   0.962  0.2945 -0.8049  0.5889
 1367SOL    HW215735   0.425   1.171   0.954 -1.7026  1.5691  4.5051
 1368SOL     OW15736   4.225   2.819  16.127  0.6059 -0.0409 -0.1433
 1368SOL    HW115737   4.253   2.728  16.132 -1.5662 -0.7727 -1.1387
 1368SOL    HW215738   4.295   2.867  16.171  2.1306  0.3351 -2.9853
 1369SOL     OW15739   2.951   2.951   3.408 -0.1489 -0.2347  0.1651
 1369SOL    HW115740   2.939   2.931   3.315  0.4114 -0.6361  0.1806
 1369SOL    HW215741   2.939   2.863   3.444  1.4005 -0.2135  0.7307
 1370SOL     OW15742   2.595   3.601   7.299 -0.2888  0.4791  0.3946
 1370SOL    HW115743   2.622   3.656   7.372  0.8394 -2.4386  2.1729
 1370SOL    HW215744   2.501   3.598   7.313 -0.4935 -0.9475 -1.1645
 1371SOL     OW15745   2.684   1.235   4.598 -0.0346  0.4234  0.1978
 1371SOL    HW115746   2.709   1.251   4.506  2.4372  2.1363  1.1666
 1371SOL    HW215747   2.589   1.232   4.587  0.0186  0.7711 -0.3757
 1372SOL     OW15748   3.795   2.206   5.385 -1.3078 -0.0355  0.1482
 1372SOL    HW115749   3.827   2.292   5.412  0.7752 -1.7205  3.0287
 1372SOL    HW215750   3.780   2.227   5.293 -0.6575 -0.9843 -0.1806
 1373SOL     OW15751   0.087   1.506  11.268 -0.4994 -1.0166  0.5418
 1373SOL    HW115752   0.022   1.490  11.336  1.6205 -1.1860  2.5526
 1373SOL    HW215753   0.149   1.543  11.331  0.0675  0.0192 -0.6036
 1374SOL     OW15754   3.283   4.246  16.071 -0.3203  0.0771 -0.4025
 1374SOL    HW115755   3.261   4.246  15.978 -1.1316  1.6663 -0.2087
 1374SOL    HW215756   3.283   4.340  16.090  2.6648 -0.0676  0.3504
 1375SOL     OW15757   3.101   3.910   9.610 -0.6473  0.3827  0.1436
 1375SOL    HW115758   3.148   3.827   9.619  0.8168  1.2273  0.2290
 1375SOL    HW215759   3.011   3.900   9.642 -1.2301  2.5361 -0.7795
 1376SOL     OW15760   3.708   3.132  17.099 -0.0445  0.3057  0.3061
 1376SOL    HW115761   3.621   3.117  17.061  0.2821  1.7998 -1.0705
 1376SOL    HW215762   3.679   3.135  17.190  1.7491 -0.7816  0.9007
 1377SOL     OW15763   4.383   0.922   7.939 -0.1251  0.6958  0.0370
 1377SOL    HW115764   4.378   0.837   7.896  0.7381  0.4891  0.3560
 1377SOL    HW215765   4.294   0.931   7.972 -0.7242 -4.6943 -0.1212
 1378SOL     OW15766   2.320   0.612   4.342 -0.0484  0.3049  0.7762
 1378SOL    HW115767   2.392   0.623   4.404  0.1432 -0.1943  0.6486
 1378SOL    HW215768   2.261   0.684   4.361  0.1758  0.8277 -0.5127
 1379SOL     OW15769   2.929   2.636   7.010  0.2321  0.1056 -0.4112
 1379SOL    HW115770   2.874   2.702   7.053  1.1856  0.5485  0.1185
 1379SOL    HW215771   3.013   2.640   7.055  0.5889  0.1373 -1.0723
 1380SOL     OW15772   0.116   3.559   1.967 -0.1420 -0.6032 -0.6597
 1380SOL    HW115773   0.025   3.567   1.939 -0.7969  0.0923  1.7375
 1380SOL    HW215774   0.132   3.617   2.041  0.5297  1.9445 -2.8268
 1381SOL     OW15775   3.162   3.641   9.600 -0.2814  0.5469 -0.2431
 1381SOL    HW115776   3.146   3.571   9.663 -2.9227 -1.8506 -3.5767
 1381SOL    HW215777   3.215   3.588   9.540 -1.9054 -0.8651 -0.4441
 1382SOL     OW15778   0.102   1.886   1.887 -0.0863  0.7834  0.1991
 1382SOL    HW115779   0.042   1.960   1.885 -1.0253  0.0131  0.1520
 1382SOL    HW215780   0.036   1.828   1.849  1.3070 -0.5007 -0.3009
 1383SOL     OW15781   1.221   3.928  11.161  0.3270  0.2927  0.0891
 1383SOL    HW115782   1.159   3.994  11.192 -0.4663 -1.6879  2.6430
 1383SOL    HW215783   1.286   3.926  11.231 -0.3288 -1.4473  0.6293
 1384SOL     OW15784   3.026   1.278   1.340 -0.0614 -0.1790 -0.1702
 1384SOL    HW115785   3.053   1.368   1.318 -0.5141 -0.2911 -1.1795
 1384SOL    HW215786   2.976   1.290   1.420 -0.7997  1.9663 -0.9420
 1385SOL     OW15787   3.229   1.951   9.822 -0.0111  0.1312  0.4305
 1385SOL    HW115788   3.263   1.937   9.910  2.3878  0.5027 -0.4407
 1385SOL    HW215789   3.148   2.002   9.831 -0.1571  0.3352 -2.0544
 1386SOL     OW15790   3.870   4.417   1.404  0.6616 -0.5677 -0.3238
 1386SOL    HW115791   3.890   4.460   1.321 -0.3004 -0.5950 -0.5696
 1386SOL    HW215792   3.794   4.469   1.430 -0.0054 -2.0826  0.7433
 1387SOL     OW15793   0.212   3.583   2.295 -0.5635  0.2354 -0.3031
 1387SOL    HW115794   0.300   3.545   2.290  0.3869  2.3360  0.7383
 1387SOL    HW215795   0.213   3.656   2.233  2.8537  1.0699  0.7654
 1388SOL     OW15796   3.208   2.628   4.119 -0.4872 -0.3656 -0.1942
 1388SOL    HW115797   3.142   2.599   4.182 -0.9427 -1.2815 -1.0916
 1388SOL    HW215798   3.229   2.718   4.143  0.1299  0.2250 -3.0008
 1389SOL     OW15799   3.329   0.607   6.910  0.3240  0.2233  0.1108
 1389SOL    HW115800   3.315   0.604   6.815 -0.4806  2.2666  0.1631
 1389SOL    HW215801   3.300   0.692   6.943 -0.8375 -0.9592  2.1482
 1390SOL     OW15802   2.718   3.088   8.386  0.2981  0.3962 -0.0919
 1390SOL    HW115803   2.699   3.139   8.308  1.0385 -0.6840 -0.9781
 1390SOL    HW215804   2.723   3.004   8.341  0.4576 -1.2451  2.9952
 1391SOL     OW15805   2.265   2.834   5.324  0.1677 -0.4241 -0.2255
 1391SOL    HW115806   2.320   2.886   5.382 -2.1857  0.6064  1.0823
 1391SOL    HW215807   2.285   2.880   5.242 -0.0056 -0.5515 -0.3426
 1392SOL     OW15808   0.635   0.169   9.242  0.1275 -0.2133 -0.8986
 1392SOL    HW115809   0.693   0.245   9.241 -0.7341  0.4676  0.8583
 1392SOL    HW215810   0.590   0.191   9.324 -0.2449 -0.5659 -1.0098
 1393SOL     OW15811   2.213   4.472   1.639 -0.0889  0.5509  0.4901
 1393SOL    HW115812   2.149   4.540   1.659 -3.4777 -1.4421 -3.5882
 1393SOL    HW215813   2.290   4.524   1.662 -0.2766  1.3726 -0.7108
 1394SOL     OW15814   3.426   1.148  13.490  0.2624 -0.2996 -0.4154
 1394SOL    HW115815   3.492   1.176  13.427 -1.0368  0.2328 -1.5487
 1394SOL    HW215816   3.346   1.189  13.457 -0.2786 -0.4320  0.7252
 1395SOL     OW15817   2.945   1.014   8.461  0.2135  0.1699 -0.5814
 1395SOL    HW115818   2.983   0.975   8.540  0.3096  1.7092  0.1300
 1395SOL    HW215819   2.988   1.099   8.450  0.1923  0.3422  0.7710
 1396SOL     OW15820   4.034   4.032   4.427 -0.1871 -0.6058  0.2604
 1396SOL    HW115821   3.999   4.098   4.486  1.0871 -0.1706  0.5437
 1396SOL    HW215822   4.116   4.074   4.399  0.7227 -1.8607  1.0125
 1397SOL     OW15823   3.329   1.012   3.454  0.1564 -0.0026  0.5113
 1397SOL    HW115824   3.366   0.947   3.513 -1.6191 -3.0538 -1.7762
 1397SOL    HW215825   3.316   1.087   3.512 -1.9221 -0.3896  0.5360
 1398SOL     OW15826   0.079   4.171   3.727  0.2741  0.0764 -0.2474
 1398SOL    HW115827   0.022   4.147   3.654 -2.9288  2.8181  1.3220
 1398SOL    HW215828   0.015   4.181   3.798  0.8678  0.4718  0.2320
 1399SOL     OW15829   0.391   0.691   2.185  0.1511  0.2201 -0.2939
 1399SOL    HW115830   0.382   0.597   2.169 -0.2832  0.0197  1.1610
 1399SOL    HW215831   0.315   0.730   2.141 -1.7417 -2.9268  0.2595
 1400SOL     OW15832   4.384   2.487   3.186 -0.1064 -0.0605 -0.1153
 1400SOL    HW115833   4.383   2.567   3.239  0.3679  0.7103 -1.2715
 1400SOL    HW215834   4.406   2.527   3.102 -2.6866  0.9159 -0.3422
 1401SOL     OW15835   3.918   2.070  17.493  0.5847  0.3433 -0.1898
 1401SOL    HW115836   3.910   2.082  17.398 -0.1205  1.5448  0.0219
 1401SOL    HW215837   4.000   2.021  17.494  0.4456  0.0822 -1.3199
 1402SOL     OW15838   1.037   4.707  11.284 -0.3156 -0.1253  0.0137
 1402SOL    HW115839   1.089   0.004  11.213  1.9044 -2.8096  0.2687
 1402SOL    HW215840   0.947   4.730  11.261 -0.0069  0.8319 -0.2371
 1403SOL     OW15841   0.122   2.087  12.383  0.5982 -0.0509  0.4120
 1403SOL    HW115842   0.048   2.070  12.440  0.9018  0.4506  0.9556
 1403SOL    HW215843   0.193   2.112  12.442  0.3169 -0.0672  0.7530
 1404SOL     OW15844   0.983   2.944  12.540 -0.2216 -0.1461  0.2740
 1404SOL    HW115845   1.053   2.939  12.605  0.3840 -1.6673 -0.4992
 1404SOL    HW215846   0.994   2.855  12.505 -1.1952  0.1531 -0.7920
 1405SOL     OW15847   1.223   4.258   3.538 -0.2197 -0.2427  0.1420
 1405SOL    HW115848   1.196   4.191   3.475  0.8164 -0.9138  0.4333
 1405SOL    HW215849   1.265   4.321   3.479  0.0868 -0.3094  0.2932
 1406SOL     OW15850   3.293   3.034  11.782 -0.3496  0.5575  0.3550
 1406SOL    HW115851   3.220   3.091  11.804 -0.8309 -1.3467  3.6266
 1406SOL    HW215852   3.338   3.013  11.864 -0.7204  0.4169  0.5214
 1407SOL     OW15853   4.702   2.713   4.957  0.2861 -0.6325 -0.0485
 1407SOL    HW115854   4.706   2.706   5.053 -1.8777  0.5964  0.1310
 1407SOL    HW215855   0.038   2.760   4.923 -0.0839  0.4122  0.5766
 1408SOL     OW15856   2.761   0.605   5.523  0.4396  0.2242  0.0902
 1408SOL    HW115857   2.770   0.533   5.461 -0.4185  0.0033  0.2297
 1408SOL    HW215858   2.812   0.565   5.594  1.5649  1.7227  0.1294
 1409SOL     OW15859   4.079   1.885   4.780  0.4260 -0.0928 -0.8274
 1409SOL    HW115860   4.067   1.860   4.871  2.9539  1.0640 -0.1765
 1409SOL    HW215861   4.103   1.801   4.743 -2.4274 -0.7388 -1.2317
 1410SOL     OW15862   2.313   4.450   8.676 -0.0750 -0.4686  0.1376
 1410SOL    HW115863   2.302   4.544   8.689 -3.0333 -0.6736 -0.9697
 1410SOL    HW215864   2.390   4.424   8.728  1.3646  0.1648 -1.6887
 1411SOL     OW15865   1.383   0.185   7.675 -0.1463 -0.2899 -0.6729
 1411SOL    HW115866   1.395   0.188   7.580  1.0222 -0.2464 -0.5194
 1411SOL    HW215867   1.454   0.234   7.715 -0.2278  0.0997 -1.0122
 1412SOL     OW15868   0.152   4.256  17.683 -0.1492  0.3167  0.6508
 1412SOL    HW115869   0.182   4.329  17.736 -1.6506  1.7799 -0.5134
 1412SOL    HW215870   0.059   4.273  17.668  0.0549  0.2549 -0.7065
 1413SOL     OW15871   2.178   1.622   6.059  0.5243 -0.1355  0.4213
 1413SOL    HW115872   2.194   1.685   5.989  1.4434  1.8447  2.4161
 1413SOL    HW215873   2.228   1.553   6.014  2.8155  1.0091  1.2067
 1414SOL     OW15874   0.659   4.199   7.588 -0.5001  0.0674 -0.6280
 1414SOL    HW115875   0.614   4.280   7.610 -2.3976 -0.8567 -1.1230
 1414SOL    HW215876   0.646   4.149   7.669  0.2873 -1.9072 -1.7286
 1415SOL     OW15877   2.232   0.165   3.479  0.3187 -0.5351 -0.1127
 1415SOL    HW115878   2.147   0.178   3.521  0.4591 -0.5323  0.1727
 1415SOL    HW215879   2.244   0.070   3.482  4.0844 -0.0311  0.8293
 1416SOL     OW15880   3.289   2.426  17.720  0.0797 -0.3264  0.3688
 1416SOL    HW115881   3.215   2.451  17.665  0.8989 -0.4380 -0.7918
 1416SOL    HW215882   3.286   2.331  17.711 -0.4895 -0.1033 -1.9107
 1417SOL     OW15883   4.597   3.061   4.566 -0.5454  0.0414  0.2002
 1417SOL    HW115884   4.692   3.067   4.580  0.0713 -0.0750 -4.0173
 1417SOL    HW215885   4.584   2.966   4.563 -1.1821  0.1138  0.7169
 1418SOL     OW15886   4.002   0.452   3.326 -0.0183  0.4073  0.7508
 1418SOL    HW115887   3.939   0.522   3.305 -0.9439  0.0115  2.2193
 1418SOL    HW215888   4.083   0.503   3.335 -0.6100  1.2722  1.1817
 1419SOL     OW15889   3.558   1.573   4.273 -0.2529  0.4797 -0.4166
 1419SOL    HW115890   3.600   1.655   4.300 -1.3263  0.9102 -0.0513
 1419SOL    HW215891   3.502   1.610   4.205 -0.6960 -3.4202 -2.1583
 1420SOL     OW15892   2.563   2.286  12.007 -0.0327 -0.0851 -0.7485
 1420SOL    HW115893   2.492   2.289  11.944 -0.2631 -0.0980 -0.4867
 1420SOL    HW215894   2.561   2.200  12.048  0.9201 -0.9128 -2.4450
 1421SOL     OW15895   2.673   1.715   6.308  0.0782 -0.1794 -0.5124
 1421SOL    HW115896   2.701   1.652   6.241 -0.4846 -0.4749 -0.4721
 1421SOL    HW215897   2.689   1.796   6.260  0.4050 -1.6212 -2.8664
 1422SOL     OW15898   2.398   3.074   1.896  0.5598  0.6841 -0.0273
 1422SOL    HW115899   2.465   3.074   1.965  1.8631 -0.1005 -1.3090
 1422SOL    HW215900   2.348   3.149   1.929 -1.5975  0.0516 -1.8715
 1423SOL     OW15901   1.596   3.510   8.284  0.2615  0.5495  0.6960
 1423SOL    HW115902   1.578   3.570   8.356 -2.2514 -0.3503  0.8202
 1423SOL    HW215903   1.663   3.556   8.235  3.0337 -1.4197  2.6499
 1424SOL     OW15904   3.621   4.640   3.875 -0.0276 -0.1645 -0.4899
 1424SOL    HW115905   3.690   4.628   3.810  0.3322 -1.9619  0.2213
 1424SOL    HW215906   3.647   4.716   3.927  1.1914 -0.0434 -1.2826
 1425SOL     OW15907   0.365   4.040   6.421 -0.2017 -0.4672 -0.4120
 1425SOL    HW115908   0.295   3.991   6.378 -1.9819  1.0245  0.7646
 1425SOL    HW215909   0.391   4.090   6.343  1.4130 -0.4375  0.1574
 1426SOL     OW15910   0.076   3.456   5.128 -0.1444 -0.2399  0.1311
 1426SOL    HW115911   4.729   3.419   5.108  0.0217 -1.2358  1.2512
 1426SOL    HW215912   0.088   3.489   5.039  0.1847  0.7652  0.5508
 1427SOL     OW15913   0.232   2.301  16.595  0.1893 -0.5672  0.3885
 1427SOL    HW115914   0.320   2.338  16.595 -0.5204  1.1196 -1.0572
 1427SOL    HW215915   0.200   2.291  16.685  3.4243 -0.6684  1.5162
 1428SOL     OW15916   2.164   1.098  17.005  0.1661 -0.0135  0.3337
 1428SOL    HW115917   2.088   1.040  17.014  1.0558 -1.9727 -4.5774
 1428SOL    HW215918   2.120   1.174  16.967  0.2086 -0.2385 -0.1632
 1429SOL     OW15919   4.182   1.216  17.526  0.6021  0.6238 -0.2065
 1429SOL    HW115920   4.209   1.264  17.448  1.8387  0.5375  0.1832
 1429SOL    HW215921   4.224   1.130  17.516  2.2352  1.7498 -2.8909
 1430SOL     OW15922   4.020   2.935  11.752  0.4207 -0.4165  0.6619
 1430SOL    HW115923   4.086   2.992  11.790 -0.4525  1.7524 -1.0663
 1430SOL    HW215924   3.955   2.951  11.821  0.5084 -0.3492  0.7278
 1431SOL     OW15925   2.530   3.924  17.625  0.2455  0.6457  0.2133
 1431SOL    HW115926   2.582   3.997  17.658  0.9893 -0.0187  0.4998
 1431SOL    HW215927   2.576   3.901  17.545  0.1158  0.4284  0.2001
 1432SOL     OW15928   0.685   1.465   3.041 -0.3071  0.8287  0.1270
 1432SOL    HW115929   0.730   1.430   2.963 -0.2195 -0.6503  0.8328
 1432SOL    HW215930   0.623   1.395   3.061  1.3383 -0.6561  0.0873
 1433SOL     OW15931   0.619   4.081   0.493 -0.6211  0.3752 -0.5017
 1433SOL    HW115932   0.662   4.059   0.411 -0.2721 -0.6420 -0.0495
 1433SOL    HW215933   0.529   4.049   0.486 -1.0277  1.2972  0.4793
 1434SOL     OW15934   4.592   1.628   6.353 -0.4192 -0.3682  0.2005
 1434SOL    HW115935   4.641   1.553   6.387  1.0813  0.3193 -0.4396
 1434SOL    HW215936   4.659   1.676   6.304 -1.8010  1.2211 -0.1455
 1435SOL     OW15937   4.679   1.737  17.317  0.0517  0.3386 -0.4578
 1435SOL    HW115938   4.735   1.798  17.364 -0.7966  0.2115  0.7154
 1435SOL    HW215939   4.623   1.790  17.259 -2.2465 -0.4670  1.0089
 1436SOL     OW15940   0.432   1.321   1.308 -0.2830 -0.0672  0.6738
 1436SOL    HW115941   0.420   1.255   1.240  1.4606 -1.1507  1.4208
 1436SOL    HW215942   0.475   1.382   1.248 -1.9545  0.5338  0.0922
 1437SOL     OW15943   1.302   2.811  14.072  0.3438  0.0585  0.4731
 1437SOL    HW115944   1.221   2.784  14.030  1.0312 -1.1028 -0.1100
 1437SOL    HW215945   1.363   2.739  14.052 -0.1870 -0.3734  0.4256
 1438SOL     OW15946   3.955   0.277   4.670 -0.0544 -0.6470 -0.2927
 1438SOL    HW115947   3.956   0.186   4.699 -0.7401 -0.0191  1.6598
 1438SOL    HW215948   3.897   0.277   4.593  0.9157 -1.0717 -1.0301
 1439SOL     OW15949   2.458   2.508  15.678 -0.2212  0.1671  0.0939
 1439SOL    HW115950   2.382   2.454  15.699 -0.4553  0.7430  0.7437
 1439SOL    HW215951   2.434   2.596  15.708 -0.1947  0.3597 -0.4458
 1440SOL     OW15952   2.544   0.177  16.982  0.3192  0.1896 -0.3567
 1440SOL    HW115953   2.537   0.117  16.908  0.0895  1.6885 -1.5712
 1440SOL    HW215954   2.467   0.164  17.036  1.9356 -1.7403  1.4409
 1441SOL     OW15955   0.816   0.315  12.429 -0.5158  0.3552 -0.4340
 1441SOL    HW115956   0.890   0.375  12.441  1.4234 -1.5261 -3.1469
 1441SOL    HW215957   0.738   0.371  12.428 -0.0558  1.0088 -0.0944
 1442SOL     OW15958   1.532   0.882   3.553  0.7298 -0.6217  0.3415
 1442SOL    HW115959   1.590   0.926   3.616  0.5799 -0.1493  0.1460
 1442SOL    HW215960   1.543   0.790   3.576 -1.5113 -0.9585 -0.0306
 1443SOL     OW15961   2.427   2.275   5.837 -0.2946 -0.0892  0.5924
 1443SOL    HW115962   2.476   2.357   5.847 -0.0740  0.1571 -2.5659
 1443SOL    HW215963   2.443   2.243   5.748 -1.5052  2.0449 -0.3995
 1444SOL     OW15964   1.723   0.161   7.604 -0.5186  0.1445 -0.0285
 1444SOL    HW115965   1.802   0.195   7.561  0.5613 -1.0140  1.0561
 1444SOL    HW215966   1.752   0.153   7.694 -1.4650 -2.1062  0.0753
 1445SOL     OW15967   4.438   1.478   5.080 -0.0671 -0.1279  0.4077
 1445SOL    HW115968   4.370   1.466   5.146 -0.8248  0.2008 -0.3127
 1445SOL    HW215969   4.513   1.485   5.139 -0.3903 -0.2054  0.8338
 1446SOL     OW15970   4.317   3.465   8.010  0.1078 -0.6146  0.0522
 1446SOL    HW115971   4.376   3.441   7.938 -0.4531  0.3706 -0.7427
 1446SOL    HW215972   4.264   3.527   7.960 -0.1938  0.7900  2.1097
 1447SOL     OW15973   0.719   3.003   3.719 -0.4172  0.4153 -0.1560
 1447SOL    HW115974   0.790   2.939   3.706 -0.6044  0.2022 -0.1424
 1447SOL    HW215975   0.650   2.981   3.657  0.8056 -0.1066 -1.3313
 1448SOL     OW15976   2.093   2.240   4.042 -0.2299 -0.1590 -0.5193
 1448SOL    HW115977   2.005   2.277   4.048  0.0546  0.3279  0.6458
 1448SOL    HW215978   2.141   2.297   4.102  2.0887 -4.3521  1.6225
 1449SOL     OW15979   0.521   1.512  11.757 -0.6622 -0.3041 -0.2075
 1449SOL    HW115980   0.540   1.468  11.840 -1.5046 -0.9507 -0.3529
 1449SOL    HW215981   0.434   1.477  11.735 -0.9783  1.4789 -1.7802
 1450SOL     OW15982   1.113   1.462   1.294  0.1587 -0.2064  0.2340
 1450SOL    HW115983   1.030   1.499   1.325  0.9367  1.4101  0.3463
 1450SOL    HW215984   1.144   1.407   1.366  0.7839 -0.2877 -0.1017
 1451SOL     OW15985   0.629   1.711   2.940 -0.3071  0.3706  0.2881
 1451SOL    HW115986   0.622   1.620   2.969 -1.2969  1.3846  3.2475
 1451SOL    HW215987   0.717   1.727   2.975 -0.3324  2.9443 -0.8407
 1452SOL     OW15988   4.007   2.117   9.719 -0.1682  0.2957  0.1637
 1452SOL    HW115989   4.046   2.053   9.779 -0.9554 -1.1833 -0.8904
 1452SOL    HW215990   4.001   2.188   9.782 -2.5083  1.0858 -0.9529
 1453SOL     OW15991   0.893   0.599   2.925 -0.3723  0.2929 -0.0121
 1453SOL    HW115992   0.822   0.599   2.989 -0.2604 -0.8986  0.1120
 1453SOL    HW215993   0.922   0.690   2.924  2.9986 -0.7876 -0.6657
 1454SOL     OW15994   2.978   3.964  15.961 -0.2791 -0.5127 -0.4451
 1454SOL    HW115995   2.988   4.022  15.885 -0.9483  2.1130  1.4578
 1454SOL    HW215996   2.958   4.026  16.031 -0.1177  2.0286 -2.6365
 1455SOL     OW15997   1.548   1.051   3.294 -0.4048 -0.4061  0.2349
 1455SOL    HW115998   1.623   0.995   3.271  0.0293  0.6314 -0.8599
 1455SOL    HW215999   1.537   1.032   3.387  2.4070 -0.8109  0.4987
 1456SOL     OW16000   1.503   4.385   7.444  0.1608  0.0028  0.5276
 1456SOL    HW116001   1.502   4.297   7.483 -1.1041 -0.5027 -0.6389
 1456SOL    HW216002   1.589   4.418   7.471  0.2189  1.1367 -1.0646
 1457SOL     OW16003   4.608   1.790   1.732 -0.0995  0.1802  0.5949
 1457SOL    HW116004   4.623   1.718   1.671  1.9165  1.5224 -0.4830
 1457SOL    HW216005   4.514   1.775   1.741 -0.5508  1.7362 -1.4838
 1458SOL     OW16006   2.153   4.113  15.285 -0.7566  0.1803  0.1059
 1458SOL    HW116007   2.106   4.195  15.302 -1.0431  0.1274 -0.4719
 1458SOL    HW216008   2.124   4.088  15.198 -0.6801  0.3707  0.0260
 1459SOL     OW16009   4.064   4.403  14.625  0.4087  0.1425  0.0832
 1459SOL    HW116010   4.095   4.319  14.658 -1.0870 -0.6886 -0.6477
 1459SOL    HW216011   4.125   4.418  14.552  0.3441 -0.1233 -0.0274
 1460SOL     OW16012   2.196   3.895   2.355 -0.5085 -0.3960  0.1419
 1460SOL    HW116013   2.255   3.967   2.334  0.9987 -1.2150  1.5608
 1460SOL    HW216014   2.118   3.946   2.380 -0.1275  0.1390  0.2401
 1461SOL     OW16015   3.988   1.120   6.645  0.0712 -0.5518  0.8098
 1461SOL    HW116016   4.077   1.156   6.646 -0.0925 -0.0894 -0.9866
 1461SOL    HW216017   3.967   1.136   6.553 -0.9201 -0.1575  1.1048
 1462SOL     OW16018   0.056   0.513   0.698 -0.5518  0.5538 -0.4057
 1462SOL    HW116019   0.037   0.446   0.632 -0.0999  0.3443 -0.3246
 1462SOL    HW216020   0.137   0.548   0.661  0.2800  0.5298  1.3758
 1463SOL     OW16021   1.260   1.807   4.390  0.6298  0.2584  0.0088
 1463SOL    HW116022   1.302   1.763   4.464 -1.9453 -1.2249  0.5824
 1463SOL    HW216023   1.314   1.778   4.316  2.6935 -0.7378  1.8950
 1464SOL     OW16024   3.404   2.604   7.058  0.4630 -0.1084 -0.1382
 1464SOL    HW116025   3.494   2.585   7.085  0.8910 -0.5289 -1.8512
 1464SOL    HW216026   3.403   2.573   6.967  2.6521 -0.4580 -0.0609
 1465SOL     OW16027   0.412   3.885   8.872  0.9107  0.6564 -0.3816
 1465SOL    HW116028   0.321   3.889   8.843  0.0397  2.5466  2.6078
 1465SOL    HW216029   0.401   3.912   8.963  1.2869 -3.3168  0.8385
 1466SOL     OW16030   3.967   1.891   5.053 -0.0030 -0.2451 -1.0285
 1466SOL    HW116031   4.039   1.902   5.114  0.6098 -2.4476 -1.3763
 1466SOL    HW216032   3.923   1.818   5.097  1.6995 -0.9190 -0.4661
 1467SOL     OW16033   2.479   3.511  11.623  0.0789  0.0458 -0.0633
 1467SOL    HW116034   2.524   3.570  11.684  2.1035 -0.5935 -0.9570
 1467SOL    HW216035   2.509   3.425  11.652  0.4751 -0.4476 -1.9597
 1468SOL     OW16036   3.202   0.462   5.801 -0.5307  0.8067  0.5015
 1468SOL    HW116037   3.211   0.413   5.882  0.2634 -0.0609 -0.1162
 1468SOL    HW216038   3.282   0.436   5.755 -1.2475 -1.9165  0.8298
 1469SOL     OW16039   0.162   2.467   8.560  0.0627  0.4370  0.2825
 1469SOL    HW116040   0.255   2.466   8.536 -0.3717  0.5841 -1.4066
 1469SOL    HW216041   0.134   2.558   8.550  2.1696  1.1546  0.6915
 1470SOL     OW16042   3.752   2.612   2.160  0.0481  0.1171  0.8705
 1470SOL    HW116043   3.824   2.587   2.103 -3.0391 -1.0852 -2.4527
 1470SOL    HW216044   3.685   2.634   2.096 -1.8324 -0.4561  2.6260
 1471SOL     OW16045   2.583   4.190   4.263 -0.2302  0.5020 -0.2639
 1471SOL    HW116046   2.520   4.148   4.322  0.9897 -0.5977  0.2434
 1471SOL    HW216047   2.643   4.207   4.335 -1.2962 -2.5967  1.3691
 1472SOL     OW16048   2.080   2.817  10.020  0.4128  0.1925  0.2870
 1472SOL    HW116049   2.021   2.891  10.032 -1.5791 -1.2398 -0.7844
 1472SOL    HW216050   2.017   2.748  10.040 -1.5706  1.2158 -2.5275
 1473SOL     OW16051   4.413   2.435   7.850  0.3888 -0.3484  0.5873
 1473SOL    HW116052   4.484   2.405   7.792  0.3328 -1.0470  0.8752
 1473SOL    HW216053   4.361   2.495   7.797  2.0260  0.0746 -0.5531
 1474SOL     OW16054   2.876   1.543   3.354 -0.1124 -0.3585  0.7327
 1474SOL    HW116055   2.896   1.525   3.446  2.2825 -0.4668  0.1912
 1474SOL    HW216056   2.792   1.587   3.363 -0.1508 -0.3295  0.2224
 1475SOL     OW16057   0.686   3.012  12.360 -0.2410  0.6604 -0.2474
 1475SOL    HW116058   0.743   2.946  12.320  0.5858  0.6715  0.8987
 1475SOL    HW216059   0.646   3.064  12.291  0.3170  0.4163 -0.7535
 1476SOL     OW16060   2.566   4.481   6.022 -0.0590 -0.8576 -0.2172
 1476SOL    HW116061   2.525   4.529   6.094  1.6502 -0.8339  0.7454
 1476SOL    HW216062   2.556   4.390   6.050  1.4318 -1.1594 -0.6265
 1477SOL     OW16063   1.191   2.819   7.267 -0.2178  0.5456  0.3972
 1477SOL    HW116064   1.249   2.744   7.255 -2.2071 -1.0032  0.5016
 1477SOL    HW216065   1.213   2.860   7.350  0.1922 -0.1538  0.6346
 1478SOL     OW16066   0.711   2.435  11.255 -0.1759 -0.3756 -0.5611
 1478SOL    HW116067   0.794   2.454  11.297  0.5369  0.6646 -2.4728
 1478SOL    HW216068   0.669   2.518  11.275  1.1272  0.4493 -1.2778
 1479SOL     OW16069   0.931   4.624   3.437 -0.5303 -0.2543  0.1773
 1479SOL    HW116070   0.958   4.669   3.357 -0.0224 -0.5399  0.1868
 1479SOL    HW216071   1.018   4.591   3.462 -0.8498 -1.6693 -0.6196
 1480SOL     OW16072   2.599   3.073   8.885  0.0234 -0.4379 -0.4356
 1480SOL    HW116073   2.556   3.058   8.801 -0.6545 -0.3891 -0.1021
 1480SOL    HW216074   2.683   3.027   8.878  0.4874  0.2558  0.5736
 1481SOL     OW16075   3.767   2.504  15.266 -0.0163  0.2398 -0.0354
 1481SOL    HW116076   3.687   2.493  15.317 -1.2104  2.4524 -1.4542
 1481SOL    HW216077   3.776   2.599  15.276 -2.2861  0.3209  1.1714
 1482SOL     OW16078   0.684   4.667  13.980 -0.2704 -0.5509  0.1605
 1482SOL    HW116079   0.613   4.613  13.944 -0.6206 -1.1371  1.6882
 1482SOL    HW216080   0.692   4.721  13.902  0.4045 -0.2620  0.4280
 1483SOL     OW16081   1.714   4.252   1.579 -0.3747  0.5686  0.3020
 1483SOL    HW116082   1.679   4.168   1.550 -0.7888  0.7711  0.2235
 1483SOL    HW216083   1.784   4.224   1.638  2.3842  1.8575 -2.3390
 1484SOL     OW16084   3.099   2.959   4.603  0.2184  0.1219 -0.5467
 1484SOL    HW116085   3.135   2.874   4.576  0.5711  0.7780 -2.1223
 1484SOL    HW216086   3.113   2.960   4.698  2.7322  0.6344 -0.9170
 1485SOL     OW16087   4.287   3.792   2.222  0.4729  0.2757  0.4835
 1485SOL    HW116088   4.262   3.815   2.312  2.6593 -0.2175  1.2357
 1485SOL    HW216089   4.268   3.872   2.172 -1.0573  0.0070  0.6519
 1486SOL     OW16090   3.973   2.956   8.198  0.5177  0.1321  0.0976
 1486SOL    HW116091   4.018   2.936   8.115  2.4689 -1.5496  1.5745
 1486SOL    HW216092   3.964   3.051   8.191  1.4844  0.0407 -2.5363
 1487SOL     OW16093   3.434   4.720   9.184 -0.0138 -0.2471 -0.1788
 1487SOL    HW116094   3.353   0.009   9.143  1.1546  1.0937 -1.5480
 1487SOL    HW216095   3.434   4.633   9.143 -1.2702 -0.1199 -0.4274
 1488SOL     OW16096   4.011   2.541   7.283 -0.3734  0.2630 -0.3673
 1488SOL    HW116097   3.920   2.565   7.298 -0.9954 -2.1641 -0.3207
 1488SOL    HW216098   4.007   2.537   7.187 -0.7569  1.6064 -0.4116
 1489SOL     OW16099   3.596   1.387   5.663 -0.1366  0.2208 -0.2180
 1489SOL    HW116100   3.599   1.404   5.757  0.1452 -2.6646  0.2805
 1489SOL    HW216101   3.559   1.473   5.643  0.1666  0.6179  0.8978
 1490SOL     OW16102   3.720   4.321  12.135  0.3503 -0.0555  0.3654
 1490SOL    HW116103   3.739   4.415  12.144 -0.5416  0.1587  0.0011
 1490SOL    HW216104   3.624   4.325  12.137  0.4019  2.3962 -1.6053
 1491SOL     OW16105   4.571   4.046   5.333  0.8484  0.2804  0.8077
 1491SOL    HW116106   4.580   4.119   5.271 -3.0509  0.5382  0.5655
 1491SOL    HW216107   4.543   3.970   5.281 -4.3920  0.1651  3.8761
 1492SOL     OW16108   4.139   4.708   5.828  0.0546 -0.6476  0.2609
 1492SOL    HW116109   4.185   0.021   5.763 -1.0698  1.2592  0.9767
 1492SOL    HW216110   4.195   4.632   5.817  1.0903  0.2426 -0.6374
 1493SOL     OW16111   3.421   3.444   5.337 -0.8811  0.2970 -0.0750
 1493SOL    HW116112   3.464   3.387   5.273 -1.1653  0.3338 -0.2972
 1493SOL    HW216113   3.399   3.517   5.278  1.2427 -0.2854 -1.6069
 1494SOL     OW16114   4.616   1.440   8.535  0.5220  0.1371 -1.3645
 1494SOL    HW116115   4.553   1.501   8.496  1.6191  0.8415 -2.0209
 1494SOL    HW216116   4.695   1.453   8.484  1.0372  0.5671 -0.4576
 1495SOL     OW16117   0.002   3.712   5.340 -0.1759  0.0756  0.3261
 1495SOL    HW116118   4.693   3.658   5.278 -0.6026  0.8997 -0.0633
 1495SOL    HW216119   4.668   3.736   5.396 -0.5392 -2.9532  1.1407
 1496SOL     OW16120   0.743   2.301   3.250 -0.0334  0.4786 -0.0831
 1496SOL    HW116121   0.761   2.393   3.231 -0.6334  0.1885 -2.0907
 1496SOL    HW216122   0.655   2.312   3.286  1.6805 -0.5061  4.4253
 1497SOL     OW16123   2.250   0.482   2.820  0.5647  0.0886 -0.6442
 1497SOL    HW116124   2.173   0.523   2.859 -1.4046 -3.8501 -0.4439
 1497SOL    HW216125   2.219   0.393   2.804 -0.1176 -0.2682  2.6698
 1498SOL     OW16126   2.750   3.106  15.987 -0.2973 -0.3984 -0.5207
 1498SOL    HW116127   2.670   3.128  16.034  0.4269  0.5486  0.2603
 1498SOL    HW216128   2.806   3.179  16.015  0.1385 -0.7217 -0.5529
 1499SOL     OW16129   0.180   0.344   6.684  0.4566 -0.6808  0.5843
 1499SOL    HW116130   0.204   0.370   6.773 -0.3187 -3.4319  1.5892
 1499SOL    HW216131   0.131   0.264   6.698  0.3384 -0.7045  0.0403
 1500SOL     OW16132   3.295   3.439  15.006 -0.1822 -0.4699  0.3090
 1500SOL    HW116133   3.279   3.372  14.940 -0.1031  0.6423 -0.8456
 1500SOL    HW216134   3.226   3.407  15.064 -0.0789 -0.3402  0.5009
 1501SOL     OW16135   2.711   3.317   8.946 -0.0469  0.2530 -0.0852
 1501SOL    HW116136   2.713   3.322   9.042 -2.0027  0.3225 -0.0562
 1501SOL    HW216137   2.673   3.231   8.927  1.0878  0.4185 -3.0940
 1502SOL     OW16138   3.534   3.501   9.814 -0.3044 -0.2546 -0.6875
 1502SOL    HW116139   3.590   3.562   9.862  0.2933  1.0365 -3.0154
 1502SOL    HW216140   3.496   3.559   9.748 -0.5291 -2.3965 -2.4321
 1503SOL     OW16141   2.621   4.116   6.622 -0.6201  0.1834 -0.2485
 1503SOL    HW116142   2.537   4.153   6.649  0.0875 -0.2598  2.5668
 1503SOL    HW216143   2.681   4.173   6.669 -0.4750 -2.0039  2.1871
 1504SOL     OW16144   1.120   2.947  11.566  0.3768  0.0002 -0.2056
 1504SOL    HW116145   1.109   2.856  11.538 -2.5881 -0.1773  1.5526
 1504SOL    HW216146   1.034   2.960  11.606  0.2411 -1.1864 -0.0974
 1505SOL     OW16147   0.595   1.882   4.052 -0.4148  0.0670 -0.1191
 1505SOL    HW116148   0.594   1.804   3.996 -1.9129 -1.1473  1.5892
 1505SOL    HW216149   0.511   1.917   4.021  0.1685  0.9935 -0.6387
 1506SOL     OW16150   3.577   4.475  15.730 -0.2843  0.1697  0.2177
 1506SOL    HW116151   3.654   4.517  15.692  0.7852 -0.5063  1.6018
 1506SOL    HW216152   3.514   4.507  15.667 -1.6055 -1.3409  0.7642
 1507SOL     OW16153   2.503   4.606   9.004 -0.6013  0.7621  0.4209
 1507SOL    HW116154   2.590   4.601   9.044 -0.2942  1.9286 -0.0942
 1507SOL    HW216155   2.488   4.700   8.989 -0.1728  0.6818 -0.4924
 1508SOL     OW16156   2.036   2.685   5.838  0.3061 -0.2010  0.1524
 1508SOL    HW116157   2.049   2.612   5.898 -2.3023 -1.8554 -1.3010
 1508SOL    HW216158   1.970   2.652   5.777  0.4706 -0.4598  0.1144
 1509SOL     OW16159   4.470   2.389   7.111  0.2963 -0.5344 -0.2401
 1509SOL    HW116160   4.563   2.403   7.130 -0.5495  0.7140  3.1306
 1509SOL    HW216161   4.469   2.402   7.016 -0.5828 -0.7569 -0.2597
 1510SOL     OW16162   2.788   0.174   6.397 -0.3124  0.0813  0.1444
 1510SOL    HW116163   2.877   0.147   6.375 -0.2092  1.3731 -1.0002
 1510SOL    HW216164   2.793   0.259   6.442 -0.1739  0.1627 -0.0256
 1511SOL     OW16165   0.692   4.632   0.677 -0.0131 -0.2570  0.1509
 1511SOL    HW116166   0.771   4.676   0.646 -0.8981  0.7670 -0.6408
 1511SOL    HW216167   0.701   4.544   0.642 -0.5446 -0.1765 -0.1878
 1512SOL     OW16168   3.984   2.528   2.025 -0.3748  0.6410 -0.0174
 1512SOL    HW116169   4.049   2.598   2.037 -0.5038  0.4043  2.1943
 1512SOL    HW216170   4.014   2.492   1.942  0.7497  2.4185 -0.3867
 1513SOL     OW16171   2.364   1.999   5.914  0.4084 -0.8981  0.1865
 1513SOL    HW116172   2.373   2.000   6.009 -1.2205  0.0329  0.3345
 1513SOL    HW216173   2.387   2.091   5.896  1.3299 -1.1430  0.1207
 1514SOL     OW16174   3.057   1.570   0.861 -0.5708  0.5793  0.3258
 1514SOL    HW116175   3.029   1.593   0.949 -0.7630  2.5364 -0.2312
 1514SOL    HW216176   3.043   1.476   0.854  2.5702  0.0141  1.5330
 1515SOL     OW16177   4.339   2.926   3.483 -0.6259  0.2350  0.0374
 1515SOL    HW116178   4.271   2.902   3.547 -1.9632  1.3204 -0.9711
 1515SOL    HW216179   4.285   2.969   3.417  0.7136  0.9953 -0.5576
 1516SOL     OW16180   2.579   0.972   5.956 -0.3238  0.0462  0.1463
 1516SOL    HW116181   2.554   0.994   6.046  1.7509  0.2442  0.6614
 1516SOL    HW216182   2.532   0.889   5.948  1.9187 -1.1314 -0.5736
 1517SOL     OW16183   1.712   3.991  10.626 -0.0712 -0.3872  0.4580
 1517SOL    HW116184   1.659   4.056  10.672  1.6099 -0.2096  2.1454
 1517SOL    HW216185   1.653   3.917  10.641 -0.2315 -0.4556 -0.5207
 1518SOL     OW16186   3.120   2.646   5.738 -0.1896  0.2965 -0.2216
 1518SOL    HW116187   3.194   2.696   5.703 -0.6458  1.1831  0.0902
 1518SOL    HW216188   3.088   2.592   5.666 -0.4561  1.3860 -0.9051
 1519SOL     OW16189   0.034   3.992   7.035  0.0411  0.2934 -0.3023
 1519SOL    HW116190   4.731   3.973   6.951  1.1605 -2.3130 -0.2921
 1519SOL    HW216191   4.738   3.917   7.082 -0.7485  1.3609  0.7878
 1520SOL     OW16192   1.806   3.035   0.912 -0.3165  0.2175 -0.2299
 1520SOL    HW116193   1.842   3.101   0.854  1.7811  0.9248  1.8814
 1520SOL    HW216194   1.884   2.979   0.913 -0.0742  0.5419 -0.7415
 1521SOL     OW16195   0.496   1.236  12.453  0.4396 -0.0281  0.6662
 1521SOL    HW116196   0.544   1.288  12.389 -1.1376  0.0608 -0.4370
 1521SOL    HW216197   0.430   1.192  12.400 -0.4449  0.9467  0.9634
 1522SOL     OW16198   3.923   2.098   4.505  0.0700  0.1835  0.3771
 1522SOL    HW116199   3.939   2.006   4.484 -1.4664 -0.4998  2.1480
 1522SOL    HW216200   3.958   2.104   4.594  0.7140 -0.2467  0.1496
 1523SOL     OW16201   3.296   3.876  16.016 -0.3513 -0.5103 -0.0638
 1523SOL    HW116202   3.217   3.905  15.970 -0.9814 -0.5091  1.0125
 1523SOL    HW216203   3.297   3.781  16.000  1.6269 -0.0939 -2.4207
 1524SOL     OW16204   2.250   1.575   4.580 -0.1123 -0.2029  0.0161
 1524SOL    HW116205   2.315   1.615   4.522 -0.7794  2.3318  1.0595
 1524SOL    HW216206   2.178   1.566   4.517 -0.7537  0.5237  0.6501
 1525SOL     OW16207   0.827   0.546   8.097  0.2650 -0.3389 -0.5937
 1525SOL    HW116208   0.732   0.543   8.092  0.1492  0.7479  0.6095
 1525SOL    HW216209   0.854   0.539   8.006 -0.7017 -0.0429 -0.8947
 1526SOL     OW16210   2.161   1.962   4.225  0.1053  0.1258  0.2872
 1526SOL    HW116211   2.081   2.013   4.242  0.5032  1.1432 -0.8587
 1526SOL    HW216212   2.154   1.918   4.141  0.1361 -0.5658  0.6481
 1527SOL     OW16213   1.039   3.475   4.934  0.5464  0.1637  0.1998
 1527SOL    HW116214   1.067   3.504   5.020 -1.3104  2.2702  0.0722
 1527SOL    HW216215   1.122   3.456   4.890 -0.1218  1.4490 -1.6436
 1528SOL     OW16216   4.362   1.656  12.763  0.2725  0.3131 -0.4313
 1528SOL    HW116217   4.291   1.694  12.814  1.3176  1.2597  0.3104
 1528SOL    HW216218   4.347   1.694  12.676 -0.6381 -1.3808 -1.0218
 1529SOL     OW16219   3.037   3.408   4.807 -0.4986 -1.2148  0.5978
 1529SOL    HW116220   2.995   3.409   4.893 -1.5816 -1.6922  0.0771
 1529SOL    HW216221   2.976   3.347   4.765 -2.4328 -0.5579  2.4690
 1530SOL     OW16222   1.288   4.148   6.481  0.3674 -0.0992  0.3579
 1530SOL    HW116223   1.276   4.223   6.540  2.9871  2.1279 -1.9702
 1530SOL    HW216224   1.200   4.110   6.481  0.5049 -0.4114  1.6402
 1531SOL     OW16225   4.436   3.745  14.713 -0.7274 -0.5525 -0.6596
 1531SOL    HW116226   4.375   3.818  14.726  0.2576  0.5007 -1.9426
 1531SOL    HW216227   4.382   3.667  14.727 -1.2285 -0.4793 -2.1805
 1532SOL     OW16228   1.971   3.955   9.395 -0.2392  0.5487 -0.1638
 1532SOL    HW116229   2.048   3.898   9.400 -0.4563  0.1757 -1.0661
 1532SOL    HW216230   2.014   4.029   9.438  2.1602  1.2248 -3.7495
 1533SOL     OW16231   4.532   2.955   7.521 -0.1549 -0.1698 -0.5158
 1533SOL    HW116232   4.476   2.882   7.495 -1.1925  0.5590 -0.3199
 1533SOL    HW216233   4.611   2.910   7.551 -0.5157  1.5679  3.0332
 1534SOL     OW16234   4.149   2.179   5.299  0.2558  0.4376 -0.0975
 1534SOL    HW116235   4.148   2.212   5.209 -0.3353 -0.7358 -0.5232
 1534SOL    HW216236   4.126   2.087   5.290  1.1949  0.0203  1.8147
 1535SOL     OW16237   1.606   3.643  13.383  0.4258  0.6326  0.0663
 1535SOL    HW116238   1.686   3.606  13.419  0.5365  1.0378  0.2420
 1535SOL    HW216239   1.612   3.606  13.295  1.1850  0.5212  0.1686
 1536SOL     OW16240   0.025   3.661   6.519  0.4442 -0.2838  0.2512
 1536SOL    HW116241   4.680   3.622   6.497  0.7847  0.1616 -1.9244
 1536SOL    HW216242   0.077   3.632   6.444  1.4653  2.1561  0.0102
 1537SOL     OW16243   0.287   3.543   8.610 -0.1497 -0.4157  0.3228
 1537SOL    HW116244   0.320   3.588   8.688 -1.0721  0.5532  0.1402
 1537SOL    HW216245   0.253   3.472   8.664 -1.7349  0.6221  0.6546
 1538SOL     OW16246   0.832   1.297  12.454  0.7923  0.2634  0.5878
 1538SOL    HW116247   0.891   1.249  12.512  1.9165  1.3056  0.2996
 1538SOL    HW216248   0.829   1.383  12.495 -1.9697 -0.1212  1.1606
 1539SOL     OW16249   2.223   2.887   3.878 -0.0714 -0.9552 -0.1322
 1539SOL    HW116250   2.133   2.857   3.873 -0.7552  1.1796 -0.6101
 1539SOL    HW216251   2.222   2.935   3.795  0.3620 -0.5372  0.1026
 1540SOL     OW16252   2.826   0.796   7.639  0.2382 -0.0751 -0.4864
 1540SOL    HW116253   2.766   0.816   7.567 -1.3535  0.7297  1.0597
 1540SOL    HW216254   2.762   0.755   7.697 -1.2864  1.5967 -0.9947
 1541SOL     OW16255   2.262   2.694   7.604 -0.3535 -0.1951  0.1350
 1541SOL    HW116256   2.213   2.709   7.523 -0.7392  0.5868  0.5064
 1541SOL    HW216257   2.206   2.736   7.669 -0.4470  4.3392 -2.8902
 1542SOL     OW16258   3.108   4.014  15.261 -0.1069  0.8158  0.1187
 1542SOL    HW116259   3.055   3.945  15.221 -0.5808  0.9245  0.5551
 1542SOL    HW216260   3.189   3.996  15.214  0.2028  1.5012  0.3785
 1543SOL     OW16261   3.019   3.263   2.624 -0.2283  0.0642 -0.8227
 1543SOL    HW116262   3.056   3.270   2.712  0.5412 -1.1201 -1.0558
 1543SOL    HW216263   3.085   3.217   2.572 -3.2018 -2.3677 -2.3825
 1544SOL     OW16264   1.000   1.906   0.828  0.2756 -0.3517  0.1262
 1544SOL    HW116265   0.991   1.811   0.835 -0.9256 -0.1532  1.1596
 1544SOL    HW216266   1.095   1.918   0.823  0.3867 -1.8980 -1.2666
 1545SOL     OW16267   4.650   2.334  17.082  0.4760  0.2010 -0.3065
 1545SOL    HW116268   4.630   2.416  17.128 -0.4273 -0.1639 -0.0502
 1545SOL    HW216269   4.562   2.303  17.063  0.6253 -0.3536 -0.0947
 1546SOL     OW16270   2.627   3.698  11.724 -0.0454 -0.6753 -0.2492
 1546SOL    HW116271   2.688   3.694  11.650  0.0783 -1.1478 -0.1187
 1546SOL    HW216272   2.683   3.677  11.799 -0.0227 -0.2126 -0.1379
 1547SOL     OW16273   2.122   1.325   4.855  0.2569 -0.1338 -0.4557
 1547SOL    HW116274   2.051   1.263   4.872  0.9667 -1.1813 -1.2922
 1547SOL    HW216275   2.074   1.407   4.852  2.0870  1.0249  1.9769
 1548SOL     OW16276   1.652   0.852   7.388  0.3877 -0.3885  0.3165
 1548SOL    HW116277   1.652   0.778   7.449 -1.2605  0.2489  1.0765
 1548SOL    HW216278   1.584   0.912   7.418  0.0547  0.0385 -1.2827
 1549SOL     OW16279   4.339   0.569   6.413 -1.0054 -0.0041  0.1795
 1549SOL    HW116280   4.336   0.505   6.483  0.7400  0.0537  0.3097
 1549SOL    HW216281   4.249   0.584   6.383 -0.8643 -0.0961 -0.2931
 1550SOL     OW16282   0.436   4.496  16.650 -0.3331 -0.2700 -0.1208
 1550SOL    HW116283   0.468   4.485  16.560  0.7059  0.9592  0.1134
 1550SOL    HW216284   0.351   4.537  16.632 -0.9649 -1.2972  0.5308
 1551SOL     OW16285   4.022   2.248   7.782  0.4437 -0.0382  0.1310
 1551SOL    HW116286   4.056   2.176   7.729 -0.5122 -0.1949 -0.2750
 1551SOL    HW216287   4.088   2.269   7.848  0.0237  1.0910  0.1945
 1552SOL     OW16288   0.744   0.412   4.898  0.0859 -0.3771  0.6262
 1552SOL    HW116289   0.761   0.493   4.946 -0.4647  1.0071 -1.5083
 1552SOL    HW216290   0.767   0.347   4.964 -0.8891 -0.9680  0.3838
 1553SOL     OW16291   0.502   3.733   2.150 -0.0212  0.3270  0.2527
 1553SOL    HW116292   0.565   3.735   2.222  1.7154 -0.1641 -1.2682
 1553SOL    HW216293   0.483   3.639   2.155  0.5186  0.1871 -0.3695
 1554SOL     OW16294   1.292   0.504   7.488 -0.5245  0.8450 -0.1094
 1554SOL    HW116295   1.256   0.562   7.420 -0.6172  3.4591  2.1473
 1554SOL    HW216296   1.367   0.453   7.458  0.0574  2.2096 -0.9506
 1555SOL     OW16297   4.087   0.876   3.876 -0.2614  0.2002 -0.2717
 1555SOL    HW116298   4.101   0.783   3.891 -1.5807  0.0242 -0.0941
 1555SOL    HW216299   4.127   0.919   3.951 -1.7433  1.0337  0.0490
 1556SOL     OW16300   1.728   1.777   8.261  0.1875  0.0670  0.0113
 1556SOL    HW116301   1.732   1.746   8.171 -0.5932 -0.9311  0.3235
 1556SOL    HW216302   1.819   1.787   8.287 -0.3287 -2.1147  2.6034
 1557SOL     OW16303   2.510   2.403   4.876  0.3680 -0.0653 -0.6832
 1557SOL    HW116304   2.437   2.463   4.894  1.4372  1.3004 -0.9671
 1557SOL    HW216305   2.579   2.469   4.875  0.6934 -0.3989 -0.2219
 1558SOL     OW16306   2.922   4.356   8.341 -0.0854 -0.4571 -0.7753
 1558SOL    HW116307   2.906   4.384   8.251 -5.3708  2.8414  1.1550
 1558SOL    HW216308   2.855   4.289   8.355  0.2360 -0.8443 -1.1075
 1559SOL     OW16309   1.562   4.020   1.564  0.4745 -0.2603 -0.1651
 1559SOL    HW116310   1.604   3.935   1.583  0.2664 -0.2678  0.2734
 1559SOL    HW216311   1.498   3.992   1.499  1.2360 -2.8282  0.1919
 1560SOL     OW16312   2.498   3.864   7.685 -0.1419  0.1562 -0.1373
 1560SOL    HW116313   2.504   3.958   7.702  0.9074  0.0952 -0.1587
 1560SOL    HW216314   2.517   3.865   7.591  0.7790 -2.3915  0.0231
 1561SOL     OW16315   4.683   0.504   5.124 -0.4704  0.2309  0.2271
 1561SOL    HW116316   4.689   0.523   5.217  1.8427  0.8998 -0.0500
 1561SOL    HW216317   4.593   0.472   5.114  0.3412 -1.4342 -1.7997
 1562SOL     OW16318   4.196   2.463  13.780 -0.2906  0.1515 -0.4562
 1562SOL    HW116319   4.209   2.551  13.743 -1.1574 -0.5026 -2.2940
 1562SOL    HW216320   4.110   2.439  13.745  0.5103 -0.2577 -2.1247
 1563SOL     OW16321   4.113   3.270   3.092 -0.5488 -1.0458 -0.2257
 1563SOL    HW116322   4.038   3.303   3.043  0.0436 -0.1161 -0.4921
 1563SOL    HW216323   4.185   3.312   3.045 -1.3130  1.0813  0.5034
 1564SOL     OW16324   0.122   2.392   4.569  0.0493 -0.4304  0.0753
 1564SOL    HW116325   0.121   2.456   4.498 -2.4306 -2.0014 -1.3107
 1564SOL    HW216326   0.048   2.423   4.620  2.5499  1.8724  2.2917
 1565SOL     OW16327   3.030   0.084   2.471 -0.0722 -0.0999  0.2499
 1565SOL    HW116328   3.103   0.034   2.435  0.4138 -0.2379  1.4405
 1565SOL    HW216329   2.971   0.088   2.395  0.8130  1.8399 -0.3308
 1566SOL     OW16330   2.557   1.086   8.887 -0.4001 -0.3979 -0.0889
 1566SOL    HW116331   2.470   1.100   8.925  0.7191  1.0877  1.9399
 1566SOL    HW216332   2.616   1.130   8.947 -0.8442  0.1622 -0.0561
 1567SOL     OW16333   3.536   2.126   7.943  0.0513  0.3414  0.2186
 1567SOL    HW116334   3.622   2.130   7.902  0.3843  0.7081  0.9432
 1567SOL    HW216335   3.554   2.172   8.025  0.8501 -0.5417  0.5405
 1568SOL     OW16336   4.511   3.748   1.440  0.1127 -0.1752 -0.0582
 1568SOL    HW116337   4.544   3.833   1.468  1.1813  0.3171 -2.8761
 1568SOL    HW216338   4.478   3.781   1.357  1.9005  0.8382 -0.3633
 1569SOL     OW16339   4.431   2.694   9.155 -0.1897 -0.9549 -0.1247
 1569SOL    HW116340   4.378   2.665   9.081 -1.3447  0.1173  0.2869
 1569SOL    HW216341   4.443   2.785   9.127  0.0343 -0.5638  1.2525
 1570SOL     OW16342   2.968   1.551   9.075  0.2021 -0.0058  0.3585
 1570SOL    HW116343   2.936   1.640   9.094 -0.7309 -0.2921  0.1338
 1570SOL    HW216344   2.913   1.543   8.997  1.1035 -0.3503 -0.2389
 1571SOL     OW16345   3.027   1.106   6.036  0.3985  0.3114  0.2013
 1571SOL    HW116346   3.003   1.100   5.943  3.1769 -0.5062 -0.4412
 1571SOL    HW216347   3.025   1.200   6.051  1.4741  0.3660  0.0102
 1572SOL     OW16348   4.198   1.943   5.690 -0.0357 -0.3143 -0.2185
 1572SOL    HW116349   4.163   1.988   5.613  0.7070  1.4392  0.4606
 1572SOL    HW216350   4.260   2.009   5.723 -1.0933  0.5471  0.0422
 1573SOL     OW16351   1.790   1.895   3.485 -0.1464 -0.1065 -0.5535
 1573SOL    HW116352   1.871   1.851   3.461 -0.4144 -0.1847 -1.3221
 1573SOL    HW216353   1.737   1.817   3.470  1.4247 -1.2535 -0.0967
 1574SOL     OW16354   4.645   3.246   8.109  0.1592 -0.5062  0.6374
 1574SOL    HW116355   4.569   3.279   8.157  0.5492  0.4432  0.6092
 1574SOL    HW216356   4.718   3.279   8.161  0.5308 -0.7660  0.2820
 1575SOL     OW16357   4.418   3.684   6.512 -0.2385 -0.2217 -0.4538
 1575SOL    HW116358   4.336   3.673   6.562  0.5005  1.5359  1.1470
 1575SOL    HW216359   4.442   3.592   6.503  1.5573  0.0881  1.1968
 1576SOL     OW16360   1.935   2.663   8.153  0.4302  0.3378  0.5952
 1576SOL    HW116361   1.864   2.620   8.199 -0.9765  0.7437 -1.1844
 1576SOL    HW216362   1.975   2.708   8.228  0.6320  0.8337  0.1952
 1577SOL     OW16363   4.190   4.216   8.483 -0.7376  0.2122  0.3455
 1577SOL    HW116364   4.263   4.278   8.484 -2.3496  2.1157  0.4522
 1577SOL    HW216365   4.118   4.273   8.455 -1.2935 -0.5585  0.1873
 1578SOL     OW16366   4.003   2.914   7.271 -0.4568 -0.3308  0.4587
 1578SOL    HW116367   4.024   2.856   7.197  1.1225  0.0101  0.6466
 1578SOL    HW216368   3.910   2.892   7.277 -0.7376 -0.1956 -3.2038
 1579SOL     OW16369   1.515   1.896   4.201  0.5417  0.2824  0.6628
 1579SOL    HW116370   1.469   1.818   4.170 -0.0212  1.1310 -0.6521
 1579SOL    HW216371   1.600   1.854   4.187  0.4906  0.0739  0.9904
 1580SOL     OW16372   2.893   4.326   7.468  0.2745 -0.3887  0.1176
 1580SOL    HW116373   2.988   4.327   7.470  0.2222  2.1306  1.0553
 1580SOL    HW216374   2.862   4.353   7.381  2.2826 -3.0801 -1.4249
 1581SOL     OW16375   3.997   2.137   4.777 -0.5303 -0.3950 -0.2273
 1581SOL    HW116376   4.010   2.043   4.768  2.9139  0.0988 -0.5152
 1581SOL    HW216377   3.908   2.149   4.810 -0.0193 -1.1215  1.3715
 1582SOL     OW16378   3.056   0.187   7.208  0.2385 -0.3520  0.2154
 1582SOL    HW116379   2.996   0.257   7.234  1.6482  0.2506  1.8894
 1582SOL    HW216380   3.143   0.226   7.222  0.2716 -0.1535 -0.5544
 1583SOL     OW16381   3.360   1.696   6.755  0.1636 -0.0621  0.3249
 1583SOL    HW116382   3.353   1.747   6.836  1.5538 -2.6802  2.1045
 1583SOL    HW216383   3.305   1.746   6.694  0.8161 -0.1408 -0.3257
 1584SOL     OW16384   0.851   0.515   5.315 -0.1192 -0.0571  0.3490
 1584SOL    HW116385   0.769   0.492   5.270 -1.3815  0.2318  2.5099
 1584SOL    HW216386   0.874   0.429   5.350  0.5064 -0.9267 -2.1585
 1585SOL     OW16387   1.609   3.171  12.010 -0.1659  0.0667  0.0273
 1585SOL    HW116388   1.653   3.222  11.942  2.6996 -2.7161 -0.1714
 1585SOL    HW216389   1.636   3.086  11.975 -1.3687 -1.3600  2.5804
 1586SOL     OW16390   3.075   2.079   4.604 -0.3442  0.2236  0.0346
 1586SOL    HW116391   3.071   2.163   4.559 -0.5064 -0.4945 -1.3122
 1586SOL    HW216392   3.079   2.105   4.695  0.8793  0.1812 -0.0126
 1587SOL     OW16393   4.393   4.427   2.321  0.4058 -0.3034  0.3331
 1587SOL    HW116394   4.345   4.465   2.395  0.2574  1.4705 -0.6813
 1587SOL    HW216395   4.343   4.479   2.258 -0.3728 -0.5295  0.7603
 1588SOL     OW16396   3.413   4.501  11.879  0.3872 -0.3000 -0.0540
 1588SOL    HW116397   3.462   4.514  11.798  0.9558  0.1488  0.3628
 1588SOL    HW216398   3.397   4.589  11.913 -0.1710 -0.7444  0.8385
 1589SOL     OW16399   0.227   4.579   7.659  0.3867 -0.3240  0.5108
 1589SOL    HW116400   0.143   4.564   7.702  0.8489 -2.9307  0.5028
 1589SOL    HW216401   0.211   4.622   7.575  0.1883  1.2827  1.3700
 1590SOL     OW16402   0.055   3.544   4.861  0.5933  0.1327  0.5165
 1590SOL    HW116403   0.074   3.597   4.784  0.4971 -1.1246 -0.3723
 1590SOL    HW216404   4.710   3.507   4.836  0.9339  0.1164 -0.5872
 1591SOL     OW16405   3.499   1.240   9.883  0.0245 -0.3228 -0.6222
 1591SOL    HW116406   3.479   1.326   9.919 -3.4758 -2.3046  2.2360
 1591SOL    HW216407   3.453   1.173   9.935 -0.6463 -1.3243 -2.4766
 1592SOL     OW16408   1.146   4.136   6.792  0.0330  0.0591 -0.2798
 1592SOL    HW116409   1.089   4.131   6.715 -0.2296  1.2081 -0.1700
 1592SOL    HW216410   1.091   4.172   6.861 -0.8016  0.8028 -1.3315
 1593SOL     OW16411   1.317   0.581  12.595  0.3102 -0.6300 -0.3356
 1593SOL    HW116412   1.315   0.521  12.670  1.2189  0.1456  0.3141
 1593SOL    HW216413   1.321   0.522  12.520  1.7227 -1.6917  0.5847
 1594SOL     OW16414   4.064   3.660  11.045 -0.2975  0.1515 -0.3701
 1594SOL    HW116415   4.033   3.695  10.962  1.8605  0.3599 -1.1021
 1594SOL    HW216416   3.989   3.603  11.061  0.3794 -0.7504 -0.3900
 1595SOL     OW16417   3.664   2.946   5.759 -0.0102 -0.3001 -0.4278
 1595SOL    HW116418   3.731   2.986   5.814  0.4950 -1.6710 -0.0460
 1595SOL    HW216419   3.685   2.852   5.756  1.9373  0.1002  0.6724
 1596SOL     OW16420   3.920   2.673   8.196  0.7214 -0.1276 -0.3779
 1596SOL    HW116421   3.999   2.620   8.190  0.8535  0.2599 -1.9704
 1596SOL    HW216422   3.955   2.759   8.173  2.0207 -1.1309 -2.1419
 1597SOL     OW16423   2.612   2.092  17.124  0.4610  0.0838 -0.1858
 1597SOL    HW116424   2.525   2.128  17.106  0.7708  1.0115  0.1869
 1597SOL    HW216425   2.623   2.019  17.063 -0.4039  0.7211 -1.1086
 1598SOL     OW16426   3.870   1.215   6.361 -0.0826 -0.9983  0.3896
 1598SOL    HW116427   3.800   1.211   6.296 -0.4034  0.0993  0.6633
 1598SOL    HW216428   3.929   1.277   6.319  0.6127 -2.7834 -1.2603
 1599SOL     OW16429   0.443   4.691   4.451  0.6792 -1.1245  0.0890
 1599SOL    HW116430   0.520   0.003   4.474 -2.0318  2.0616  1.9055
 1599SOL    HW216431   0.376   0.016   4.428 -0.1264 -2.2499 -0.7442
 1600SOL     OW16432   1.934   3.100   4.185 -0.2979  0.6277  0.3303
 1600SOL    HW116433   1.937   3.172   4.247  1.8976  0.8737 -0.0650
 1600SOL    HW216434   2.027   3.076   4.181 -0.9123 -1.7580 -0.0410
 1601SOL     OW16435   4.453   2.808   9.637  0.0092 -0.1539 -0.3524
 1601SOL    HW116436   4.425   2.731   9.587  1.9378 -1.5252  0.6561
 1601SOL    HW216437   4.398   2.797   9.715 -0.1965  2.4899 -0.1247
 1602SOL     OW16438   3.505   3.610   2.485  0.9807  0.7837  0.2316
 1602SOL    HW116439   3.419   3.623   2.525  2.1356  0.9632  2.6706
 1602SOL    HW216440   3.495   3.640   2.395 -0.4217  0.2819  0.2130
 1603SOL     OW16441   1.940   1.068   7.197 -0.3793 -0.3282  0.3269
 1603SOL    HW116442   1.956   1.137   7.262 -1.5401 -0.4117  0.6966
 1603SOL    HW216443   1.964   1.118   7.119 -1.9410 -2.3528 -1.4376
 1604SOL     OW16444   3.891   2.758  11.297  0.1769  0.0802  0.5057
 1604SOL    HW116445   3.904   2.838  11.348  1.3483 -0.7757  1.5432
 1604SOL    HW216446   3.831   2.716  11.358 -1.0340  1.4117  0.2327
 1605SOL     OW16447   4.629   2.233   6.032 -0.2598  0.1199 -0.7647
 1605SOL    HW116448   4.710   2.184   6.020 -1.8177 -2.3999 -1.0705
 1605SOL    HW216449   4.581   2.223   5.950  1.4077  0.9503 -1.8377
 1606SOL     OW16450   0.458   3.714   2.495  0.2760 -0.4272 -0.0678
 1606SOL    HW116451   0.393   3.774   2.459 -1.4490 -2.0126  0.3985
 1606SOL    HW216452   0.469   3.751   2.582 -0.6210  1.4590 -0.7582
 1607SOL     OW16453   0.725   0.246   0.648 -0.3674 -0.1271 -0.1360
 1607SOL    HW116454   0.766   0.176   0.597 -1.1567 -1.0183  0.4782
 1607SOL    HW216455   0.644   0.256   0.599 -1.3843 -1.4442  1.3031
 1608SOL     OW16456   3.536   0.312   2.962  0.3500  0.1259 -0.3672
 1608SOL    HW116457   3.497   0.365   2.893  0.7504  0.4182 -0.3749
 1608SOL    HW216458   3.581   0.248   2.907 -1.4630 -0.1131 -1.5468
 1609SOL     OW16459   0.166   0.081   3.346 -0.0742  0.0251  0.1278
 1609SOL    HW116460   0.207   0.094   3.261 -3.1350 -1.2066 -1.5147
 1609SOL    HW216461   0.125   0.167   3.359 -3.4683 -1.6102  0.1819
 1610SOL     OW16462   0.438   2.578   7.091  0.4434 -0.5004  0.4398
 1610SOL    HW116463   0.524   2.603   7.124  1.2938 -2.1630 -0.5155
 1610SOL    HW216464   0.419   2.656   7.038  0.1578 -1.8895 -1.5091
 1611SOL     OW16465   1.351   4.180   3.897  0.0385 -0.1806  0.0565
 1611SOL    HW116466   1.352   4.127   3.817  0.0929  1.3249 -0.9303
 1611SOL    HW216467   1.318   4.109   3.952 -1.2545  1.4282  1.3745
 1612SOL     OW16468   3.974   3.095   8.542  0.7538  0.1498  0.4841
 1612SOL    HW116469   4.031   3.165   8.574 -0.0568  0.3038  1.6155
 1612SOL    HW216470   4.032   3.024   8.567 -0.1834 -0.4982  0.8450
 1613SOL     OW16471   3.330   1.322   4.211 -0.2054 -0.1337  0.6602
 1613SOL    HW116472   3.247   1.283   4.187  0.4508 -0.6347 -0.8277
 1613SOL    HW216473   3.379   1.316   4.128 -0.3574  0.9688  0.4902
 1614SOL     OW16474   2.550   3.602  15.675  0.1732  0.2510  0.4647
 1614SOL    HW116475   2.537   3.690  15.640  0.1506 -0.2877 -0.8817
 1614SOL    HW216476   2.646   3.600  15.673  0.0755 -2.5831 -0.7264
 1615SOL     OW16477   1.185   4.154   1.275 -0.0605 -0.3151  0.1204
 1615SOL    HW116478   1.153   4.201   1.353  1.8988 -1.0263  1.3656
 1615SOL    HW216479   1.279   4.172   1.284  0.0112  1.0688 -3.2563
 1616SOL     OW16480   3.259   3.600   9.123  0.8695 -0.1831  0.0666
 1616SOL    HW116481   3.236   3.537   9.055 -0.7339  0.7603 -0.2737
 1616SOL    HW216482   3.188   3.588   9.187  0.1054 -3.2123 -1.3645
 1617SOL     OW16483   1.041   4.706  11.565 -0.2068 -0.5523  0.4961
 1617SOL    HW116484   1.025   4.625  11.613  2.3641 -2.0423 -1.1859
 1617SOL    HW216485   1.022   4.677  11.476  0.5794  0.5697 -0.0318
 1618SOL     OW16486   3.889   0.227  13.354 -0.1401 -0.0127 -0.5564
 1618SOL    HW116487   3.847   0.307  13.324 -0.0570  0.0901 -0.3969
 1618SOL    HW216488   3.863   0.224  13.446  2.4015 -1.0006  0.1480
 1619SOL     OW16489   0.055   1.227  16.489 -0.4740  0.7355 -0.2084
 1619SOL    HW116490   4.721   1.246  16.431 -0.4342  0.6727 -0.2795
 1619SOL    HW216491   0.124   1.214  16.423  1.0225  1.4901  1.2157
 1620SOL     OW16492   1.408   2.728   1.933  0.2323  0.4000  0.0273
 1620SOL    HW116493   1.380   2.815   1.904  1.8648  0.2658 -1.9228
 1620SOL    HW216494   1.322   2.686   1.937  1.1221 -1.1947  2.1558
 1621SOL     OW16495   4.216   2.717   2.955 -0.3656 -0.4573 -0.1151
 1621SOL    HW116496   4.286   2.684   3.012 -0.7493  0.0648  0.6628
 1621SOL    HW216497   4.149   2.740   3.019 -0.8509 -1.6510 -0.1903
 1622SOL     OW16498   4.697   3.778   0.733 -0.4127  1.0114 -0.3720
 1622SOL    HW116499   4.704   3.856   0.788 -1.5210 -0.1025  1.3623
 1622SOL    HW216500   0.023   3.721   0.772 -0.5079  0.3319 -1.1951
 1623SOL     OW16501   0.493   0.144  13.551 -0.0334  0.1576 -0.6550
 1623SOL    HW116502   0.407   0.181  13.529  0.2622 -0.0141 -2.0802
 1623SOL    HW216503   0.542   0.211  13.504 -0.5430  1.7905  1.1238
 1624SOL     OW16504   0.284   0.442   2.205  1.0289 -0.3297  0.1108
 1624SOL    HW116505   0.191   0.451   2.183  1.2202 -0.0047 -0.5684
 1624SOL    HW216506   0.302   0.365   2.151 -0.7948 -1.0022  0.4753
 1625SOL     OW16507   2.024   3.136   1.881 -0.1892 -0.1794 -0.2062
 1625SOL    HW116508   1.965   3.150   1.806 -1.5273 -0.9986  0.6992
 1625SOL    HW216509   2.083   3.209   1.862  0.2645 -0.4254  0.2791
 1626SOL     OW16510   3.203   2.190   8.044  0.0890 -0.1513 -0.4425
 1626SOL    HW116511   3.284   2.145   8.068 -0.4605 -0.6042  0.5646
 1626SOL    HW216512   3.191   2.243   8.123 -0.3546 -0.6928 -0.1501
 1627SOL     OW16513   1.985   2.560   3.699 -0.8891  0.6765  0.5531
 1627SOL    HW116514   1.939   2.478   3.682 -0.9505  0.0267  3.7597
 1627SOL    HW216515   2.022   2.541   3.785 -1.3895 -0.4397  0.5255
 1628SOL     OW16516   1.825   3.198   4.950 -0.0979 -0.1356 -0.3260
 1628SOL    HW116517   1.840   3.286   4.916 -0.9475 -1.0740 -3.1678
 1628SOL    HW216518   1.913   3.163   4.966  0.5794  1.6639 -0.1544
 1629SOL     OW16519   0.194   1.127  17.043 -0.4330  0.2958  0.1537
 1629SOL    HW116520   0.215   1.038  17.073 -1.7634 -0.5848 -1.5971
 1629SOL    HW216521   0.252   1.123  16.967 -0.5950 -1.1426  0.1020
 1630SOL     OW16522   2.147   0.952   7.838  0.3928 -0.1069  0.1488
 1630SOL    HW116523   2.139   0.962   7.933 -1.4864  0.1758 -0.0259
 1630SOL    HW216524   2.143   0.857   7.830  0.5616 -0.3465  3.0011
 1631SOL     OW16525   0.689   3.347  13.826  0.0049 -0.3023  0.1474
 1631SOL    HW116526   0.783   3.342  13.813 -0.5945 -0.8297 -4.0377
 1631SOL    HW216527   0.669   3.415  13.761  0.4303  0.2036  0.5471
 1632SOL     OW16528   3.671   1.168   4.247 -0.3879  0.5485 -0.6631
 1632SOL    HW116529   3.640   1.080   4.269 -0.5990  1.2095  1.7074
 1632SOL    HW216530   3.699   1.190   4.336 -0.4085 -0.5790 -0.3830
 1633SOL     OW16531   4.686   1.731   7.895 -0.1766 -0.3532  0.0207
 1633SOL    HW116532   4.636   1.656   7.863  0.2987 -1.0615  0.9401
 1633SOL    HW216533   4.644   1.733   7.982  0.9242  1.3967  0.5188
 1634SOL     OW16534   1.404   3.532   5.726  0.4069  0.3117  0.6502
 1634SOL    HW116535   1.385   3.625   5.711 -1.0889  0.0252  0.7723
 1634SOL    HW216536   1.455   3.498   5.653  0.3392 -0.2318  0.8529
 1635SOL     OW16537   2.918   1.127   2.527 -0.1232 -0.0402 -0.4638
 1635SOL    HW116538   2.887   1.052   2.476  1.2263 -0.9845  0.0978
 1635SOL    HW216539   2.861   1.192   2.487 -1.0081  0.5443  1.7168
 1636SOL     OW16540   1.258   4.696   8.931  0.2965  0.2118 -0.4276
 1636SOL    HW116541   1.342   4.650   8.939 -0.4727 -0.4120  4.0180
 1636SOL    HW216542   1.264   4.716   8.837  0.1904  1.4781 -0.1559
 1637SOL     OW16543   4.170   0.008   8.664  0.5921 -0.6151 -0.7210
 1637SOL    HW116544   4.166   0.100   8.690 -3.0827 -0.9328 -0.1238
 1637SOL    HW216545   4.243   4.712   8.714  0.1481  0.1703  0.4930
 1638SOL     OW16546   1.344   1.424  15.475 -0.4146 -0.1126 -0.0193
 1638SOL    HW116547   1.353   1.499  15.416  0.6192  0.4202  0.8184
 1638SOL    HW216548   1.357   1.475  15.555 -1.9527  1.4484 -0.7625
 1639SOL     OW16549   4.513   2.595   2.968  0.0592 -0.0603  0.2343
 1639SOL    HW116550   4.578   2.622   3.033  1.1877  1.8029 -1.6574
 1639SOL    HW216551   4.556   2.598   2.883  1.2871 -1.4734  0.8073
 1640SOL     OW16552   2.344   0.790   3.928  0.1321 -0.1911 -0.0498
 1640SOL    HW116553   2.417   0.775   3.988  1.6179  1.3008 -1.4678
 1640SOL    HW216554   2.383   0.773   3.843 -2.5022 -1.4561 -1.0107
 1641SOL     OW16555   2.000   3.335  14.848  0.2556 -0.2660 -0.1038
 1641SOL    HW116556   2.039   3.323  14.762 -1.1504 -0.9707 -0.6519
 1641SOL    HW216557   2.029   3.424  14.868  0.3709 -0.1523 -0.7757
 1642SOL     OW16558   4.355   4.606   8.806  0.8382 -0.2706  0.0705
 1642SOL    HW116559   4.408   4.538   8.846  1.0468 -0.2975 -0.2530
 1642SOL    HW216560   4.289   4.542   8.778 -0.5048  1.2914 -0.3283
 1643SOL     OW16561   1.806   1.904  13.800 -0.0508 -0.3013 -0.0663
 1643SOL    HW116562   1.758   1.926  13.880  1.0455  1.1675  0.1789
 1643SOL    HW216563   1.886   1.884  13.847  0.7154  0.3064 -1.1162
 1644SOL     OW16564   0.081   0.048   1.666  0.0499 -0.0611 -0.2551
 1644SOL    HW116565   0.166   0.056   1.708  0.3213 -0.4963 -0.7300
 1644SOL    HW216566   0.020   0.002   1.724 -1.7623  1.3736 -1.0044
 1645SOL     OW16567   0.924   1.925   3.367  0.1741  0.4514 -0.0338
 1645SOL    HW116568   0.837   1.953   3.340  0.6136  0.9859 -0.9165
 1645SOL    HW216569   0.943   1.852   3.308  0.5254  0.3932  0.1520
 1646SOL     OW16570   4.021   0.623   0.464 -0.1480  0.6543  0.2576
 1646SOL    HW116571   4.019   0.714   0.494 -2.1511  1.0090 -0.9711
 1646SOL    HW216572   4.098   0.632   0.407  1.1647 -2.3845  1.5617
 1647SOL     OW16573   0.843   3.035  15.501 -0.1377  0.1859 -0.3139
 1647SOL    HW116574   0.765   3.085  15.478  1.2519  2.3734 -0.3528
 1647SOL    HW216575   0.816   2.966  15.562 -2.4964  0.5973 -0.8890
 1648SOL     OW16576   1.094   1.184   7.276 -0.0136 -0.0812 -1.1639
 1648SOL    HW116577   1.000   1.175   7.287 -0.1248  2.1192 -0.2968
 1648SOL    HW216578   1.114   1.103   7.229  2.0270 -0.3679  0.2127
 1649SOL     OW16579   1.144   0.053   7.871 -0.2314  0.3665  0.3020
 1649SOL    HW116580   1.070   0.089   7.822 -2.0178 -2.5058  0.8403
 1649SOL    HW216581   1.189   0.016   7.794 -0.9631  0.0694  0.0186
 1650SOL     OW16582   2.552   2.658   3.586  0.3919 -0.3999  0.0575
 1650SOL    HW116583   2.627   2.601   3.601  0.4049 -0.3206  0.2918
 1650SOL    HW216584   2.483   2.600   3.552  0.9036 -0.9252 -0.0767
 1651SOL     OW16585   2.284   0.064   5.941  0.1579  0.4461 -0.3654
 1651SOL    HW116586   2.349   0.082   5.873 -0.0853  1.4468 -0.3419
 1651SOL    HW216587   2.238   4.725   5.913  0.1278  0.5103 -0.4984
 1652SOL     OW16588   2.454   4.100  13.787 -0.3117  0.1194  0.5136
 1652SOL    HW116589   2.427   4.049  13.711  0.7414 -0.7585  0.7230
 1652SOL    HW216590   2.533   4.047  13.794  0.1071  0.7588  0.6272
 1653SOL     OW16591   3.399   1.948  15.275 -0.2563  0.1254  0.5983
 1653SOL    HW116592   3.345   2.027  15.279  1.2954  1.3424 -2.2975
 1653SOL    HW216593   3.335   1.877  15.273 -1.4946  1.2087  2.2272
 1654SOL     OW16594   4.674   2.007  10.038  0.0998 -0.2796 -1.1097
 1654SOL    HW116595   4.705   1.942   9.976  0.8503 -0.6231 -0.3642
 1654SOL    HW216596   4.585   1.976  10.056  1.0105 -2.8765 -1.0394
 1655SOL     OW16597   0.444   1.414   3.839 -0.2507  0.5103 -0.3797
 1655SOL    HW116598   0.406   1.501   3.833 -0.7694  0.3720  0.9930
 1655SOL    HW216599   0.417   1.377   3.923  0.4359 -1.3223 -0.9433
 1656SOL     OW16600   4.010   3.824  11.853  0.0236  0.8026  0.3325
 1656SOL    HW116601   4.009   3.907  11.804  0.1999  2.6001  3.3357
 1656SOL    HW216602   4.103   3.802  11.855 -0.2519 -0.6036 -2.4506
 1657SOL     OW16603   2.560   2.231   7.504  0.4093 -0.4113  0.4305
 1657SOL    HW116604   2.470   2.199   7.510 -0.1174  1.2248  1.2664
 1657SOL    HW216605   2.539   2.320   7.534 -1.6117 -0.5991 -0.4220
 1658SOL     OW16606   2.670   4.619   2.470 -0.0733 -0.0430 -0.0946
 1658SOL    HW116607   2.707   4.707   2.472 -1.0276  0.3307  1.5981
 1658SOL    HW216608   2.740   4.566   2.509 -0.0381  0.2426  0.2266
 1659SOL     OW16609   0.320   0.723  17.747 -0.2787 -0.1170 -0.0648
 1659SOL    HW116610   0.278   0.722  17.661  0.9245  0.7284 -0.6459
 1659SOL    HW216611   0.378   0.799  17.743 -2.1040  1.3334  0.8544
 1660SOL     OW16612   0.746   3.331   7.315 -0.5008 -0.5137 -0.1109
 1660SOL    HW116613   0.742   3.334   7.411 -0.0086  2.2860 -0.1925
 1660SOL    HW216614   0.664   3.285   7.296 -0.0136 -1.8260  0.8807
 1661SOL     OW16615   1.565   4.643   7.667  0.4639  0.6758  0.1868
 1661SOL    HW116616   1.580   4.727   7.625  3.0244  0.2206  0.1588
 1661SOL    HW216617   1.614   4.581   7.613  0.1094 -0.0532  0.6962
 1662SOL     OW16618   0.518   2.666   1.895  0.3352 -0.9622  0.0210
 1662SOL    HW116619   0.458   2.680   1.822 -0.3148  1.6125  1.0507
 1662SOL    HW216620   0.543   2.750   1.934  0.1113 -0.0623 -1.7866
 1663SOL     OW16621   4.652   3.877   9.207 -0.0338  0.3321  0.5709
 1663SOL    HW116622   4.690   3.796   9.174  2.3608  2.2648 -1.3851
 1663SOL    HW216623   4.716   3.911   9.268 -0.4767  1.1695  0.5667
 1664SOL     OW16624   3.520   2.789   9.545  0.5184  0.2803 -0.0298
 1664SOL    HW116625   3.603   2.758   9.581 -0.2850 -1.1193  0.5782
 1664SOL    HW216626   3.534   2.882   9.527  2.1493  0.2376  0.9963
 1665SOL     OW16627   2.516   4.138   7.727 -0.0099 -0.4369 -0.1938
 1665SOL    HW116628   2.598   4.187   7.726 -0.0953 -0.3090 -0.6531
 1665SOL    HW216629   2.482   4.169   7.644  0.0975 -2.1641 -0.8914
 1666SOL     OW16630   0.211   4.647   4.116 -0.0318  0.7658 -0.3144
 1666SOL    HW116631   0.214   4.589   4.192  0.8065 -0.8098 -1.5604
 1666SOL    HW216632   0.191   4.730   4.159 -0.5648  1.3328 -1.6839
 1667SOL     OW16633   1.449   0.697  16.430 -0.2557  0.1901  0.0691
 1667SOL    HW116634   1.472   0.747  16.352  1.7258 -0.3499  0.3105
 1667SOL    HW216635   1.528   0.643  16.431 -0.2891  0.1755  1.3162
 1668SOL     OW16636   0.215   4.670   7.406 -0.4684  0.6132 -0.1627
 1668SOL    HW116637   0.139   4.621   7.374 -0.8483  1.2281 -0.1932
 1668SOL    HW216638   0.205   4.726   7.329  1.0348 -1.5725 -1.9759
 1669SOL     OW16639   3.383   3.683   3.884 -0.5933 -0.0808 -0.4551
 1669SOL    HW116640   3.356   3.616   3.821  3.5942 -0.7158 -1.5893
 1669SOL    HW216641   3.471   3.697   3.851  0.7139 -2.2652  2.0682
 1670SOL     OW16642   0.062   3.324   2.657 -0.1989 -0.3699  0.4628
 1670SOL    HW116643   0.005   3.249   2.671  0.2047 -1.2479 -2.5703
 1670SOL    HW216644   0.010   3.359   2.584 -2.2878 -3.1324  0.6364
 1671SOL     OW16645   2.346   4.267   3.704  0.4965  0.6226 -0.3488
 1671SOL    HW116646   2.306   4.195   3.753  0.8480  0.7904  0.1843
 1671SOL    HW216647   2.347   4.227   3.617  0.3892 -0.4088  0.1143
 1672SOL     OW16648   2.353   4.216   2.650 -0.3479  0.2075 -0.4227
 1672SOL    HW116649   2.357   4.302   2.694  1.4481 -0.8747  1.5633
 1672SOL    HW216650   2.359   4.155   2.723  0.8449  2.2844  1.2471
 1673SOL     OW16651   1.011   2.839   6.772  0.1552  0.5730  0.1376
 1673SOL    HW116652   0.946   2.771   6.754  0.1994  0.8547 -1.0807
 1673SOL    HW216653   1.080   2.816   6.710  1.0387  0.0943  1.2992
 1674SOL     OW16654   0.355   3.574   4.323 -0.5060 -0.2688 -0.2438
 1674SOL    HW116655   0.332   3.533   4.239 -0.8016 -0.1743 -0.2093
 1674SOL    HW216656   0.342   3.665   4.294 -0.5064 -0.8000 -1.9287
 1675SOL     OW16657   0.230   2.317   1.240 -0.6785  0.1247 -0.1666
 1675SOL    HW116658   0.233   2.252   1.170  1.5232  2.1278 -1.9539
 1675SOL    HW216659   0.262   2.263   1.312 -0.4580 -1.4310 -1.4204
 1676SOL     OW16660   4.269   0.389   4.465 -0.1037  0.6901 -0.0615
 1676SOL    HW116661   4.321   0.464   4.438  1.9960 -1.1307 -1.1146
 1676SOL    HW216662   4.262   0.382   4.560  1.2373 -1.3519 -0.1001
 1677SOL     OW16663   3.395   0.564   2.013  0.3422 -0.5740  0.1197
 1677SOL    HW116664   3.467   0.621   1.987  0.0609  0.9945  2.8438
 1677SOL    HW216665   3.381   0.518   1.930  2.2969 -2.4374  0.8180
 1678SOL     OW16666   0.730   2.778   8.333  0.3525  0.3298  0.1028
 1678SOL    HW116667   0.705   2.686   8.322 -2.0513  1.0247 -0.1994
 1678SOL    HW216668   0.706   2.817   8.249  1.3582  0.8076  0.0341
 1679SOL     OW16669   0.942   4.135   4.219  0.2722 -0.6299 -0.3818
 1679SOL    HW116670   0.880   4.201   4.247  0.6801 -0.1289 -0.6642
 1679SOL    HW216671   0.917   4.116   4.129 -1.9907 -0.2005  0.1620
 1680SOL     OW16672   3.666   0.802   7.106  0.1323 -0.1223  0.0781
 1680SOL    HW116673   3.617   0.817   7.025  0.7598 -1.5390 -0.5664
 1680SOL    HW216674   3.748   0.773   7.065  1.2182  0.1519  2.0584
 1681SOL     OW16675   0.947   3.059   1.125 -0.1681  0.3062  0.3806
 1681SOL    HW116676   1.023   3.009   1.154 -0.2935  0.7708  1.5043
 1681SOL    HW216677   0.904   2.988   1.077  1.6413 -0.5656  0.0559
 1682SOL     OW16678   3.468   0.611   6.338  0.1256  0.2785 -0.4244
 1682SOL    HW116679   3.491   0.644   6.251  1.5922  0.7699  0.1429
 1682SOL    HW216680   3.543   0.554   6.358  1.4208  2.1237 -0.0144
 1683SOL     OW16681   2.074   2.393  11.144  0.0917 -0.6445 -0.2405
 1683SOL    HW116682   2.057   2.443  11.224 -0.8238 -1.1235 -0.1367
 1683SOL    HW216683   2.030   2.453  11.084 -0.9246  0.9495  2.0798
 1684SOL     OW16684   2.003   1.196   6.877 -0.0555 -0.2037  0.4478
 1684SOL    HW116685   1.943   1.139   6.830  1.6825 -1.1110 -0.6792
 1684SOL    HW216686   1.985   1.281   6.837  0.5527 -0.5933 -0.6393
 1685SOL     OW16687   1.868   1.585   1.090 -0.2351  0.5307 -0.3359
 1685SOL    HW116688   1.888   1.570   0.997  0.1046 -1.5362  0.0657
 1685SOL    HW216689   1.944   1.633   1.123  1.1479 -2.1994  0.4241
 1686SOL     OW16690   3.234   0.066   0.579  0.4977 -0.3323  0.3876
 1686SOL    HW116691   3.208   0.065   0.671  0.2573  0.9230  0.3400
 1686SOL    HW216692   3.228   4.718   0.542  0.6428 -0.6688  1.1726
 1687SOL     OW16693   1.257   0.156  15.107  0.7763 -0.0394 -0.0003
 1687SOL    HW116694   1.209   0.074  15.113 -0.6214  1.0287  3.1448
 1687SOL    HW216695   1.321   0.137  15.038  2.2183 -0.8786  1.5750
 1688SOL     OW16696   2.385   1.029   2.155  0.2304  0.8996  0.3565
 1688SOL    HW116697   2.479   1.009   2.153 -0.0602 -0.3285 -1.7105
 1688SOL    HW216698   2.369   1.026   2.249 -0.8602 -1.2373  0.0880
 1689SOL     OW16699   1.625   1.598  13.534  0.2028 -0.4585 -0.0920
 1689SOL    HW116700   1.581   1.684  13.530 -0.6589 -0.8737  0.4484
 1689SOL    HW216701   1.572   1.540  13.480 -1.4164 -0.4949  1.5296
 1690SOL     OW16702   3.283   3.092  10.090  0.9495  0.1314  0.3084
 1690SOL    HW116703   3.351   3.135  10.142 -0.3483 -1.4623  3.3489
 1690SOL    HW216704   3.239   3.033  10.152  0.1321 -0.7212 -1.0869
 1691SOL     OW16705   1.365   0.178   4.682  0.1237 -0.1655 -0.3774
 1691SOL    HW116706   1.361   0.225   4.599 -0.1019  0.5878  0.0607
 1691SOL    HW216707   1.277   0.147   4.704  0.1829  0.2405  0.4565
 1692SOL     OW16708   3.056   0.438   7.342  0.3595  0.1445  0.7359
 1692SOL    HW116709   3.039   0.512   7.400  0.2312  0.5813  0.1419
 1692SOL    HW216710   3.131   0.466   7.288 -0.4334  0.2262 -0.3281
 1693SOL     OW16711   3.519   3.637   8.155 -0.0925  0.5208  0.1808
 1693SOL    HW116712   3.574   3.561   8.176  0.6425  1.0875  0.2891
 1693SOL    HW216713   3.562   3.688   8.223  0.2691  0.6492 -0.1451
 1694SOL     OW16714   2.023   3.714  12.490 -0.0965 -0.3197 -0.3075
 1694SOL    HW116715   2.111   3.680  12.506 -0.7723 -0.6076  2.8391
 1694SOL    HW216716   1.995   3.769  12.564  0.4751 -1.4769  0.7618
 1695SOL     OW16717   4.557   4.188  17.337  0.1941  0.4038  0.3857
 1695SOL    HW116718   4.480   4.233  17.303  0.1447  0.2181  0.2472
 1695SOL    HW216719   4.596   4.147  17.260  0.4963 -2.5974  2.0893
 1696SOL     OW16720   3.860   2.158   9.475 -0.3302  0.0032  0.0009
 1696SOL    HW116721   3.832   2.249   9.486  1.2286  0.5116 -0.3318
 1696SOL    HW216722   3.875   2.126   9.564 -1.6659 -2.0809 -0.5314
 1697SOL     OW16723   3.452   3.804  15.537 -0.9461 -0.7717  0.0172
 1697SOL    HW116724   3.459   3.895  15.565  2.4982 -1.0256 -0.0831
 1697SOL    HW216725   3.428   3.825  15.447 -0.7947  1.5432  0.5190
 1698SOL     OW16726   3.742   2.354   0.204  0.1743 -0.2117 -0.5286
 1698SOL    HW116727   3.657   2.372   0.164  0.5293  3.8528  0.5074
 1698SOL    HW216728   3.799   2.353   0.127  1.8736 -3.1427  0.7475
 1699SOL     OW16729   2.106   4.153   4.665  0.0977  0.4931 -0.0232
 1699SOL    HW116730   2.129   4.134   4.574  0.1925  0.1726  0.0686
 1699SOL    HW216731   2.117   4.062   4.693  1.1094  0.8101  0.5979
 1700SOL     OW16732   0.006   4.322  12.199  0.2847 -0.0036  0.0396
 1700SOL    HW116733   0.101   4.312  12.189  0.3036  0.5140 -0.2989
 1700SOL    HW216734   4.710   4.234  12.186  0.7850 -0.3891  1.2169
 1701SOL     OW16735   1.061   4.540   5.260 -0.2739 -0.1624 -0.0841
 1701SOL    HW116736   1.156   4.551   5.263 -0.3506 -0.0532  1.9328
 1701SOL    HW216737   1.048   4.581   5.174  0.6990  0.6130  0.1388
 1702SOL     OW16738   3.220   3.421   2.330 -0.0814  0.4834  0.6062
 1702SOL    HW116739   3.209   3.365   2.253  0.4632  0.0162  0.8738
 1702SOL    HW216740   3.302   3.465   2.306  0.3471  0.5051  2.1643
 1703SOL     OW16741   0.255   3.909   9.546 -0.2120  0.4311  0.5024
 1703SOL    HW116742   0.249   3.828   9.596 -1.7819  0.2249 -0.0216
 1703SOL    HW216743   0.344   3.931   9.574  0.1803  0.4354 -0.7497
 1704SOL     OW16744   2.463   3.176  10.924 -0.3038  0.2896 -0.0502
 1704SOL    HW116745   2.434   3.215  11.007  1.9458  0.8764  0.4567
 1704SOL    HW216746   2.441   3.087  10.950  0.4930 -0.2742 -1.3130
 1705SOL     OW16747   1.402   4.163   8.847  0.2978 -0.0758 -0.0834
 1705SOL    HW116748   1.326   4.214   8.877 -1.3159 -1.5071 -1.7249
 1705SOL    HW216749   1.380   4.154   8.754  1.5051  1.4546 -0.5183
 1706SOL     OW16750   1.301   2.687  14.949  0.2779  0.2775 -0.3918
 1706SOL    HW116751   1.354   2.637  14.887 -0.7084  0.4718 -1.3890
 1706SOL    HW216752   1.251   2.738  14.886  1.3300  2.5232  0.6065
 1707SOL     OW16753   0.490   2.188   8.132  0.1095 -0.2049  0.0208
 1707SOL    HW116754   0.446   2.106   8.110  0.7247 -0.7699  0.9137
 1707SOL    HW216755   0.507   2.170   8.224  0.4981  0.3965  0.0674
 1708SOL     OW16756   4.523   2.818   6.027  0.2352 -0.1715 -0.3484
 1708SOL    HW116757   4.483   2.904   6.017 -0.3931 -0.2787  1.3201
 1708SOL    HW216758   4.450   2.770   6.066  0.7530 -2.2402 -1.9289
 1709SOL     OW16759   2.938   0.111   2.964 -0.0868  0.2319  0.1937
 1709SOL    HW116760   3.030   0.099   2.938  0.1982  0.6237  1.0169
 1709SOL    HW216761   2.927   0.203   2.939 -3.4355 -0.2807 -0.1586
 1710SOL     OW16762   3.477   0.800   3.594 -0.1307 -0.2378  0.5706
 1710SOL    HW116763   3.553   0.800   3.537 -0.9046  0.3362 -0.4563
 1710SOL    HW216764   3.485   0.729   3.658  1.5628  0.0780  0.7028
 1711SOL     OW16765   2.626   3.582   6.126  0.1208 -0.2114  0.0515
 1711SOL    HW116766   2.687   3.510   6.145  0.8141  0.4773  0.4376
 1711SOL    HW216767   2.546   3.533   6.146  0.5354 -1.5829 -1.5989
 1712SOL     OW16768   3.645   3.165  15.385  0.3706 -0.1930  0.7190
 1712SOL    HW116769   3.740   3.179  15.390  0.8227 -2.4300 -1.3241
 1712SOL    HW216770   3.603   3.217  15.454 -0.7960 -0.8159  0.4786
 1713SOL     OW16771   3.626   2.080   7.602  0.2294  0.2827 -0.5679
 1713SOL    HW116772   3.694   2.147   7.608  0.4416  0.0230 -0.0715
 1713SOL    HW216773   3.678   2.006   7.633 -0.7543 -0.2139 -0.0718
 1714SOL     OW16774   1.035   1.621   2.862  0.0250 -0.4939  0.3148
 1714SOL    HW116775   1.051   1.712   2.839 -0.4189 -0.2176  1.1181
 1714SOL    HW216776   1.069   1.584   2.781  0.6335  0.7482  0.0111
 1715SOL     OW16777   1.922   1.638   9.047  0.3186 -0.3566  0.2814
 1715SOL    HW116778   1.885   1.717   9.006 -0.0738 -1.5997 -1.7555
 1715SOL    HW216779   2.001   1.679   9.083 -1.0155  0.5822  2.1524
 1716SOL     OW16780   4.117   3.687   7.474  0.2602 -0.1960 -0.1473
 1716SOL    HW116781   4.050   3.745   7.510  0.8113  0.8169 -0.7591
 1716SOL    HW216782   4.075   3.602   7.482 -2.6159  1.1711 -1.0143
 1717SOL     OW16783   1.712   4.625  12.778 -0.0130 -0.2474 -0.1155
 1717SOL    HW116784   1.757   4.542  12.764 -2.4660 -1.4291 -1.0393
 1717SOL    HW216785   1.685   4.617  12.870 -1.1365  0.5191 -0.3806
 1718SOL     OW16786   3.641   3.580   3.640  0.1330  0.5868  0.0820
 1718SOL    HW116787   3.576   3.512   3.624  2.1019 -1.4268  0.6579
 1718SOL    HW216788   3.720   3.525   3.638 -0.0378  0.3701 -0.5576
 1719SOL     OW16789   0.329   4.335   6.490  0.1407  0.1493  0.3356
 1719SOL    HW116790   0.332   4.253   6.539  0.5666  1.2879  2.2303
 1719SOL    HW216791   0.357   4.298   6.406 -0.2988 -2.2020  1.2314
 1720SOL     OW16792   3.493   4.226   1.848 -0.1332 -0.3666 -0.3900
 1720SOL    HW116793   3.526   4.247   1.935 -0.3118 -1.9463  0.0516
 1720SOL    HW216794   3.561   4.275   1.800  0.0538  0.9893  1.2725
 1721SOL     OW16795   0.233   4.544   5.168 -0.1698  0.2053 -0.1673
 1721SOL    HW116796   0.196   4.508   5.248  2.1709 -1.5324  0.1443
 1721SOL    HW216797   0.322   4.572   5.191 -1.0975  0.6467  2.7951
 1722SOL     OW16798   0.829   4.582   3.694  0.6319  0.2080 -0.2765
 1722SOL    HW116799   0.859   4.587   3.603 -1.3105  2.7554 -0.7784
 1722SOL    HW216800   0.749   4.634   3.685  1.2397  1.3534  0.9458
 1723SOL     OW16801   3.756   0.399   1.589 -0.0171  0.6571 -0.2381
 1723SOL    HW116802   3.732   0.469   1.529  0.1296  0.4999 -0.4790
 1723SOL    HW216803   3.795   0.333   1.533  0.1609  0.8825 -0.3817
 1724SOL     OW16804   4.018   0.365   0.497 -0.8490  0.7566  0.0048
 1724SOL    HW116805   4.029   0.460   0.489  0.3650  0.7222  1.4697
 1724SOL    HW216806   3.923   0.378   0.490 -1.2729 -1.4709  2.0184
 1725SOL     OW16807   4.633   1.214   6.279  0.2164 -0.2788  0.7038
 1725SOL    HW116808   4.696   1.175   6.218 -0.3339  1.5011 -1.0188
 1725SOL    HW216809   4.590   1.137   6.316 -0.2513  1.0657  2.9401
 1726SOL     OW16810   4.500   2.566   6.223 -0.0902  0.5212  0.0987
 1726SOL    HW116811   4.555   2.523   6.157  0.5336  0.4914  0.6343
 1726SOL    HW216812   4.416   2.538   6.186  0.6897 -0.4849 -0.9179
 1727SOL     OW16813   1.713   4.604   6.220 -0.2401  0.7128  0.3531
 1727SOL    HW116814   1.787   4.545   6.228 -0.8405 -0.2136 -0.8384
 1727SOL    HW216815   1.740   4.645   6.138 -1.0874  1.9134  0.6693
 1728SOL     OW16816   1.006   2.610   8.703  0.1957 -0.2336  0.2642
 1728SOL    HW116817   1.074   2.667   8.740 -1.2140  0.6264  1.5162
 1728SOL    HW216818   0.990   2.660   8.623 -0.2199  1.0187  1.1289
 1729SOL     OW16819   0.603   0.160   9.564 -0.1538  0.2123 -0.5902
 1729SOL    HW116820   0.576   0.077   9.604 -1.5316  0.6845 -0.5598
 1729SOL    HW216821   0.695   0.140   9.544 -0.0024  0.2351  0.0863
 1730SOL     OW16822   4.200   1.346   2.771  0.2640 -0.7944 -0.2628
 1730SOL    HW116823   4.200   1.442   2.770 -1.4107 -0.7988 -1.2157
 1730SOL    HW216824   4.143   1.315   2.701 -1.0967  2.0587 -0.4171
 1731SOL     OW16825   0.061   4.164  11.591 -0.2508  0.4415 -0.1734
 1731SOL    HW116826   0.066   4.081  11.544  1.0778  1.0148 -1.0364
 1731SOL    HW216827   0.134   4.142  11.649 -1.0435 -0.7903  0.3630
 1732SOL     OW16828   0.189   0.575   6.937  0.0335 -0.1406 -0.2479
 1732SOL    HW116829   0.166   0.614   7.021  0.8756  1.1250 -0.6141
 1732SOL    HW216830   0.106   0.584   6.890  0.1650  1.8712 -0.0793
 1733SOL     OW16831   0.030   2.653   6.299 -0.4122 -0.7504 -1.1179
 1733SOL    HW116832   4.684   2.634   6.262 -1.7604 -0.7870  1.9719
 1733SOL    HW216833   0.028   2.633   6.393  1.9114 -4.0174 -1.7583
 1734SOL     OW16834   2.883   1.457   5.657 -0.2517 -0.1982 -0.3798
 1734SOL    HW116835   2.845   1.520   5.718 -0.1014 -0.2078 -0.2760
 1734SOL    HW216836   2.851   1.374   5.692  2.1291 -1.1566 -0.5204
 1735SOL     OW16837   0.315   0.767   3.138  0.2434  0.3828 -0.3089
 1735SOL    HW116838   0.394   0.752   3.087  0.1918 -0.7327 -0.0824
 1735SOL    HW216839   0.252   0.705   3.101  3.2657 -1.8687 -1.6746
 1736SOL     OW16840   1.487   3.068   3.455 -0.3126  0.3134 -0.3065
 1736SOL    HW116841   1.502   3.079   3.549 -1.0616  3.0169 -0.4986
 1736SOL    HW216842   1.579   3.049   3.435 -0.3761 -1.2667  0.8979
 1737SOL     OW16843   2.091   2.611   3.412  0.0540  0.3746  0.0768
 1737SOL    HW116844   2.039   2.616   3.332 -0.4255  0.6556  0.3978
 1737SOL    HW216845   2.028   2.584   3.479  1.6203 -0.4756  1.1961
 1738SOL     OW16846   1.185   3.326   6.110 -0.0415 -0.6122 -0.1641
 1738SOL    HW116847   1.172   3.416   6.140  0.2089 -0.0911 -1.6275
 1738SOL    HW216848   1.217   3.289   6.193 -3.0849 -0.7751  0.9323
 1739SOL     OW16849   2.849   0.619   8.219  0.2243 -0.4491 -0.8223
 1739SOL    HW116850   2.931   0.575   8.244  1.9362  0.9940 -3.8811
 1739SOL    HW216851   2.816   0.637   8.307  3.3775 -1.4797  0.5953
 1740SOL     OW16852   0.614   3.809  16.971  0.4664  0.3241 -0.1970
 1740SOL    HW116853   0.648   3.897  16.986  2.3786 -0.4528 -0.0218
 1740SOL    HW216854   0.591   3.784  17.061 -3.0429 -1.6601 -1.6307
 1741SOL     OW16855   0.670   1.000   5.243  0.6758 -0.1969  0.3049
 1741SOL    HW116856   0.757   0.961   5.241  0.3747 -0.6739 -3.1055
 1741SOL    HW216857   0.622   0.918   5.248 -0.6337  0.6034  0.7458
 1742SOL     OW16858   3.979   1.687   3.302 -0.3558 -0.1775 -0.1072
 1742SOL    HW116859   3.907   1.630   3.273 -0.7347  0.2137  0.0588
 1742SOL    HW216860   4.058   1.644   3.269 -0.7761 -0.4087 -0.8270
 1743SOL     OW16861   3.546   3.401   6.964  0.4729 -0.6902  0.4851
 1743SOL    HW116862   3.460   3.433   6.938  0.8847 -0.9116 -1.1581
 1743SOL    HW216863   3.593   3.484   6.976 -2.4085  1.2837 -1.9618
 1744SOL     OW16864   4.443   2.542   8.560 -0.2672  0.0612 -0.0342
 1744SOL    HW116865   4.503   2.516   8.491  1.3024  3.6478 -0.0318
 1744SOL    HW216866   4.467   2.630   8.589 -1.4093  0.4171 -0.1913
 1745SOL     OW16867   1.591   3.231   8.335  0.0884  0.0012 -0.6341
 1745SOL    HW116868   1.576   3.325   8.340 -0.7484 -0.1220 -0.9116
 1745SOL    HW216869   1.656   3.221   8.405 -0.2744 -0.4042 -0.3585
 1746SOL     OW16870   1.569   4.209   5.829 -0.1735  0.3570  0.1872
 1746SOL    HW116871   1.620   4.244   5.757 -0.8583 -0.5096 -0.7063
 1746SOL    HW216872   1.581   4.276   5.897 -0.8078 -0.0967  0.7524
 1747SOL     OW16873   2.569   4.438   3.617 -0.1461  0.1813  0.1692
 1747SOL    HW116874   2.654   4.435   3.572 -0.5081 -1.8173 -0.3455
 1747SOL    HW216875   2.563   4.355   3.663  0.3227 -0.3081 -0.6418
 1748SOL     OW16876   0.559   2.275   6.517  0.6105 -0.2069 -0.3399
 1748SOL    HW116877   0.490   2.246   6.577 -0.3427 -2.1090 -2.3282
 1748SOL    HW216878   0.521   2.348   6.469  0.4207 -0.3800 -0.4544
 1749SOL     OW16879   3.426   0.538   4.256 -0.1286  0.3749  0.3296
 1749SOL    HW116880   3.487   0.533   4.183  1.6767 -0.9206  1.8963
 1749SOL    HW216881   3.475   0.596   4.316  1.2552  0.1044 -0.5306
 1750SOL     OW16882   2.798   2.720   9.266 -0.0912  0.2172 -0.5570
 1750SOL    HW116883   2.799   2.664   9.343  2.6410  3.0263  1.4569
 1750SOL    HW216884   2.820   2.653   9.200  0.2746 -0.2896  0.0811
 1751SOL     OW16885   0.684   1.293   3.719  0.7659  0.1476 -0.7944
 1751SOL    HW116886   0.607   1.334   3.759  1.0158 -0.8799  0.6873
 1751SOL    HW216887   0.729   1.255   3.794  0.6027 -0.9215 -1.2385
 1752SOL     OW16888   2.171   4.661  16.289 -0.8572  0.1008 -0.4001
 1752SOL    HW116889   2.159   4.692  16.199  0.2919 -1.3886 -1.0635
 1752SOL    HW216890   2.080   4.649  16.320 -0.1369 -0.6240  1.4662
 1753SOL     OW16891   2.985   4.612   4.191  0.1029 -0.0243  0.2711
 1753SOL    HW116892   3.041   4.579   4.121  0.1171 -0.4291  0.4697
 1753SOL    HW216893   2.991   4.707   4.185 -1.2289  0.1777  2.1205
 1754SOL     OW16894   3.248   1.418   3.326  0.0014  0.3496  0.0068
 1754SOL    HW116895   3.276   1.364   3.400  0.9267 -0.3415 -0.8447
 1754SOL    HW216896   3.258   1.510   3.351  1.3172  0.1906  0.1033
 1755SOL     OW16897   1.408   3.975  11.354  0.0544 -0.1386  0.3830
 1755SOL    HW116898   1.404   4.051  11.412  2.4638 -2.3032  3.4031
 1755SOL    HW216899   1.502   3.972  11.337 -0.1522  4.7218 -1.5232
 1756SOL     OW16900   3.397   4.296   4.580  0.1222  0.2042 -0.1048
 1756SOL    HW116901   3.321   4.238   4.570  1.2804 -0.9718 -2.0692
 1756SOL    HW216902   3.349   4.379   4.578  0.2868  0.3178  0.8270
 1757SOL     OW16903   2.738   0.470  10.631  0.0833  0.0292  0.0301
 1757SOL    HW116904   2.698   0.452  10.546  1.0430 -0.5217 -0.3064
 1757SOL    HW216905   2.726   0.388  10.679 -1.5296  0.7818  0.9090
 1758SOL     OW16906   3.552   0.040   6.182 -0.3071  0.0086  0.0853
 1758SOL    HW116907   3.549   0.044   6.278  0.3390  1.0657  0.0509
 1758SOL    HW216908   3.632   4.727   6.181  0.2500  0.8819 -0.3850
 1759SOL     OW16909   3.957   3.652   1.111 -0.0548 -0.4704  0.5018
 1759SOL    HW116910   4.030   3.713   1.123 -0.6132  0.5451 -1.2202
 1759SOL    HW216911   3.994   3.592   1.047  1.9551  2.0896 -0.7476
 1760SOL     OW16912   1.314   2.564   8.152  0.1188  0.3087  0.5262
 1760SOL    HW116913   1.351   2.619   8.083 -1.0384  0.4116 -0.0210
 1760SOL    HW216914   1.373   2.489   8.152  1.8025  1.6684  2.8816
 1761SOL     OW16915   2.946   0.437  16.280  0.0043  0.3817  0.1048
 1761SOL    HW116916   2.884   0.467  16.348  0.7174  0.9436  0.5103
 1761SOL    HW216917   2.971   0.354  16.320 -2.8064 -0.3743  0.3039
 1762SOL     OW16918   3.894   0.685  16.852  0.1133 -0.0107 -0.4513
 1762SOL    HW116919   3.928   0.768  16.819  1.0416 -0.6612 -1.1419
 1762SOL    HW216920   3.873   0.638  16.771 -3.8734  1.0116  0.0028
 1763SOL     OW16921   0.388   3.745   6.279  0.1497 -0.3325  0.1464
 1763SOL    HW116922   0.438   3.799   6.218  0.1365  1.4464  1.6752
 1763SOL    HW216923   0.447   3.723   6.351  0.2657 -1.5306 -0.3247
 1764SOL     OW16924   1.273   3.308  14.391  0.3056  0.1040 -0.6352
 1764SOL    HW116925   1.213   3.292  14.463  1.5228 -0.2550  0.3076
 1764SOL    HW216926   1.315   3.389  14.422 -0.8571  1.2193 -1.9621
 1765SOL     OW16927   4.093   1.781   1.987 -0.2955 -0.0017 -0.1875
 1765SOL    HW116928   4.016   1.838   1.980 -0.1546  0.1892 -0.1947
 1765SOL    HW216929   4.161   1.835   1.945  2.4120 -3.3746 -0.1358
 1766SOL     OW16930   3.334   1.113   8.385  0.4325  0.7475  0.2799
 1766SOL    HW116931   3.254   1.159   8.411 -0.1001 -0.0513  0.0308
 1766SOL    HW216932   3.295   1.059   8.317 -0.3006  0.6721  0.7612
 1767SOL     OW16933   0.133   4.569  13.248  0.7819  0.3122 -0.4002
 1767SOL    HW116934   0.211   4.612  13.284 -0.7639  0.9372  2.1630
 1767SOL    HW216935   0.169   4.536  13.165  1.2870  0.4796 -0.2515
 1768SOL     OW16936   4.718   4.478   0.496 -0.0442  0.9018 -0.3932
 1768SOL    HW116937   0.052   4.522   0.454  0.3513  1.0016  0.4124
 1768SOL    HW216938   0.011   4.441   0.578 -2.5183  1.3577  0.8137
 1769SOL     OW16939   3.596   4.168   5.155 -0.0917 -0.4310  0.6291
 1769SOL    HW116940   3.681   4.162   5.112 -0.1495 -1.3670  0.6609
 1769SOL    HW216941   3.607   4.136   5.244 -0.1071  2.9982  1.8973
 1770SOL     OW16942   0.745   2.942   7.208 -0.0934 -0.2883  0.3154
 1770SOL    HW116943   0.794   2.879   7.261 -0.7982 -2.2628 -1.3884
 1770SOL    HW216944   0.651   2.932   7.227 -0.0502  1.3725  1.4210
 1771SOL     OW16945   1.491   1.552   6.947  0.3671 -0.0395 -0.2872
 1771SOL    HW116946   1.476   1.641   6.977  1.1755 -0.2483  0.7427
 1771SOL    HW216947   1.501   1.492   7.021  1.6483  1.1170  0.4653
 1772SOL     OW16948   4.379   0.289   2.112  0.6839 -0.7397  0.2174
 1772SOL    HW116949   4.297   0.301   2.158  0.1733  0.6492 -1.0475
 1772SOL    HW216950   4.351   0.319   2.026  0.0501  1.0457  1.0580
 1773SOL     OW16951   3.420   2.787   3.727 -0.4726 -0.6172 -0.0676
 1773SOL    HW116952   3.438   2.827   3.642 -0.6966 -1.9759 -0.7596
 1773SOL    HW216953   3.419   2.698   3.690  0.6845 -0.5555 -0.2266
 1774SOL     OW16954   0.164   1.820   9.528 -0.9658  0.4836  0.0892
 1774SOL    HW116955   0.178   1.728   9.507  1.5986  1.6671 -3.4537
 1774SOL    HW216956   0.251   1.845   9.558 -0.9825  1.2663 -0.4899
 1775SOL     OW16957   3.755   2.505   6.627  0.2268  0.1894 -0.2549
 1775SOL    HW116958   3.682   2.505   6.565 -0.9603 -1.3244  1.1371
 1775SOL    HW216959   3.729   2.428   6.678  2.7141  0.2032  1.0146
 1776SOL     OW16960   0.443   3.026   5.146  0.4226  0.3131 -0.2601
 1776SOL    HW116961   0.395   2.943   5.148  0.0338  0.4919 -2.5471
 1776SOL    HW216962   0.522   3.013   5.094  0.4476  0.3845 -0.2404
 1777SOL     OW16963   0.963   0.768  13.290 -0.1843 -0.0977 -0.2307
 1777SOL    HW116964   1.017   0.743  13.216 -0.1859 -2.1092  0.4664
 1777SOL    HW216965   0.883   0.720  13.267  0.2987 -1.7392  1.5921
 1778SOL     OW16966   0.899   0.108   2.708  0.2240  0.2058 -0.0934
 1778SOL    HW116967   0.859   0.161   2.639 -0.9239 -1.3620 -0.6553
 1778SOL    HW216968   0.830   0.107   2.775 -0.1178  0.4082 -0.4463
 1779SOL     OW16969   0.739   3.073  12.626 -0.0327  0.1138  0.1878
 1779SOL    HW116970   0.830   3.044  12.622 -0.0237  0.2514 -0.5119
 1779SOL    HW216971   0.716   3.088  12.535 -0.7244  0.1855  0.3725
 1780SOL     OW16972   3.330   1.241   5.675 -0.7196  0.5458  0.6242
 1780SOL    HW116973   3.262   1.244   5.608  0.0432  0.8345 -0.1358
 1780SOL    HW216974   3.403   1.264   5.617 -1.8452 -0.3528 -1.1583
 1781SOL     OW16975   3.035   2.371   1.482  0.1890  0.2086  0.6324
 1781SOL    HW116976   3.079   2.297   1.441 -1.6327  0.1587 -1.2398
 1781SOL    HW216977   3.025   2.331   1.568 -1.3475  1.3379  0.9899
 1782SOL     OW16978   1.016   4.699   5.772 -0.0650  0.5033  0.1084
 1782SOL    HW116979   1.043   0.049   5.793  0.3553  0.6902 -1.2071
 1782SOL    HW216980   1.086   4.655   5.818  0.5873  2.1946  0.7233
 1783SOL     OW16981   3.342   3.427   7.599  0.2420 -0.6262 -0.3100
 1783SOL    HW116982   3.254   3.464   7.605  0.6587  0.6275 -2.1170
 1783SOL    HW216983   3.372   3.438   7.689  0.2536 -1.4146 -0.2138
 1784SOL     OW16984   2.351   2.033   6.176  0.3099 -0.2197 -0.3911
 1784SOL    HW116985   2.263   2.070   6.166  0.5227  0.4411  0.1463
 1784SOL    HW216986   2.343   2.000   6.266 -1.3522 -2.5302 -1.3827
 1785SOL     OW16987   2.051   3.513   2.160  0.0351  0.5028 -0.5599
 1785SOL    HW116988   2.013   3.599   2.174  1.9295  1.3793 -0.8353
 1785SOL    HW216989   2.119   3.512   2.228 -0.3949 -2.6153 -0.1524
 1786SOL     OW16990   4.443   1.049   9.198 -0.1108 -0.3985 -0.3797
 1786SOL    HW116991   4.434   1.144   9.206  2.4702 -0.2629  0.8671
 1786SOL    HW216992   4.462   1.038   9.105 -3.5150 -1.1319 -0.9889
 1787SOL     OW16993   0.645   3.514   6.808 -0.3456 -0.0791 -0.7791
 1787SOL    HW116994   0.728   3.485   6.847 -0.8936 -1.0907 -0.3812
 1787SOL    HW216995   0.630   3.601   6.846 -1.6077 -1.3073  1.4925
 1788SOL     OW16996   4.285   4.371   2.732 -0.0032 -0.3041  0.1433
 1788SOL    HW116997   4.221   4.403   2.668 -2.0552 -1.9820  1.3608
 1788SOL    HW216998   4.334   4.448   2.761  0.9877 -0.3770 -1.3537
 1789SOL     OW16999   4.452   1.243   4.929  0.5271 -0.6895 -0.3420
 1789SOL    HW117000   4.456   1.315   4.993  1.3674  0.5164 -1.7619
 1789SOL    HW217001   4.420   1.297   4.857 -2.4220 -2.4846 -0.3986
 1790SOL     OW17002   0.557   2.047  12.394 -0.5687 -0.3458 -0.2102
 1790SOL    HW117003   0.624   2.114  12.403 -1.1869  0.0483  1.5098
 1790SOL    HW217004   0.518   2.089  12.317  0.8746  1.7712  0.2232
 1791SOL     OW17005   0.591   1.176   9.569 -0.3586 -0.4039 -0.5036
 1791SOL    HW117006   0.565   1.085   9.556 -1.7990  0.0374 -0.7126
 1791SOL    HW217007   0.685   1.185   9.557  0.0372 -1.0271  2.0799
 1792SOL     OW17008   2.442   2.892  11.816  0.9547  0.6906  0.1572
 1792SOL    HW117009   2.454   2.818  11.756  1.8120 -1.4403  2.9728
 1792SOL    HW217010   2.361   2.931  11.782 -0.6459 -0.5665  2.5025
 1793SOL     OW17011   3.562   1.410   8.988 -0.3214 -0.7324 -0.1375
 1793SOL    HW117012   3.620   1.387   9.060 -2.6560 -1.4680  1.5238
 1793SOL    HW217013   3.620   1.399   8.913  0.1768  2.0438 -0.1477
 1794SOL     OW17014   2.559   1.126   7.751  0.5973 -0.1345  0.1229
 1794SOL    HW117015   2.598   1.058   7.807 -1.7945  0.0570  1.9723
 1794SOL    HW217016   2.632   1.188   7.751  3.5775 -3.6122 -1.9434
 1795SOL     OW17017   0.751   0.820   7.373 -0.1074  0.4394  0.0148
 1795SOL    HW117018   0.839   0.791   7.399  0.0925  0.3093 -0.7901
 1795SOL    HW217019   0.701   0.825   7.454 -0.7057 -0.3305 -0.3013
 1796SOL     OW17020   0.046   4.385   2.385 -0.2625  0.3369 -0.0930
 1796SOL    HW117021   0.092   4.468   2.375 -1.6120  1.3197  1.6517
 1796SOL    HW217022   4.724   4.395   2.312  0.4182  2.6216 -0.3665
 1797SOL     OW17023   1.733   2.865  15.240  0.0966  0.4265 -0.5931
 1797SOL    HW117024   1.812   2.823  15.207  0.8012  0.6482  0.8154
 1797SOL    HW217025   1.671   2.808  15.195 -1.0787 -0.1808  1.7875
 1798SOL     OW17026   4.333   2.441   3.843  0.2002  0.1508  0.0314
 1798SOL    HW117027   4.302   2.517   3.793 -0.3199 -1.4317 -2.0423
 1798SOL    HW217028   4.293   2.462   3.928  0.3580  0.2477  0.0824
 1799SOL     OW17029   3.601   0.072  10.355 -0.0191 -0.1734 -0.3941
 1799SOL    HW117030   3.668   0.004  10.345  1.0977  0.8236  0.2460
 1799SOL    HW217031   3.577   0.096  10.266  0.2213  0.2715 -0.3396
 1800SOL     OW17032   2.775   1.135  17.691  0.1018  0.0737  0.2356
 1800SOL    HW117033   2.749   1.050  17.654 -0.9852  0.3442  0.3665
 1800SOL    HW217034   2.713   1.201  17.660  0.4201 -0.0013 -0.5458
 1801SOL     OW17035   0.539   4.218  14.790  0.2210  0.1934 -0.2089
 1801SOL    HW117036   0.567   4.308  14.809 -1.5033  0.8206 -0.5961
 1801SOL    HW217037   0.480   4.226  14.715 -1.9204 -0.8696  1.3513
 1802SOL     OW17038   0.165   3.278   8.999 -0.4509  0.0756  0.5799
 1802SOL    HW117039   0.105   3.218   9.043 -0.6020  0.4434  0.8737
 1802SOL    HW217040   0.230   3.311   9.061 -0.5501  0.8741  0.2699
 1803SOL     OW17041   4.697   2.784   1.578 -0.0822  0.2830 -0.2845
 1803SOL    HW117042   4.733   2.702   1.545 -0.0605  0.5329 -0.8905
 1803SOL    HW217043   4.701   2.818   1.488 -0.4731  1.5583  0.1783
 1804SOL     OW17044   0.754   4.012   6.263  0.3017  0.0300  0.2664
 1804SOL    HW117045   0.664   3.980   6.250 -0.1018  1.5732 -0.7156
 1804SOL    HW217046   0.750   4.061   6.345 -1.4777  1.2178 -0.5430
 1805SOL     OW17047   4.664   3.364  12.862  0.4012  0.6946  0.1771
 1805SOL    HW117048   0.006   3.372  12.812  0.0433  1.0089 -0.3538
 1805SOL    HW217049   4.613   3.324  12.792 -0.3887 -1.4257  1.9706
 1806SOL     OW17050   4.514   3.583  12.936 -0.1167  0.7769  0.3398
 1806SOL    HW117051   4.539   3.561  13.025 -0.9153 -0.1375  0.3359
 1806SOL    HW217052   4.567   3.512  12.898 -0.5141  0.5238  0.2562
 1807SOL     OW17053   1.322   4.690  14.018  0.8585  0.1633 -0.3653
 1807SOL    HW117054   1.286   4.605  14.044  1.7632  0.2767  1.2325
 1807SOL    HW217055   1.283   0.003  14.088 -0.0820  0.7328 -1.3111
 1808SOL     OW17056   0.345   2.736  17.481  0.3195  0.1624 -0.2533
 1808SOL    HW117057   0.332   2.830  17.469 -0.8134  0.2099  1.3436
 1808SOL    HW217058   0.252   2.716  17.469 -0.0874 -0.1151  3.3621
 1809SOL     OW17059   1.258   4.549   1.678  0.3449  0.2860 -0.4911
 1809SOL    HW117060   1.273   4.643   1.667  2.5064 -0.2940 -2.3883
 1809SOL    HW217061   1.348   4.519   1.688  0.0594  0.6614  3.2224
 1810SOL     OW17062   2.775   0.397   4.218 -0.0485  0.6989 -0.1490
 1810SOL    HW117063   2.744   0.361   4.134  1.3188 -0.3051 -0.2173
 1810SOL    HW217064   2.696   0.446   4.240 -0.0517  1.3858 -1.6891
 1811SOL     OW17065   0.968   0.986   7.130  0.2662 -0.2020  0.6455
 1811SOL    HW117066   0.954   0.892   7.116  0.2267 -0.1577  0.3947
 1811SOL    HW217067   0.884   1.019   7.099  0.6868 -0.0322 -0.3063
 1812SOL     OW17068   0.287   1.969   6.847 -0.0535 -0.1161  0.5156
 1812SOL    HW117069   0.267   1.961   6.754 -2.5112  1.0556  0.9269
 1812SOL    HW217070   0.257   1.885   6.881  2.4358 -0.0706  2.8111
 1813SOL     OW17071   0.131   0.184   0.900  0.0911  0.0982  0.1871
 1813SOL    HW117072   0.205   0.245   0.892 -0.9470  1.4004  0.4574
 1813SOL    HW217073   0.144   0.147   0.987  2.1362 -1.1701 -0.6550
 1814SOL     OW17074   2.233   2.011   9.047  0.7898  0.5587 -0.6570
 1814SOL    HW117075   2.165   2.041   9.107  2.3372  0.3692  1.1645
 1814SOL    HW217076   2.283   1.941   9.090  0.6315  1.7442  1.4211
 1815SOL     OW17077   1.405   0.693  15.182  0.1391  0.5926  0.6062
 1815SOL    HW117078   1.394   0.602  15.155  2.0802  0.7626 -0.8173
 1815SOL    HW217079   1.497   0.718  15.171  0.7402 -1.1403  1.7419
 1816SOL     OW17080   2.328   2.424   8.101  0.2101 -0.0068  0.3526
 1816SOL    HW117081   2.379   2.419   8.182 -0.0218 -0.2363  0.4853
 1816SOL    HW217082   2.263   2.481   8.144 -0.7858 -2.3674  1.9956
 1817SOL     OW17083   3.897   0.260   3.484 -0.1359  0.5604  0.2172
 1817SOL    HW117084   3.936   0.183   3.442  2.2192  1.9512 -0.1381
 1817SOL    HW217085   3.941   0.335   3.444 -0.6574  0.7626  0.0171
 1818SOL     OW17086   2.144   1.700  16.133  0.0883 -0.2972 -0.0758
 1818SOL    HW117087   2.194   1.619  16.145  0.1646 -0.7118 -2.9983
 1818SOL    HW217088   2.144   1.739  16.220 -1.1586  2.8876 -1.5243
 1819SOL     OW17089   3.209   0.603  10.456  0.3769  0.0408 -0.0270
 1819SOL    HW117090   3.226   0.519  10.497  2.4362 -0.1310 -1.2203
 1819SOL    HW217091   3.116   0.606  10.479  0.6137 -2.5278  1.2138
 1820SOL     OW17092   2.573   2.951   0.896 -1.1195 -0.2683  0.6076
 1820SOL    HW117093   2.580   3.010   0.821  0.5526 -2.1214 -0.7031
 1820SOL    HW217094   2.477   2.949   0.898 -1.1586 -0.3123 -1.5102
 1821SOL     OW17095   2.312   2.523   3.546  0.2631  0.6188  0.2622
 1821SOL    HW117096   2.251   2.568   3.488 -1.0400 -4.0775 -2.0120
 1821SOL    HW217097   2.296   2.433   3.518 -0.5194  0.6232  0.7052
 1822SOL     OW17098   2.361   2.769  15.681  0.0951 -0.2657 -0.5439
 1822SOL    HW117099   2.339   2.776  15.774  1.1935  0.6305 -0.3444
 1822SOL    HW217100   2.314   2.842  15.640  2.3927  0.6980 -1.4488
 1823SOL     OW17101   4.102   0.797   6.653  0.1158 -0.5650 -0.0870
 1823SOL    HW117102   4.081   0.839   6.570  0.2983  1.9699  1.1580
 1823SOL    HW217103   4.014   0.765   6.676 -0.6291 -0.3865 -2.7262
 1824SOL     OW17104   1.666   0.839  12.746 -0.3494 -0.1008  0.2476
 1824SOL    HW117105   1.573   0.832  12.769 -1.1828  2.7550 -2.2547
 1824SOL    HW217106   1.674   0.900  12.673 -2.3580 -0.1781 -0.0341
 1825SOL     OW17107   1.372   2.276   6.439 -0.5479 -0.2750  0.5916
 1825SOL    HW117108   1.421   2.281   6.357  0.8179 -0.3951  1.4045
 1825SOL    HW217109   1.392   2.362   6.474  0.5919 -0.2577 -0.0914
 1826SOL     OW17110   1.897   4.409   8.418  0.2654 -0.4080  0.1118
 1826SOL    HW117111   1.925   4.379   8.505  1.1152  1.0720  0.3502
 1826SOL    HW217112   1.892   4.500   8.448  0.0970 -0.2701 -0.3378
 1827SOL     OW17113   3.210   2.073   5.110 -0.0915  0.3001  0.9173
 1827SOL    HW117114   3.276   2.138   5.135  1.3524 -0.8261  0.0169
 1827SOL    HW217115   3.176   2.111   5.030  0.3482 -0.1805  0.5047
 1828SOL     OW17116   2.183   1.661   8.120 -0.2528  0.5078 -0.1852
 1828SOL    HW117117   2.202   1.579   8.073  0.3595  0.2638  0.4974
 1828SOL    HW217118   2.144   1.706   8.045 -0.8650  1.9514  1.0020
 1829SOL     OW17119   0.399   4.007   1.934  0.1286 -0.0349  0.0124
 1829SOL    HW117120   0.474   4.064   1.952  0.7169 -0.7050 -0.3269
 1829SOL    HW217121   0.387   3.947   2.007  1.7081  0.4315  0.6517
 1830SOL     OW17122   1.042   0.702   4.326 -0.2794  0.3880  0.2899
 1830SOL    HW117123   1.017   0.764   4.395  0.9747  1.6424 -0.3804
 1830SOL    HW217124   1.010   0.754   4.253  1.5485 -0.6538 -1.2585
 1831SOL     OW17125   0.502   4.614   5.993  0.7623 -0.4026  0.5043
 1831SOL    HW117126   0.587   4.574   6.011  0.4617 -1.6293 -0.8493
 1831SOL    HW217127   0.448   4.590   6.069  0.0284 -1.7484 -0.4279
 1832SOL     OW17128   1.490   1.966   3.203  0.6971  0.2742  0.1262
 1832SOL    HW117129   1.506   1.872   3.205  0.4322  0.2180 -0.5093
 1832SOL    HW217130   1.445   1.978   3.120 -0.9575  3.8885  1.5294
 1833SOL     OW17131   2.859   0.959   6.194 -0.1651 -0.1697 -0.1308
 1833SOL    HW117132   2.915   1.009   6.135  1.2479 -0.5665  0.8941
 1833SOL    HW217133   2.833   0.885   6.139 -0.0655  0.1070 -0.5534
 1834SOL     OW17134   3.661   1.968   8.192 -0.4006 -0.2081  0.0261
 1834SOL    HW117135   3.578   2.006   8.220 -0.0552 -0.5159  1.4838
 1834SOL    HW217136   3.720   2.043   8.200  1.2535 -1.5881  0.9487
 1835SOL     OW17137   3.399   3.216   1.626  0.3423 -0.3299  0.4360
 1835SOL    HW117138   3.402   3.164   1.706  1.3851 -2.1533 -0.7843
 1835SOL    HW217139   3.360   3.153   1.565  0.9486  1.4566 -1.7838
 1836SOL     OW17140   3.358   0.800   4.654 -0.2508  0.2151  0.9490
 1836SOL    HW117141   3.267   0.770   4.659 -0.5565  1.0547  0.3146
 1836SOL    HW217142   3.399   0.728   4.703 -0.3234 -1.4101 -1.3549
 1837SOL     OW17143   1.023   0.150   4.817  0.2587 -0.1202  0.2487
 1837SOL    HW117144   1.075   0.228   4.798  0.7737 -0.8738 -1.4525
 1837SOL    HW217145   0.953   0.158   4.753  0.8685 -4.2390 -0.9479
 1838SOL     OW17146   3.190   0.772  16.374 -0.2736 -0.0574 -0.1100
 1838SOL    HW117147   3.133   0.741  16.304 -1.0462 -0.0794  0.5204
 1838SOL    HW217148   3.222   0.855  16.339  0.8306 -1.4270 -2.2957
 1839SOL     OW17149   4.314   1.932   6.051  0.0322 -0.5648  0.0211
 1839SOL    HW117150   4.222   1.942   6.027  0.1309  3.3158  1.2270
 1839SOL    HW217151   4.323   1.994   6.123  0.3185 -0.1369 -0.3860
 1840SOL     OW17152   0.409   2.171  12.201 -0.0617 -0.0216  1.1524
 1840SOL    HW117153   0.424   2.265  12.190  0.5805 -0.0640  1.7082
 1840SOL    HW217154   0.318   2.167  12.170  0.4533 -0.5725 -0.2983
 1841SOL     OW17155   0.448   0.908   8.148  0.1654  0.1495 -0.9286
 1841SOL    HW117156   0.355   0.926   8.132  0.0592 -1.4597 -2.1568
 1841SOL    HW217157   0.485   0.996   8.136 -1.3607  1.2034  2.0568
 1842SOL     OW17158   4.396   3.807   1.193 -0.2110 -0.0064 -0.3199
 1842SOL    HW117159   4.375   3.717   1.167 -0.0897 -0.5585  1.4774
 1842SOL    HW217160   4.465   3.838   1.134  0.8490 -2.5868 -0.4564
 1843SOL     OW17161   1.107   3.173   4.612 -0.4266 -0.1464  0.0543
 1843SOL    HW117162   1.158   3.203   4.687 -0.1791 -0.1180 -0.1264
 1843SOL    HW217163   1.014   3.179   4.637 -0.1331 -1.0351  1.3693
 1844SOL     OW17164   3.015   2.798  14.547 -1.1137  0.3141  0.1578
 1844SOL    HW117165   3.069   2.876  14.532 -0.9199  0.1872  0.1986
 1844SOL    HW217166   2.959   2.804  14.470 -2.3069  0.1124  0.9989
 1845SOL     OW17167   0.128   3.884   8.837 -0.2146  0.1926  0.5550
 1845SOL    HW117168   0.082   3.846   8.761  0.6356  1.2646 -0.5019
 1845SOL    HW217169   0.067   3.949   8.871 -1.0353  0.1319 -0.7809
 1846SOL     OW17170   1.725   1.992   2.081 -0.8133 -0.4925  0.4518
 1846SOL    HW117171   1.817   1.998   2.106 -1.0141 -2.5773  1.7121
 1846SOL    HW217172   1.698   2.078   2.050 -1.4400 -0.5569  0.8253
 1847SOL     OW17173   3.692   1.348   1.489  0.2094  0.0012 -0.0579
 1847SOL    HW117174   3.705   1.352   1.584 -3.2138 -0.7943  0.4434
 1847SOL    HW217175   3.598   1.361   1.481 -0.0152 -0.3147  1.9487
 1848SOL     OW17176   0.909   3.964   1.158  0.5842 -0.8131 -0.7648
 1848SOL    HW117177   0.894   4.014   1.078 -3.7007 -0.8681 -0.0018
 1848SOL    HW217178   0.828   3.915   1.169  0.5065 -0.5585 -0.1891
 1849SOL     OW17179   1.209   1.429   7.272  0.1652  0.6745 -0.3310
 1849SOL    HW117180   1.170   1.344   7.294  1.7388  0.3824  1.3434
 1849SOL    HW217181   1.133   1.462   7.224 -1.2845 -1.6281  0.3647
 1850SOL     OW17182   1.472   1.848   1.669  0.0059 -0.7030 -0.0131
 1850SOL    HW117183   1.420   1.897   1.606 -0.0253  0.1137  0.6514
 1850SOL    HW217184   1.427   1.873   1.750 -1.4518  0.2068 -1.0958
 1851SOL     OW17185   0.925   2.220   3.917 -0.8661  0.7342 -0.8677
 1851SOL    HW117186   1.010   2.250   3.885 -0.4740 -0.6080 -1.0591
 1851SOL    HW217187   0.890   2.168   3.845  3.8634 -0.5305 -2.2376
 1852SOL     OW17188   3.120   4.112   8.295 -0.4999 -0.0506  0.4438
 1852SOL    HW117189   3.044   4.150   8.339 -1.6364 -2.5520  0.6207
 1852SOL    HW217190   3.110   4.157   8.211  0.5334  5.4354  3.2264
 1853SOL     OW17191   3.369   4.639   3.717  0.3906 -0.2326  0.4940
 1853SOL    HW117192   3.378   4.722   3.671 -0.1683  0.1677  1.0986
 1853SOL    HW217193   3.440   4.634   3.782  1.1712 -0.1351 -0.3603
 1854SOL     OW17194   0.743   2.572   4.020  0.1197 -0.1744  0.2777
 1854SOL    HW117195   0.695   2.520   3.956  0.3333 -0.7054  0.5472
 1854SOL    HW217196   0.765   2.510   4.090  0.5680  0.3217  0.5727
 1855SOL     OW17197   3.785   3.241   6.170 -0.0647  0.4352 -0.2944
 1855SOL    HW117198   3.820   3.315   6.121  1.7355  0.3723  0.8842
 1855SOL    HW217199   3.719   3.272   6.231 -0.0127 -1.1537  0.5710
 1856SOL     OW17200   0.830   4.310  10.436  0.3777 -0.5480 -0.0333
 1856SOL    HW117201   0.749   4.357  10.416  1.2978  0.9133 -0.3666
 1856SOL    HW217202   0.803   4.219  10.449 -0.4992 -0.3072 -0.1293
 1857SOL     OW17203   4.733   1.056   3.359 -0.3890  0.1581 -0.1204
 1857SOL    HW117204   0.042   1.093   3.286  3.0627 -0.7951  1.6896
 1857SOL    HW217205   0.052   0.988   3.393  0.2218  0.8259  0.1487
 1858SOL     OW17206   0.166   3.442   3.406 -0.2393 -0.2625 -0.1062
 1858SOL    HW117207   0.152   3.517   3.348 -3.4923 -0.7133  0.1108
 1858SOL    HW217208   0.104   3.384   3.362 -2.2452  0.6293  1.5654
 1859SOL     OW17209   3.673   2.906   7.874 -0.7575 -0.5780 -0.1925
 1859SOL    HW117210   3.649   2.920   7.966  1.5089  0.0632  0.3089
 1859SOL    HW217211   3.588   2.897   7.831  0.5600 -3.7266 -2.0619
 1860SOL     OW17212   1.581   1.333   6.364 -0.0683  0.6082  0.4412
 1860SOL    HW117213   1.535   1.361   6.285 -0.5350  1.9297  1.1807
 1860SOL    HW217214   1.518   1.264   6.385  0.7277 -0.5787 -1.1547
 1861SOL     OW17215   4.088   0.750   3.024 -0.2229 -0.5475  0.1448
 1861SOL    HW117216   4.114   0.753   2.932  1.8937 -2.4884  0.6873
 1861SOL    HW217217   4.088   0.655   3.034  1.0002 -0.4395  1.1922
 1862SOL     OW17218   4.535   2.142  12.405  0.1667  0.3023  0.5831
 1862SOL    HW117219   4.494   2.132  12.320  0.5009 -0.6828  0.5314
 1862SOL    HW217220   4.596   2.215  12.391 -1.1482  0.8923 -2.0330
 1863SOL     OW17221   3.311   0.926   2.160 -0.4292 -0.0154  0.3741
 1863SOL    HW117222   3.352   0.946   2.076 -1.6624 -0.3236 -0.3035
 1863SOL    HW217223   3.263   0.845   2.146  0.9948 -0.8854  0.4882
 1864SOL     OW17224   3.156   2.116   8.691  0.1928 -1.3324  0.1739
 1864SOL    HW117225   3.080   2.174   8.685 -0.9841 -2.9755 -0.8079
 1864SOL    HW217226   3.185   2.121   8.782 -0.2277 -1.0709  0.2910
 1865SOL     OW17227   1.523   2.871   9.824  0.1701 -0.0933 -0.5208
 1865SOL    HW117228   1.541   2.964   9.811  0.8291 -0.2605 -0.8339
 1865SOL    HW217229   1.535   2.843   9.733  1.4390  1.4603 -0.8371
 1866SOL     OW17230   1.771   3.326  15.727  0.3405  0.6309 -0.7023
 1866SOL    HW117231   1.695   3.343  15.784  1.3699  0.3911  0.7477
 1866SOL    HW217232   1.838   3.343  15.793 -1.4958  0.8286  1.1346
 1867SOL     OW17233   0.492   1.124   5.440  0.2687 -0.2579  0.4876
 1867SOL    HW117234   0.542   1.081   5.509 -0.4261  1.1777  1.8761
 1867SOL    HW217235   0.550   1.110   5.365  0.5967  0.0498  0.6824
 1868SOL     OW17236   2.619   2.014  10.729  0.3877  0.0547 -0.2236
 1868SOL    HW117237   2.708   1.984  10.744  0.8272  0.7118 -1.6105
 1868SOL    HW217238   2.622   2.092  10.784 -1.5082 -0.1013  0.1272
 1869SOL     OW17239   4.147   1.797  13.571  0.7488 -0.4422  0.2405
 1869SOL    HW117240   4.130   1.806  13.665  1.6398  0.6510  0.3089
 1869SOL    HW217241   4.233   1.839  13.564 -1.2582  3.7799  0.6819
 1870SOL     OW17242   4.578   0.771   9.681 -0.2073  0.3489 -0.3057
 1870SOL    HW117243   4.665   0.740   9.656  0.1681  0.2131  1.1222
 1870SOL    HW217244   4.541   0.687   9.709 -1.3118  2.1492  3.6015
 1871SOL     OW17245   0.904   1.888  13.266 -0.3647  0.1233 -0.0415
 1871SOL    HW117246   0.876   1.818  13.207 -1.2006  0.5911 -0.1967
 1871SOL    HW217247   0.859   1.961  13.225 -0.4279 -0.0195 -0.2266
 1872SOL     OW17248   3.441   3.921   5.770 -0.0291  0.1108 -0.1896
 1872SOL    HW117249   3.414   3.937   5.679  1.8291  2.0997 -0.4010
 1872SOL    HW217250   3.537   3.921   5.769 -0.0138 -2.3337 -1.2307
 1873SOL     OW17251   3.948   4.037   5.392  0.0379 -0.2893  0.4070
 1873SOL    HW117252   3.962   4.114   5.338  0.6245 -0.3901  0.4131
 1873SOL    HW217253   4.027   4.042   5.446 -0.6277 -1.5784  1.5065
 1874SOL     OW17254   2.594   1.374   5.232 -0.0983 -0.2009 -0.2336
 1874SOL    HW117255   2.567   1.301   5.176  0.5556 -1.7458  1.4227
 1874SOL    HW217256   2.616   1.333   5.316  1.5473  0.6329 -0.2491
 1875SOL     OW17257   2.332   2.797   2.067  0.4141  0.4863 -0.2775
 1875SOL    HW117258   2.363   2.778   1.979  0.6841  0.6015 -0.2097
 1875SOL    HW217259   2.342   2.706   2.096  0.6276 -1.0952 -5.3115
 1876SOL     OW17260   1.582   1.978   8.354 -0.0185 -0.1512 -0.4718
 1876SOL    HW117261   1.598   1.888   8.327  1.5970 -0.2931  0.8854
 1876SOL    HW217262   1.651   1.977   8.421  0.1978  0.0518 -0.6878
 1877SOL     OW17263   1.982   1.764   8.341  0.1794  0.1523  0.1583
 1877SOL    HW117264   2.002   1.779   8.433  0.2267 -0.8498  0.3116
 1877SOL    HW217265   2.055   1.714   8.305  0.2780  0.3638  0.0707
 1878SOL     OW17266   0.980   3.732   1.790  0.6132  0.9065 -0.1170
 1878SOL    HW117267   0.927   3.811   1.786 -1.7382 -0.6916 -0.5577
 1878SOL    HW217268   1.055   3.757   1.736  0.4381  0.6999 -0.4620
 1879SOL     OW17269   2.936   2.443   4.270 -0.4774 -0.4559  0.1657
 1879SOL    HW117270   2.888   2.364   4.245 -1.4689 -0.3549  1.7455
 1879SOL    HW217271   2.877   2.504   4.225 -0.1756  0.0413  0.4382
 1880SOL     OW17272   0.437   0.504  14.611  0.4315  0.5120  0.1257
 1880SOL    HW117273   0.451   0.486  14.518 -0.0029 -0.5134  0.2640
 1880SOL    HW217274   0.347   0.535  14.618  0.1755 -0.1083 -0.4879
 1881SOL     OW17275   3.127   1.189  10.821  0.0099 -0.2191 -0.4834
 1881SOL    HW117276   3.070   1.133  10.873 -0.4345  0.6670 -0.0123
 1881SOL    HW217277   3.184   1.123  10.782  2.8868  1.5471  0.6580
 1882SOL     OW17278   4.160   3.305   4.077 -0.1907 -0.1819 -0.2926
 1882SOL    HW117279   4.170   3.212   4.096 -1.8854 -0.1520  0.7084
 1882SOL    HW217280   4.250   3.324   4.052 -0.7169  1.8135 -0.6485
 1883SOL     OW17281   0.706   1.248   8.763  0.0079 -0.9233 -0.2755
 1883SOL    HW117282   0.766   1.297   8.819  0.5353  0.4684 -2.0475
 1883SOL    HW217283   0.728   1.301   8.686  1.0496  0.5400  1.0257
 1884SOL     OW17284   3.883   4.730   3.301 -0.6052  0.8027 -0.2805
 1884SOL    HW117285   3.895   0.056   3.231 -0.3905  0.7521 -0.2930
 1884SOL    HW217286   3.791   4.711   3.317 -0.4018 -1.5808 -1.9821
 1885SOL     OW17287   1.034   3.443   7.477 -0.1277 -0.0444  0.0628
 1885SOL    HW117288   0.990   3.410   7.555  0.0073  0.4955  0.3616
 1885SOL    HW217289   1.040   3.364   7.423  2.7254 -0.1029  0.4649
 1886SOL     OW17290   1.682   1.427   9.303 -0.8166  0.8549 -0.2973
 1886SOL    HW117291   1.682   1.349   9.357 -2.0542  1.1610  0.1405
 1886SOL    HW217292   1.595   1.465   9.319 -0.9224  1.8215 -3.1287
 1887SOL     OW17293   4.540   1.584  14.904  0.1933 -0.2124 -0.1936
 1887SOL    HW117294   4.629   1.553  14.889  0.8148  1.0322  0.8675
 1887SOL    HW217295   4.516   1.547  14.989 -2.3528  1.0479 -0.3720
 1888SOL     OW17296   3.836   2.948  11.979  0.6189 -0.6018 -0.1299
 1888SOL    HW117297   3.849   2.966  12.072  1.6608  0.1463 -0.4262
 1888SOL    HW217298   3.862   2.855  11.982 -1.4627 -1.2734 -2.6491
 1889SOL     OW17299   0.364   0.882   7.715 -0.8517  0.2580  0.4209
 1889SOL    HW117300   0.305   0.957   7.726 -0.3918  0.6988 -0.1523
 1889SOL    HW217301   0.364   0.890   7.620 -0.9230 -0.2418  0.3788
 1890SOL     OW17302   0.692   1.758   0.080 -0.4241 -0.1918  0.2936
 1890SOL    HW117303   0.618   1.748   0.140 -2.8746  2.6865 -2.2283
 1890SOL    HW217304   0.701   1.853   0.088  3.1666 -0.7121  2.4572
 1891SOL     OW17305   3.256   2.475   1.847  0.1644  0.6339 -0.0647
 1891SOL    HW117306   3.190   2.413   1.818  2.1764 -0.9039 -1.3677
 1891SOL    HW217307   3.221   2.561   1.822  0.1532  0.9830  1.1657
 1892SOL     OW17308   2.522   4.571   5.116 -0.7378  0.0262 -0.3959
 1892SOL    HW117309   2.498   4.543   5.204 -1.8449 -0.9181 -1.0158
 1892SOL    HW217310   2.476   4.505   5.065  0.1332 -1.0833  0.2675
 1893SOL     OW17311   1.097   1.617  15.775 -0.3461  0.0507 -0.1232
 1893SOL    HW117312   1.185   1.594  15.747 -0.5474  1.2408 -1.6886
 1893SOL    HW217313   1.051   1.625  15.692 -1.1935 -0.4117  0.2979
 1894SOL     OW17314   1.533   1.259   2.521 -0.2326 -0.1553 -0.1678
 1894SOL    HW117315   1.620   1.238   2.555 -0.7880  0.0958  1.3885
 1894SOL    HW217316   1.497   1.170   2.516 -2.6132  0.8245 -0.5477
 1895SOL     OW17317   3.300   1.562  16.731  0.7228 -0.1476 -0.0489
 1895SOL    HW117318   3.387   1.569  16.692  1.1153 -2.0635  0.4865
 1895SOL    HW217319   3.255   1.630  16.681  0.2996  0.0063  0.5463
 1896SOL     OW17320   3.788   2.098   7.873 -0.0691  0.0403  0.2308
 1896SOL    HW117321   3.877   2.131   7.871 -0.7452  1.7075 -2.5473
 1896SOL    HW217322   3.798   2.011   7.833  0.8686 -0.1273  0.8452
 1897SOL     OW17323   0.869   4.308   8.941  0.5065  0.6059 -0.2126
 1897SOL    HW117324   0.800   4.374   8.947 -0.9595 -1.0042  0.5705
 1897SOL    HW217325   0.817   4.231   8.919  2.9073 -1.6146  1.9874
 1898SOL     OW17326   0.640   2.479  10.351 -0.0992 -0.7779  0.9281
 1898SOL    HW117327   0.687   2.494  10.269  0.5997  0.9553  1.6493
 1898SOL    HW217328   0.707   2.423  10.390  1.3584  0.8001  0.6929
 1899SOL     OW17329   3.735   2.222   1.248  0.2802  0.4214  0.9283
 1899SOL    HW117330   3.703   2.310   1.268  0.8955  1.1675 -1.3954
 1899SOL    HW217331   3.756   2.194   1.338  0.9875  0.4192  0.7652
 1900SOL     OW17332   0.604   2.769   4.184 -0.3971  0.2162 -0.4446
 1900SOL    HW117333   0.669   2.766   4.114  0.6592  0.4407  0.5259
 1900SOL    HW217334   0.656   2.740   4.259 -0.4629 -0.5948 -0.7105
 1901SOL     OW17335   1.162   3.361   0.198 -0.9270  0.3082  0.2197
 1901SOL    HW117336   1.096   3.352   0.128 -0.5965 -1.4588  0.1345
 1901SOL    HW217337   1.220   3.288   0.178  0.5788  1.5870 -0.0709
 1902SOL     OW17338   1.962   4.679   6.374 -0.0906  0.0036  0.5894
 1902SOL    HW117339   1.875   4.688   6.334 -0.7046 -3.8894  1.1543
 1902SOL    HW217340   1.985   0.024   6.414 -0.9492  0.8625 -0.7261
 1903SOL     OW17341   1.030   2.208   1.024 -0.0607 -0.0166 -0.2041
 1903SOL    HW117342   0.956   2.148   1.016 -0.2156  0.1069  0.3024
 1903SOL    HW217343   1.002   2.283   0.973 -0.7621 -1.2280 -1.5901
 1904SOL     OW17344   1.996   2.759  12.539  0.0880 -0.6781  0.3712
 1904SOL    HW117345   2.035   2.692  12.595  0.1233  0.8360  2.1591
 1904SOL    HW217346   2.073   2.775  12.485  0.1314 -1.2840  0.2505
 1905SOL     OW17347   4.128   3.017   5.282  0.0595  0.6515  0.3156
 1905SOL    HW117348   4.219   3.021   5.310 -0.2683 -1.9803  1.7223
 1905SOL    HW217349   4.090   3.067   5.354  0.4443 -0.7288  1.4615
 1906SOL     OW17350   0.041   0.941  12.936  0.1279 -0.1353 -0.3924
 1906SOL    HW117351   0.020   0.892  12.856  2.0016 -2.3916  0.4842
 1906SOL    HW217352   0.137   0.942  12.933  0.1875  0.5028  2.0389
 1907SOL     OW17353   3.792   0.159  10.578 -0.1027  0.1867 -0.8287
 1907SOL    HW117354   3.846   0.166  10.499  0.7605 -2.0950 -0.4337
 1907SOL    HW217355   3.705   0.173  10.542 -0.5155 -0.3874 -0.0571
 1908SOL     OW17356   3.700   3.799   5.596 -0.2809  0.3417 -0.2251
 1908SOL    HW117357   3.649   3.843   5.529  0.2083  1.4592  0.1294
 1908SOL    HW217358   3.691   3.706   5.574 -1.1414  0.3130  0.2755
 1909SOL     OW17359   2.331   3.300   2.538  0.6478 -0.7407 -0.0275
 1909SOL    HW117360   2.394   3.242   2.495 -0.1131 -2.2977  0.9306
 1909SOL    HW217361   2.374   3.385   2.537 -0.3735 -0.1791  2.3279
 1910SOL     OW17362   4.189   0.392   0.687 -0.0143 -0.2524 -0.3426
 1910SOL    HW117363   4.154   0.336   0.755  0.4984  0.7693  0.7618
 1910SOL    HW217364   4.120   0.383   0.622 -0.2507  1.6832 -0.3583
 1911SOL     OW17365   0.914   1.093   8.427 -0.2970  0.2814 -0.2082
 1911SOL    HW117366   0.925   1.046   8.510  0.4775 -0.5600 -0.7933
 1911SOL    HW217367   0.920   1.016   8.371  1.4022 -1.8062  2.8562
 1912SOL     OW17368   0.172   0.151  14.340  0.6008 -0.1690  0.0736
 1912SOL    HW117369   0.254   0.145  14.390 -0.2539 -3.5957  1.0210
 1912SOL    HW217370   0.121   0.082  14.382 -1.1539  1.5199  0.6976
 1913SOL     OW17371   3.447   2.725   6.263  0.6426  0.0180  0.2103
 1913SOL    HW117372   3.474   2.817   6.251  2.1480 -0.5414 -0.7378
 1913SOL    HW217373   3.476   2.691   6.179  0.7427 -2.1763  1.1415
 1914SOL     OW17374   2.263   3.167   5.091 -0.0800 -0.4871  0.6253
 1914SOL    HW117375   2.308   3.083   5.101  0.0106 -0.3827  1.0725
 1914SOL    HW217376   2.195   3.135   5.032  0.0703  0.7110 -0.2013
 1915SOL     OW17377   1.651   0.878   8.918  0.1248 -0.1285  0.0387
 1915SOL    HW117378   1.561   0.882   8.951  0.5209 -1.5253  1.2481
 1915SOL    HW217379   1.702   0.833   8.985  1.4375  3.4490  1.4763
 1916SOL     OW17380   0.020   2.991  16.566 -0.7081  0.2611 -0.2518
 1916SOL    HW117381   0.055   3.028  16.647  1.7653 -0.2934 -1.0645
 1916SOL    HW217382   0.017   2.898  16.586  2.4610  0.3053  0.4791
 1917SOL     OW17383   1.848   1.688   3.896  0.3736 -0.0760 -0.0384
 1917SOL    HW117384   1.784   1.743   3.851  0.2565 -1.2340 -1.2814
 1917SOL    HW217385   1.855   1.721   3.986  1.3055  0.7217 -0.3980
 1918SOL     OW17386   1.709   1.283   1.803  0.0999  0.2867  0.3232
 1918SOL    HW117387   1.671   1.213   1.751 -1.2550  0.8838  0.5205
 1918SOL    HW217388   1.633   1.325   1.842 -1.7846 -1.0090 -1.9993
 1919SOL     OW17389   0.653   2.133   1.446  0.0837  0.4877  0.2336
 1919SOL    HW117390   0.637   2.056   1.391 -0.7724  1.9102 -1.5053
 1919SOL    HW217391   0.592   2.118   1.518 -1.4650 -1.8797 -1.5721
 1920SOL     OW17392   2.112   4.410  17.463 -0.7263  0.6879 -0.3431
 1920SOL    HW117393   2.204   4.435  17.473 -0.4306 -0.4713 -0.2678
 1920SOL    HW217394   2.108   4.416  17.367  0.5284  0.5613 -0.3997
 1921SOL     OW17395   0.836   3.842   0.583 -0.3180 -0.0179  0.4987
 1921SOL    HW117396   0.856   3.935   0.574 -2.1110  0.2265 -1.1054
 1921SOL    HW217397   0.755   3.837   0.532  0.3400 -3.0751 -0.2265
 1922SOL     OW17398   3.934   3.032   2.217 -0.0955 -0.1512 -0.1031
 1922SOL    HW117399   3.933   3.120   2.178 -0.8542  0.1013  0.4799
 1922SOL    HW217400   3.842   3.024   2.241  0.1670 -4.0504 -0.4406
 1923SOL     OW17401   3.200   3.677   4.392  1.0361  0.5137 -0.1354
 1923SOL    HW117402   3.215   3.588   4.423  1.6078  0.7378  0.2288
 1923SOL    HW217403   3.274   3.718   4.438  0.3292  0.3065  1.1700
 1924SOL     OW17404   2.074   3.770   5.799  0.1527  0.3881  0.5080
 1924SOL    HW117405   2.159   3.773   5.843 -0.3559  0.7675  1.4752
 1924SOL    HW217406   2.021   3.781   5.878  1.1778  0.9226  1.1241
 1925SOL     OW17407   2.752   1.328  12.428 -0.5603 -0.4974 -0.4353
 1925SOL    HW117408   2.733   1.315  12.521 -0.5207  0.4241 -0.2960
 1925SOL    HW217409   2.704   1.253  12.394  1.7506 -1.3436 -1.8039
 1926SOL     OW17410   3.685   3.070   0.426 -0.2231  0.7155 -0.0306
 1926SOL    HW117411   3.652   3.007   0.490  1.1934 -0.5076 -0.4955
 1926SOL    HW217412   3.630   3.148   0.430  0.5477  1.2562 -0.1029
 1927SOL     OW17413   3.100   2.319   4.838  0.5066  1.2612 -0.4432
 1927SOL    HW117414   3.131   2.403   4.870  0.5306  0.9901  0.2480
 1927SOL    HW217415   3.014   2.311   4.881 -0.1381  0.7341 -1.8292
 1928SOL     OW17416   2.685   1.932   9.327 -0.3841 -0.4584 -0.2131
 1928SOL    HW117417   2.646   2.008   9.370  1.5602  0.3255  0.1758
 1928SOL    HW217418   2.742   1.894   9.394  0.6362 -0.2031 -0.9354
 1929SOL     OW17419   3.815   4.349  14.657  0.3715 -0.2042  0.5752
 1929SOL    HW117420   3.763   4.345  14.576  0.1164 -1.1205  0.7878
 1929SOL    HW217421   3.905   4.363  14.625  0.2080 -1.0387 -0.2591
 1930SOL     OW17422   0.108   0.551   3.080 -0.3975 -0.2421  0.1583
 1930SOL    HW117423   0.033   0.511   3.125 -0.1951 -0.2655  0.4719
 1930SOL    HW217424   0.179   0.491   3.103  0.1271 -0.8292 -3.0504
 1931SOL     OW17425   3.582   4.207   7.169 -0.0276 -0.4199 -0.0247
 1931SOL    HW117426   3.614   4.241   7.253  1.4739 -1.1352 -0.3010
 1931SOL    HW217427   3.527   4.130   7.185 -2.1617  0.6706 -2.1958
 1932SOL     OW17428   0.139   4.633   8.203 -0.3320 -0.1433 -0.1933
 1932SOL    HW117429   0.154   4.544   8.236 -1.8460 -0.6515 -0.8848
 1932SOL    HW217430   0.056   4.644   8.250  0.1316  0.3603  0.5011
 1933SOL     OW17431   1.422   2.782   6.387  0.1237 -0.1500 -0.0373
 1933SOL    HW117432   1.512   2.768   6.359  0.5636  0.4201  1.1356
 1933SOL    HW217433   1.384   2.805   6.302  1.3150  1.2948 -0.1668
 1934SOL     OW17434   0.752   4.634  12.415  0.3431 -0.5493 -0.4915
 1934SOL    HW117435   0.739   4.582  12.494  2.1055 -1.7751 -1.0085
 1934SOL    HW217436   0.658   4.650  12.406  0.3205 -0.4409 -0.0339
 1935SOL     OW17437   0.141   2.824   8.252  0.6461 -0.1762  0.2042
 1935SOL    HW117438   0.195   2.849   8.327 -1.2795  0.1692  1.4619
 1935SOL    HW217439   0.212   2.808   8.189 -0.3155 -0.5310 -0.7865
 1936SOL     OW17440   0.593   0.238  10.644  0.1135  0.6979 -0.4225
 1936SOL    HW117441   0.609   0.174  10.714 -0.4467  0.9156 -0.0886
 1936SOL    HW217442   0.573   0.310  10.705  0.9148 -0.2989  1.0220
 1937SOL     OW17443   3.695   1.420   4.484 -0.1946  0.2466 -0.8996
 1937SOL    HW117444   3.624   1.389   4.541 -0.7968  1.0698 -1.1916
 1937SOL    HW217445   3.649   1.462   4.411 -0.2330  0.1328 -0.9406
 1938SOL     OW17446   0.263   1.079   7.448 -0.3086 -0.3942 -0.3975
 1938SOL    HW117447   0.274   0.985   7.436 -2.9662 -0.5125 -2.0878
 1938SOL    HW217448   0.168   1.088   7.437  0.0085  2.3330 -0.9347
 1939SOL     OW17449   0.778   4.486   5.950 -0.2926 -0.1314  0.8212
 1939SOL    HW117450   0.864   4.448   5.934 -0.1068  0.5979  0.0781
 1939SOL    HW217451   0.785   4.553   5.882 -1.1192 -1.8874 -0.9856
 1940SOL     OW17452   2.248   4.252   4.150 -0.0011  0.3028  0.0430
 1940SOL    HW117453   2.288   4.165   4.151 -0.8586 -0.0783  0.7424
 1940SOL    HW217454   2.325   4.300   4.119  0.0377 -1.4610 -2.5244
 1941SOL     OW17455   3.701   0.228  15.580 -0.3835  0.5895  0.4035
 1941SOL    HW117456   3.659   0.167  15.640  1.0261  0.4874  1.2946
 1941SOL    HW217457   3.787   0.189  15.567 -1.0120  0.3881 -3.2741
 1942SOL     OW17458   2.839   3.449   7.607 -0.2846 -0.7517 -0.4520
 1942SOL    HW117459   2.796   3.532   7.625  1.3782  0.4976 -2.2341
 1942SOL    HW217460   2.769   3.387   7.627 -0.7341  0.2832  1.1428
 1943SOL     OW17461   0.551   2.116   8.697  0.2702 -0.3620  0.2424
 1943SOL    HW117462   0.645   2.129   8.686  0.2724 -0.8097 -0.2571
 1943SOL    HW217463   0.548   2.038   8.752 -0.1550 -1.1948 -0.9633
 1944SOL     OW17464   4.028   1.278   5.273 -0.0040 -0.2164  0.6064
 1944SOL    HW117465   4.053   1.239   5.189 -0.5638 -0.9888  0.7991
 1944SOL    HW217466   4.032   1.370   5.247 -2.2592 -0.3681 -0.3664
 1945SOL     OW17467   1.058   0.508  12.433  0.0921  0.1897 -0.5907
 1945SOL    HW117468   1.129   0.503  12.497  0.2374  0.9320 -0.6972
 1945SOL    HW217469   1.066   0.598  12.404  1.5075  1.0121  2.3565
 1946SOL     OW17470   3.279   3.475   9.424 -0.1108  0.1095 -0.3649
 1946SOL    HW117471   3.192   3.460   9.388 -0.0872 -0.1498 -0.3123
 1946SOL    HW217472   3.330   3.523   9.358  0.5938  0.0579  0.1486
 1947SOL     OW17473   3.476   0.611   7.858  0.1299 -0.8008 -0.5912
 1947SOL    HW117474   3.456   0.611   7.952  2.0591  3.7887 -0.1473
 1947SOL    HW217475   3.463   0.706   7.847  1.5198 -0.7166 -1.5108
 1948SOL     OW17476   3.098   2.879  10.872  0.4736 -0.2124  0.3059
 1948SOL    HW117477   3.193   2.887  10.873  0.3087  1.8690 -0.2189
 1948SOL    HW217478   3.060   2.967  10.869  0.7180 -0.1468 -0.8663
 1949SOL     OW17479   2.689   2.791   3.219 -0.0292  0.4135 -0.6045
 1949SOL    HW117480   2.672   2.800   3.313  3.7436  1.5456 -0.0453
 1949SOL    HW217481   2.649   2.707   3.196  0.2358  0.7330 -2.2384
 1950SOL     OW17482   1.958   0.950   3.545 -0.5748 -0.6711  0.3884
 1950SOL    HW117483   2.038   0.957   3.597 -0.3798  1.2576 -0.1759
 1950SOL    HW217484   1.971   0.861   3.512  1.5878 -0.4890  0.7015
 1951SOL     OW17485   1.961   4.552   1.956 -0.3947 -0.5670  0.2474
 1951SOL    HW117486   1.975   4.614   2.028 -1.2758  0.6248 -0.6033
 1951SOL    HW217487   2.049   4.516   1.945 -0.7703 -1.4287  0.0364
 1952SOL     OW17488   0.915   2.795   2.318 -0.2281 -0.1191 -0.0456
 1952SOL    HW117489   0.947   2.714   2.359 -2.3802  0.8815  3.6276
 1952SOL    HW217490   0.881   2.759   2.237  0.8674  2.1596 -1.5364
 1953SOL     OW17491   3.751   1.370   1.752 -0.0173 -0.1080 -0.1698
 1953SOL    HW117492   3.710   1.310   1.815 -2.3612  0.5639 -1.0288
 1953SOL    HW217493   3.799   1.430   1.808  1.0542 -1.8060  0.7351
 1954SOL     OW17494   2.563   3.704   2.326 -0.4779  0.2313 -0.1040
 1954SOL    HW117495   2.615   3.629   2.298 -0.7742 -0.2076  0.4991
 1954SOL    HW217496   2.477   3.678   2.293 -0.0041  0.7265 -1.6915
 1955SOL     OW17497   1.656   2.381   4.811  0.4225  0.4853 -0.0182
 1955SOL    HW117498   1.739   2.421   4.839  0.5670  0.1749 -0.0111
 1955SOL    HW217499   1.627   2.435   4.737  0.3409 -1.1983 -1.2242
 1956SOL     OW17500   1.737   3.640   4.371 -0.1262  0.0246  0.3133
 1956SOL    HW117501   1.796   3.680   4.435  0.5735  0.4104 -0.5666
 1956SOL    HW217502   1.725   3.719   4.318 -2.2384 -0.6138 -0.1346
 1957SOL     OW17503   3.246   1.148   1.423  0.6027  0.2751  0.0977
 1957SOL    HW117504   3.196   1.180   1.348  0.0215 -0.3499  0.2208
 1957SOL    HW217505   3.230   1.055   1.412 -0.0689  0.0760  2.6434
 1958SOL     OW17506   1.775   1.693   6.300 -0.0524  0.1275  0.3521
 1958SOL    HW117507   1.728   1.647   6.371  1.1106 -0.8720  0.4637
 1958SOL    HW217508   1.736   1.780   6.309  0.8466  0.3440  2.3082
 1959SOL     OW17509   4.519   1.864   9.494  0.0815 -0.1433  0.1139
 1959SOL    HW117510   4.510   1.958   9.509  1.7811 -0.0232  0.3808
 1959SOL    HW217511   4.442   1.831   9.539 -0.2753 -0.0973 -0.4636
 1960SOL     OW17512   2.679   2.963   9.204  0.1292 -0.0931 -0.0633
 1960SOL    HW117513   2.701   2.877   9.240  0.8134  0.1021 -0.0018
 1960SOL    HW217514   2.769   2.988   9.183 -0.8119  2.5127 -0.9305
 1961SOL     OW17515   3.998   3.903  13.389  0.8921  0.2297 -0.1419
 1961SOL    HW117516   3.984   3.840  13.460 -5.4596  2.3910  0.5435
 1961SOL    HW217517   4.071   3.959  13.415  0.0458  0.6282  1.3700
 1962SOL     OW17518   0.943   3.161   0.418 -0.0290 -0.0968 -0.0081
 1962SOL    HW117519   1.033   3.192   0.430  0.2005 -1.3693  1.6123
 1962SOL    HW217520   0.892   3.242   0.411 -1.6970 -1.1125  0.4753
 1963SOL     OW17521   4.029   2.981   8.949  0.1469 -0.2943 -0.6526
 1963SOL    HW117522   4.112   3.019   8.978 -0.6791  0.1516  1.1296
 1963SOL    HW217523   3.989   3.044   8.889  0.8742  0.5355 -0.2669
 1964SOL     OW17524   2.017   0.384   6.650  0.5575  0.6454 -0.3333
 1964SOL    HW117525   2.007   0.346   6.737 -3.5146 -0.9550 -1.5085
 1964SOL    HW217526   2.094   0.437   6.671  0.5706 -0.7390  3.0114
 1965SOL     OW17527   0.724   0.765   9.691  0.2876 -0.3214 -0.2262
 1965SOL    HW117528   0.794   0.817   9.731 -2.2442  4.0449 -1.5429
 1965SOL    HW217529   0.684   0.833   9.637 -0.1032  1.0659  1.7955
 1966SOL     OW17530   0.479   2.730  12.262  0.4426 -0.2716  0.1221
 1966SOL    HW117531   0.495   2.819  12.231 -1.3850  0.2416  0.6966
 1966SOL    HW217532   0.410   2.690  12.209  0.0636  0.0303  0.3910
 1967SOL     OW17533   2.607   2.526   9.687  0.5100 -0.0843  0.0608
 1967SOL    HW117534   2.624   2.589   9.757 -0.6547  0.2130  0.0870
 1967SOL    HW217535   2.658   2.451   9.716 -0.0222 -1.0275 -1.4321
 1968SOL     OW17536   1.794   0.211  10.708  0.4023  0.3054 -0.6979
 1968SOL    HW117537   1.888   0.222  10.719  0.2955  1.2768 -0.7849
 1968SOL    HW217538   1.763   0.185  10.795 -1.0786  1.3068 -0.9330
 1969SOL     OW17539   2.834   3.250   2.267 -0.0649  0.5968  0.1613
 1969SOL    HW117540   2.928   3.240   2.258 -0.0267  1.7132 -0.7242
 1969SOL    HW217541   2.812   3.343   2.259 -1.2651  0.4595  1.8689
 1970SOL     OW17542   3.284   4.621  15.176  0.0320 -0.5330  0.2661
 1970SOL    HW117543   3.334   4.671  15.111  1.4909 -0.3918  1.4832
 1970SOL    HW217544   3.201   4.665  15.193  0.3713 -0.4295  1.6879
 1971SOL     OW17545   0.210   1.736   0.439  0.2459 -0.3095 -0.4745
 1971SOL    HW117546   0.305   1.748   0.446  0.1242 -0.7211  1.8717
 1971SOL    HW217547   0.200   1.641   0.426 -2.1037  0.0540 -1.2913
 1972SOL     OW17548   1.486   4.607  10.807  0.3044  0.3460  0.0647
 1972SOL    HW117549   1.568   4.629  10.852 -0.1957  0.4115  0.9435
 1972SOL    HW217550   1.494   4.640  10.717  0.8364 -2.0576 -0.7588
 1973SOL     OW17551   1.911   2.991  14.678  0.2582  0.5436  0.0344
 1973SOL    HW117552   1.929   3.033  14.763  0.8138  1.0094 -0.3084
 1973SOL    HW217553   1.854   2.917  14.699  2.2104 -0.0866  3.1863
 1974SOL     OW17554   2.384   0.782   8.458  0.4972 -0.1198 -0.2315
 1974SOL    HW117555   2.341   0.825   8.384 -1.6811 -0.5750  0.7597
 1974SOL    HW217556   2.318   0.732   8.506  0.5657  0.9836  1.0223
 1975SOL     OW17557   1.791   3.663   3.332 -1.4008  0.1708  1.0861
 1975SOL    HW117558   1.854   3.685   3.263 -0.0291 -0.7337  2.0372
 1975SOL    HW217559   1.811   3.739   3.385  0.2233 -1.3418  2.6342
 1976SOL     OW17560   4.017   3.342   5.717  0.2371  0.3287  0.5834
 1976SOL    HW117561   4.004   3.435   5.698 -0.0276  0.4345  1.2514
 1976SOL    HW217562   4.091   3.344   5.777 -1.0511 -0.8994  2.2267
 1977SOL     OW17563   0.513   4.258   5.714  0.0567 -0.3219  0.2800
 1977SOL    HW117564   0.575   4.308   5.662 -0.7466  0.9559  0.5563
 1977SOL    HW217565   0.453   4.328   5.739  1.1012  0.4689  0.5343
 1978SOL     OW17566   2.489   2.538   1.674  0.6469 -0.0305  0.1020
 1978SOL    HW117567   2.481   2.492   1.590  1.3080  0.3133 -0.1519
 1978SOL    HW217568   2.504   2.474   1.743 -0.1791  0.4400  0.7142
 1979SOL     OW17569   0.488   2.548   6.792 -0.7692 -0.4432 -0.1030
 1979SOL    HW117570   0.563   2.585   6.840 -0.7772 -2.0008  1.0910
 1979SOL    HW217571   0.474   2.616   6.726 -1.6478 -0.5043  0.0256
 1980SOL     OW17572   0.568   2.064   5.211  0.2774  0.4614  0.0716
 1980SOL    HW117573   0.524   1.989   5.171 -1.3965  1.9620 -0.8972
 1980SOL    HW217574   0.647   2.014   5.231 -1.3189 -2.4632 -0.9634
 1981SOL     OW17575   2.779   2.831   8.849 -0.3113  0.2157  0.4489
 1981SOL    HW117576   2.730   2.808   8.770  0.9176 -0.6912 -0.0336
 1981SOL    HW217577   2.720   2.800   8.918 -1.4586  1.4782  0.0365
 1982SOL     OW17578   2.764   2.008  10.450 -0.4172  0.4567 -0.1171
 1982SOL    HW117579   2.780   2.076  10.515  0.5249  0.7863 -0.7057
 1982SOL    HW217580   2.817   1.935  10.482  1.2875  1.2160 -1.2307
 1983SOL     OW17581   2.698   1.491   8.053 -0.3179 -0.4573  0.0074
 1983SOL    HW117582   2.761   1.512   7.984 -1.7813  2.0299 -0.5733
 1983SOL    HW217583   2.746   1.419   8.093  0.0056 -0.0222  0.4072
 1984SOL     OW17584   2.743   2.464   6.507  0.1794  0.0876  0.0176
 1984SOL    HW117585   2.830   2.502   6.517  0.2170  0.2503 -0.9416
 1984SOL    HW217586   2.719   2.480   6.599  4.6200 -1.7134  1.4646
 1985SOL     OW17587   4.667   4.116   1.760  0.6016  0.1569 -0.4589
 1985SOL    HW117588   4.715   4.167   1.825 -0.0096  1.8348 -1.3123
 1985SOL    HW217589   4.703   4.028   1.772  0.5122  0.4257  1.7770
 1986SOL     OW17590   4.218   2.246   8.855  0.0677 -0.4815  0.0928
 1986SOL    HW117591   4.170   2.285   8.782  0.5725 -3.1312 -1.6307
 1986SOL    HW217592   4.162   2.171   8.875  0.4582 -0.1978  2.2469
 1987SOL     OW17593   0.672   0.591   6.157 -0.4793  0.3731 -0.0040
 1987SOL    HW117594   0.664   0.496   6.167 -1.5331  0.6024  1.3579
 1987SOL    HW217595   0.647   0.619   6.245  0.7127  1.8181 -0.1266
 1988SOL     OW17596   3.005   3.335   9.059 -0.0966  0.1474 -0.5091
 1988SOL    HW117597   2.987   3.261   9.001 -1.1950  1.0263 -1.3139
 1988SOL    HW217598   3.071   3.386   9.012 -0.6240  0.7839 -0.5670
 1989SOL     OW17599   3.704   1.466   4.034 -0.2932 -0.1185  0.2842
 1989SOL    HW117600   3.654   1.506   4.105 -0.7186  1.2306 -0.7843
 1989SOL    HW217601   3.793   1.496   4.054 -1.0926  0.9635  2.0955
 1990SOL     OW17602   3.156   4.581   6.275 -0.3880  0.2276 -0.3499
 1990SOL    HW117603   3.192   4.614   6.193  2.6984  1.9926  1.7141
 1990SOL    HW217604   3.121   4.494   6.256  0.2032  0.3576 -2.0550
 1991SOL     OW17605   4.405   3.307   8.219 -0.5701  0.4836 -0.0512
 1991SOL    HW117606   4.402   3.363   8.142 -1.0646  0.8620  0.2432
 1991SOL    HW217607   4.312   3.292   8.234 -0.2795  0.4245  1.7006
 1992SOL     OW17608   2.178   1.509  11.008  0.3432 -0.1815 -0.0866
 1992SOL    HW117609   2.202   1.561  10.931 -0.3470  3.5780  2.2321
 1992SOL    HW217610   2.236   1.432  11.007  0.1738 -0.3164  0.9214
 1993SOL     OW17611   3.285   3.622  15.929 -0.1554 -0.1757  0.3916
 1993SOL    HW117612   3.296   3.533  15.963 -2.4801 -0.8338 -0.5775
 1993SOL    HW217613   3.192   3.641  15.946 -0.2119  0.9746 -1.2624
 1994SOL     OW17614   0.953   3.176   6.444  0.5924  0.4469  1.2402
 1994SOL    HW117615   0.867   3.185   6.402  0.3162  0.0778  1.7246
 1994SOL    HW217616   0.927   3.164   6.536 -0.3160  2.0612  1.2106
 1995SOL     OW17617   2.892   4.421   1.994 -0.3980  0.5926 -0.2545
 1995SOL    HW117618   2.871   4.373   1.914  3.7733 -0.5579 -0.6760
 1995SOL    HW217619   2.982   4.393   2.011 -0.4397 -0.3479 -1.5418
 1996SOL     OW17620   2.858   1.492   2.272  0.3774  0.4932  0.0240
 1996SOL    HW117621   2.779   1.545   2.267  0.1756  0.0243 -1.8889
 1996SOL    HW217622   2.852   1.460   2.362  0.9602 -0.8512 -0.4137
 1997SOL     OW17623   3.796   2.033   5.905  0.0420 -0.2215 -0.0557
 1997SOL    HW117624   3.786   2.000   5.815  0.1433  1.9177 -0.8435
 1997SOL    HW217625   3.709   2.018   5.940  0.0702 -2.0643 -0.7627
 1998SOL     OW17626   0.086   0.329  14.145  0.0083 -0.0516 -0.8830
 1998SOL    HW117627   0.126   0.257  14.193  1.5038  0.1151 -1.9017
 1998SOL    HW217628   0.114   0.389  14.214 -0.6859 -0.3918 -0.2995
 1999SOL     OW17629   2.849   0.644   3.090  0.8948  0.0910  0.3629
 1999SOL    HW117630   2.923   0.618   3.035  2.0170  0.6989  1.5765
 1999SOL    HW217631   2.894   0.705   3.149  1.7024  1.8288 -2.0321
 2000SOL     OW17632   1.317   2.448  11.509  0.2059 -0.3297  0.5628
 2000SOL    HW117633   1.343   2.463  11.600  2.4687  2.0030 -0.4614
 2000SOL    HW217634   1.314   2.352  11.512 -0.8847 -0.2767  0.8388
 2001SOL     OW17635   1.805   2.990   9.005 -0.5186  0.7141 -0.7072
 2001SOL    HW117636   1.760   2.958   8.927 -2.9544  0.1508  0.9300
 2001SOL    HW217637   1.729   2.990   9.063 -1.3008 -0.2404 -1.7300
 2002SOL     OW17638   2.791   0.664   4.923 -0.2524 -0.0074  0.8334
 2002SOL    HW117639   2.885   0.683   4.933 -0.8250  2.1199  2.2525
 2002SOL    HW217640   2.766   0.748   4.885 -0.9668 -0.6661 -0.1306
 2003SOL     OW17641   3.174   1.931   0.755 -0.1609 -0.2459  0.1395
 2003SOL    HW117642   3.144   1.850   0.714  2.3592 -1.7218  1.2393
 2003SOL    HW217643   3.265   1.919   0.730 -1.1363 -4.0282 -1.5124
 2004SOL     OW17644   2.517   1.531   4.098  0.3839  0.1417 -0.0270
 2004SOL    HW117645   2.434   1.578   4.086  0.1901 -0.2876 -0.3513
 2004SOL    HW217646   2.501   1.438   4.084  3.0913 -0.2399 -0.5058
 2005SOL     OW17647   0.949   3.132   6.715 -0.1300  0.3687 -0.3549
 2005SOL    HW117648   1.009   3.063   6.742 -2.1077 -0.9952  0.5174
 2005SOL    HW217649   0.904   3.135   6.799  1.4508 -1.0021  0.5395
 2006SOL     OW17650   3.926   1.549   4.386 -0.0270  0.2871  0.2036
 2006SOL    HW117651   3.874   1.628   4.368 -1.5345 -0.9074 -0.6473
 2006SOL    HW217652   3.851   1.500   4.419 -0.3219 -0.6678 -1.8554
 2007SOL     OW17653   0.815   1.482  12.055 -0.1879 -0.1990  0.1573
 2007SOL    HW117654   0.849   1.571  12.055 -0.7813  0.0252  1.5803
 2007SOL    HW217655   0.851   1.444  11.975 -2.6917  1.8860 -1.9544
 2008SOL     OW17656   4.325   1.914   1.110 -0.4430 -0.1971 -0.5083
 2008SOL    HW117657   4.285   1.970   1.045  0.0743 -0.3920 -1.0001
 2008SOL    HW217658   4.420   1.917   1.095 -0.3468  2.5221  0.7579
 2009SOL     OW17659   3.638   3.968   2.194 -0.2542  0.1258  0.7208
 2009SOL    HW117660   3.571   4.013   2.245 -1.4257 -0.8671  0.0601
 2009SOL    HW217661   3.583   3.913   2.139  0.4811 -1.6276  1.7313
 2010SOL     OW17662   0.315   1.322   7.912  0.2148 -0.3029  0.0466
 2010SOL    HW117663   0.273   1.407   7.898 -1.5487 -1.2931 -0.6963
 2010SOL    HW217664   0.408   1.328   7.893  0.3911 -1.2620  0.6421
 2011SOL     OW17665   3.108   0.725   5.677  0.1817  0.5235  0.5042
 2011SOL    HW117666   3.186   0.733   5.732 -0.3691 -0.4196  1.4101
 2011SOL    HW217667   3.069   0.647   5.714 -1.0961  0.0742 -1.7732
 2012SOL     OW17668   3.794   1.060   5.912 -0.2149 -0.5941 -0.3280
 2012SOL    HW117669   3.884   1.057   5.878  0.1938  1.0493  0.6106
 2012SOL    HW217670   3.753   1.000   5.849  0.2780 -1.3575  0.0675
 2013SOL     OW17671   1.780   3.773  11.458  0.0105 -0.2635  0.4970
 2013SOL    HW117672   1.778   3.685  11.420 -0.2337 -0.1136  0.1622
 2013SOL    HW217673   1.876   3.773  11.452 -0.1121  1.6712 -1.5542
 2014SOL     OW17674   0.377   0.560   5.151  0.0451 -0.0588  0.8414
 2014SOL    HW117675   0.392   0.472   5.116  2.7715  1.4394 -1.7610
 2014SOL    HW217676   0.295   0.577   5.104  1.9503 -0.0221 -2.4784
 2015SOL     OW17677   4.553   0.155   2.999 -0.2367  0.4987  1.1752
 2015SOL    HW117678   4.535   0.070   3.038  0.2758 -1.5293 -2.9872
 2015SOL    HW217679   4.519   0.215   3.066 -0.1216  0.2964  1.4125
 2016SOL     OW17680   1.113   4.324   8.156 -0.0888  0.0484 -0.0310
 2016SOL    HW117681   1.106   4.231   8.178 -0.5389 -0.3306 -1.7706
 2016SOL    HW217682   1.206   4.332   8.138 -0.1002  1.2010  0.4242
 2017SOL     OW17683   3.367   4.720   4.198 -0.6033  0.2940 -0.3714
 2017SOL    HW117684   3.400   0.006   4.284  1.5275  0.3325 -1.1995
 2017SOL    HW217685   3.392   0.059   4.150 -0.5493 -0.0489 -0.9034
 2018SOL     OW17686   1.242   2.977   2.516  0.1787  0.4605 -0.0353
 2018SOL    HW117687   1.154   2.996   2.484  0.2245 -0.5742 -0.8042
 2018SOL    HW217688   1.277   3.065   2.506  0.8567  0.2518  0.4735
 2019SOL     OW17689   0.259   3.845  16.855 -0.1212 -0.1031 -0.0742
 2019SOL    HW117690   0.297   3.931  16.875  0.1403  0.3505 -2.5754
 2019SOL    HW217691   0.239   3.850  16.762 -0.1586 -0.4165 -0.0816
 2020SOL     OW17692   0.021   1.263   2.272  0.7750 -0.5035  0.3571
 2020SOL    HW117693   0.111   1.231   2.278  1.3080  0.9085 -0.1352
 2020SOL    HW217694   4.733   1.256   2.364 -1.0177 -2.4570 -0.3269
 2021SOL     OW17695   4.278   4.583   2.159  0.0053 -0.5275 -0.2240
 2021SOL    HW117696   4.263   4.574   2.064  1.0578  0.0536 -0.4406
 2021SOL    HW217697   4.209   4.645   2.182  0.9077  0.3042  0.2209
 2022SOL     OW17698   1.335   4.046   2.619 -0.0195 -0.0506 -0.6183
 2022SOL    HW117699   1.394   4.041   2.544 -0.3799  0.7847 -0.9552
 2022SOL    HW217700   1.292   4.131   2.615  1.0293  0.4588 -1.1230
 2023SOL     OW17701   4.005   3.210   8.069  0.4466 -0.6733 -0.7858
 2023SOL    HW117702   3.923   3.240   8.030 -0.3299 -2.1170 -0.2691
 2023SOL    HW217703   4.070   3.255   8.015  1.9752 -0.5268  1.1788
 2024SOL     OW17704   4.541   3.095  13.589 -0.1060 -0.3949 -0.4212
 2024SOL    HW117705   4.540   3.138  13.674 -1.4302  0.3373 -0.8042
 2024SOL    HW217706   4.584   3.169  13.546 -2.8422  1.1379 -0.5244
 2025SOL     OW17707   0.068   4.315   6.141 -0.2444 -0.5774 -0.5424
 2025SOL    HW117708   0.017   4.245   6.181 -1.0792 -0.1752 -0.8989
 2025SOL    HW217709   0.053   4.386   6.202 -0.3007 -1.1016  0.0541
 2026SOL     OW17710   2.772   2.900   3.947  0.4135 -0.6666 -0.3009
 2026SOL    HW117711   2.716   2.823   3.939 -0.9712  0.4800 -1.5821
 2026SOL    HW217712   2.783   2.921   3.854  2.5178 -1.7702 -0.3112
 2027SOL     OW17713   3.152   0.795  15.385  0.3922  0.3646 -0.2643
 2027SOL    HW117714   3.170   0.883  15.352  0.6619  0.0808 -0.8859
 2027SOL    HW217715   3.095   0.779  15.310  1.3565 -0.3926 -0.8408
 2028SOL     OW17716   1.772   3.632  15.064  0.5346 -0.0613  0.0279
 2028SOL    HW117717   1.764   3.592  15.150  1.3551 -2.2917 -0.9240
 2028SOL    HW217718   1.687   3.609  15.028  0.6947  1.8777 -1.6114
 2029SOL     OW17719   1.163   0.554   0.688 -0.3623  0.3889  0.2211
 2029SOL    HW117720   1.118   0.508   0.759 -0.8220 -0.4133 -0.5792
 2029SOL    HW217721   1.233   0.501   0.648 -0.7665 -0.3537  0.4931
 2030SOL     OW17722   2.068   3.024   8.977  0.1258 -0.5969  0.1797
 2030SOL    HW117723   2.104   2.945   9.018 -4.0811 -1.1616  2.8258
 2030SOL    HW217724   1.975   3.008   8.994  0.0828 -1.8238 -1.1976
 2031SOL     OW17725   2.163   1.660   5.390  0.6101  0.5098 -0.2756
 2031SOL    HW117726   2.179   1.746   5.351  1.2154  1.0215  1.0937
 2031SOL    HW217727   2.127   1.607   5.318  2.2663 -0.5564 -0.3193
 2032SOL     OW17728   4.158   3.854   5.131  0.2513 -0.0772 -0.3245
 2032SOL    HW117729   4.145   3.905   5.052  2.0609 -1.3926 -1.4616
 2032SOL    HW217730   4.067   3.829   5.150 -0.2477  2.2410  0.3780
 2033SOL     OW17731   3.313   2.249  13.342  0.2700  0.6274 -0.1414
 2033SOL    HW117732   3.318   2.166  13.295  0.3620  0.2393  0.5655
 2033SOL    HW217733   3.397   2.259  13.387  1.0497 -1.7714 -1.0744
 2034SOL     OW17734   2.820   0.680   4.440  0.1157 -0.2690 -0.5030
 2034SOL    HW117735   2.733   0.711   4.465 -0.2541 -2.2357  0.6330
 2034SOL    HW217736   2.808   0.594   4.481 -0.7027  0.7620  1.3889
 2035SOL     OW17737   3.469   3.941   5.481  0.3962 -0.2952 -0.1424
 2035SOL    HW117738   3.409   3.910   5.414  1.3939 -0.5676 -0.8988
 2035SOL    HW217739   3.501   4.025   5.448  0.8058 -0.0580  0.8407
 2036SOL     OW17740   1.222   2.514   1.553 -0.1717 -0.6290  0.5973
 2036SOL    HW117741   1.267   2.445   1.602 -1.9989  1.3804  5.0482
 2036SOL    HW217742   1.146   2.525   1.610  0.7001  2.7939  1.1285
 2037SOL     OW17743   3.982   0.926  16.803 -0.3029  0.0671  0.7851
 2037SOL    HW117744   4.052   0.919  16.868 -1.8505 -2.4770  2.1637
 2037SOL    HW217745   3.948   1.016  16.805 -1.3127 -0.2648 -1.6238
 2038SOL     OW17746   3.304   3.142  11.197 -0.0979 -0.0991 -0.4951
 2038SOL    HW117747   3.368   3.146  11.268 -0.2905  0.3596 -0.3516
 2038SOL    HW217748   3.322   3.054  11.164 -2.6557 -1.4216  1.6254
 2039SOL     OW17749   2.990   0.208   7.487 -0.0801  0.4061  0.4711
 2039SOL    HW117750   2.911   0.162   7.457  1.2090 -1.2507 -0.4675
 2039SOL    HW217751   3.002   0.284   7.431  0.0454  0.1460  0.1394
 2040SOL     OW17752   1.779   2.020   3.159 -0.3803 -0.0313 -0.4773
 2040SOL    HW117753   1.689   1.989   3.167 -0.1168 -0.2885  1.6377
 2040SOL    HW217754   1.805   1.974   3.079  0.1506 -1.0063  0.2511
 2041SOL     OW17755   4.043   2.981   1.826 -0.4125  0.3199 -0.1247
 2041SOL    HW117756   4.040   2.910   1.762  2.1535  0.5333 -0.4803
 2041SOL    HW217757   3.953   3.011   1.815 -0.6700 -1.1111 -1.9548
 2042SOL     OW17758   3.169   3.023  14.536  0.0917 -0.2096  0.1486
 2042SOL    HW117759   3.111   3.089  14.575 -0.6945 -0.9913  0.2980
 2042SOL    HW217760   3.252   3.027  14.585 -0.8890 -2.2064  1.9520
 2043SOL     OW17761   0.648   1.403   5.539  0.2578  0.1667 -0.0359
 2043SOL    HW117762   0.658   1.390   5.633  2.0923  0.8064 -0.1419
 2043SOL    HW217763   0.729   1.367   5.501 -0.4695 -1.6924  0.1732
 2044SOL     OW17764   0.611   1.889   2.480  0.5269 -0.3820 -0.1050
 2044SOL    HW117765   0.549   1.845   2.423 -0.3792  1.7097 -0.7340
 2044SOL    HW217766   0.565   1.973   2.483 -1.8397 -1.6688 -0.9358
 2045SOL     OW17767   1.182   1.151   5.977  0.0739  0.2125 -0.1121
 2045SOL    HW117768   1.231   1.230   6.000 -1.9123  1.4528 -0.1998
 2045SOL    HW217769   1.235   1.113   5.907 -0.8301 -2.7141  0.7718
 2046SOL     OW17770   3.373   2.781  14.539 -0.4474  0.6137  0.2243
 2046SOL    HW117771   3.348   2.691  14.516  0.5538  0.2580  0.5157
 2046SOL    HW217772   3.379   2.815  14.450 -2.1860  2.7264  0.9137
 2047SOL     OW17773   1.553   4.682  12.548  0.6996 -0.1071  0.3779
 2047SOL    HW117774   1.582   4.657  12.635  0.1106  1.1775  0.9425
 2047SOL    HW217775   1.586   4.607  12.498 -2.5096 -1.4528  0.2800
 2048SOL     OW17776   3.216   1.870   9.107  0.8718  0.3414  0.4975
 2048SOL    HW117777   3.275   1.810   9.153  0.5967 -0.9246 -0.7996
 2048SOL    HW217778   3.166   1.892   9.186 -2.4117 -1.6676 -1.0393
 2049SOL     OW17779   0.053   1.700   7.037  0.0068  0.1147 -0.6964
 2049SOL    HW117780   4.716   1.756   7.027 -0.2833  0.0631  1.2741
 2049SOL    HW217781   0.028   1.610   7.016 -2.3036  1.1789 -2.4521
 2050SOL     OW17782   2.113   1.828  16.364  0.0519  0.1431 -0.1175
 2050SOL    HW117783   2.111   1.859  16.454  2.0774  1.2571 -0.4362
 2050SOL    HW217784   2.087   1.909  16.321  2.5637  0.4182 -1.1405
 2051SOL     OW17785   0.145   3.785  11.953  0.7542  0.4138 -0.2964
 2051SOL    HW117786   0.054   3.780  11.984  0.3048  3.2426 -1.1438
 2051SOL    HW217787   0.202   3.784  12.030  0.0687 -0.8214  0.1892
 2052SOL     OW17788   1.981   4.465   5.945  0.4884 -0.1640  0.3317
 2052SOL    HW117789   1.892   4.493   5.922  0.0575 -0.0790  2.0957
 2052SOL    HW217790   1.989   4.434   6.036  0.9184  0.8904  0.6525
 2053SOL     OW17791   1.879   0.800   4.403  0.1197  0.1191 -0.0867
 2053SOL    HW117792   1.862   0.773   4.312 -0.1198 -1.3406  0.3802
 2053SOL    HW217793   1.798   0.848   4.421 -2.0603 -3.2347 -0.6939
 2054SOL     OW17794   4.667   0.601   6.832  0.2495 -0.2662 -0.8134
 2054SOL    HW117795   4.631   0.647   6.756 -2.2661 -0.2519  0.3841
 2054SOL    HW217796   4.591   0.606   6.889  1.3605 -0.1556  0.6622
 2055SOL     OW17797   3.579   4.306  13.306  0.0551  0.0001 -0.0736
 2055SOL    HW117798   3.637   4.294  13.381 -0.4754 -0.9680  0.1855
 2055SOL    HW217799   3.614   4.253  13.234  1.9423 -1.6468  2.0611
 2056SOL     OW17800   1.029   2.616  14.353  0.2604 -0.1700  0.1098
 2056SOL    HW117801   0.967   2.648  14.419 -2.8367 -0.0992 -2.8140
 2056SOL    HW217802   1.039   2.696  14.302 -0.2221 -0.6696 -0.7626
 2057SOL     OW17803   3.502   0.549  14.627 -0.0521  0.5805 -0.1525
 2057SOL    HW117804   3.575   0.596  14.668  0.3469 -0.5047  0.3863
 2057SOL    HW217805   3.486   0.602  14.549  3.1752 -1.3383 -2.1240
 2058SOL     OW17806   2.228   3.895   4.713  0.6198  0.0304  0.1461
 2058SOL    HW117807   2.232   3.885   4.808  1.8321 -2.8727 -0.2114
 2058SOL    HW217808   2.321   3.882   4.694  0.3811 -1.4188 -0.0325
 2059SOL     OW17809   2.728   2.049   6.547 -0.0454 -0.0733  0.3845
 2059SOL    HW117810   2.653   2.006   6.588 -1.3504  1.2801 -0.5893
 2059SOL    HW217811   2.740   2.015   6.458 -0.6077 -0.0534  0.3006
 2060SOL     OW17812   1.973   0.898   2.625 -0.6249  0.8980 -0.4867
 2060SOL    HW117813   2.014   0.834   2.567  1.2020 -0.0332  1.8473
 2060SOL    HW217814   1.994   0.873   2.715 -2.1465  0.4973 -0.2322
 2061SOL     OW17815   2.627   1.082  12.350  0.0160  0.2967  0.0348
 2061SOL    HW117816   2.548   1.124  12.386 -1.5019 -2.6466  0.0704
 2061SOL    HW217817   2.594   1.057  12.264  0.8951  0.7622 -0.4368
 2062SOL     OW17818   1.609   3.593   8.967 -0.6830 -0.4812 -0.9080
 2062SOL    HW117819   1.570   3.678   8.947  0.2635  0.0029 -0.7120
 2062SOL    HW217820   1.694   3.636   8.982  0.1585 -2.4503 -0.0844
 2063SOL     OW17821   1.772   1.019   3.043 -0.6670 -0.6176  0.1656
 2063SOL    HW117822   1.840   1.071   3.001  0.9309 -1.9736  1.0692
 2063SOL    HW217823   1.706   1.015   2.974 -0.3536  0.0506 -0.1672
 2064SOL     OW17824   3.964   3.866  12.142  0.7132  0.0222 -0.0380
 2064SOL    HW117825   4.007   3.948  12.118 -0.7048  1.8875  3.8385
 2064SOL    HW217826   3.875   3.891  12.118  0.5770 -0.6057 -0.2034
 2065SOL     OW17827   0.225   2.291  16.169 -0.2814  0.1798 -0.0870
 2065SOL    HW117828   0.145   2.269  16.120  0.6013 -0.3260 -1.3016
 2065SOL    HW217829   0.221   2.386  16.174  0.0584  0.1889  0.0087
 2066SOL     OW17830   1.609   0.023   5.376  0.1343 -0.3841  0.1623
 2066SOL    HW117831   1.658   0.039   5.457  2.1555 -1.8582 -0.7673
 2066SOL    HW217832   1.677   0.021   5.309  1.8708 -0.1289  1.9224
 2067SOL     OW17833   0.363   1.780  12.309 -0.1426 -0.4898  0.6638
 2067SOL    HW117834   0.389   1.709  12.250 -2.1292  1.1580 -2.1873
 2067SOL    HW217835   0.377   1.860  12.258 -2.2461 -0.4788  0.0841
 2068SOL     OW17836   1.051   2.288   2.435  0.0333 -0.1301  0.3720
 2068SOL    HW117837   1.012   2.248   2.513 -0.5999 -0.9674 -0.3697
 2068SOL    HW217838   1.139   2.305   2.467 -1.4868  1.1217  3.9296
 2069SOL     OW17839   4.461   3.167   9.801 -0.2976  0.1988  0.2441
 2069SOL    HW117840   4.528   3.199   9.740 -0.5670 -0.1770 -0.2538
 2069SOL    HW217841   4.384   3.214   9.769  0.2903  2.3271  1.9618
 2070SOL     OW17842   1.589   3.146   1.262  0.5242 -0.1366  0.3053
 2070SOL    HW117843   1.498   3.167   1.278  0.4695  1.2737 -1.8708
 2070SOL    HW217844   1.638   3.200   1.323  0.6569  1.1465 -0.9351
 2071SOL     OW17845   1.832   2.125  10.118  0.2714 -0.2962 -0.6100
 2071SOL    HW117846   1.887   2.171  10.181 -0.7681  1.3354 -0.8714
 2071SOL    HW217847   1.761   2.189  10.109 -0.3097 -0.4907  2.7457
 2072SOL     OW17848   0.265   1.628   3.120 -0.3118  0.4164 -0.3616
 2072SOL    HW117849   0.238   1.554   3.174  3.2692 -0.5186  0.1692
 2072SOL    HW217850   0.180   1.652   3.084 -0.1636  3.0486  1.0183
 2073SOL     OW17851   3.597   0.865   8.164  0.4048  0.0392  0.1568
 2073SOL    HW117852   3.644   0.932   8.115 -1.7685  0.6031 -1.1542
 2073SOL    HW217853   3.617   0.782   8.121 -0.0908 -0.2878  0.5491
 2074SOL     OW17854   2.199   4.467   8.417 -0.1548 -0.1203 -0.0547
 2074SOL    HW117855   2.109   4.450   8.392 -0.0006 -2.3135  0.8865
 2074SOL    HW217856   2.193   4.470   8.512  1.9770  1.9473  0.0222
 2075SOL     OW17857   0.844   1.564   7.536  0.3899  0.0496  0.2027
 2075SOL    HW117858   0.814   1.495   7.595 -0.6016 -0.1524 -0.5368
 2075SOL    HW217859   0.868   1.629   7.601  1.6748 -0.3731  0.1551
 2076SOL     OW17860   4.690   1.561   9.187  0.0618 -0.3685  0.4387
 2076SOL    HW117861   4.640   1.629   9.142  0.5362 -1.8084 -2.3100
 2076SOL    HW217862   0.041   1.591   9.196  0.5218 -0.6191 -3.2921
 2077SOL     OW17863   0.420   2.109   5.466 -0.3629  0.3536 -0.1951
 2077SOL    HW117864   0.396   2.192   5.424 -0.2929  0.8089  0.6472
 2077SOL    HW217865   0.465   2.059   5.398 -1.1542  1.9132 -1.8637
 2078SOL     OW17866   2.260   0.837   2.925 -0.1027 -0.1261 -0.4366
 2078SOL    HW117867   2.228   0.913   2.875  1.8412 -0.0890 -1.6201
 2078SOL    HW217868   2.322   0.795   2.866  0.1679 -0.8310  0.3562
 2079SOL     OW17869   3.012   0.959   5.621  0.0939  0.3443  0.1770
 2079SOL    HW117870   3.018   0.872   5.659 -0.3558  0.9362  1.5882
 2079SOL    HW217871   3.092   0.974   5.570 -1.1203  0.9566 -1.5624
 2080SOL     OW17872   2.820   3.672  11.532 -0.5194 -0.2400  0.0012
 2080SOL    HW117873   2.840   3.597  11.588 -1.3205  0.2770  0.9733
 2080SOL    HW217874   2.909   3.701  11.514  0.0825 -1.6531  0.7194
 2081SOL     OW17875   4.690   4.430   4.354 -0.1161  0.0826 -0.1040
 2081SOL    HW117876   4.619   4.482   4.317  0.4816  0.8078 -0.2154
 2081SOL    HW217877   4.643   4.371   4.414 -0.1996  0.5442  0.2896
 2082SOL     OW17878   2.522   3.305   4.786 -0.2329  0.0965  0.2857
 2082SOL    HW117879   2.546   3.284   4.876  1.9733  1.1979 -0.0264
 2082SOL    HW217880   2.502   3.399   4.783 -0.8919 -0.0561 -0.1746
 2083SOL     OW17881   0.135   2.706   3.666  0.9754 -0.4269 -0.6045
 2083SOL    HW117882   0.128   2.770   3.596 -0.0360 -1.2000 -1.2128
 2083SOL    HW217883   0.059   2.729   3.720  2.1665 -1.6364  1.5999
 2084SOL     OW17884   0.672   0.567   2.685 -0.3483  0.0815  0.0599
 2084SOL    HW117885   0.669   0.649   2.734  2.3188  0.7074 -0.8397
 2084SOL    HW217886   0.592   0.525   2.718  0.4556 -1.2142  0.3633
 2085SOL     OW17887   3.030   0.768   3.296  0.2831  0.3598 -0.3366
 2085SOL    HW117888   2.990   0.836   3.351 -0.8121  0.9588 -1.8812
 2085SOL    HW217889   3.058   0.694   3.350 -0.5761 -0.6381 -1.2535
 2086SOL     OW17890   4.156   1.827   6.743 -0.7054  0.0779 -0.1301
 2086SOL    HW117891   4.222   1.896   6.754 -0.4527 -0.3176  0.8451
 2086SOL    HW217892   4.207   1.746   6.746 -1.0203 -0.1588 -1.2622
 2087SOL     OW17893   4.654   0.751  10.274 -1.2094  0.0582  0.1303
 2087SOL    HW117894   4.726   0.795  10.228 -0.1363 -0.9569  0.8630
 2087SOL    HW217895   4.707   0.680  10.309  0.6407 -0.0450 -2.8450
 2088SOL     OW17896   2.779   3.284  17.524  0.4459 -0.0580 -0.0628
 2088SOL    HW117897   2.854   3.235  17.557 -0.9599 -1.2848  1.2822
 2088SOL    HW217898   2.710   3.251  17.581  1.9849 -0.1519  1.7667
 2089SOL     OW17899   4.025   1.974   8.058 -0.1783 -0.1369  0.1079
 2089SOL    HW117900   4.074   2.052   8.083  0.3295 -0.7690  1.0911
 2089SOL    HW217901   4.007   1.940   8.146 -0.0500  0.9718  0.5607
 2090SOL     OW17902   2.878   4.342  12.016 -0.3686 -0.0131  0.3187
 2090SOL    HW117903   2.973   4.353  12.019 -0.7306  2.3317  4.3903
 2090SOL    HW217904   2.868   4.275  12.084 -2.4094  0.7509  0.7756
 2091SOL     OW17905   2.101   3.408   8.389 -0.6230  0.0070  0.8949
 2091SOL    HW117906   2.136   3.495   8.410 -1.0474  0.5483 -0.6113
 2091SOL    HW217907   2.117   3.400   8.295 -3.6077 -3.8432  0.7705
 2092SOL     OW17908   0.783   0.197   4.688 -0.9842 -0.0941 -0.0321
 2092SOL    HW117909   0.719   0.246   4.636 -0.6149 -0.1403 -0.5327
 2092SOL    HW217910   0.791   0.276   4.741 -1.5434  0.7721 -1.2397
 2093SOL     OW17911   0.149   2.623   1.413 -0.6711  0.1696  0.5475
 2093SOL    HW117912   0.149   2.531   1.441  0.7636  0.2611  0.8564
 2093SOL    HW217913   0.240   2.638   1.438 -0.7554  1.6177 -0.0148
 2094SOL     OW17914   1.831   2.640  10.225 -0.5886  0.2934 -0.0090
 2094SOL    HW117915   1.780   2.678  10.153 -0.7214  0.8096  0.3542
 2094SOL    HW217916   1.886   2.581  10.175  1.6551  0.7334  1.9530
 2095SOL     OW17917   4.301   3.113   7.149  0.2905 -0.3758 -0.0209
 2095SOL    HW117918   4.396   3.113   7.137  0.4762  0.3394  1.4293
 2095SOL    HW217919   4.299   3.071   7.235 -1.1801 -1.5524 -0.6250
 2096SOL     OW17920   3.914   2.310   6.209  0.4283 -0.0251  0.5293
 2096SOL    HW117921   3.819   2.299   6.207  0.4226  0.4193 -1.5835
 2096SOL    HW217922   3.931   2.216   6.209  1.3107  0.1381  2.4450
 2097SOL     OW17923   4.194   2.718  11.825  0.6339 -0.4005 -0.4270
 2097SOL    HW117924   4.158   2.801  11.794  2.7675  0.9415  0.6379
 2097SOL    HW217925   4.115   2.678  11.861 -0.0579  1.3941  0.0584
 2098SOL     OW17926   4.212   0.960   6.190  0.5318  0.4827  0.1996
 2098SOL    HW117927   4.247   0.988   6.105 -0.6279 -0.5939 -0.6283
 2098SOL    HW217928   4.278   0.897   6.218  1.7225  1.2090 -0.9748
 2099SOL     OW17929   0.314   0.993   2.380 -0.3064 -0.9393  0.2481
 2099SOL    HW117930   0.384   0.959   2.325 -0.5169  0.1275 -0.6629
 2099SOL    HW217931   0.335   0.958   2.467 -1.8452 -0.3429  0.8653
 2100SOL     OW17932   4.448   2.163   6.215 -0.0944  0.3243  0.3163
 2100SOL    HW117933   4.501   2.122   6.283  0.9447 -0.5097 -1.0319
 2100SOL    HW217934   4.515   2.188   6.152  0.6874 -2.2584  0.1310
 2101SOL     OW17935   1.916   4.391   8.842 -0.4269 -0.4727 -0.0599
 2101SOL    HW117936   1.919   4.487   8.849 -2.8103 -0.2009 -2.7318
 2101SOL    HW217937   1.829   4.370   8.877 -0.0092 -0.8848  0.7323
 2102SOL     OW17938   1.692   2.355   9.600  0.6208  1.1698 -0.0466
 2102SOL    HW117939   1.775   2.324   9.563  0.6652  0.2205  0.8692
 2102SOL    HW217940   1.712   2.440   9.639  0.2802  2.2073 -2.1398
 2103SOL     OW17941   2.870   2.712  17.609 -0.3429 -0.7534  0.6543
 2103SOL    HW117942   2.926   2.636  17.593 -0.2538 -0.9733  2.0749
 2103SOL    HW217943   2.864   2.703  17.704  0.9981 -0.4674  0.7681
 2104SOL     OW17944   2.420   1.133   4.500  0.3876  0.0701 -0.6743
 2104SOL    HW117945   2.425   1.082   4.580 -3.3644 -0.5192 -0.8023
 2104SOL    HW217946   2.389   1.218   4.533  0.3855 -0.9134  1.8341
 2105SOL     OW17947   1.712   3.139   2.875 -0.5779  0.5247  0.6178
 2105SOL    HW117948   1.722   3.178   2.788  1.4041 -2.5113 -0.4787
 2105SOL    HW217949   1.618   3.130   2.890 -0.4946 -1.0342  0.2233
 2106SOL     OW17950   4.590   2.970   3.417  0.3307 -0.3178  0.0742
 2106SOL    HW117951   4.613   2.987   3.508  2.0958  1.0909 -0.6444
 2106SOL    HW217952   4.503   2.932   3.430 -0.5325  1.5355 -0.3296
 2107SOL     OW17953   0.782   0.369   2.193 -0.3216  0.0640  0.5385
 2107SOL    HW117954   0.820   0.435   2.251  3.5631  0.1392 -2.0785
 2107SOL    HW217955   0.717   0.426   2.153  0.9267  1.2146  0.1682
 2108SOL     OW17956   0.360   4.285   3.694 -0.7700 -0.4929 -0.6812
 2108SOL    HW117957   0.385   4.218   3.631  0.0019  0.5718 -1.5233
 2108SOL    HW217958   0.287   4.242   3.738 -0.8561  2.3001  1.9111
 2109SOL     OW17959   2.126   0.444  14.164  0.3815  0.3170 -0.2889
 2109SOL    HW117960   2.128   0.493  14.247  0.9339 -0.2929  0.0620
 2109SOL    HW217961   2.031   0.444  14.158  0.4216 -1.1137 -0.7465
 2110SOL     OW17962   3.307   1.547   1.577 -0.2506 -0.2020  0.0445
 2110SOL    HW117963   3.260   1.508   1.650  0.3346  0.3378  0.7139
 2110SOL    HW217964   3.376   1.590   1.628 -0.1784 -0.5140  0.2069
 2111SOL     OW17965   1.386   1.771   5.841 -0.0138 -0.6335  0.0928
 2111SOL    HW117966   1.327   1.732   5.906  1.0056 -0.8062  0.9263
 2111SOL    HW217967   1.375   1.864   5.858  0.4943 -0.2658 -1.5933
 2112SOL     OW17968   3.216   3.697   8.586 -0.4199  0.0904  0.2906
 2112SOL    HW117969   3.261   3.750   8.520  1.5234 -1.9544 -0.0282
 2112SOL    HW217970   3.151   3.761   8.615  0.4914 -0.7971  4.3748
 2113SOL     OW17971   2.322   0.451   7.036 -0.0896 -0.0683  0.3683
 2113SOL    HW117972   2.379   0.516   7.078 -0.6986  2.3037 -2.4338
 2113SOL    HW217973   2.333   0.472   6.943 -1.0159 -0.9923  0.0547
 2114SOL     OW17974   0.358   3.741   3.364 -0.4719  0.2071  0.1542
 2114SOL    HW117975   0.406   3.686   3.302  2.6434  1.8849  1.0430
 2114SOL    HW217976   0.391   3.719   3.452 -2.7706 -3.8477 -0.0051
 2115SOL     OW17977   1.246   0.866   1.113 -0.3622  0.4891  0.3156
 2115SOL    HW117978   1.261   0.847   1.020 -3.4223  2.8713 -0.6799
 2115SOL    HW217979   1.261   0.778   1.147 -0.3535  0.5404  0.4449
 2116SOL     OW17980   4.595   3.191   7.380 -0.5075 -0.5094 -0.1822
 2116SOL    HW117981   4.566   3.123   7.440  0.7403 -0.0791  0.9268
 2116SOL    HW217982   4.690   3.193   7.397 -0.4584  0.7825 -0.5772
 2117SOL     OW17983   0.441   1.588   5.780 -0.1943 -0.4128  0.7805
 2117SOL    HW117984   0.407   1.648   5.714  0.2375  0.2586  1.1800
 2117SOL    HW217985   0.433   1.640   5.859 -0.0390  1.2962 -0.3405
 2118SOL     OW17986   1.041   1.695   9.313  0.6766  0.1550 -0.2722
 2118SOL    HW117987   1.004   1.609   9.334 -0.2894  0.3880 -0.9867
 2118SOL    HW217988   1.088   1.667   9.234  2.7417  0.3610  0.8941
 2119SOL     OW17989   3.416   0.127   0.140 -0.0093  0.2751 -0.3634
 2119SOL    HW117990   3.392   0.168   0.223 -2.2956  1.1345 -1.4402
 2119SOL    HW217991   3.461   0.199   0.096 -0.1107 -0.5227 -1.7962
 2120SOL     OW17992   0.320   0.881   3.396 -0.2884 -0.0446  0.5033
 2120SOL    HW117993   0.307   0.818   3.324  2.3857 -1.5712  1.3791
 2120SOL    HW217994   0.236   0.878   3.442 -0.2481  1.1897  0.6589
 2121SOL     OW17995   3.595   1.047   9.010  0.3629  0.1322 -0.1797
 2121SOL    HW117996   3.683   1.013   8.994  1.0729  1.8962 -0.0148
 2121SOL    HW217997   3.608   1.140   8.991 -1.1564  0.5341  0.6980
 2122SOL     OW17998   4.637   1.316   2.838 -0.1702 -0.3569 -0.3095
 2122SOL    HW117999   4.732   1.328   2.831 -0.1085 -1.7985 -2.0266
 2122SOL    HW218000   4.618   1.246   2.901  2.2354 -1.4570 -0.7780
 2123SOL     OW18001   2.090   2.520   1.190  0.4917 -0.1754  0.1022
 2123SOL    HW118002   1.998   2.494   1.191 -0.3396  2.6724  0.0354
 2123SOL    HW218003   2.114   2.507   1.281  3.7058  0.0761 -0.7313
 2124SOL     OW18004   1.649   3.609   3.750  0.0011 -0.3204  0.1951
 2124SOL    HW118005   1.638   3.552   3.826  0.1930 -0.9740 -0.2611
 2124SOL    HW218006   1.608   3.687   3.786  1.0159  0.1864  0.2502
 2125SOL     OW18007   1.352   0.892  12.252  1.0460 -0.0771  0.4409
 2125SOL    HW118008   1.396   0.808  12.267  1.7566  0.5465  1.8864
 2125SOL    HW218009   1.386   0.917  12.166 -1.2809 -0.5618 -0.6074
 2126SOL     OW18010   0.307   4.207   2.598 -0.3856  0.7377  0.5319
 2126SOL    HW118011   0.329   4.277   2.535  1.5774  0.2733  0.7138
 2126SOL    HW218012   0.274   4.134   2.545  3.6705 -0.3284 -0.4960
 2127SOL     OW18013   1.612   2.550   4.583 -0.2615 -0.3432  0.4040
 2127SOL    HW118014   1.676   2.539   4.513 -1.2413 -0.3323 -0.4840
 2127SOL    HW218015   1.538   2.500   4.548  1.4672 -0.1239 -3.4614
 2128SOL     OW18016   4.089   2.022  14.196  0.3344 -0.3940 -0.3436
 2128SOL    HW118017   4.185   2.023  14.203  0.3173  1.9697 -0.6536
 2128SOL    HW218018   4.081   2.069  14.114  1.0024  0.4632  0.0806
 2129SOL     OW18019   1.331   3.796  15.200  0.2777  0.4422  0.5460
 2129SOL    HW118020   1.420   3.805  15.235  0.5146 -3.5785  0.9550
 2129SOL    HW218021   1.350   3.770  15.110 -1.4816  0.6666  0.1126
 2130SOL     OW18022   2.042   1.807   8.632 -0.4226 -0.0583  0.5970
 2130SOL    HW118023   1.947   1.795   8.637 -0.6365  1.4477 -0.1053
 2130SOL    HW218024   2.047   1.897   8.664  0.2138  0.4119 -0.8792
 2131SOL     OW18025   0.975   3.904  13.440  0.3471 -0.5768  0.4868
 2131SOL    HW118026   0.939   3.990  13.459  2.8812  0.6871 -0.4516
 2131SOL    HW218027   1.069   3.914  13.426  0.3666  1.2175  1.8974
 2132SOL     OW18028   4.435   0.448   1.718 -0.4156 -0.4503  0.0637
 2132SOL    HW118029   4.498   0.383   1.686 -0.3784  1.0726 -2.9483
 2132SOL    HW218030   4.366   0.393   1.756 -0.8661 -0.0701 -0.2140
 2133SOL     OW18031   1.660   1.768  16.573 -0.6693  0.4555 -0.3095
 2133SOL    HW118032   1.573   1.807  16.581 -0.7568  0.0097  0.9646
 2133SOL    HW218033   1.708   1.828  16.517  1.0803  1.1688  1.9228
 2134SOL     OW18034   0.181   1.244   8.155  0.7193 -0.1469 -0.1646
 2134SOL    HW118035   0.242   1.264   8.084  0.8818 -0.4961 -0.1236
 2134SOL    HW218036   0.133   1.326   8.164 -1.2681 -1.1293 -1.8217
 2135SOL     OW18037   2.276   3.395  12.317 -0.2375 -0.2349  0.5505
 2135SOL    HW118038   2.249   3.482  12.287 -2.9901 -0.6130  1.9576
 2135SOL    HW218039   2.203   3.362  12.370 -0.4158 -0.2037  0.3262
 2136SOL     OW18040   0.594   1.113   7.784 -0.2193  1.0334  0.7508
 2136SOL    HW118041   0.679   1.111   7.828 -1.1309 -0.7958  2.4223
 2136SOL    HW218042   0.566   1.022   7.774 -0.3581  1.1827 -0.3006
 2137SOL     OW18043   3.895   2.577   3.402 -0.4697 -0.0423  0.3403
 2137SOL    HW118044   3.905   2.510   3.334  0.9470 -0.8328  1.3492
 2137SOL    HW218045   3.920   2.529   3.480  0.1888  1.6335  1.1588
 2138SOL     OW18046   0.296   0.690   3.762  0.5183  0.2041 -0.2340
 2138SOL    HW118047   0.215   0.736   3.739  0.8302  1.3106  0.8446
 2138SOL    HW218048   0.297   0.618   3.699  0.1165  0.1617 -0.1937
 2139SOL     OW18049   2.009   1.445   3.323 -0.3642  0.1107  0.1993
 2139SOL    HW118050   1.955   1.375   3.285 -1.3208 -0.2179  2.1603
 2139SOL    HW218051   1.951   1.521   3.326  0.7192  0.9567 -0.2399
 2140SOL     OW18052   1.643   1.815   7.552  0.0604 -0.8839 -0.2565
 2140SOL    HW118053   1.720   1.835   7.499  0.7896 -0.0103  1.1147
 2140SOL    HW218054   1.601   1.746   7.501  0.9807 -1.5379 -0.1215
 2141SOL     OW18055   2.659   3.506   8.760 -0.4648  0.3333  0.0145
 2141SOL    HW118056   2.681   3.447   8.832 -0.0932  0.1710 -0.2325
 2141SOL    HW218057   2.735   3.490   8.704 -0.9894  0.2696 -0.6736
 2142SOL     OW18058   3.602   4.167   3.937 -0.2973 -0.4209 -0.1335
 2142SOL    HW118059   3.535   4.229   3.908 -0.5717 -0.4969  0.3527
 2142SOL    HW218060   3.557   4.132   4.013  1.3292 -1.3155  0.4202
 2143SOL     OW18061   2.806   2.777   6.222 -0.3559 -0.2216  0.1740
 2143SOL    HW118062   2.881   2.797   6.279 -1.0896  1.4434  0.5430
 2143SOL    HW218063   2.739   2.752   6.286  1.3064 -1.5688  1.4111
 2144SOL     OW18064   3.278   2.714  10.340  0.1812 -0.1331 -0.2637
 2144SOL    HW118065   3.228   2.789  10.306  0.3267  0.7453  1.4597
 2144SOL    HW218066   3.209   2.648  10.334 -1.0580  1.1945 -0.8731
 2145SOL     OW18067   3.203   1.651  17.590 -0.0997  0.0620 -0.3204
 2145SOL    HW118068   3.253   1.573  17.565 -1.2538 -0.1212 -2.0946
 2145SOL    HW218069   3.193   1.631  17.683 -1.3065  0.6460 -0.3304
 2146SOL     OW18070   2.641   2.415   8.746  0.2112  0.8157 -0.7176
 2146SOL    HW118071   2.681   2.331   8.766 -1.6138  0.3337  0.9598
 2146SOL    HW218072   2.635   2.405   8.651 -1.7674  1.1053 -0.6206
 2147SOL     OW18073   4.174   2.655   6.408 -0.5293  0.2716 -0.0169
 2147SOL    HW118074   4.137   2.707   6.336 -1.7233 -0.2496  0.2254
 2147SOL    HW218075   4.167   2.570   6.366  0.4915  0.6239 -0.9146
 2148SOL     OW18076   3.059   4.704  15.288 -0.3692  0.0482 -0.7799
 2148SOL    HW118077   3.084   0.016  15.365  0.3090 -2.5037  0.7272
 2148SOL    HW218078   2.972   4.739  15.268 -0.7804 -1.2486 -1.2797
 2149SOL     OW18079   0.514   4.462  13.410  0.2562 -0.6829  0.2541
 2149SOL    HW118080   0.532   4.372  13.382 -0.1569 -0.8844  0.6394
 2149SOL    HW218081   0.592   4.483  13.461  0.6564  1.0598 -1.0762
 2150SOL     OW18082   1.549   0.591   6.163  0.0613  0.0121  0.2073
 2150SOL    HW118083   1.517   0.565   6.250 -1.5782  1.5326  0.0661
 2150SOL    HW218084   1.544   0.505   6.122 -0.9607  0.4067 -0.5130
 2151SOL     OW18085   1.460   0.650  12.243  0.0567 -0.5194  0.2090
 2151SOL    HW118086   1.434   0.561  12.266 -2.3812 -0.1114 -0.9758
 2151SOL    HW218087   1.449   0.647  12.148  0.6995  1.8359  0.0504
 2152SOL     OW18088   1.001   4.536   6.700 -0.1060 -0.1643 -0.6004
 2152SOL    HW118089   0.992   4.622   6.740  1.1528 -0.3014 -0.0167
 2152SOL    HW218090   0.942   4.551   6.626 -0.8492 -0.6268 -0.1011
 2153SOL     OW18091   0.212   1.114   4.598  0.4106  0.5393  0.6302
 2153SOL    HW118092   0.279   1.182   4.590 -0.1442  1.3817  3.1233
 2153SOL    HW218093   0.142   1.146   4.542  0.1977  0.3689  0.7935
 2154SOL     OW18094   2.338   4.388   5.846 -0.2032 -0.3756  0.0560
 2154SOL    HW118095   2.307   4.318   5.904  0.9878 -2.6540 -2.0733
 2154SOL    HW218096   2.404   4.435   5.898 -0.0729 -2.8468  2.1479
 2155SOL     OW18097   4.376   3.408  13.844 -0.6404  0.1710 -0.0072
 2155SOL    HW118098   4.420   3.475  13.895  0.8297  0.1996 -1.2779
 2155SOL    HW218099   4.450   3.354  13.814 -0.1210  1.1149 -0.4020
 2156SOL     OW18100   1.382   2.431   8.690  0.4178  0.5371 -0.9497
 2156SOL    HW118101   1.443   2.372   8.645 -1.1379 -2.5430  1.0209
 2156SOL    HW218102   1.420   2.514   8.660  0.4931  0.2668 -1.6050
 2157SOL     OW18103   3.872   4.142   7.094 -0.0468  0.2138  0.1608
 2157SOL    HW118104   3.871   4.144   6.998 -2.3692  0.3173  0.1873
 2157SOL    HW218105   3.781   4.149   7.123 -0.3722 -0.3548 -0.7245
 2158SOL     OW18106   1.020   3.042   1.565  0.0218  0.4286  0.1788
 2158SOL    HW118107   1.007   3.089   1.647  3.8042 -1.6076  1.9688
 2158SOL    HW218108   1.033   3.112   1.501 -1.3264  0.0130 -0.5451
 2159SOL     OW18109   0.364   2.757   5.158  0.1032  0.2282 -0.5390
 2159SOL    HW118110   0.301   2.787   5.093  0.2357 -0.6900 -1.0886
 2159SOL    HW218111   0.422   2.702   5.104 -0.6625  0.6371 -1.7604
 2160SOL     OW18112   1.745   2.033  15.060 -0.5628  0.0662  0.1277
 2160SOL    HW118113   1.707   1.998  15.140 -0.8088  0.0142 -0.0132
 2160SOL    HW218114   1.836   2.050  15.085  0.0858 -1.0960 -1.4702
 2161SOL     OW18115   4.472   1.021   6.407  0.4883  0.6764 -0.1578
 2161SOL    HW118116   4.476   0.943   6.352 -0.9164  0.7694 -0.4103
 2161SOL    HW218117   4.438   0.979   6.486  1.0658  0.1897 -0.1653
 2162SOL     OW18118   3.276   0.961   6.119 -0.1619 -0.2919 -0.2233
 2162SOL    HW118119   3.336   1.004   6.057  1.1863  1.9510  2.6096
 2162SOL    HW218120   3.196   0.987   6.074 -0.5933 -0.5351  0.4130
 2163SOL     OW18121   1.345   0.740  10.161 -0.5086  0.0635 -0.6353
 2163SOL    HW118122   1.264   0.694  10.137  0.1485 -0.5677 -1.6085
 2163SOL    HW218123   1.402   0.666  10.182 -0.6154  0.3908  0.8257
 2164SOL     OW18124   1.629   0.223   4.713  0.2793  0.0965  0.1402
 2164SOL    HW118125   1.553   0.168   4.694 -0.7949  0.1731  4.1589
 2164SOL    HW218126   1.576   0.276   4.773  0.8273  0.3277  0.4149
 2165SOL     OW18127   2.948   1.764   4.837 -0.4757  0.5428  0.0817
 2165SOL    HW118128   3.015   1.810   4.785 -0.3419  0.8641  0.5353
 2165SOL    HW218129   2.974   1.673   4.846  1.9268  1.0735 -1.1663
 2166SOL     OW18130   3.242   2.742   9.620  0.2278 -0.2545 -0.0067
 2166SOL    HW118131   3.256   2.692   9.700  2.1594 -0.8053 -0.6948
 2166SOL    HW218132   3.328   2.782   9.611  0.7634 -0.7976  2.8644
 2167SOL     OW18133   3.624   1.835   5.216 -0.3500  0.4141 -0.1472
 2167SOL    HW118134   3.625   1.926   5.242  0.2448  0.8388 -1.6196
 2167SOL    HW218135   3.534   1.806   5.235  0.2639 -2.1167 -1.0133
 2168SOL     OW18136   2.644   3.841   7.461  0.1560  0.3714 -0.1331
 2168SOL    HW118137   2.720   3.898   7.449 -0.1771  0.9886  0.7325
 2168SOL    HW218138   2.581   3.884   7.403  0.2733 -0.1205 -0.6255
 2169SOL     OW18139   0.879   3.411   6.857 -0.0220  0.6437 -0.9133
 2169SOL    HW118140   0.916   3.381   6.940 -0.9377  1.8384 -0.0871
 2169SOL    HW218141   0.950   3.380   6.799  1.6478 -0.3112  1.6413
 2170SOL     OW18142   2.149   3.464   8.128 -0.2232 -0.7931 -0.5926
 2170SOL    HW118143   2.184   3.553   8.132 -0.9447 -0.5332 -0.0091
 2170SOL    HW218144   2.059   3.482   8.099 -0.2985 -2.5468 -1.4301
 2171SOL     OW18145   3.493   2.786   2.181  0.1130  0.2854 -0.0093
 2171SOL    HW118146   3.485   2.748   2.094  0.9928  2.5695 -1.0809
 2171SOL    HW218147   3.503   2.704   2.231 -0.5420  0.7482  0.8898
 2172SOL     OW18148   1.473   0.350  10.471 -0.0504  0.6993 -0.0540
 2172SOL    HW118149   1.465   0.401  10.390 -2.3614  0.4238  0.0286
 2172SOL    HW218150   1.432   0.270  10.440 -0.4550  1.6035 -1.8533
 2173SOL     OW18151   3.930   3.616   4.055 -0.3033  0.0912 -0.6897
 2173SOL    HW118152   3.904   3.673   3.983 -2.3348  0.7019  0.5421
 2173SOL    HW218153   3.979   3.544   4.014 -1.7134 -1.3073  0.1097
 2174SOL     OW18154   3.109   0.912   4.065 -0.3455 -0.2206  0.1212
 2174SOL    HW118155   3.183   0.911   4.005 -0.5141 -2.6385 -0.0342
 2174SOL    HW218156   3.116   0.829   4.112  0.7317 -0.6482 -0.8004
 2175SOL     OW18157   1.077   2.093   1.808  0.7570 -0.3676  0.3227
 2175SOL    HW118158   1.069   2.163   1.873 -0.2432  0.4499 -0.6874
 2175SOL    HW218159   0.995   2.099   1.759  1.4379 -0.1826 -0.7922
 2176SOL     OW18160   4.087   0.497   6.101  0.5641 -0.0881  0.2284
 2176SOL    HW118161   4.015   0.544   6.059 -0.3907 -1.8751 -0.1314
 2176SOL    HW218162   4.048   0.414   6.128 -1.5321  0.7294 -0.3105
 2177SOL     OW18163   4.136   1.658   4.641 -0.1242  0.4217 -0.2424
 2177SOL    HW118164   4.161   1.598   4.711 -0.7085  0.1042 -0.3061
 2177SOL    HW218165   4.079   1.610   4.580  1.0877 -1.7224  0.3078
 2178SOL     OW18166   3.942   1.727   3.016 -0.1953 -0.3714 -0.2126
 2178SOL    HW118167   3.980   1.770   2.939  0.9857  0.0946  0.6196
 2178SOL    HW218168   4.018   1.691   3.063  0.2530 -0.2797 -0.8722
 2179SOL     OW18169   0.800   4.225   1.571  0.5035  0.3681  0.0642
 2179SOL    HW118170   0.723   4.256   1.618  0.7011  0.3883  0.3726
 2179SOL    HW218171   0.860   4.299   1.557 -0.1481  0.9389  0.3280
 2180SOL     OW18172   2.730   3.695   5.458  0.1531 -0.8133  0.1242
 2180SOL    HW118173   2.799   3.630   5.474  1.7658  0.5340 -1.4125
 2180SOL    HW218174   2.671   3.683   5.532 -0.0677  3.0181  0.5479
 2181SOL     OW18175   1.031   3.926   7.737 -0.1170 -1.1763 -0.4095
 2181SOL    HW118176   0.942   3.907   7.710 -1.0902  1.0297  1.2959
 2181SOL    HW218177   1.040   4.010   7.693 -0.5106 -1.5538 -1.2131
 2182SOL     OW18178   0.314   2.975   9.132  0.1846 -0.0094  0.3976
 2182SOL    HW118179   0.281   2.959   9.220 -1.9109 -0.9483 -0.5452
 2182SOL    HW218180   0.276   2.907   9.075  1.4759 -1.2309  1.0087
 2183SOL     OW18181   1.993   3.300  15.896  0.1129 -0.1447 -0.2208
 2183SOL    HW118182   2.067   3.347  15.935  1.4882 -0.9992 -1.8128
 2183SOL    HW218183   1.947   3.262  15.971  0.5092 -0.9469 -0.3891
 2184SOL     OW18184   3.255   1.842  12.702 -0.2006  0.1295 -0.1423
 2184SOL    HW118185   3.331   1.855  12.758 -0.1843 -2.1659  0.3924
 2184SOL    HW218186   3.228   1.928  12.670  2.6879  1.3935  0.8985
 2185SOL     OW18187   3.966   3.360   3.899 -0.6871 -0.1705 -0.1844
 2185SOL    HW118188   4.034   3.333   3.961 -1.9572 -0.2248  1.1760
 2185SOL    HW218189   3.924   3.277   3.877 -2.3357  0.8074 -0.6854
 2186SOL     OW18190   0.922   4.398   3.860  0.3083  0.2802  0.2381
 2186SOL    HW118191   1.017   4.399   3.847  0.3297 -1.0483  0.3881
 2186SOL    HW218192   0.894   4.468   3.800 -0.1828 -0.2878 -0.1941
 2187SOL     OW18193   3.186   4.495   6.929 -0.0196  0.6424  0.2019
 2187SOL    HW118194   3.092   4.479   6.921  0.7220 -3.6945 -0.1771
 2187SOL    HW218195   3.197   4.588   6.909  2.1890  0.1182 -1.0999
 2188SOL     OW18196   4.256   1.968  13.000 -0.1308  0.5103  0.1880
 2188SOL    HW118197   4.281   1.923  13.080  0.3842 -1.9583 -1.3431
 2188SOL    HW218198   4.188   1.910  12.966  2.0731 -1.6232 -0.5948
 2189SOL     OW18199   3.178   3.502   8.864 -0.2564 -0.5240  0.1103
 2189SOL    HW118200   3.181   3.423   8.810  1.0383 -1.7420  1.9552
 2189SOL    HW218201   3.256   3.551   8.840 -0.9998  0.5458 -0.1023
 2190SOL     OW18202   4.420   0.928   6.951 -0.5181  0.2905 -0.2594
 2190SOL    HW118203   4.502   0.976   6.963  0.1807 -0.5433 -1.6815
 2190SOL    HW218204   4.444   0.845   6.992 -2.0072  0.5038  1.0344
 2191SOL     OW18205   4.538   1.784  11.715 -0.5481  0.5364  0.1536
 2191SOL    HW118206   4.631   1.780  11.735 -0.0151 -0.1702 -2.3807
 2191SOL    HW218207   4.531   1.747  11.627  0.0503  2.6332 -0.7720
 2192SOL     OW18208   4.417   4.165  12.370 -0.5513 -0.0433 -0.2519
 2192SOL    HW118209   4.463   4.140  12.290  1.8754  2.9142  0.2138
 2192SOL    HW218210   4.397   4.254  12.339  0.6117  0.0947 -0.6126
 2193SOL     OW18211   0.205   2.286   6.617  0.4037 -0.0225  0.6190
 2193SOL    HW118212   0.231   2.293   6.709 -1.1261 -0.1458  1.0652
 2193SOL    HW218213   0.226   2.195   6.594  0.1032 -0.3636  1.6692
 2194SOL     OW18214   1.420   3.558   5.225 -0.4084  0.1385  0.4111
 2194SOL    HW118215   1.347   3.586   5.281 -1.4195 -2.2265  0.3034
 2194SOL    HW218216   1.412   3.463   5.210 -0.6378  0.3213 -0.5879
 2195SOL     OW18217   1.030   2.596   5.940 -0.4686 -0.3434 -0.0455
 2195SOL    HW118218   1.040   2.592   6.036  2.0690  0.1890 -0.2820
 2195SOL    HW218219   0.939   2.572   5.925 -1.0755  1.3466  0.9085
 2196SOL     OW18220   1.873   2.056   0.151  0.3036 -0.2315 -0.0587
 2196SOL    HW118221   1.908   2.112   0.220  0.8847 -1.2100  0.4426
 2196SOL    HW218222   1.859   1.981   0.208  1.1509 -2.3536 -2.6343
 2197SOL     OW18223   2.330   0.985   5.687  0.1530  0.0306 -0.0418
 2197SOL    HW118224   2.260   0.929   5.721  0.7363 -2.4570 -2.9241
 2197SOL    HW218225   2.399   0.919   5.700 -0.8321 -1.0752 -0.4474
 2198SOL     OW18226   0.759   3.699   9.497  0.2461  0.4457  0.0356
 2198SOL    HW118227   0.852   3.675   9.489  0.6364  1.7754  0.5186
 2198SOL    HW218228   0.740   3.735   9.410  0.6137 -0.9977 -0.6430
 2199SOL     OW18229   1.252   0.947   7.374  0.5105 -0.1119  0.1357
 2199SOL    HW118230   1.190   1.009   7.412  0.4128 -0.1730  0.0756
 2199SOL    HW218231   1.252   0.886   7.448 -3.3027 -0.5162 -0.2159
 2200SOL     OW18232   1.519   0.069   8.410 -0.6618 -0.3145  0.1773
 2200SOL    HW118233   1.567   0.001   8.457 -0.5021  0.5045  1.1875
 2200SOL    HW218234   1.504   0.019   8.330 -0.1424  1.4792 -1.0413
 2201SOL     OW18235   1.730   4.497   7.506  0.3000  0.4223 -0.3385
 2201SOL    HW118236   1.795   4.446   7.554  0.1452 -0.9967 -1.6334
 2201SOL    HW218237   1.782   4.536   7.437 -2.1639  1.9064 -1.3753
 2202SOL     OW18238   3.084   0.961   0.414  0.1384  0.4615 -0.3716
 2202SOL    HW118239   3.139   0.957   0.336  0.8706 -1.0048  0.2331
 2202SOL    HW218240   2.998   0.973   0.372 -0.0852  0.2198  0.0150
 2203SOL     OW18241   1.066   1.949  13.897 -0.0490  0.2131  0.1270
 2203SOL    HW118242   0.981   1.990  13.912  0.7536  2.8134 -2.4104
 2203SOL    HW218243   1.108   1.966  13.981 -2.0338 -0.6412  1.2752
 2204SOL     OW18244   1.177   1.363   8.904 -0.4458  0.3842 -0.1407
 2204SOL    HW118245   1.218   1.355   8.818  1.5480 -2.4273  1.0695
 2204SOL    HW218246   1.227   1.291   8.943 -2.3969 -0.0288  1.6151
 2205SOL     OW18247   2.678   1.577   1.971 -0.5937  0.2318 -0.8233
 2205SOL    HW118248   2.665   1.495   1.925 -0.8821  1.1632 -2.4066
 2205SOL    HW218249   2.712   1.540   2.052  0.5486 -0.0007 -1.4234
 2206SOL     OW18250   3.894   0.341   5.416 -0.4648  0.0597 -0.3642
 2206SOL    HW118251   3.935   0.376   5.337  1.5818  0.7800  1.0362
 2206SOL    HW218252   3.860   0.254   5.394 -2.5434  0.8451 -0.3128
 2207SOL     OW18253   3.971   0.641  17.105 -0.3085 -0.0654 -0.3956
 2207SOL    HW118254   3.902   0.585  17.141 -1.6676  0.6343 -1.8706
 2207SOL    HW218255   3.941   0.638  17.014  0.9620 -0.8296 -0.7806
 2208SOL     OW18256   4.222   3.055   4.479 -0.1069 -0.0780 -0.5078
 2208SOL    HW118257   4.162   3.126   4.505 -0.6861 -0.1322 -1.6443
 2208SOL    HW218258   4.188   2.989   4.539  1.5892 -0.9057 -0.4702
 2209SOL     OW18259   3.667   4.625   7.980  0.2003 -0.2191 -0.2133
 2209SOL    HW118260   3.748   4.658   7.941  0.2225 -1.6635 -1.3779
 2209SOL    HW218261   3.698   4.626   8.071 -0.4052  1.1163 -0.0210
 2210SOL     OW18262   3.565   2.647   1.970 -0.2454  0.5803  0.1729
 2210SOL    HW118263   3.621   2.695   1.909 -1.0410  1.9060  0.5071
 2210SOL    HW218264   3.550   2.558   1.936 -0.0128  1.2267 -1.6262
 2211SOL     OW18265   3.210   3.422   5.490  0.2804  0.2550 -0.0186
 2211SOL    HW118266   3.289   3.437   5.438  0.7105  0.3043  0.6467
 2211SOL    HW218267   3.220   3.327   5.498 -0.8691  0.2194  1.0083
 2212SOL     OW18268   4.033   2.531  14.442  0.1051  0.4816  1.0029
 2212SOL    HW118269   3.951   2.577  14.430 -0.7667 -0.7555  2.1901
 2212SOL    HW218270   4.079   2.563  14.364  0.4085 -0.5320  0.7647
 2213SOL     OW18271   0.534   3.147   4.133 -0.4283  0.6195 -0.1147
 2213SOL    HW118272   0.549   3.197   4.053 -1.1718 -1.1619 -1.3777
 2213SOL    HW218273   0.602   3.190   4.185 -0.2169 -0.6672  0.6683
 2214SOL     OW18274   4.190   4.567   1.405  0.0638 -0.0407  0.0984
 2214SOL    HW118275   4.254   4.583   1.474 -1.7121  0.3777  1.6258
 2214SOL    HW218276   4.207   4.476   1.380 -1.4350 -0.1986 -0.3232
 2215SOL     OW18277   3.694   1.276   2.643  0.2183 -0.1774  0.3336
 2215SOL    HW118278   3.729   1.349   2.694 -1.2248 -0.3575  1.5873
 2215SOL    HW218279   3.648   1.219   2.705 -1.0997 -0.6941 -1.1504
 2216SOL     OW18280   4.231   1.546   3.725  0.4271 -0.3269 -0.0783
 2216SOL    HW118281   4.322   1.518   3.735  1.0183  1.1551 -1.2650
 2216SOL    HW218282   4.258   1.628   3.684  0.5098 -1.6719 -2.7274
 2217SOL     OW18283   1.490   2.779   4.115 -0.3049 -0.5086 -0.1784
 2217SOL    HW118284   1.488   2.696   4.162  2.1541  0.7064  2.0803
 2217SOL    HW218285   1.396   2.792   4.105 -0.1721  0.2516 -0.4845
 2218SOL     OW18286   1.966   2.071   4.963 -0.5482  0.1613  0.2647
 2218SOL    HW118287   1.882   2.035   4.992 -0.3140  0.6333  1.5278
 2218SOL    HW218288   2.005   1.990   4.930  0.1308  0.0791  1.2802
 2219SOL     OW18289   0.554   1.344  17.653 -0.7888 -0.1122 -0.1399
 2219SOL    HW118290   0.630   1.398  17.676  0.0122 -1.3852  0.2383
 2219SOL    HW218291   0.517   1.324  17.739  0.5137 -0.5601  0.3234
 2220SOL     OW18292   4.268   2.025   4.447 -0.1848  0.0750 -0.7290
 2220SOL    HW118293   4.245   2.102   4.395 -2.3791 -0.0154  0.0789
 2220SOL    HW218294   4.361   2.012   4.428  0.0264 -1.0049  1.0378
 2221SOL     OW18295   2.727   1.525  12.253  0.1309  0.1404 -0.2082
 2221SOL    HW118296   2.753   1.451  12.308  0.5761  0.5762  0.1684
 2221SOL    HW218297   2.703   1.468  12.180  2.0952  2.1717 -2.4657
 2222SOL     OW18298   3.292   0.884   3.866 -0.0985 -0.3544  0.2779
 2222SOL    HW118299   3.302   0.802   3.818 -0.5893 -1.0727  1.4034
 2222SOL    HW218300   3.370   0.936   3.845 -1.2002  0.5066 -1.5716
 2223SOL     OW18301   4.322   3.803   8.813 -0.3951  0.2798  0.1757
 2223SOL    HW118302   4.385   3.731   8.810  1.1977  1.6180  1.7757
 2223SOL    HW218303   4.330   3.849   8.729  1.6193  0.6060  0.5553
 2224SOL     OW18304   4.013   3.997   1.523 -0.1090 -0.4944 -0.2594
 2224SOL    HW118305   4.106   3.988   1.502 -0.0908 -0.4588 -0.1952
 2224SOL    HW218306   3.970   3.939   1.461  0.1671 -1.3723  0.3712
 2225SOL     OW18307   1.416   3.949   3.286 -0.0687 -0.7785  0.0785
 2225SOL    HW118308   1.399   3.881   3.352 -0.7991 -0.1297  0.5617
 2225SOL    HW218309   1.490   3.916   3.236  0.2791 -0.7048  0.5417
 2226SOL     OW18310   0.804   0.086   4.371  0.4296 -0.2908 -0.0831
 2226SOL    HW118311   0.888   0.113   4.335 -0.6390  3.5240  0.3019
 2226SOL    HW218312   0.820   0.096   4.465  1.1861 -1.0786 -0.1264
 2227SOL     OW18313   3.163   2.367   7.046 -0.0233  0.3098  0.0333
 2227SOL    HW118314   3.212   2.417   7.112 -0.2076  0.6350 -0.0778
 2227SOL    HW218315   3.172   2.278   7.080  0.1096 -1.0888 -3.7002
 2228SOL     OW18316   4.322   3.071   3.200  0.5516 -0.1250 -0.8934
 2228SOL    HW118317   4.265   3.085   3.125  0.6718 -3.5816 -1.6147
 2228SOL    HW218318   4.333   3.155   3.244  0.4548  0.4296 -1.9517
 2229SOL     OW18319   3.209   3.606   1.283 -0.4928  0.4935  0.0923
 2229SOL    HW118320   3.153   3.590   1.359 -1.3853  2.0668 -0.2215
 2229SOL    HW218321   3.195   3.521   1.243 -0.1912  0.0074  1.0265
 2230SOL     OW18322   1.369   1.963   1.350  0.1124  0.1648 -0.9060
 2230SOL    HW118323   1.320   1.998   1.424  1.9952 -0.0229  0.4201
 2230SOL    HW218324   1.339   2.002   1.267 -0.4369 -0.3478 -0.9534
 2231SOL     OW18325   0.643   0.603   4.399  0.1962 -0.3885 -0.1538
 2231SOL    HW118326   0.692   0.685   4.386 -0.4833  0.1394  0.6048
 2231SOL    HW218327   0.566   0.622   4.346  1.7038 -0.9477 -2.5548
 2232SOL     OW18328   0.649   0.693   5.129  0.1388  0.2508  0.2402
 2232SOL    HW118329   0.644   0.710   5.223 -0.5589 -2.4840  0.7122
 2232SOL    HW218330   0.575   0.632   5.130  0.1012  0.3127  1.2981
 2233SOL     OW18331   2.983   1.481   4.835 -0.0658  0.0254  0.3922
 2233SOL    HW118332   3.045   1.501   4.765 -0.9762  0.5744 -0.2651
 2233SOL    HW218333   2.978   1.385   4.840  0.3705 -0.1548 -2.8042
 2234SOL     OW18334   4.575   2.355   5.510 -0.1028  0.0276 -0.6435
 2234SOL    HW118335   4.544   2.265   5.500  1.0295 -0.4859  0.4588
 2234SOL    HW218336   4.608   2.361   5.420 -1.3654 -2.0675 -1.2562
 2235SOL     OW18337   0.723   0.102   2.923 -0.5672 -0.2140  0.1281
 2235SOL    HW118338   0.777   0.151   2.986  0.6642 -1.0101 -0.3096
 2235SOL    HW218339   0.647   0.160   2.913 -0.5285 -0.2214 -0.2242
 2236SOL     OW18340   0.191   2.309   9.494  0.4398  0.4700  0.2725
 2236SOL    HW118341   0.114   2.350   9.534  1.0994  0.2021  1.8020
 2236SOL    HW218342   0.155   2.221   9.482  2.6569 -0.0926 -2.1849
 2237SOL     OW18343   1.997   1.472   2.440 -0.0096 -0.4066  0.8785
 2237SOL    HW118344   2.085   1.497   2.468  0.1892 -0.9461  0.7348
 2237SOL    HW218345   1.950   1.517   2.510 -0.5429 -0.2929  0.4467
 2238SOL     OW18346   0.391   0.086   9.415  0.0156  0.3235 -0.3246
 2238SOL    HW118347   0.440   0.125   9.487 -0.2237 -0.4485  0.2601
 2238SOL    HW218348   0.409   4.732   9.424 -2.8170 -0.1664  0.2776
 2239SOL     OW18349   1.062   4.211   7.589 -0.6635  0.1186  0.6071
 2239SOL    HW118350   1.023   4.286   7.633 -4.2782 -2.2520  1.4115
 2239SOL    HW218351   1.155   4.228   7.607 -0.0317 -0.1567 -2.5138
 2240SOL     OW18352   0.999   2.162   4.645 -0.0075  0.8066  0.0766
 2240SOL    HW118353   0.918   2.115   4.665  0.4284  0.4218  0.9299
 2240SOL    HW218354   0.990   2.238   4.703  0.6783  1.1400 -0.2559
 2241SOL     OW18355   2.295   3.204   9.538 -0.1799  0.2633 -0.1897
 2241SOL    HW118356   2.382   3.242   9.545 -0.4722  0.7936  0.6665
 2241SOL    HW218357   2.305   3.161   9.453  1.6770  0.9701 -0.3156
 2242SOL     OW18358   4.338   1.021   5.952  0.5980  0.5557  0.1574
 2242SOL    HW118359   4.423   1.056   5.924 -0.8382  2.2130 -2.1279
 2242SOL    HW218360   4.350   0.927   5.936 -0.0375  1.0252 -3.1714
 2243SOL     OW18361   2.923   4.622   6.003  0.5081 -0.1510 -0.0633
 2243SOL    HW118362   2.859   4.550   6.002 -0.3421  0.5885  0.3660
 2243SOL    HW218363   2.996   4.579   6.047  0.4636 -0.5755 -0.4042
 2244SOL     OW18364   3.598   0.268   4.344  0.2850 -0.0044  0.0031
 2244SOL    HW118365   3.520   0.278   4.289  0.1762  0.4981  0.2465
 2244SOL    HW218366   3.667   0.282   4.280 -0.8625  2.1825 -0.7574
 2245SOL     OW18367   2.738   2.644   4.481  0.3026 -0.0411  0.6329
 2245SOL    HW118368   2.727   2.552   4.457  1.5248 -0.1366  0.4568
 2245SOL    HW218369   2.833   2.653   4.472  0.2263  1.6262  1.3463
 2246SOL     OW18370   1.442   2.847   8.974  0.0303  0.0227 -0.4466
 2246SOL    HW118371   1.471   2.756   8.973 -2.3516 -0.7515 -0.3533
 2246SOL    HW218372   1.512   2.903   8.939  2.9438 -1.6632  2.7114
 2247SOL     OW18373   0.841   1.636   8.207  0.1048 -0.3491  0.5009
 2247SOL    HW118374   0.865   1.657   8.297  0.1941 -1.2859  0.6961
 2247SOL    HW218375   0.815   1.722   8.173 -1.9445 -0.6750  1.2330
 2248SOL     OW18376   4.053   2.538   1.590 -0.2702  0.3595 -0.4168
 2248SOL    HW118377   4.026   2.495   1.670 -1.0578 -0.9745 -1.4171
 2248SOL    HW218378   3.981   2.541   1.528 -0.0733  1.5061 -0.5979
 2249SOL     OW18379   3.943   3.233  10.651 -0.1797  0.5184  0.1740
 2249SOL    HW118380   3.868   3.219  10.592  0.3166 -0.3587 -0.2514
 2249SOL    HW218381   3.915   3.320  10.679 -1.3543  0.3098 -0.3143
 2250SOL     OW18382   2.050   0.448   4.534 -0.2245 -0.3260  0.4419
 2250SOL    HW118383   1.994   0.378   4.566 -2.9306 -0.3043 -4.3389
 2250SOL    HW218384   2.017   0.458   4.445 -0.1929 -1.3691  0.3177
 2251SOL     OW18385   1.324   4.533   2.458 -0.2335 -0.1163  0.1418
 2251SOL    HW118386   1.293   4.565   2.543 -1.3446  0.2755 -0.4161
 2251SOL    HW218387   1.245   4.545   2.406  0.4985  1.3508 -0.6531
 2252SOL     OW18388   1.790   2.696   1.052 -0.3371 -0.0762 -0.0139
 2252SOL    HW118389   1.768   2.782   1.087  0.7164 -0.7512  2.3295
 2252SOL    HW218390   1.717   2.642   1.082  1.3330 -2.4700 -0.2247
 2253SOL     OW18391   3.930   2.398   0.392  0.3702  0.4511 -0.1325
 2253SOL    HW118392   3.875   2.383   0.315 -0.3103 -0.0459  0.4478
 2253SOL    HW218393   3.906   2.321   0.443  0.5604  0.7609  0.4192
 2254SOL     OW18394   3.016   2.102   9.880  0.4907  0.3527 -0.8153
 2254SOL    HW118395   2.945   2.076   9.939  1.4003  0.4781  0.3339
 2254SOL    HW218396   2.966   2.134   9.804 -0.1097 -1.8144 -1.3098
 2255SOL     OW18397   3.226   1.306   6.953  0.4896  0.1413 -0.1392
 2255SOL    HW118398   3.179   1.382   6.988 -1.0883 -0.5291 -0.7592
 2255SOL    HW218399   3.178   1.237   6.999  1.0090 -0.4595 -0.4954
 2256SOL     OW18400   4.680   3.922   7.532 -0.0766 -0.2470  0.3162
 2256SOL    HW118401   4.651   3.831   7.530 -1.7888  0.3207 -0.8045
 2256SOL    HW218402   4.718   3.923   7.620 -1.9671 -2.4207  1.1523
 2257SOL     OW18403   1.754   2.393   7.472  0.1635  0.1812 -0.2869
 2257SOL    HW118404   1.844   2.423   7.479  0.7043 -1.4590 -0.4326
 2257SOL    HW218405   1.766   2.299   7.470  2.5488  0.5185 -1.1118
 2258SOL     OW18406   1.816   0.010   3.679  0.2679 -0.2383  0.2908
 2258SOL    HW118407   1.880   4.688   3.714 -0.6533 -0.4983  1.5164
 2258SOL    HW218408   1.763   4.683   3.634  1.0841 -0.3922 -0.4271
 2259SOL     OW18409   2.231   0.359   9.934  0.0065 -0.0517 -0.0736
 2259SOL    HW118410   2.159   0.389   9.989 -0.7711 -0.9130 -0.6095
 2259SOL    HW218411   2.297   0.331   9.998  0.0449 -2.0988 -1.0120
 2260SOL     OW18412   2.623   4.184   3.328  0.1286 -0.5840 -0.3245
 2260SOL    HW118413   2.605   4.148   3.242 -1.3616  0.3077 -0.3860
 2260SOL    HW218414   2.571   4.264   3.322 -1.8055 -1.7039  1.5314
 2261SOL     OW18415   0.277   1.528   0.849  0.9195  0.3017  0.4027
 2261SOL    HW118416   0.279   1.453   0.908 -1.2036  0.4378  0.6446
 2261SOL    HW218417   0.220   1.589   0.895 -0.4979 -0.6420 -0.1132
 2262SOL     OW18418   3.441   1.110   4.411  0.1817  0.1457 -0.1021
 2262SOL    HW118419   3.371   1.046   4.397  1.6900 -1.2398 -1.2890
 2262SOL    HW218420   3.436   1.142   4.321  0.2586  0.8146  0.1266
 2263SOL     OW18421   0.373   4.077  16.996 -0.0266  0.1630 -0.4341
 2263SOL    HW118422   0.344   4.067  17.087  0.3386  0.3326 -0.2968
 2263SOL    HW218423   0.454   4.127  17.004  0.2487 -0.4308  0.5124
 2264SOL     OW18424   3.199   1.480  13.074  0.2492  0.3441 -0.2645
 2264SOL    HW118425   3.289   1.510  13.063 -0.0021  1.0588 -0.3555
 2264SOL    HW218426   3.170   1.477  12.983 -0.6280 -2.6255  0.1134
 2265SOL     OW18427   1.015   4.102   6.536 -0.1610  0.5040 -0.3217
 2265SOL    HW118428   0.932   4.138   6.506  0.2276  1.3454 -0.4035
 2265SOL    HW218429   0.983   4.021   6.575 -0.9018  0.4179 -1.1033
 2266SOL     OW18430   2.507   3.829   4.447 -0.4692 -0.7137 -0.6593
 2266SOL    HW118431   2.524   3.735   4.441 -2.3086 -1.0586 -0.5376
 2266SOL    HW218432   2.554   3.862   4.371  1.8357  0.7728  1.4042
 2267SOL     OW18433   1.815   2.945   6.992 -0.0076  0.0242 -0.2852
 2267SOL    HW118434   1.889   2.971   6.938 -2.1728  0.1865 -3.1940
 2267SOL    HW218435   1.750   2.944   6.921  0.3644 -0.6631 -0.6202
 2268SOL     OW18436   1.119   3.784   2.023 -0.2571  0.1283  0.2032
 2268SOL    HW118437   1.078   3.727   2.089  2.6725 -0.7610  1.2994
 2268SOL    HW218438   1.071   3.760   1.944 -0.4845 -3.6369  1.4543
 2269SOL     OW18439   2.761   1.871   8.428  0.6167 -0.4144  0.0624
 2269SOL    HW118440   2.811   1.804   8.382 -1.3066 -1.2971 -0.7851
 2269SOL    HW218441   2.822   1.898   8.496  0.5320  1.7208 -0.7024
 2270SOL     OW18442   3.074   0.360   4.501 -0.5486  0.4518  0.5089
 2270SOL    HW118443   3.163   0.394   4.501 -0.6211  0.6467 -1.3181
 2270SOL    HW218444   3.039   0.404   4.578 -1.8428 -0.5299  0.4865
 2271SOL     OW18445   2.725   3.682   0.858  0.2883  0.0242 -0.4782
 2271SOL    HW118446   2.675   3.701   0.936 -0.3249 -2.0885 -0.3541
 2271SOL    HW218447   2.747   3.589   0.865  0.2592  0.1250  0.8405
 2272SOL     OW18448   4.566   1.849   8.136 -0.3061 -0.1607 -0.2805
 2272SOL    HW118449   4.493   1.881   8.188 -1.6045 -0.5478 -1.8468
 2272SOL    HW218450   4.610   1.928   8.105 -0.0701 -0.8526 -1.7407
 2273SOL     OW18451   1.706   0.101  16.522 -0.2696 -0.0836 -0.2763
 2273SOL    HW118452   1.696   0.157  16.445  0.3914  2.1581  1.2767
 2273SOL    HW218453   1.640   0.142  16.578 -1.1987 -0.3115 -1.1989
 2274SOL     OW18454   4.447   1.171   9.664 -0.2676  0.1911 -1.0398
 2274SOL    HW118455   4.486   1.202   9.582 -0.2918  0.4143 -0.9670
 2274SOL    HW218456   4.422   1.082   9.639  0.6041  0.1712 -1.8205
 2275SOL     OW18457   1.900   4.530   1.674 -0.3556  0.1443  0.1288
 2275SOL    HW118458   1.842   4.541   1.750  0.2643 -1.5580  0.8586
 2275SOL    HW218459   1.954   4.608   1.670 -1.4890  1.0116  1.6751
 2276SOL     OW18460   1.276   0.746   8.614  0.6894  0.1159  0.2992
 2276SOL    HW118461   1.370   0.763   8.617  0.8349 -0.2052 -2.5063
 2276SOL    HW218462   1.243   0.817   8.669 -2.0002 -0.1769 -0.9373
 2277SOL     OW18463   3.788   1.882   2.747  0.0467  0.4200  0.5261
 2277SOL    HW118464   3.765   1.805   2.694  0.2781  0.1744  0.7866
 2277SOL    HW218465   3.883   1.879   2.734 -0.0041  0.3462  0.1771
 2278SOL     OW18466   3.948   4.538   4.643 -0.0098 -0.0207  0.3511
 2278SOL    HW118467   3.988   4.452   4.658 -0.0045 -0.2332 -0.8671
 2278SOL    HW218468   4.011   4.605   4.669 -0.5677 -0.2003  2.1353
 2279SOL     OW18469   2.451   1.251  13.957 -0.1042  0.0660  0.0533
 2279SOL    HW118470   2.515   1.197  14.003 -0.8917 -0.9964 -0.0799
 2279SOL    HW218471   2.411   1.283  14.038 -1.5050 -1.3316 -0.0841
 2280SOL     OW18472   3.234   2.994  15.436  0.1648  0.7795 -0.1053
 2280SOL    HW118473   3.309   3.009  15.492  1.2965  1.4855 -1.8172
 2280SOL    HW218474   3.181   3.073  15.448 -2.0031 -0.5334 -0.8450
 2281SOL     OW18475   2.315   3.798   6.236 -0.2107 -0.1665  0.0343
 2281SOL    HW118476   2.409   3.804   6.254  0.1289 -3.3753 -0.7016
 2281SOL    HW218477   2.276   3.860   6.298  3.6770  2.2711  0.0458
 2282SOL     OW18478   3.585   4.156   1.499 -0.6151 -0.2014 -0.3534
 2282SOL    HW118479   3.616   4.089   1.438 -0.1845 -0.2919 -0.0344
 2282SOL    HW218480   3.536   4.202   1.431 -1.2774 -0.8299 -0.2908
 2283SOL     OW18481   2.150   1.408   7.850  0.2131  0.0032 -0.6905
 2283SOL    HW118482   2.245   1.394   7.858  0.3678  1.1136 -0.6012
 2283SOL    HW218483   2.149   1.501   7.827  1.7412  0.3225  0.5281
 2284SOL     OW18484   2.467   4.005   5.072  0.3179  0.0958  0.2609
 2284SOL    HW118485   2.528   3.963   5.134  0.2255  1.3901  1.2226
 2284SOL    HW218486   2.385   3.981   5.115 -1.4201  1.5000 -2.3165
 2285SOL     OW18487   2.536   3.306   7.637 -0.2345  0.5305  0.7553
 2285SOL    HW118488   2.457   3.255   7.619 -0.0770 -0.2638  2.3171
 2285SOL    HW218489   2.496   3.391   7.654 -0.1833  0.2458  2.3084
 2286SOL     OW18490   3.659   0.449   3.876  0.2156  0.1897 -0.3338
 2286SOL    HW118491   3.730   0.492   3.829  0.8452  2.6406  2.8872
 2286SOL    HW218492   3.649   0.374   3.817  2.3251 -1.7903  1.8271
 2287SOL     OW18493   0.425   2.023   9.658 -0.0320 -0.0305 -0.5734
 2287SOL    HW118494   0.424   1.929   9.674 -2.5661 -0.0667 -0.9350
 2287SOL    HW218495   0.348   2.053   9.706  1.2092  2.1259  0.0689
 2288SOL     OW18496   0.991   1.237   1.077  0.7500  0.3970  0.0703
 2288SOL    HW118497   1.044   1.184   1.136  0.6509  0.7201  0.4493
 2288SOL    HW218498   1.046   1.315   1.067 -1.0714  1.7418  0.6369
 2289SOL     OW18499   2.265   3.269  13.440  0.0015  0.1661 -0.2012
 2289SOL    HW118500   2.334   3.273  13.374 -1.0315  1.4679 -1.2143
 2289SOL    HW218501   2.323   3.240  13.510  0.2976 -1.9259 -1.3119
 2290SOL     OW18502   1.008   2.882   9.385 -0.2969  0.1913 -0.1202
 2290SOL    HW118503   1.045   2.963   9.349 -1.7808  1.2589  0.7909
 2290SOL    HW218504   0.942   2.905   9.450 -1.8495  0.1827 -1.7068
 2291SOL     OW18505   2.010   0.728   6.362 -0.3094 -0.1201  0.1440
 2291SOL    HW118506   1.960   0.703   6.284 -0.0223  1.2446 -0.4743
 2291SOL    HW218507   2.029   0.644   6.404 -0.7285 -0.6145 -0.6483
 2292SOL     OW18508   1.281   1.453   4.324 -0.0977  0.6421  0.1658
 2292SOL    HW118509   1.346   1.518   4.299 -0.0202  0.6250  0.3252
 2292SOL    HW218510   1.210   1.465   4.261 -0.0424  0.1437  0.0020
 2293SOL     OW18511   0.172   1.923   8.346 -0.4144 -0.3773  0.6537
 2293SOL    HW118512   0.231   1.877   8.406  0.8152 -0.1439 -0.3722
 2293SOL    HW218513   0.099   1.934   8.406  0.5026  1.2930  1.4699
 2294SOL     OW18514   4.616   4.584   7.968  0.0824 -0.0845 -0.2754
 2294SOL    HW118515   4.639   4.667   8.010 -0.9807  1.7715 -3.4246
 2294SOL    HW218516   4.548   4.551   8.027 -1.2122  2.9317 -0.0727
 2295SOL     OW18517   1.553   1.624   1.946 -0.3719  0.0128 -0.3677
 2295SOL    HW118518   1.572   1.649   2.036 -0.8175 -2.4449  0.3941
 2295SOL    HW218519   1.638   1.641   1.905 -2.2053  1.9725 -3.3775
 2296SOL     OW18520   0.673   1.710  13.851 -0.0264  0.5300  0.3023
 2296SOL    HW118521   0.734   1.716  13.777 -0.1986 -2.3942 -0.0781
 2296SOL    HW218522   0.610   1.652  13.808 -0.8259  1.0310  0.8080
 2297SOL     OW18523   0.626   1.633   0.956 -0.3688  0.4350  0.0245
 2297SOL    HW118524   0.643   1.722   0.926  0.5066  0.0778 -0.5371
 2297SOL    HW218525   0.706   1.629   1.009  0.8739 -0.4039 -1.9180
 2298SOL     OW18526   3.224   1.923   7.784 -0.2249 -0.5138  0.7262
 2298SOL    HW118527   3.160   1.985   7.820  0.2383  0.3375  0.0939
 2298SOL    HW218528   3.236   1.857   7.851  3.0834 -1.1693 -0.5060
 2299SOL     OW18529   3.789   3.114   1.767  0.3929 -0.5848  0.1951
 2299SOL    HW118530   3.788   3.209   1.776 -1.3872 -0.2635 -3.4032
 2299SOL    HW218531   3.780   3.110   1.672 -0.8870  0.2597  0.2872
 2300SOL     OW18532   3.792   2.303   4.139  0.0887  0.6372 -0.9077
 2300SOL    HW118533   3.846   2.332   4.212  0.7744 -2.4901 -0.1931
 2300SOL    HW218534   3.724   2.370   4.144 -1.1813 -0.8737  1.8429
 2301SOL     OW18535   4.556   2.636   3.398 -0.1177  0.1238 -0.4725
 2301SOL    HW118536   4.624   2.613   3.335  0.7503  0.7526  0.2394
 2301SOL    HW218537   4.506   2.704   3.353 -0.4994 -0.8606 -1.5595
 2302SOL     OW18538   2.341   1.146   9.034 -0.2992 -0.1175  0.7125
 2302SOL    HW118539   2.395   1.180   9.105 -1.7576 -0.7963  2.1351
 2302SOL    HW218540   2.257   1.191   9.046 -1.2661 -2.0102  1.0478
 2303SOL     OW18541   1.433   1.665  15.381  0.8078 -0.3055 -0.1280
 2303SOL    HW118542   1.520   1.657  15.420 -0.3186  0.8226  2.6304
 2303SOL    HW218543   1.451   1.730  15.312 -1.3028  0.3797 -0.0161
 2304SOL     OW18544   1.089   0.250   7.691 -0.7042  0.5060  0.3697
 2304SOL    HW118545   1.078   0.306   7.767 -0.0551 -0.0516  0.8735
 2304SOL    HW218546   1.184   0.236   7.697 -0.4198  2.0608 -0.4899
 2305SOL     OW18547   2.788   0.688   6.415  0.4573 -0.4955 -0.2755
 2305SOL    HW118548   2.714   0.638   6.449 -0.3345  1.3203  0.7077
 2305SOL    HW218549   2.767   0.781   6.425  1.6815 -0.1519 -0.8397
 2306SOL     OW18550   4.247   4.323   1.732  0.4103  0.0031 -0.0257
 2306SOL    HW118551   4.280   4.233   1.733  1.5190  0.4066 -0.9400
 2306SOL    HW218552   4.178   4.311   1.667 -0.6285 -1.0656  1.2590
 2307SOL     OW18553   2.912   1.390   1.594 -0.0328  0.0995 -0.0986
 2307SOL    HW118554   2.829   1.372   1.639 -0.5889  1.9582 -0.3948
 2307SOL    HW218555   2.924   1.485   1.605  3.1930 -0.4713  1.4505
 2308SOL     OW18556   1.926   3.955   0.520 -0.8973 -0.0389  0.1130
 2308SOL    HW118557   1.846   3.923   0.478 -1.6935  2.8529 -0.5576
 2308SOL    HW218558   1.906   4.045   0.545  0.2976  1.2188 -3.4487
 2309SOL     OW18559   0.875   3.510   7.178 -0.2680  0.8059 -0.4235
 2309SOL    HW118560   0.831   3.461   7.248 -3.0620  0.0264 -2.7433
 2309SOL    HW218561   0.950   3.459   7.149  0.3722  1.3686  0.2465
 2310SOL     OW18562   3.839   0.199   2.213  0.8053 -0.4273 -0.4349
 2310SOL    HW118563   3.813   0.118   2.169 -0.5440  1.2495 -2.7163
 2310SOL    HW218564   3.790   0.184   2.294 -1.4758 -1.1584 -1.9568
 2311SOL     OW18565   2.463   2.023   4.601  0.1334  0.2023  0.3298
 2311SOL    HW118566   2.425   2.025   4.513  0.0285 -1.1119  0.3405
 2311SOL    HW218567   2.532   2.089   4.597  1.1251 -0.8737 -0.5275
 2312SOL     OW18568   4.495   1.869   7.324  0.2373  0.2476 -0.5374
 2312SOL    HW118569   4.571   1.915   7.289  1.4109 -1.7921 -0.6910
 2312SOL    HW218570   4.448   1.932   7.379 -0.9495 -1.4605  0.3927
 2313SOL     OW18571   4.329   2.764   7.119  0.1672  0.3075 -0.1689
 2313SOL    HW118572   4.318   2.680   7.075 -0.9245  0.7943 -0.8379
 2313SOL    HW218573   4.252   2.808   7.082  0.8043  2.3038  0.8605
 2314SOL     OW18574   0.712   2.649   6.933  0.3527  0.3829  0.6031
 2314SOL    HW118575   0.691   2.742   6.947 -0.1534  0.2454  0.7192
 2314SOL    HW218576   0.718   2.611   7.020  1.8071 -0.0800  0.2987
 2315SOL     OW18577   1.240   3.733   7.722 -0.1981  0.1674 -0.0104
 2315SOL    HW118578   1.223   3.698   7.634  0.4053  0.0988 -0.0958
 2315SOL    HW218579   1.163   3.790   7.724  1.9963  3.1123 -0.2796
 2316SOL     OW18580   1.492   4.609   4.470 -0.0709 -0.2962 -0.2146
 2316SOL    HW118581   1.534   4.665   4.404 -0.0249 -1.0089 -0.7898
 2316SOL    HW218582   1.401   4.624   4.446 -0.3891 -0.5498  0.8410
 2317SOL     OW18583   4.695   1.217   5.242  0.0162 -0.4895  0.0396
 2317SOL    HW118584   0.019   1.189   5.307  1.4575 -0.9415 -1.5749
 2317SOL    HW218585   4.618   1.189   5.291 -1.7422  0.5832 -2.0752
 2318SOL     OW18586   2.303   3.673   2.257  0.4285  0.4044 -0.6852
 2318SOL    HW118587   2.254   3.614   2.315 -0.2567  2.2041  0.5895
 2318SOL    HW218588   2.273   3.756   2.295  1.2126  1.0418 -1.4627
 2319SOL     OW18589   3.873   0.235  13.622  0.0463  0.4560  0.1488
 2319SOL    HW118590   3.868   0.312  13.678  0.5995 -0.0184  0.8542
 2319SOL    HW218591   3.921   0.174  13.679  0.4364  1.5256  0.9565
 2320SOL     OW18592   2.569   0.514   4.787  0.1121  0.3523 -0.7519
 2320SOL    HW118593   2.649   0.564   4.803  0.4639 -0.4244 -0.1241
 2320SOL    HW218594   2.592   0.440   4.842 -0.8492  1.3866  1.0419
 2321SOL     OW18595   3.043   3.907   5.790 -0.1707  0.1661  0.1301
 2321SOL    HW118596   3.008   3.877   5.707 -1.4968  0.6797  0.4935
 2321SOL    HW218597   3.081   3.992   5.768  0.1107 -0.3130 -1.1926
 2322SOL     OW18598   1.249   4.006  13.439  0.1319  0.1608 -0.2152
 2322SOL    HW118599   1.300   3.998  13.520  2.2219  1.2821 -1.4257
 2322SOL    HW218600   1.248   4.099  13.418  2.3786  0.0315 -0.8938
 2323SOL     OW18601   1.169   3.332   8.096  0.2639 -0.2479 -0.0545
 2323SOL    HW118602   1.143   3.319   8.187 -1.7423 -1.1613 -0.7445
 2323SOL    HW218603   1.262   3.355   8.094  0.1512  0.2656  0.5610
 2324SOL     OW18604   0.996   2.692   9.186  0.1507 -0.2630 -0.5033
 2324SOL    HW118605   1.085   2.718   9.162 -0.7314  1.4129 -1.9738
 2324SOL    HW218606   0.997   2.731   9.274 -0.3521  1.8902 -1.4535
 2325SOL     OW18607   2.650   3.126   2.061 -0.2599  0.1335 -0.0227
 2325SOL    HW118608   2.615   3.109   2.148  0.9229  1.6146  0.7381
 2325SOL    HW218609   2.721   3.185   2.087  1.5894 -1.4893 -1.4076
 2326SOL     OW18610   1.824   1.802  16.324 -0.3145 -0.7493  0.1328
 2326SOL    HW118611   1.918   1.796  16.309 -0.0037  1.7829  0.9319
 2326SOL    HW218612   1.820   1.895  16.346 -0.6128 -0.7192 -0.0533
 2327SOL     OW18613   3.531   4.607   7.445  0.5516  0.2962  0.4388
 2327SOL    HW118614   3.580   4.651   7.376  1.4431 -0.5491  0.5334
 2327SOL    HW218615   3.446   4.632   7.408  0.3326  0.6240  1.1661
 2328SOL     OW18616   3.348   1.459   4.448  0.5538  0.2589 -0.4243
 2328SOL    HW118617   3.421   1.505   4.407 -1.1293  2.4676 -0.9024
 2328SOL    HW218618   3.322   1.410   4.370  1.4486  0.1709 -0.6600
 2329SOL     OW18619   0.377   4.594   9.932  0.1987  0.5039 -0.6335
 2329SOL    HW118620   0.435   4.527   9.970  0.4402  1.0665 -0.0040
 2329SOL    HW218621   0.384   4.552   9.846  1.6751  0.9105 -0.7204
 2330SOL     OW18622   0.390   0.119   6.600  0.1117 -0.7236  0.2777
 2330SOL    HW118623   0.369   0.054   6.533  0.3469  0.4379 -0.9506
 2330SOL    HW218624   0.303   0.158   6.614 -0.5065 -2.6603  1.7420
 2331SOL     OW18625   2.271   3.863  13.756  0.1790  0.7409  0.4331
 2331SOL    HW118626   2.296   3.845  13.847  1.2951 -0.3001 -0.0751
 2331SOL    HW218627   2.275   3.776  13.716  2.4700 -0.2494  2.8595
 2332SOL     OW18628   0.283   1.970   7.627  0.0138 -0.5027  0.0224
 2332SOL    HW118629   0.335   2.051   7.628 -1.1481  0.2424  0.0916
 2332SOL    HW218630   0.267   1.967   7.533  0.8845  0.7674 -0.1609
 2333SOL     OW18631   0.335   2.635  15.448 -0.1355  0.0196  0.1231
 2333SOL    HW118632   0.431   2.641  15.446 -0.0029 -2.7740 -0.4959
 2333SOL    HW218633   0.320   2.653  15.356  2.1363 -1.8018 -0.5898
 2334SOL     OW18634   1.618   0.824   8.035  0.3606 -0.6457 -0.1507
 2334SOL    HW118635   1.652   0.812   8.124 -0.5054  0.1717  0.2852
 2334SOL    HW218636   1.573   0.908   8.037  1.7654  0.0682  1.5692
 2335SOL     OW18637   1.752   1.758   4.174  0.4053 -0.3273  0.5305
 2335SOL    HW118638   1.736   1.714   4.258 -0.0650  2.4149  1.8846
 2335SOL    HW218639   1.828   1.813   4.195  1.6172 -1.2286 -1.5138
 2336SOL     OW18640   4.282   1.516   2.391 -0.6108  0.0216  0.5680
 2336SOL    HW118641   4.300   1.437   2.339  1.1500  1.0998 -0.4849
 2336SOL    HW218642   4.278   1.575   2.316 -1.8674 -0.2688  0.4055
 2337SOL     OW18643   0.247   0.390   0.402  1.0232 -1.0283 -0.2003
 2337SOL    HW118644   0.174   0.352   0.450  1.0492  0.7689  1.2609
 2337SOL    HW218645   0.262   0.471   0.452  0.6768 -0.8346 -0.4037
 2338SOL     OW18646   3.256   0.864  10.437  0.2472  0.5283  0.4024
 2338SOL    HW118647   3.229   0.773  10.442  0.5325  0.5226  2.0088
 2338SOL    HW218648   3.349   0.865  10.415 -0.1865  0.8223 -1.3637
 2339SOL     OW18649   3.806   0.905   4.144  0.7670 -0.4490  0.6220
 2339SOL    HW118650   3.816   0.905   4.049 -3.0612 -0.8411  0.2225
 2339SOL    HW218651   3.719   0.864   4.140  2.2922 -3.7831  2.1733
 2340SOL     OW18652   0.472   1.264   8.671 -0.1989 -0.3096  0.1920
 2340SOL    HW118653   0.557   1.230   8.698 -0.2921  1.3945  2.6071
 2340SOL    HW218654   0.474   1.247   8.577 -1.1583  1.4099 -0.1357
 2341SOL     OW18655   2.121   3.056   1.490 -0.2739  0.2903 -0.1432
 2341SOL    HW118656   2.053   2.995   1.462 -0.8982  1.2046 -0.6419
 2341SOL    HW218657   2.148   3.022   1.575 -0.5047 -0.7462 -0.4919
 2342SOL     OW18658   0.295   1.901   3.715  0.0237  0.7288  0.1629
 2342SOL    HW118659   0.300   1.965   3.786  0.6755  1.3881 -0.4925
 2342SOL    HW218660   0.214   1.857   3.741  0.4858  0.2238  0.7717
 2343SOL     OW18661   0.855   2.281   5.660  0.0944 -0.2213  0.1622
 2343SOL    HW118662   0.776   2.228   5.669  0.6463 -1.4751 -2.4045
 2343SOL    HW218663   0.813   2.367   5.660 -0.0857 -0.3096  1.3564
 2344SOL     OW18664   3.395   2.617   1.564  0.2722  0.7518  0.1195
 2344SOL    HW118665   3.401   2.712   1.552  0.0020  0.6474 -0.8693
 2344SOL    HW218666   3.310   2.611   1.609  0.0760  1.0954 -0.2018
 2345SOL     OW18667   3.698   4.221  12.739 -0.3839 -0.1448 -0.8196
 2345SOL    HW118668   3.667   4.149  12.794  1.7803 -2.3755 -2.5430
 2345SOL    HW218669   3.652   4.207  12.657 -0.5936 -0.2238 -0.6897
 2346SOL     OW18670   4.486   3.491  13.305 -0.0058 -0.6607  0.0646
 2346SOL    HW118671   4.500   3.432  13.231  0.2768 -0.3642 -0.1223
 2346SOL    HW218672   4.519   3.447  13.384  0.3280  0.1486  0.3787
 2347SOL     OW18673   1.366   1.060  12.774 -0.2579 -0.1215 -0.2269
 2347SOL    HW118674   1.341   1.083  12.864 -0.7308 -1.4474 -0.0092
 2347SOL    HW218675   1.377   0.968  12.797  2.4714 -0.2806 -2.1223
 2348SOL     OW18676   4.364   0.496   6.084  0.8978 -0.2863 -0.0418
 2348SOL    HW118677   4.282   0.521   6.042 -0.9561  0.1111  3.8094
 2348SOL    HW218678   4.363   0.402   6.100 -2.0583  0.0017  1.4607
 2349SOL     OW18679   1.135   1.487   1.031  0.2129 -0.3882 -0.8049
 2349SOL    HW118680   1.118   1.475   1.125  1.0180  0.8127 -0.4985
 2349SOL    HW218681   1.214   1.436   1.013  0.6623 -1.0463  2.9127
 2350SOL     OW18682   0.065   1.759  11.754  0.6799 -0.0232  0.1875
 2350SOL    HW118683   0.156   1.785  11.764  0.2441  0.9064  1.7256
 2350SOL    HW218684   0.062   1.681  11.810 -2.4517 -1.6802 -2.2484
 2351SOL     OW18685   1.277   2.745  15.507  0.0217  0.1932  0.4984
 2351SOL    HW118686   1.241   2.732  15.420  2.7845  1.1399 -0.7813
 2351SOL    HW218687   1.204   2.737  15.569 -1.0985 -0.4103 -0.9161
 2352SOL     OW18688   1.637   4.471  13.009 -0.5024  0.2059  0.3292
 2352SOL    HW118689   1.560   4.460  13.065 -0.4215 -0.0082  0.3988
 2352SOL    HW218690   1.668   4.380  13.012 -0.0811  0.4404  2.6745
 2353SOL     OW18691   0.112   2.558   7.433 -0.0208 -0.2695  0.2409
 2353SOL    HW118692   0.137   2.497   7.363 -1.2157 -0.6750  0.1781
 2353SOL    HW218693   0.194   2.558   7.484  0.5828 -0.1663 -0.7374
 2354SOL     OW18694   3.228   2.055   9.572 -0.0747  0.0945  0.0391
 2354SOL    HW118695   3.268   2.142   9.574  1.0766 -0.4367  0.2538
 2354SOL    HW218696   3.251   2.018   9.657  2.5673 -0.5473 -0.9347
 2355SOL     OW18697   4.653   0.075   9.081  0.4404 -0.0045  0.2688
 2355SOL    HW118698   4.684   4.729   9.052 -1.0100 -0.0707 -1.0068
 2355SOL    HW218699   4.726   0.134   9.063  1.4523 -0.9786  1.1461
 2356SOL     OW18700   2.779   1.996   6.276  0.0345  0.3884 -0.3918
 2356SOL    HW118701   2.870   2.024   6.272  0.1507  0.5832  3.3905
 2356SOL    HW218702   2.731   2.041   6.207 -3.6932 -1.3251  1.0832
 2357SOL     OW18703   3.338   3.077   0.297 -0.6248  0.4239 -0.4959
 2357SOL    HW118704   3.422   3.066   0.252  0.5883  0.2009  1.8428
 2357SOL    HW218705   3.367   3.144   0.359 -1.6951 -1.9234  2.5614
 2358SOL     OW18706   0.582   4.460   8.373  0.2148 -0.5881  0.1298
 2358SOL    HW118707   0.521   4.522   8.334  0.7753 -0.1704 -0.0791
 2358SOL    HW218708   0.539   4.381   8.340  1.2290 -2.4618  3.2610
 2359SOL     OW18709   1.995   4.460  14.919  1.0744 -0.0658 -0.0685
 2359SOL    HW118710   1.947   4.382  14.949 -1.5629  0.3697 -3.1941
 2359SOL    HW218711   2.073   4.442  14.971  0.0062 -2.3453  0.7615
 2360SOL     OW18712   4.415   3.351   2.962 -0.3035  0.3807  0.0693
 2360SOL    HW118713   4.432   3.409   3.037 -2.2073 -0.0461  0.8424
 2360SOL    HW218714   4.368   3.419   2.912 -0.0559  0.9424  0.5973
 2361SOL     OW18715   4.401   2.745   7.398  0.2239  0.2219  0.0253
 2361SOL    HW118716   4.361   2.776   7.317  0.5750 -1.0390 -0.6242
 2361SOL    HW218717   4.418   2.655   7.369  1.8684 -0.2704  2.5613
 2362SOL     OW18718   1.349   3.126  13.946 -0.6913  0.8477  0.2758
 2362SOL    HW118719   1.274   3.085  13.903  0.7266 -1.2135 -0.2250
 2362SOL    HW218720   1.329   3.118  14.039 -0.9407  2.3315  0.3422
 2363SOL     OW18721   3.122   1.427  16.433 -0.1946 -0.3840 -0.0659
 2363SOL    HW118722   3.174   1.372  16.374  0.0255 -0.0767 -0.1570
 2363SOL    HW218723   3.080   1.482  16.366  0.8220  0.1134 -0.3031
 2364SOL     OW18724   3.249   0.007  11.158 -0.2892 -0.3050 -0.1891
 2364SOL    HW118725   3.158   4.718  11.147 -0.3080  0.4987 -2.1347
 2364SOL    HW218726   3.247   0.058  11.239  0.3445 -1.1010  0.3287
 2365SOL     OW18727   3.860   0.325  11.343  0.0805 -0.2067  0.1465
 2365SOL    HW118728   3.944   0.352  11.304 -0.5633  1.3475 -0.1483
 2365SOL    HW218729   3.844   0.248  11.287 -0.4878 -1.0748  1.5077
 2366SOL     OW18730   0.494   2.146  11.953 -0.3465 -0.1472  0.2623
 2366SOL    HW118731   0.574   2.095  11.939 -2.2121 -3.1813  0.4937
 2366SOL    HW218732   0.479   2.143  12.047 -3.2520 -2.3408 -0.2721
 2367SOL     OW18733   1.615   3.420  16.144  0.4279 -0.0595 -0.1523
 2367SOL    HW118734   1.529   3.451  16.117  0.2525 -0.9313 -0.5869
 2367SOL    HW218735   1.624   3.347  16.083 -3.3898  0.6234 -1.4987
 2368SOL     OW18736   4.123   1.713  12.906 -0.2061  0.5104  0.3416
 2368SOL    HW118737   4.084   1.647  12.848 -0.9527  2.0218 -0.8976
 2368SOL    HW218738   4.053   1.727  12.969 -0.9939  0.2907 -0.4757
 2369SOL     OW18739   0.440   1.242   2.529  0.1093 -0.6806  0.5555
 2369SOL    HW118740   0.414   1.151   2.544  0.5278 -0.8090  0.4933
 2369SOL    HW218741   0.500   1.256   2.601 -0.2416 -0.2424  0.7631
 2370SOL     OW18742   2.075   1.828   4.816 -0.4906 -0.1675 -0.2140
 2370SOL    HW118743   2.053   1.848   4.725 -0.3661 -0.7973 -0.3839
 2370SOL    HW218744   2.164   1.797   4.798 -0.4841 -0.3570  0.1622
 2371SOL     OW18745   4.693   2.405   4.290 -0.0054 -0.3648  0.5696
 2371SOL    HW118746   0.044   2.420   4.264 -0.2616 -1.2271 -0.8054
 2371SOL    HW218747   4.666   2.489   4.329  2.1426  1.5166 -1.9966
 2372SOL     OW18748   0.475   4.426   7.635 -0.1535 -0.2291  0.0623
 2372SOL    HW118749   0.420   4.349   7.616  0.9017 -1.1698  0.7972
 2372SOL    HW218750   0.402   4.482   7.662 -0.4581  0.0006 -1.2605
 2373SOL     OW18751   3.487   1.197  10.807 -0.4765  0.4299 -0.0921
 2373SOL    HW118752   3.519   1.132  10.869 -1.6949  0.0186  0.1018
 2373SOL    HW218753   3.398   1.169  10.786 -0.4145 -0.8585  1.4213
 2374SOL     OW18754   3.107   0.101   6.363  0.2139  0.2255 -0.4628
 2374SOL    HW118755   3.080   0.112   6.454  1.0225 -0.1486 -0.1769
 2374SOL    HW218756   3.103   0.005   6.357 -0.8221  0.2251  0.2301
 2375SOL     OW18757   0.170   4.219   8.597 -0.7506 -0.2653 -0.2102
 2375SOL    HW118758   0.233   4.148   8.585 -1.1776 -0.8233  0.8220
 2375SOL    HW218759   0.088   4.170   8.600 -0.1558 -1.2753 -0.6830
 2376SOL     OW18760   0.193   0.105   5.041 -0.5415 -0.6800 -0.1646
 2376SOL    HW118761   0.154   0.020   5.021  0.7552 -0.9947 -1.2758
 2376SOL    HW218762   0.169   0.139   4.955 -0.0656  1.5532  0.5677
 2377SOL     OW18763   3.498   4.141   2.915  0.3051  0.1746  0.8907
 2377SOL    HW118764   3.593   4.131   2.912  0.1123 -0.9556 -1.7395
 2377SOL    HW218765   3.487   4.067   2.855  0.0048 -0.2005  1.4104
 2378SOL     OW18766   0.819   2.948   1.819  0.0243 -0.1965 -0.0184
 2378SOL    HW118767   0.798   2.862   1.856 -0.8848 -0.3457 -0.8783
 2378SOL    HW218768   0.775   2.941   1.735 -1.2447 -3.2118  0.8753
 2379SOL     OW18769   1.380   2.325   1.697  0.3323  0.1888  0.1734
 2379SOL    HW118770   1.447   2.330   1.628  0.9283  2.5096  0.9117
 2379SOL    HW218771   1.343   2.238   1.687 -1.8720  0.8848  2.3027
 2380SOL     OW18772   0.291   2.833  14.533 -0.4143 -0.1413  0.3741
 2380SOL    HW118773   0.263   2.901  14.594  0.4778  1.7521 -1.3249
 2380SOL    HW218774   0.373   2.804  14.573  0.7515  1.8452 -0.5836
 2381SOL     OW18775   4.395   0.814  10.264  0.7473  0.2121  0.1333
 2381SOL    HW118776   4.489   0.797  10.275  0.8718 -0.0092 -1.2676
 2381SOL    HW218777   4.377   0.736  10.212  1.3420  0.3890 -0.3439
 2382SOL     OW18778   2.584   2.576   2.950  0.5471 -0.4051  0.5129
 2382SOL    HW118779   2.529   2.511   2.994  0.9020  0.0081  1.5660
 2382SOL    HW218780   2.519   2.646   2.954  0.3343 -0.7262  3.0022
 2383SOL     OW18781   4.299   2.047   6.957 -0.0010  0.7491 -0.5281
 2383SOL    HW118782   4.298   1.957   6.990  0.0275  0.4278 -1.3966
 2383SOL    HW218783   4.216   2.081   6.992 -0.2570 -1.6400  1.2482
 2384SOL     OW18784   2.906   1.562   3.631 -0.5679  0.0700 -0.0147
 2384SOL    HW118785   3.001   1.558   3.632 -0.6669 -2.6278 -0.4877
 2384SOL    HW218786   2.877   1.518   3.711 -1.0903 -1.3068 -0.9556
 2385SOL     OW18787   3.925   3.390   5.407 -0.3569 -0.0803  0.3657
 2385SOL    HW118788   3.977   3.385   5.487  0.1433 -0.3040  0.0266
 2385SOL    HW218789   3.945   3.301   5.377  2.0832  0.9271 -0.9209
 2386SOL     OW18790   3.345   3.549   5.719  0.1357 -0.7767 -0.1066
 2386SOL    HW118791   3.296   3.473   5.749  1.2375 -1.4604 -0.0118
 2386SOL    HW218792   3.305   3.550   5.632 -0.1190 -0.6890  0.0139
 2387SOL     OW18793   0.398   0.901   2.621 -0.3667  0.4171  0.2980
 2387SOL    HW118794   0.479   0.950   2.608 -0.3717 -0.0389 -1.5593
 2387SOL    HW218795   0.408   0.858   2.705  0.4513 -1.6024 -0.8472
 2388SOL     OW18796   1.523   2.828   6.856 -0.2297  0.6007  0.2713
 2388SOL    HW118797   1.478   2.884   6.919 -0.6879 -0.8820  1.2457
 2388SOL    HW218798   1.492   2.862   6.772 -1.1944 -1.2261 -0.1160
 2389SOL     OW18799   3.047   2.017  15.063 -0.3767 -0.4979 -0.4922
 2389SOL    HW118800   2.969   1.981  15.104  0.7059 -0.3803  1.6918
 2389SOL    HW218801   3.100   2.043  15.140 -1.3458  1.7140 -0.5699
 2390SOL     OW18802   3.265   0.476   7.136  0.1331  0.2355  0.9010
 2390SOL    HW118803   3.284   0.517   7.052  0.0704 -0.9315  0.3074
 2390SOL    HW218804   3.350   0.440   7.161  2.0321  3.7238 -0.5910
 2391SOL     OW18805   3.101   0.208   8.476 -1.0625 -0.3647  0.0497
 2391SOL    HW118806   3.136   0.202   8.387  3.0617  0.3735  1.6201
 2391SOL    HW218807   3.032   0.142   8.482 -0.0695 -1.3928  0.3297
 2392SOL     OW18808   0.951   3.169   8.036  0.1775 -0.3093 -0.4850
 2392SOL    HW118809   1.012   3.240   8.019  0.0043 -0.4276 -1.6337
 2392SOL    HW218810   0.891   3.214   8.095 -0.1393  1.3951 -2.0951
 2393SOL     OW18811   0.133   2.257  17.720  0.5211  0.1184 -0.1042
 2393SOL    HW118812   0.098   2.195  17.656 -0.0728 -0.0718  0.4044
 2393SOL    HW218813   0.167   2.207   0.038 -0.7467 -1.4928 -0.6058
 2394SOL     OW18814   3.191   3.146   5.224 -0.6087 -0.2182 -0.6551
 2394SOL    HW118815   3.176   3.231   5.182  0.3171 -1.2889 -3.1615
 2394SOL    HW218816   3.194   3.166   5.318 -1.8498  0.1722 -0.6948
 2395SOL     OW18817   4.205   0.572   8.816  0.2778 -0.1194 -0.7572
 2395SOL    HW118818   4.289   0.616   8.805 -0.1652  0.6601 -0.9796
 2395SOL    HW218819   4.136   0.637   8.826 -0.0780 -0.4190 -1.2799
 2396SOL     OW18820   3.915   3.181   0.542  0.3117 -0.1361 -0.2351
 2396SOL    HW118821   3.842   3.139   0.496 -2.4738  1.7966  2.3852
 2396SOL    HW218822   3.872   3.231   0.612  1.4740  0.1746  0.2478
 2397SOL     OW18823   1.828   0.221   6.978 -0.3357 -1.0087  0.4356
 2397SOL    HW118824   1.836   0.199   7.071  1.0297  2.4392  1.1323
 2397SOL    HW218825   1.916   0.254   6.962 -0.3339 -0.3490  1.7354
 2398SOL     OW18826   0.717   2.575   7.196  0.5631  0.2506  0.2427
 2398SOL    HW118827   0.698   2.528   7.278 -1.2657  0.5698  0.0133
 2398SOL    HW218828   0.799   2.617   7.220  0.0241  1.5501 -0.2132
 2399SOL     OW18829   1.430   4.098   4.574  0.0034  0.3565 -0.7446
 2399SOL    HW118830   1.415   4.086   4.481  0.3254  0.0279 -0.7551
 2399SOL    HW218831   1.358   4.043   4.605  0.3410  0.1956 -0.2414
 2400SOL     OW18832   3.405   2.486   2.524 -0.2380  0.3107  0.4764
 2400SOL    HW118833   3.335   2.501   2.461 -1.2952 -2.6516  0.9474
 2400SOL    HW218834   3.479   2.520   2.473 -0.1751 -1.1690 -0.3983
 2401SOL     OW18835   3.064   2.114   2.240 -0.2660  0.2877 -0.7068
 2401SOL    HW118836   3.118   2.038   2.223 -1.9881 -1.9526  3.9358
 2401SOL    HW218837   3.091   2.187   2.184  2.0960  0.6421  0.8675
 2402SOL     OW18838   2.017   2.803   3.089  0.5580  0.0847 -0.2133
 2402SOL    HW118839   1.958   2.751   3.143  2.2116 -0.0920  1.4218
 2402SOL    HW218840   1.946   2.837   3.034  2.4674  1.2302 -1.9882
 2403SOL     OW18841   2.166   0.881   5.896  0.6835  0.6450  0.5486
 2403SOL    HW118842   2.076   0.912   5.906  1.4896  2.9433  0.7312
 2403SOL    HW218843   2.193   0.926   5.975  0.4382 -0.3018  1.1789
 2404SOL     OW18844   3.156   2.585   8.446 -0.0402 -0.3244 -0.5001
 2404SOL    HW118845   3.076   2.570   8.496 -0.3753  3.9605  0.2357
 2404SOL    HW218846   3.155   2.680   8.446 -2.2924 -0.3451 -1.5608
 2405SOL     OW18847   3.757   3.202   3.555 -0.1654 -0.0761  0.1155
 2405SOL    HW118848   3.844   3.191   3.515 -0.1805 -0.6800  0.2519
 2405SOL    HW218849   3.740   3.118   3.597 -0.5988  0.6266  1.3462
 2406SOL     OW18850   4.712   1.586   5.766 -0.2848 -0.1102 -0.3432
 2406SOL    HW118851   4.646   1.527   5.802 -0.9440 -0.9295 -2.9176
 2406SOL    HW218852   0.028   1.611   5.840  0.8934 -3.1067 -0.2308
 2407SOL     OW18853   1.316   2.136  11.499  0.1323 -0.6459 -0.3760
 2407SOL    HW118854   1.389   2.084  11.532 -0.2807 -0.9256  0.1165
 2407SOL    HW218855   1.239   2.079  11.501 -1.1489  1.1075  1.0079
 2408SOL     OW18856   2.207   2.671  17.357  0.4395  0.3348 -0.1314
 2408SOL    HW118857   2.189   2.622  17.438 -1.1288  3.0755  1.1826
 2408SOL    HW218858   2.147   2.744  17.370  0.2271 -0.1178  1.4805
 2409SOL     OW18859   2.265   1.753   0.408 -0.2491 -0.4736  0.2383
 2409SOL    HW118860   2.176   1.718   0.409 -1.2827  2.1385 -0.9529
 2409SOL    HW218861   2.276   1.763   0.313  0.6710  0.3665  0.4353
 2410SOL     OW18862   0.446   3.581   1.517  0.3274 -0.3070 -0.6186
 2410SOL    HW118863   0.502   3.510   1.484 -0.3370 -0.4222 -1.5213
 2410SOL    HW218864   0.377   3.521   1.545  0.5015 -0.4172 -0.4308
 2411SOL     OW18865   0.717   4.545   7.803  0.1969  0.2012 -0.5180
 2411SOL    HW118866   0.798   4.541   7.751  0.9235  0.7002  0.5657
 2411SOL    HW218867   0.652   4.545   7.734 -1.3825  0.9252  0.9741
 2412SOL     OW18868   2.536   1.793   8.819 -0.2875 -0.5513  0.3363
 2412SOL    HW118869   2.477   1.837   8.756 -0.1335  0.4743  0.9108
 2412SOL    HW218870   2.530   1.701   8.793 -1.1352 -0.6169  0.7628
 2413SOL     OW18871   2.505   1.194   8.342  0.2609 -0.5103 -0.5359
 2413SOL    HW118872   2.480   1.149   8.423 -0.3854  1.8057  0.5448
 2413SOL    HW218873   2.589   1.154   8.319  0.8767  0.3714  0.1703
 2414SOL     OW18874   0.537   3.420   4.959  0.0012  0.5237  0.0363
 2414SOL    HW118875   0.584   3.503   4.962  1.9214 -0.5995  1.0154
 2414SOL    HW218876   0.456   3.447   5.003  0.3388  2.1885 -0.3647
 2415SOL     OW18877   2.824   0.841  17.013  0.7062 -0.2080  0.3698
 2415SOL    HW118878   2.851   0.752  17.035 -0.9405  0.0519  3.5389
 2415SOL    HW218879   2.877   0.852  16.934  1.5824 -1.9569  0.7110
 2416SOL     OW18880   1.539   2.468   7.277 -0.4020 -0.3052 -0.2665
 2416SOL    HW118881   1.592   2.394   7.307 -1.0241 -0.0953  1.3334
 2416SOL    HW218882   1.600   2.541   7.269 -0.3372 -0.5079 -1.6566
 2417SOL     OW18883   4.296   0.829   0.976 -0.2131 -0.0511 -0.2014
 2417SOL    HW118884   4.294   0.767   0.902 -0.7727 -1.2684  0.8286
 2417SOL    HW218885   4.212   0.872   0.961 -0.3019  0.8425  2.9581
 2418SOL     OW18886   2.575   1.636   5.161  0.1998 -0.1978  0.1352
 2418SOL    HW118887   2.627   1.698   5.212  2.0627 -1.8031  0.1959
 2418SOL    HW218888   2.584   1.548   5.199 -1.0285 -0.9491 -1.3257
 2419SOL     OW18889   2.594   3.943   3.142 -0.2199  0.0931 -0.1441
 2419SOL    HW118890   2.516   3.897   3.110  1.1024 -0.5976 -2.3801
 2419SOL    HW218891   2.589   3.928   3.236  0.6268 -1.1991 -0.3070
 2420SOL     OW18892   4.725   1.893   2.185 -0.1120  0.5668 -0.0207
 2420SOL    HW118893   4.651   1.953   2.174  0.7765  1.5439 -0.5939
 2420SOL    HW218894   0.046   1.945   2.237 -0.2122  1.4422 -0.7716
 2421SOL     OW18895   3.163   3.878   0.350 -0.0234 -0.1986  0.0283
 2421SOL    HW118896   3.160   3.786   0.324  0.1972  0.1307 -1.1696
 2421SOL    HW218897   3.129   3.927   0.275 -1.6381  0.9288  1.4872
 2422SOL     OW18898   2.151   4.342   2.471 -0.5056  0.3032  0.0107
 2422SOL    HW118899   2.181   4.289   2.397  0.0817  0.5804  0.0544
 2422SOL    HW218900   2.186   4.300   2.549  2.3134  1.1034 -0.8275
 2423SOL     OW18901   1.692   3.640   6.916  0.7123  0.5480 -0.3565
 2423SOL    HW118902   1.623   3.574   6.900  0.8790  0.5788 -1.1936
 2423SOL    HW218903   1.760   3.588   6.873  0.1650 -1.8690  1.6894
 2424SOL     OW18904   4.640   3.883   4.698 -0.4977 -0.7007 -0.5465
 2424SOL    HW118905   4.706   3.814   4.690  0.3774  0.2621 -1.6667
 2424SOL    HW218906   4.641   3.880   4.794  1.2979 -0.2413 -0.5439
 2425SOL     OW18907   0.317   2.691  15.738 -0.1289  0.3912  0.6184
 2425SOL    HW118908   0.327   2.671  15.645 -1.9864 -0.9215  0.6974
 2425SOL    HW218909   0.274   2.777  15.736  0.5211  0.6946 -0.3391
 2426SOL     OW18910   0.555   3.367   8.703 -0.4386 -0.1026 -0.2376
 2426SOL    HW118911   0.519   3.442   8.751 -1.2505 -0.7024  0.0806
 2426SOL    HW218912   0.549   3.303   8.773 -0.2185 -0.0250 -0.1463
 2427SOL     OW18913   1.478   2.253  16.671  0.0975  0.1813  0.0902
 2427SOL    HW118914   1.463   2.170  16.625 -1.3177 -0.6699  2.0741
 2427SOL    HW218915   1.570   2.268  16.649  0.9256 -1.7540  2.1936
 2428SOL     OW18916   1.286   2.539   7.044  0.5292  0.2240  0.2057
 2428SOL    HW118917   1.376   2.542   7.011  0.9016  0.7525  1.2854
 2428SOL    HW218918   1.235   2.520   6.965  1.0686  2.3304 -0.6528
 2429SOL     OW18919   4.431   0.142   7.886 -0.4535  0.6694  0.2380
 2429SOL    HW118920   4.499   0.098   7.835 -0.7493  1.7483 -1.0751
 2429SOL    HW218921   4.485   0.202   7.938  2.0204 -1.3212 -0.0592
 2430SOL     OW18922   0.896   4.385  16.231  0.2363  0.4864 -0.2928
 2430SOL    HW118923   0.889   4.369  16.325  1.3851  0.5124 -0.2083
 2430SOL    HW218924   0.991   4.379  16.233  0.0483 -3.1169 -1.3165
 2431SOL     OW18925   1.992   0.717   3.438 -0.0499 -0.3713  0.2854
 2431SOL    HW118926   2.025   0.657   3.372 -2.5761  0.6851 -1.9543
 2431SOL    HW218927   1.969   0.660   3.512 -0.8582 -0.1999  0.1722
 2432SOL     OW18928   3.251   2.260   2.036 -0.1610  0.0373 -0.1465
 2432SOL    HW118929   3.178   2.315   2.064 -2.9710 -3.1241 -1.2310
 2432SOL    HW218930   3.280   2.320   1.968  0.3614  1.3673  1.2567
 2433SOL     OW18931   4.041   1.769   9.032 -0.3969  0.2897 -0.7531
 2433SOL    HW118932   3.987   1.714   8.974  2.4618  0.0516 -3.1716
 2433SOL    HW218933   4.124   1.721   9.027 -0.1498  0.5785  0.5911
 2434SOL     OW18934   0.528   1.739   8.163 -0.3674 -0.0625  0.0071
 2434SOL    HW118935   0.608   1.787   8.187 -0.9447  1.0496 -0.3031
 2434SOL    HW218936   0.461   1.803   8.138 -1.2193 -0.5412  1.0479
 2435SOL     OW18937   4.263   0.524  12.755 -0.8200  0.7126  0.3759
 2435SOL    HW118938   4.331   0.590  12.767 -0.2320 -0.0508  1.1896
 2435SOL    HW218939   4.270   0.523  12.659  1.2898  0.0342  0.5281
 2436SOL     OW18940   0.742   3.997  15.180  0.2136 -0.1510  0.1535
 2436SOL    HW118941   0.770   4.087  15.164 -0.1943 -0.0194  0.1814
 2436SOL    HW218942   0.821   3.956  15.146 -0.9174  0.3664 -3.0500
 2437SOL     OW18943   2.481   2.581   5.151 -0.1523  0.0300 -0.5138
 2437SOL    HW118944   2.407   2.527   5.179  1.8574 -2.4783 -0.0517
 2437SOL    HW218945   2.438   2.624   5.077 -0.2807 -2.7468 -2.0505
 2438SOL     OW18946   2.726   1.054   6.972  0.1033  0.0106  0.1232
 2438SOL    HW118947   2.638   1.059   6.934 -0.0472 -2.9184  0.0999
 2438SOL    HW218948   2.702   1.003   7.050 -1.9897 -0.9422 -1.1540
 2439SOL     OW18949   3.202   3.731  16.271 -0.0857 -0.1325  0.2453
 2439SOL    HW118950   3.160   3.710  16.187 -1.6919 -0.2019  1.0863
 2439SOL    HW218951   3.160   3.811  16.301  0.1224 -0.3888  1.1974
 2440SOL     OW18952   0.903   0.670   7.811  0.1206 -0.1692  0.2425
 2440SOL    HW118953   0.890   0.581   7.779  0.5549  0.1653 -0.8601
 2440SOL    HW218954   0.891   0.717   7.728  0.3539 -1.6423 -0.6082
 2441SOL     OW18955   2.772   0.392   6.163  0.1330 -0.3484 -0.2018
 2441SOL    HW118956   2.786   0.302   6.191 -0.6053 -0.0748  1.1026
 2441SOL    HW218957   2.844   0.392   6.100  0.7754  1.7154  0.5106
 2442SOL     OW18958   1.142   2.543   5.703  0.5170 -0.3106 -0.2662
 2442SOL    HW118959   1.130   2.515   5.794  2.3664  1.4078  0.5065
 2442SOL    HW218960   1.054   2.570   5.678  0.9291  1.2273 -0.0282
 2443SOL     OW18961   3.026   2.920  10.505 -0.0866  0.0361 -0.4405
 2443SOL    HW118962   2.972   2.871  10.566  0.1888  0.0137 -0.2187
 2443SOL    HW218963   3.108   2.938  10.551  0.3649 -1.1054 -0.8074
 2444SOL     OW18964   0.997   1.188   9.340 -0.5135 -0.2054 -0.4289
 2444SOL    HW118965   1.076   1.136   9.355  1.1102  2.0294 -1.2527
 2444SOL    HW218966   0.947   1.123   9.292 -3.3190  0.2917  1.8261
 2445SOL     OW18967   4.130   1.336   7.338 -0.1433 -0.1641  0.9249
 2445SOL    HW118968   4.116   1.244   7.313  0.9505 -0.6704  2.1725
 2445SOL    HW218969   4.186   1.340   7.416  3.3695 -0.6938 -1.5986
 2446SOL     OW18970   2.475   1.618   5.801  0.3374  0.5209  0.3341
 2446SOL    HW118971   2.563   1.646   5.826 -0.3996  1.2983  2.0123
 2446SOL    HW218972   2.427   1.692   5.837  0.1902 -0.4273  2.0855
 2447SOL     OW18973   3.094   1.712   0.618  0.1231 -0.6374 -0.8240
 2447SOL    HW118974   3.072   1.647   0.552 -1.2880 -0.3501 -0.6340
 2447SOL    HW218975   3.059   1.673   0.698  0.0745 -1.0653 -1.0549
 2448SOL     OW18976   3.362   3.379   8.299 -0.5884 -0.5848  0.3047
 2448SOL    HW118977   3.455   3.360   8.282 -1.1379 -2.9354 -0.0188
 2448SOL    HW218978   3.331   3.392   8.209  1.3987  1.8170 -0.0368
 2449SOL     OW18979   2.809   0.740   2.500 -0.2796  0.2045 -0.2103
 2449SOL    HW118980   2.835   0.778   2.416  0.6175  1.1394  0.5028
 2449SOL    HW218981   2.870   0.667   2.512  1.6960  1.5196 -2.2344
 2450SOL     OW18982   0.379   1.461   9.115 -0.1648  0.1488 -0.3416
 2450SOL    HW118983   0.412   1.376   9.087  1.2360  0.1867  1.1816
 2450SOL    HW218984   0.311   1.434   9.177  1.1766  1.3392  1.6747
 2451SOL     OW18985   0.887   3.430   1.679  0.4552  0.3279  0.5001
 2451SOL    HW118986   0.875   3.515   1.721 -1.0818 -1.3397  3.3390
 2451SOL    HW218987   0.982   3.434   1.664  0.6131 -1.7414  0.9841
 2452SOL     OW18988   3.875   1.042   2.649  0.5806  0.1016  0.3999
 2452SOL    HW118989   3.796   1.090   2.625  0.0173 -0.3933  1.2490
 2452SOL    HW218990   3.845   0.953   2.631  1.8192 -0.7233  2.4304
 2453SOL     OW18991   1.354   1.496   6.165  0.3840 -0.0556 -0.4130
 2453SOL    HW118992   1.300   1.497   6.086  0.4644 -0.4783 -0.4734
 2453SOL    HW218993   1.434   1.538   6.131  0.5761  0.7662  1.0625
 2454SOL     OW18994   2.907   0.433   9.389  0.0267  0.0299  0.3749
 2454SOL    HW118995   2.907   0.472   9.476 -1.1136 -0.4002  0.5677
 2454SOL    HW218996   2.971   0.488   9.344  0.6714 -1.4207 -0.4753
 2455SOL     OW18997   1.991   3.512   5.530 -0.0758 -0.4947 -0.0550
 2455SOL    HW118998   2.073   3.467   5.509  0.1475  0.0467 -0.3618
 2455SOL    HW218999   1.980   3.477   5.618  0.9983  0.9021  0.6397
 2456SOL     OW19000   2.992   1.710   2.173  0.6596 -0.0816 -0.4793
 2456SOL    HW119001   2.958   1.636   2.223  1.0967  0.7752  1.0999
 2456SOL    HW219002   3.048   1.662   2.112  0.2951  0.4571 -1.2397
 2457SOL     OW19003   0.480   0.841   2.888  0.0231  0.1926  0.8613
 2457SOL    HW119004   0.548   0.898   2.924  1.2234 -0.0829 -0.9366
 2457SOL    HW219005   0.506   0.756   2.923 -0.9895 -0.2375  0.5671
 2458SOL     OW19006   1.170   1.300  12.687 -0.2453  0.4988 -0.6001
 2458SOL    HW119007   1.119   1.349  12.752 -0.1556  0.8524 -0.7967
 2458SOL    HW219008   1.104   1.242  12.649 -1.4712  1.8626 -0.5564
 2459SOL     OW19009   1.402   4.277   4.303  0.8292  0.4024  0.9335
 2459SOL    HW119010   1.310   4.277   4.330  0.9245 -1.8659  1.2641
 2459SOL    HW219011   1.433   4.189   4.323  0.2710  0.0807  0.3809
 2460SOL     OW19012   4.416   3.991  17.594  0.2038  0.6105 -0.2111
 2460SOL    HW119013   4.366   4.036  17.525 -0.8330  0.4778  0.4492
 2460SOL    HW219014   4.347   3.971  17.658 -1.3677  0.8751 -1.8172
 2461SOL     OW19015   4.714   1.456  11.786 -0.3031 -0.4041  0.6480
 2461SOL    HW119016   4.676   1.476  11.700 -3.0874  1.2882  2.2581
 2461SOL    HW219017   4.636   1.484  11.834  1.0450  1.0621  1.9765
 2462SOL     OW19018   1.173   0.519   1.771 -0.4907 -0.4540 -0.1126
 2462SOL    HW119019   1.187   0.568   1.853 -1.7821 -1.9303  0.9759
 2462SOL    HW219020   1.085   0.545   1.743 -0.1798 -0.2558 -0.9002
 2463SOL     OW19021   0.209   4.593   5.638 -0.4166  0.1696 -0.1027
 2463SOL    HW119022   0.146   4.633   5.699  0.6534  1.4964  0.1320
 2463SOL    HW219023   0.219   4.666   5.578 -0.1674  1.2320  1.2210
 2464SOL     OW19024   3.430   4.317  12.115 -0.0061 -0.0421 -0.7015
 2464SOL    HW119025   3.385   4.376  12.055  2.3277  2.5078  0.0869
 2464SOL    HW219026   3.356   4.294  12.172  1.3188 -2.7888 -0.0944
 2465SOL     OW19027   4.599   1.443  16.760  0.4559  0.6779  0.7916
 2465SOL    HW119028   4.692   1.462  16.752 -0.0615  2.6165 -0.8064
 2465SOL    HW219029   4.597   1.348  16.760  0.4189  0.6788  1.0427
 2466SOL     OW19030   1.641   1.423   1.158  0.1594  0.3103 -0.4185
 2466SOL    HW119031   1.712   1.488   1.161  0.6751 -0.2677 -0.0592
 2466SOL    HW219032   1.623   1.425   1.252  1.0775  0.4745 -0.2447
 2467SOL     OW19033   2.783   1.211  15.689  0.4453  0.3935 -0.5148
 2467SOL    HW119034   2.864   1.160  15.690  0.1321 -0.1018 -1.0026
 2467SOL    HW219035   2.778   1.230  15.783  0.0927  1.4756 -0.7520
 2468SOL     OW19036   4.672   0.330  16.588 -0.0905  0.3629  0.2092
 2468SOL    HW119037   4.613   0.334  16.513 -1.2247  0.7322  1.1155
 2468SOL    HW219038   4.611   0.345  16.660  1.1688 -0.1245  1.3782
 2469SOL     OW19039   3.103   1.800   8.826 -0.2178 -0.2937  0.4955
 2469SOL    HW119040   3.154   1.743   8.769  0.0337 -1.5534  1.9851
 2469SOL    HW219041   3.159   1.792   8.903  1.6454  1.2543 -0.7002
 2470SOL     OW19042   2.837   0.010   1.701 -0.4251 -0.3206 -0.3397
 2470SOL    HW119043   2.753   4.707   1.687 -0.5088 -0.5931  1.0265
 2470SOL    HW219044   2.873   0.018   1.612 -1.5117  0.5678 -0.6997
 2471SOL     OW19045   3.606   3.375   2.087 -0.8291 -0.1685  0.2311
 2471SOL    HW119046   3.669   3.417   2.146 -0.5189 -2.2011  1.3312
 2471SOL    HW219047   3.619   3.427   2.007  0.1745 -0.0406  0.4838
 2472SOL     OW19048   1.135   0.576   4.958 -0.4355  0.5129  0.4053
 2472SOL    HW119049   1.122   0.583   5.052 -2.0340  1.1050  0.1371
 2472SOL    HW219050   1.079   0.649   4.932  0.9762  0.9953 -1.3345
 2473SOL     OW19051   4.354   3.145   7.619 -0.2085 -0.3003  0.6743
 2473SOL    HW119052   4.299   3.089   7.565  0.8102 -1.3591  0.7374
 2473SOL    HW219053   4.432   3.089   7.620 -0.9989 -1.4122 -1.1380
 2474SOL     OW19054   0.163   1.629   7.323 -0.3117  0.3943  0.8807
 2474SOL    HW119055   0.108   1.627   7.244  1.0733 -0.3011 -0.0703
 2474SOL    HW219056   0.204   1.715   7.322 -1.4565  0.9502  1.6465
 2475SOL     OW19057   1.117   3.652  12.823 -0.1494  0.2384  0.1658
 2475SOL    HW119058   1.118   3.747  12.836  1.0660  0.5206 -1.9862
 2475SOL    HW219059   1.023   3.632  12.819 -0.2682  0.4467  2.1213
 2476SOL     OW19060   0.404   0.279   5.154 -0.1131 -0.7782 -0.6048
 2476SOL    HW119061   0.372   0.201   5.109 -2.0192 -0.0805 -0.4526
 2476SOL    HW219062   0.335   0.294   5.219 -0.7012  2.6794 -1.9922
 2477SOL     OW19063   4.596   2.620   5.569  0.5512 -0.0315 -0.2379
 2477SOL    HW119064   4.620   2.532   5.538 -0.2629 -0.4006  0.1638
 2477SOL    HW219065   4.567   2.599   5.658  0.4052  3.0496  0.4174
 2478SOL     OW19066   2.251   1.263   5.270 -0.5480  0.2247  0.4908
 2478SOL    HW119067   2.220   1.353   5.256  2.6545  1.5434  2.0847
 2478SOL    HW219068   2.200   1.224   5.199  2.2393  0.4425 -1.6122
 2479SOL     OW19069   4.358   3.343  16.659  0.1514  0.2486  0.0634
 2479SOL    HW119070   4.425   3.275  16.651  0.5779  0.5832  0.7956
 2479SOL    HW219071   4.282   3.288  16.676 -0.1321  0.5988 -0.0629
 2480SOL     OW19072   2.887   3.101   1.631 -0.1316  0.9016  0.3268
 2480SOL    HW119073   2.827   3.150   1.575 -1.6405  1.2003  2.2163
 2480SOL    HW219074   2.935   3.045   1.570 -2.2733 -0.8523  0.2824
 2481SOL     OW19075   3.885   1.266   7.143 -0.1734  0.1526  0.1881
 2481SOL    HW119076   3.889   1.219   7.059 -0.7035  0.5522 -0.0590
 2481SOL    HW219077   3.897   1.194   7.204  1.2890  0.0368 -0.2226
 2482SOL     OW19078   4.629   0.365   4.425  0.2700  0.1384  0.1431
 2482SOL    HW119079   4.587   0.426   4.485  2.9543  1.1281  1.0278
 2482SOL    HW219080   4.702   0.333   4.478 -0.6374  0.9631  1.8874
 2483SOL     OW19081   0.865   3.511   7.773  0.6250 -0.1891 -0.0453
 2483SOL    HW119082   0.850   3.423   7.807 -0.3885 -0.7535 -1.9274
 2483SOL    HW219083   0.922   3.550   7.839  0.8838 -1.7137  0.6175
 2484SOL     OW19084   1.260   0.392   7.177  0.3275 -0.6710  0.5183
 2484SOL    HW119085   1.253   0.487   7.168  1.1819 -0.7679 -1.2268
 2484SOL    HW219086   1.307   0.364   7.098  0.8495 -2.4303  1.4563
 2485SOL     OW19087   3.530   0.441   2.252 -0.3735 -0.3516  0.8185
 2485SOL    HW119088   3.559   0.411   2.338  0.3185 -1.0358  0.3448
 2485SOL    HW219089   3.469   0.513   2.270  1.8970  1.8104 -0.2154
 2486SOL     OW19090   4.446   3.535  12.100  0.0223  0.8474 -0.0751
 2486SOL    HW119091   4.524   3.479  12.098  0.1997  1.2084 -2.8663
 2486SOL    HW219092   4.385   3.470  12.135  1.9371 -0.5793  0.6196
 2487SOL     OW19093   4.620   2.282   9.129 -0.5322  0.1303  0.3341
 2487SOL    HW119094   4.695   2.321   9.173  2.3773 -1.6951 -3.0602
 2487SOL    HW219095   4.631   2.195   9.167  1.4693  0.6727  0.9527
 2488SOL     OW19096   3.915   1.447   0.677  0.5348 -0.1419  0.2770
 2488SOL    HW119097   3.878   1.359   0.676  2.6236 -1.0032 -0.9311
 2488SOL    HW219098   3.857   1.492   0.738  0.8724  0.0858  0.4341
 2489SOL     OW19099   4.251   3.237  14.969 -0.1548 -0.6612 -0.5091
 2489SOL    HW119100   4.256   3.240  14.874  0.1869  1.2192 -0.4297
 2489SOL    HW219101   4.246   3.331  14.990 -1.1691 -0.9985  0.7598
 2490SOL     OW19102   1.632   4.098   9.383 -0.2782  0.0054  0.5876
 2490SOL    HW119103   1.608   4.187   9.407 -0.4631  0.2092 -0.3824
 2490SOL    HW219104   1.625   4.046   9.463 -2.6505 -0.9583 -0.2618
 2491SOL     OW19105   3.079   1.197   4.536  0.2670  0.1687  0.6946
 2491SOL    HW119106   3.011   1.218   4.600 -0.0481  1.1047  0.0568
 2491SOL    HW219107   3.151   1.196   4.598  1.4995  1.4358 -0.6937
 2492SOL     OW19108   3.175   2.727  15.432  0.3184 -0.1261 -0.3955
 2492SOL    HW119109   3.174   2.822  15.438 -0.9748 -0.1558 -0.0100
 2492SOL    HW219110   3.171   2.710  15.338 -0.8772 -2.1784  0.0078
 2493SOL     OW19111   4.422   1.871   7.879  0.3881 -0.4059 -0.0331
 2493SOL    HW119112   4.495   1.866   7.817 -1.2915  3.5722 -2.3515
 2493SOL    HW219113   4.458   1.932   7.942  0.4167  0.7679 -1.1867
 2494SOL     OW19114   4.558   2.707   6.866 -0.2283 -0.3785 -0.0322
 2494SOL    HW119115   4.481   2.667   6.906 -0.5726  0.6699  0.3639
 2494SOL    HW219116   4.567   2.647   6.793 -1.1927 -2.6107  1.6927
 2495SOL     OW19117   2.378   3.521   0.521 -0.4901  0.2331 -0.5729
 2495SOL    HW119118   2.330   3.537   0.439  0.1149  0.0199 -0.9700
 2495SOL    HW219119   2.408   3.438   0.484  0.0154  0.5475 -0.8673
 2496SOL     OW19120   4.678   4.704   8.410  0.6245 -0.3022 -0.8875
 2496SOL    HW119121   4.655   4.699   8.503  1.5430 -1.4308 -0.7280
 2496SOL    HW219122   4.725   0.047   8.399 -0.4552  0.5011  0.5051
 2497SOL     OW19123   0.076   4.095   5.079 -0.0567 -0.4044  0.2235
 2497SOL    HW119124   0.034   4.060   5.158 -1.4090  0.9404  0.1022
 2497SOL    HW219125   0.170   4.102   5.096 -0.2105 -1.1263  1.3668
 2498SOL     OW19126   1.509   1.686   4.536 -0.0186  0.1589 -0.7508
 2498SOL    HW119127   1.570   1.612   4.541  2.1131  1.9478 -0.6138
 2498SOL    HW219128   1.569   1.756   4.559  0.9670 -1.7282  2.3271
 2499SOL     OW19129   4.405   4.030   4.917  0.5734  0.0762  0.2129
 2499SOL    HW119130   4.346   3.999   4.848  1.2299 -3.3075  1.1276
 2499SOL    HW219131   4.472   3.961   4.914 -1.0880 -1.4939 -1.0149
 2500SOL     OW19132   3.411   4.127   1.031  0.0655 -0.2343 -0.3303
 2500SOL    HW119133   3.453   4.193   1.086 -0.9249  0.2176 -0.1170
 2500SOL    HW219134   3.475   4.136   0.960  1.4439  1.3879  1.1319
 2501SOL     OW19135   0.563   0.280   2.024  0.1947 -0.1420 -0.0790
 2501SOL    HW119136   0.647   0.276   1.978  0.1383 -2.2025 -0.0315
 2501SOL    HW219137   0.559   0.373   2.043  0.4492 -0.5150  1.7455
 2502SOL     OW19138   0.576   1.606   6.470 -0.3023 -0.4311 -0.6113
 2502SOL    HW119139   0.554   1.546   6.541 -0.5608 -0.9514 -1.1286
 2502SOL    HW219140   0.549   1.687   6.512  0.5502 -0.2660 -0.3854
 2503SOL     OW19141   4.694   3.703   6.798  0.5904  0.1910 -1.0840
 2503SOL    HW119142   4.708   3.697   6.704  0.8903  1.4620 -1.1088
 2503SOL    HW219143   4.602   3.731   6.803  0.3831 -1.0632  2.0499
 2504SOL     OW19144   1.585   4.540  13.777  0.0385  0.1457  0.8449
 2504SOL    HW119145   1.566   4.611  13.838  2.3493  0.8431  0.7643
 2504SOL    HW219146   1.506   4.487  13.781 -0.7520  1.1647 -0.9518
 2505SOL     OW19147   1.347   1.366  15.774 -0.5167 -0.2030  0.9403
 2505SOL    HW119148   1.352   1.321  15.858  0.7944  0.2119  1.0822
 2505SOL    HW219149   1.288   1.306  15.728  0.7034 -0.0003 -0.8669
 2506SOL     OW19150   2.246   4.729   2.694  0.2921  0.3003  0.1527
 2506SOL    HW119151   2.330   0.035   2.700  0.4541 -0.0575  0.5948
 2506SOL    HW219152   2.251   4.666   2.765  1.2238 -0.6117 -0.7301
 2507SOL     OW19153   2.529   2.416   6.842 -0.0166  0.5019  0.2382
 2507SOL    HW119154   2.478   2.424   6.762 -0.6367 -1.5575  0.4273
 2507SOL    HW219155   2.611   2.450   6.805 -0.6384 -1.0592 -2.5459
 2508SOL     OW19156   3.875   1.633   8.828 -0.4674 -0.3335  0.0770
 2508SOL    HW119157   3.919   1.643   8.743  0.1641  2.1439  0.7071
 2508SOL    HW219158   3.839   1.545   8.817 -1.6205  0.3469 -1.5893
 2509SOL     OW19159   1.594   1.095  13.487  0.7169 -0.3888 -0.4278
 2509SOL    HW119160   1.668   1.132  13.535 -0.2444 -0.6072  1.2434
 2509SOL    HW219161   1.632   1.099  13.399 -0.4126  1.1454 -0.8254
 2510SOL     OW19162   3.372   2.467   3.920 -0.5504  0.0218  0.3772
 2510SOL    HW119163   3.294   2.503   3.963  0.7080  1.3920  1.5264
 2510SOL    HW219164   3.348   2.470   3.828  0.2929  1.5164  0.2035
 2511SOL     OW19165   1.198   1.279   0.633  0.5488  0.1763  0.6929
 2511SOL    HW119166   1.198   1.221   0.709  2.0682  0.5102  0.9450
 2511SOL    HW219167   1.242   1.214   0.578  1.0356  1.4779 -0.4639
 2512SOL     OW19168   1.709   1.492   5.854  0.2767  0.6099  0.0637
 2512SOL    HW119169   1.802   1.494   5.832  0.0863  0.9762 -0.7085
 2512SOL    HW219170   1.713   1.525   5.944  1.0953  3.2206 -0.9337
 2513SOL     OW19171   1.736   2.529   5.910  0.3398  0.4171  0.6564
 2513SOL    HW119172   1.823   2.489   5.910  0.9434  1.7383  1.1794
 2513SOL    HW219173   1.701   2.496   5.827 -0.6553 -0.2301  1.3255
 2514SOL     OW19174   0.602   4.546   1.870  0.4138 -0.1265  0.1576
 2514SOL    HW119175   0.691   4.563   1.901 -0.1843  2.3044  0.5778
 2514SOL    HW219176   0.551   4.626   1.886  1.1406  0.3438  0.1426
 2515SOL     OW19177   1.210   0.625   2.006 -0.5658  0.1815  0.2998
 2515SOL    HW119178   1.183   0.653   2.094  0.4126  0.9012  0.3672
 2515SOL    HW219179   1.303   0.647   2.007 -0.9441  1.7754  1.1439
 2516SOL     OW19180   4.170   2.938   9.596 -0.3214 -0.0236 -0.1663
 2516SOL    HW119181   4.112   2.868   9.567  0.3683 -1.3718  1.7092
 2516SOL    HW219182   4.184   2.929   9.691  2.0999  0.7350 -0.4383
 2517SOL     OW19183   4.031   2.866   3.093  0.4026 -0.0146  0.5698
 2517SOL    HW119184   4.042   2.891   3.185 -1.4416 -1.6468  1.2380
 2517SOL    HW219185   3.937   2.868   3.075  0.6832  1.7852 -0.6879
 2518SOL     OW19186   3.714   3.027  15.056 -0.0419 -0.7217 -0.0115
 2518SOL    HW119187   3.650   3.097  15.054  2.2537  1.3878  0.5140
 2518SOL    HW219188   3.795   3.078  15.057  0.5126 -1.5618 -1.5276
 2519SOL     OW19189   1.244   2.598   3.631  0.2566  0.5922  0.2160
 2519SOL    HW119190   1.252   2.624   3.723  0.3488 -2.1938  0.9990
 2519SOL    HW219191   1.155   2.566   3.640  0.3083  0.2593 -0.4624
 2520SOL     OW19192   2.297   1.561   2.261 -0.0435 -0.2888  0.5181
 2520SOL    HW119193   2.280   1.539   2.353 -1.5903 -0.8563  0.0915
 2520SOL    HW219194   2.342   1.483   2.229 -0.3092 -0.4244  0.4793
 2521SOL     OW19195   1.293   2.919   6.989 -0.3288  0.2743  0.3254
 2521SOL    HW119196   1.234   2.901   6.915 -0.2504  0.2245  0.2756
 2521SOL    HW219197   1.261   2.856   7.055  1.2769  0.3049  1.1170
 2522SOL     OW19198   1.673   0.050   2.189 -0.6286  0.0947  0.3689
 2522SOL    HW119199   1.755   0.069   2.144 -0.9331  0.1922 -0.1460
 2522SOL    HW219200   1.617   0.115   2.147  0.0273 -0.0611 -0.7376
 2523SOL     OW19201   3.042   4.565   2.758 -0.3718  0.4883  0.1004
 2523SOL    HW119202   3.107   4.496   2.771  0.3672  1.3882  1.1888
 2523SOL    HW219203   3.025   4.584   2.850 -1.4798 -1.9262  0.3991
 2524SOL     OW19204   3.995   4.674   6.396 -0.3569  0.6774 -0.2496
 2524SOL    HW119205   3.916   4.624   6.417  1.4072 -1.1694  1.8438
 2524SOL    HW219206   4.049   4.628   6.332 -0.8486 -0.4908  0.1719
 2525SOL     OW19207   2.985   4.232  15.255  0.4713 -0.0330  0.1610
 2525SOL    HW119208   3.045   4.273  15.192  0.3857 -0.2295 -0.0470
 2525SOL    HW219209   3.040   4.156  15.276  1.1843 -0.3312 -2.8150
 2526SOL     OW19210   1.094   1.298   7.011  0.1340  0.4774 -0.6283
 2526SOL    HW119211   1.096   1.279   7.105  1.2243  1.8359 -0.3691
 2526SOL    HW219212   1.004   1.319   6.988  0.4121  0.4394 -1.7484
 2527SOL     OW19213   2.758   2.332   9.735  0.2261 -0.3025  0.5856
 2527SOL    HW119214   2.770   2.253   9.684 -0.0690  0.8966 -1.3366
 2527SOL    HW219215   2.743   2.294   9.822  0.3995  1.4202  1.3881
 2528SOL     OW19216   2.105   2.305   6.506 -0.0240  0.0546  0.2136
 2528SOL    HW119217   2.140   2.217   6.494  0.5570  0.4512 -0.9740
 2528SOL    HW219218   2.130   2.340   6.420 -0.6277  1.0600  0.4451
 2529SOL     OW19219   4.580   0.623   2.463 -0.2398 -0.5104 -0.5786
 2529SOL    HW119220   4.555   0.715   2.472  2.0011  0.0361  0.0271
 2529SOL    HW219221   4.572   0.616   2.367  1.2723 -3.5886 -0.4482
 2530SOL     OW19222   4.561   0.665   0.728  0.0635  0.2514  0.0270
 2530SOL    HW119223   4.639   0.610   0.719 -1.7521 -2.2069 -0.5295
 2530SOL    HW219224   4.584   0.730   0.662 -0.0502 -0.7072 -0.9661
 2531SOL     OW19225   1.060   3.984   0.647  0.6384  0.4591 -0.5217
 2531SOL    HW119226   1.150   4.009   0.667  0.8055  0.3451 -1.1328
 2531SOL    HW219227   1.083   3.914   0.586  0.7441 -1.3129  1.5713
 2532SOL     OW19228   3.512   0.274   2.051  0.9010  0.3124 -0.2026
 2532SOL    HW119229   3.588   0.286   1.995  1.6210  0.0159  0.7180
 2532SOL    HW219230   3.534   0.340   2.117  2.0289  0.3151 -0.5861
 2533SOL     OW19231   3.322   0.570  16.013  0.0399 -0.3104  0.4318
 2533SOL    HW119232   3.281   0.655  16.029  0.0343 -0.1577 -0.3972
 2533SOL    HW219233   3.259   0.524  15.957 -2.0116  3.3588 -0.2706
 2534SOL     OW19234   1.304   3.725   8.366  0.5474  0.7437  0.2318
 2534SOL    HW119235   1.317   3.757   8.277 -1.0217  1.7470  0.3626
 2534SOL    HW219236   1.394   3.734   8.399  0.6513  0.6882 -0.0360
 2535SOL     OW19237   1.613   0.034   4.272  0.2861  0.4075 -0.5479
 2535SOL    HW119238   1.653   4.702   4.223  1.3196  0.5922  0.0223
 2535SOL    HW219239   1.690   0.078   4.310 -0.1532 -1.0090  1.9993
 2536SOL     OW19240   4.710   3.395   2.415  0.2714  0.1131 -0.5118
 2536SOL    HW119241   4.738   3.436   2.334 -1.1734  0.0213 -1.0625
 2536SOL    HW219242   4.672   3.313   2.384  2.4623 -0.5805 -1.3440
 2537SOL     OW19243   0.412   2.399   7.597  0.2307  0.2178  0.9712
 2537SOL    HW119244   0.443   2.329   7.654  2.3995  0.2328 -0.1722
 2537SOL    HW219245   0.433   2.363   7.511 -0.0864  0.3062  0.8567
 2538SOL     OW19246   2.822   2.563   1.060  0.0408 -1.0822 -0.2585
 2538SOL    HW119247   2.811   2.529   1.149 -1.6340 -0.4262 -0.2151
 2538SOL    HW219248   2.804   2.656   1.073 -0.4619 -1.0093 -1.5440
 2539SOL     OW19249   0.847   1.939   3.776 -0.5884  0.5653 -0.4870
 2539SOL    HW119250   0.777   1.881   3.808 -0.7056  1.6722  1.2517
 2539SOL    HW219251   0.808   1.985   3.701  0.9643  2.2707 -0.2232
 2540SOL     OW19252   3.937   1.188   8.378 -0.1198  0.0475 -0.3150
 2540SOL    HW119253   4.007   1.121   8.379 -2.0237 -1.9324  0.5626
 2540SOL    HW219254   3.859   1.140   8.351  1.0235 -0.1826 -3.2410
 2541SOL     OW19255   1.035   0.315   1.506 -0.6251  0.6085  0.4534
 2541SOL    HW119256   1.110   0.301   1.448 -0.5869 -0.0141  0.6495
 2541SOL    HW219257   0.960   0.277   1.460 -1.0350  0.2041  1.4429
 2542SOL     OW19258   3.410   4.617   8.084 -0.1752  0.6713 -0.7006
 2542SOL    HW119259   3.492   4.604   8.036 -1.0910 -0.3376 -1.9854
 2542SOL    HW219260   3.390   4.541   8.138  1.8788 -2.1864 -3.9861
 2543SOL     OW19261   3.343   1.063   4.708 -0.3058  0.5608  0.5285
 2543SOL    HW119262   3.319   1.042   4.798 -0.2679 -0.1915  0.3583
 2543SOL    HW219263   3.341   0.974   4.674 -0.5748  0.0202  1.9634
 2544SOL     OW19264   3.201   2.118   8.968  0.3280  0.1619  0.3628
 2544SOL    HW119265   3.189   2.032   9.009 -0.8484  1.0765  1.9085
 2544SOL    HW219266   3.184   2.176   9.042  2.6545 -0.0189  1.0482
 2545SOL     OW19267   0.066   2.744   8.632  0.3840 -0.1811  0.1776
 2545SOL    HW119268   0.007   2.757   8.707  1.1914 -0.0693  0.7927
 2545SOL    HW219269   0.147   2.790   8.653  0.2402  0.7298 -1.2979
 2546SOL     OW19270   4.407   3.936   0.885  0.3594  0.1299 -0.4283
 2546SOL    HW119271   4.347   3.932   0.811 -1.5774 -3.8736  1.3803
 2546SOL    HW219272   4.410   3.843   0.908  1.8625  0.3974  0.5105
 2547SOL     OW19273   2.799   4.362   5.778 -0.4054  0.2532 -0.0286
 2547SOL    HW119274   2.809   4.313   5.696  0.9331 -0.3103  0.4860
 2547SOL    HW219275   2.725   4.316   5.819 -1.4619  0.7685 -1.3539
 2548SOL     OW19276   2.297   1.311  15.710 -0.0090 -0.1673  1.2013
 2548SOL    HW119277   2.325   1.385  15.764  0.8615  2.1536 -2.4130
 2548SOL    HW219278   2.369   1.307  15.646 -1.1882  3.3673 -0.3296
 2549SOL     OW19279   0.048   1.751  12.410  0.1803  0.0799  0.2932
 2549SOL    HW119280   4.705   1.773  12.454 -0.4556 -0.4327 -0.6311
 2549SOL    HW219281   0.101   1.820  12.451  2.0141 -0.5891 -0.9788
 2550SOL     OW19282   3.357   2.447   8.972  0.0314 -0.4646  0.3481
 2550SOL    HW119283   3.449   2.425   8.989 -0.1466  1.1563  3.2613
 2550SOL    HW219284   3.357   2.476   8.881 -0.5021  0.9678  0.8065
 2551SOL     OW19285   2.058   1.559  10.711  0.1426  0.2198 -0.3349
 2551SOL    HW119286   2.116   1.633  10.727  1.9377 -1.1551 -0.4798
 2551SOL    HW219287   2.120   1.491  10.685 -1.8777 -1.6594 -0.2804
 2552SOL     OW19288   4.386   1.001  10.815 -0.0382 -0.0617  0.5597
 2552SOL    HW119289   4.453   1.052  10.860 -0.4131  0.7372  0.2093
 2552SOL    HW219290   4.337   1.069  10.769 -0.7626 -1.1288 -0.2306
 2553SOL     OW19291   3.148   3.276   3.261 -0.1751 -1.0344 -0.2985
 2553SOL    HW119292   3.112   3.333   3.328  1.8550 -2.1038  1.6938
 2553SOL    HW219293   3.085   3.270   3.189 -0.4646  0.6680 -0.1884
 2554SOL     OW19294   0.794   4.657   6.243 -0.1715  0.2057 -0.0837
 2554SOL    HW119295   0.772   4.702   6.162  0.5927  1.1585  0.2441
 2554SOL    HW219296   0.715   4.620   6.283  0.2632  0.4726  1.0155
 2555SOL     OW19297   0.465   0.039   0.959  0.4082  0.4193 -0.7513
 2555SOL    HW119298   0.478   4.691   0.923  0.5489  0.3239 -0.4725
 2555SOL    HW219299   0.391   0.030   1.019  0.2212 -3.3458 -1.5805
 2556SOL     OW19300   2.686   2.033   7.678 -0.1264 -0.0269  0.5857
 2556SOL    HW119301   2.667   2.099   7.611  0.6398  1.1284  1.5068
 2556SOL    HW219302   2.769   2.064   7.715  0.0648  1.0241 -0.7147
 2557SOL     OW19303   0.647   1.995  15.871 -0.4190 -0.0757  0.2025
 2557SOL    HW119304   0.693   1.916  15.840 -0.6813 -0.7617  1.5386
 2557SOL    HW219305   0.596   1.948  15.937 -1.2750 -0.0070 -0.4098
 2558SOL     OW19306   1.043   2.735  12.374  0.2320 -0.1287 -0.3958
 2558SOL    HW119307   0.969   2.776  12.329 -1.4564 -1.9905  0.6787
 2558SOL    HW219308   1.048   2.649  12.333  0.7544  0.5398 -1.7447
 2559SOL     OW19309   0.488   4.655   4.047 -0.3852  0.0227  0.0348
 2559SOL    HW119310   0.509   4.724   4.109  2.0903 -0.5499 -0.1867
 2559SOL    HW219311   0.393   4.664   4.036 -0.6237  0.9297  2.8801
 2560SOL     OW19312   1.666   4.282   6.538 -0.3409  0.2093  0.0556
 2560SOL    HW119313   1.736   4.251   6.594  0.6148 -0.9346 -1.7715
 2560SOL    HW219314   1.597   4.300   6.602 -1.1809  2.7438 -1.5575
 2561SOL     OW19315   1.363   3.747   5.029  0.4891  0.1023 -0.2365
 2561SOL    HW119316   1.378   3.692   5.106 -1.7701  1.3919  1.1117
 2561SOL    HW219317   1.285   3.793   5.060  1.6286  0.1176  2.6053
 2562SOL     OW19318   1.103   3.374  10.041  0.4671  0.1162 -0.3018
 2562SOL    HW119319   1.170   3.352   9.976 -0.8296 -0.3688 -1.4536
 2562SOL    HW219320   1.139   3.342  10.124  3.3921 -3.4356 -2.9785
 2563SOL     OW19321   0.425   3.725   3.644  0.4029  0.0117  0.0252
 2563SOL    HW119322   0.504   3.674   3.663  0.9248  0.5583 -0.6480
 2563SOL    HW219323   0.355   3.669   3.676  0.4125 -0.9278 -1.5556
 2564SOL     OW19324   0.212   2.739   8.995  0.0768  0.0292  0.5273
 2564SOL    HW119325   0.132   2.694   9.024 -1.0916  1.4633 -0.4581
 2564SOL    HW219326   0.271   2.664   9.006  1.0867  0.8392  0.5912
 2565SOL     OW19327   1.687   2.469   5.648 -0.0921 -0.0820  0.7890
 2565SOL    HW119328   1.599   2.464   5.611  0.0693  1.5506  0.2189
 2565SOL    HW219329   1.735   2.400   5.602 -1.2501  0.7300 -1.6679
 2566SOL     OW19330   3.548   1.993   2.288 -0.7191  0.5995  0.1946
 2566SOL    HW119331   3.563   1.926   2.221 -1.1365 -1.7511  2.4722
 2566SOL    HW219332   3.535   1.937   2.364 -1.3639  1.5049  0.7547
 2567SOL     OW19333   4.230   3.771  14.989 -0.7172  0.2719  0.3287
 2567SOL    HW119334   4.291   3.839  15.017  0.3930 -0.3480 -0.6237
 2567SOL    HW219335   4.156   3.821  14.955 -1.0119 -1.6734 -1.8599
 2568SOL     OW19336   3.826   3.600   7.209  0.4866  0.0622  0.1158
 2568SOL    HW119337   3.815   3.679   7.262 -1.6713  1.2486 -2.1084
 2568SOL    HW219338   3.808   3.625   7.118  1.1750  0.2383  0.0260
 2569SOL     OW19339   0.728   0.756   9.343  0.1492 -0.0339 -0.5133
 2569SOL    HW119340   0.706   0.827   9.403 -2.2553 -2.0961  1.1011
 2569SOL    HW219341   0.821   0.737   9.356  0.2261  0.2673 -0.6238
 2570SOL     OW19342   1.800   3.121  16.794  0.3630 -0.1703 -0.1209
 2570SOL    HW119343   1.767   3.156  16.876 -1.4105  0.5992 -1.1602
 2570SOL    HW219344   1.757   3.176  16.728 -2.5587 -2.8211 -0.4430
 2571SOL     OW19345   1.841   1.285   7.680 -0.3704  0.2765 -0.6137
 2571SOL    HW119346   1.786   1.285   7.601  1.0730  0.3554 -1.6163
 2571SOL    HW219347   1.921   1.238   7.658 -0.6943 -0.6979  0.3196
 2572SOL     OW19348   3.616   1.865  15.454  0.4270  0.3515 -0.1923
 2572SOL    HW119349   3.646   1.778  15.428 -0.8866 -0.4520  0.9689
 2572SOL    HW219350   3.555   1.896  15.387  2.2327 -0.2163 -2.1068
 2573SOL     OW19351   1.297   1.070   5.726  0.1166 -0.4642  0.4874
 2573SOL    HW119352   1.286   1.153   5.681  0.4502  0.1746  1.5685
 2573SOL    HW219353   1.241   1.019   5.669 -1.1075  1.5506 -0.0953
 2574SOL     OW19354   3.880   1.974   3.135  0.5317  0.1306 -0.3823
 2574SOL    HW119355   3.839   1.902   3.086  0.6323  0.7025 -1.3149
 2574SOL    HW219356   3.956   1.935   3.177 -1.7509 -2.3828  1.4400
 2575SOL     OW19357   3.571   0.971  11.390 -0.1856  0.0991  0.0074
 2575SOL    HW119358   3.563   1.001  11.480  0.1378 -0.4152  0.2063
 2575SOL    HW219359   3.542   0.880  11.388  0.4165 -0.0801 -0.4821
 2576SOL     OW19360   3.031   4.241   2.497 -0.6253  0.8667 -0.4220
 2576SOL    HW119361   2.943   4.214   2.470 -0.9879  0.7169  0.9338
 2576SOL    HW219362   3.042   4.203   2.584 -1.4707  0.8442 -0.3207
 2577SOL     OW19363   1.082   4.223   4.751 -0.9272 -0.1104  0.2785
 2577SOL    HW119364   1.049   4.310   4.729  1.4549  0.5873 -0.5253
 2577SOL    HW219365   1.032   4.203   4.830 -1.4513  0.3091  0.0568
 2578SOL     OW19366   0.331   4.111   5.571 -0.1287  0.0501 -0.3551
 2578SOL    HW119367   0.416   4.143   5.600 -0.6722  0.8567  0.3723
 2578SOL    HW219368   0.305   4.194   5.530 -1.4613  1.7793  3.8810
 2579SOL     OW19369   2.751   0.702  13.727  0.0948  0.2322  0.0950
 2579SOL    HW119370   2.742   0.756  13.805  0.2379  2.0361 -1.1302
 2579SOL    HW219371   2.689   0.741  13.666 -1.5454 -2.4209  0.0598
 2580SOL     OW19372   2.875   2.228  12.618 -0.3251 -0.1609 -0.3099
 2580SOL    HW119373   2.781   2.214  12.620  0.0300 -2.4611  0.0949
 2580SOL    HW219374   2.874   2.318  12.652  2.9302  0.2803 -1.3483
 2581SOL     OW19375   2.397   3.662   1.555 -0.1184  0.1517  0.2495
 2581SOL    HW119376   2.349   3.605   1.615  0.9572 -1.1317 -0.1146
 2581SOL    HW219377   2.455   3.710   1.615  0.2643 -0.5646  0.4561
 2582SOL     OW19378   3.768   2.753   6.396 -0.0161  0.6334  0.1381
 2582SOL    HW119379   3.783   2.699   6.318  0.4724  0.0394  0.6457
 2582SOL    HW219380   3.701   2.698   6.436 -0.2005 -0.0998 -1.1853
 2583SOL     OW19381   1.785   4.607  16.168  0.7599 -0.1699  0.5578
 2583SOL    HW119382   1.772   4.577  16.078 -0.2176 -0.6390  0.8552
 2583SOL    HW219383   1.696   4.618  16.203  0.0039 -1.3996 -1.0119
 2584SOL     OW19384   1.898   3.378   9.957 -0.7667  0.1835 -0.4086
 2584SOL    HW119385   1.853   3.296   9.938 -1.1369  0.6992 -1.7159
 2584SOL    HW219386   1.833   3.420  10.013  1.4386  0.7893  1.7237
 2585SOL     OW19387   2.120   2.774  14.448 -0.2478  0.7232  0.2606
 2585SOL    HW119388   2.040   2.727  14.471 -1.5220  2.3252 -0.8677
 2585SOL    HW219389   2.183   2.713  14.485  2.2652  2.6458 -0.8024
 2586SOL     OW19390   2.778   4.158   2.470 -0.2166  0.4617 -0.2026
 2586SOL    HW119391   2.735   4.073   2.471  2.7744 -1.0252  1.0997
 2586SOL    HW219392   2.726   4.208   2.533  0.1802  0.6556 -0.0286
 2587SOL     OW19393   0.828   1.966   7.780  0.8086 -0.5425  0.1566
 2587SOL    HW119394   0.772   2.026   7.829  0.1907 -0.5176 -0.5708
 2587SOL    HW219395   0.774   1.952   7.702  1.1498  0.8217 -0.3261
 2588SOL     OW19396   4.355   4.736   6.224  0.4474  0.4238 -0.0882
 2588SOL    HW119397   4.281   4.678   6.209  2.1170 -1.8420  0.3702
 2588SOL    HW219398   4.437   4.689   6.211  1.5625  2.5034 -0.6913
 2589SOL     OW19399   1.488   3.138   8.017 -0.4851 -0.3967 -0.0214
 2589SOL    HW119400   1.493   3.065   7.955  1.4061  0.0063 -0.3186
 2589SOL    HW219401   1.532   3.089   8.086  1.5511 -1.4858 -2.1065
 2590SOL     OW19402   0.120   3.726   9.378 -0.2711 -0.3363  0.4112
 2590SOL    HW119403   0.161   3.799   9.424 -0.0122  0.3425 -0.9163
 2590SOL    HW219404   0.146   3.666   9.448 -2.7178 -2.0558 -0.1330
 2591SOL     OW19405   3.433   1.676   4.058 -0.1972 -0.0944  0.1759
 2591SOL    HW119406   3.428   1.631   3.973  0.1957  0.9533 -0.4063
 2591SOL    HW219407   3.402   1.760   4.025  1.2616  0.1279 -0.6446
 2592SOL     OW19408   1.915   3.688   9.598  0.0865 -0.0436  0.0130
 2592SOL    HW119409   1.974   3.704   9.672 -0.8425  1.3708  0.4342
 2592SOL    HW219410   1.976   3.674   9.525 -0.8774  1.5154 -1.0875
 2593SOL     OW19411   2.561   3.859   5.920  0.1792  0.3398  0.1219
 2593SOL    HW119412   2.647   3.878   5.881  0.3965  1.5223  1.1468
 2593SOL    HW219413   2.523   3.826   5.839  1.1009 -0.2562 -0.0691
 2594SOL     OW19414   1.564   2.454   0.920 -0.0365  0.4085 -0.0031
 2594SOL    HW119415   1.574   2.477   1.013  1.4921  0.0498 -0.0848
 2594SOL    HW219416   1.548   2.359   0.922  0.2778  0.3591  0.2197
 2595SOL     OW19417   1.766   3.320  17.281  0.3573 -0.0710  0.4573
 2595SOL    HW119418   1.768   3.247  17.342 -0.1045  0.8267  1.5399
 2595SOL    HW219419   1.707   3.287  17.213  0.8955 -1.0181  0.4531
 2596SOL     OW19420   0.031   1.430   3.689  0.0070  0.4233 -0.2109
 2596SOL    HW119421   4.700   1.494   3.698 -0.4319 -0.1123  0.1280
 2596SOL    HW219422   4.729   1.359   3.642  0.3745  0.8155 -1.1354
 2597SOL     OW19423   3.887   1.376   3.032 -0.1606 -0.2700  0.2992
 2597SOL    HW119424   3.955   1.350   3.094  1.1416  1.0739 -0.5735
 2597SOL    HW219425   3.825   1.303   3.040  0.8617 -1.1702  0.1407
 2598SOL     OW19426   0.795   0.973   4.790 -0.4701 -0.2371  0.1627
 2598SOL    HW119427   0.832   0.971   4.702  1.6243  1.3873  1.0382
 2598SOL    HW219428   0.831   1.056   4.820  1.1566 -0.3197 -1.5718
 2599SOL     OW19429   1.575   2.563   3.934 -0.0060 -0.0734 -0.0687
 2599SOL    HW119430   1.536   2.627   3.993 -0.4908 -0.1838 -0.2726
 2599SOL    HW219431   1.571   2.616   3.855  3.4434 -2.0180 -1.5565
 2600SOL     OW19432   2.620   3.424   4.086  0.5958 -0.1336  0.0745
 2600SOL    HW119433   2.625   3.330   4.070 -0.0780 -0.2763  0.7429
 2600SOL    HW219434   2.615   3.461   3.997  1.2294  0.5804  0.3331
 2601SOL     OW19435   4.695   4.040   6.762 -0.0012 -0.5078 -0.4010
 2601SOL    HW119436   4.689   4.134   6.749 -0.7307 -0.8222 -2.4752
 2601SOL    HW219437   4.630   4.009   6.699  0.8217 -2.8847 -0.1064
 2602SOL     OW19438   0.781   2.036   4.740  0.1096  0.7398 -0.2518
 2602SOL    HW119439   0.780   1.956   4.792 -0.0603  1.1094  0.3192
 2602SOL    HW219440   0.710   2.087   4.780  1.2213  0.3670  2.1898
 2603SOL     OW19441   4.567   0.659   8.627  0.4139  0.0183  0.0471
 2603SOL    HW119442   4.655   0.677   8.662 -0.0314 -0.4792  1.4138
 2603SOL    HW219443   4.517   0.691   8.702 -1.5347 -0.0336 -1.2409
 2604SOL     OW19444   0.172   1.747   2.359  0.4349  0.1451  0.3572
 2604SOL    HW119445   0.103   1.719   2.299  0.9965 -1.4096  0.4226
 2604SOL    HW219446   0.133   1.727   2.444  1.4225 -2.7340  0.1495
 2605SOL     OW19447   2.943   2.800   2.898  0.0534 -0.2008 -0.7258
 2605SOL    HW119448   2.989   2.761   2.824 -1.7996 -2.0642 -0.9090
 2605SOL    HW219449   3.014   2.805   2.961  0.0365 -0.3635 -0.6931
 2606SOL     OW19450   0.126   0.297   2.706  0.3364  0.3750  0.4476
 2606SOL    HW119451   0.167   0.287   2.620  1.7434  2.0933  0.9283
 2606SOL    HW219452   0.130   0.392   2.716  2.9416  0.4199 -0.9376
 2607SOL     OW19453   3.313   1.911  16.675 -0.3306  0.3902 -0.3221
 2607SOL    HW119454   3.399   1.892  16.711  0.6715  2.9663 -1.3560
 2607SOL    HW219455   3.316   1.882  16.584 -0.1396  0.1606 -0.2416
 2608SOL     OW19456   1.190   3.907   5.166 -0.3013  0.1565  0.5115
 2608SOL    HW119457   1.178   3.911   5.261 -4.2374  1.3948 -0.0022
 2608SOL    HW219458   1.160   3.991   5.130 -1.8766 -0.8329 -0.4615
 2609SOL     OW19459   4.295   2.310   8.300  0.1413  0.1632 -0.3702
 2609SOL    HW119460   4.377   2.358   8.285 -0.1707  0.7769 -0.1242
 2609SOL    HW219461   4.236   2.383   8.321 -1.0617 -0.7940 -0.4507
 2610SOL     OW19462   1.576   0.901   4.318 -0.2666 -0.1716 -0.9776
 2610SOL    HW119463   1.507   0.934   4.260  0.5945  0.7168 -1.5038
 2610SOL    HW219464   1.584   0.973   4.381 -0.9674  0.3851 -1.5165
 2611SOL     OW19465   3.721   1.150   6.164 -0.0334 -0.0892  0.1071
 2611SOL    HW119466   3.738   1.110   6.078 -0.2446 -0.4752  0.2442
 2611SOL    HW219467   3.645   1.101   6.194 -0.4729  1.9225  2.2753
 2612SOL     OW19468   1.598   2.732   8.246  0.3286 -0.2386  0.0073
 2612SOL    HW119469   1.515   2.752   8.289 -0.3383 -2.5695 -0.1861
 2612SOL    HW219470   1.593   2.642   8.213  1.6535  0.7807 -2.9711
 2613SOL     OW19471   4.610   4.676   4.189 -0.0362 -0.0709  0.5203
 2613SOL    HW119472   4.523   4.688   4.151  0.3057 -0.8426 -0.4924
 2613SOL    HW219473   4.654   4.619   4.126  1.0715  1.9346 -0.5431
 2614SOL     OW19474   2.001   1.160   4.059 -0.3179 -0.3565  0.0675
 2614SOL    HW119475   2.024   1.109   4.137  1.4521 -1.0324 -0.8818
 2614SOL    HW219476   2.078   1.143   4.004  0.9489  0.1874  1.6882
 2615SOL     OW19477   3.526   2.182   9.368  0.7788  0.7829 -0.7367
 2615SOL    HW119478   3.506   2.198   9.460 -3.2321 -1.6087 -1.1467
 2615SOL    HW219479   3.591   2.250   9.352  2.8947 -0.8381  0.9769
 2616SOL     OW19480   3.047   2.664   4.816  0.0338 -0.1150 -0.0034
 2616SOL    HW119481   3.005   2.678   4.731  0.0468  0.6520  0.1137
 2616SOL    HW219482   2.976   2.638   4.875 -0.3879  3.0901  0.8838
 2617SOL     OW19483   0.236   4.160   3.032  0.1087 -0.3063  0.6058
 2617SOL    HW119484   0.255   4.215   3.108 -0.5300  1.4702 -0.5107
 2617SOL    HW219485   0.141   4.150   3.045  0.1978 -1.0701  0.6561
 2618SOL     OW19486   1.909   1.165  12.890 -0.3674  0.1196 -0.5537
 2618SOL    HW119487   1.858   1.245  12.904  0.9746  1.0540 -1.0903
 2618SOL    HW219488   1.991   1.201  12.858 -0.1050  1.1210  1.2404
 2619SOL     OW19489   3.078   0.648  16.155 -0.1257 -0.0895 -0.3335
 2619SOL    HW119490   3.062   0.556  16.178 -1.6687  0.4724  0.8541
 2619SOL    HW219491   2.992   0.682  16.131 -0.6600 -1.6923 -0.7123
 2620SOL     OW19492   2.573   1.386   3.639  0.0472 -0.5470  0.0260
 2620SOL    HW119493   2.519   1.401   3.562  0.2585 -2.7820 -0.5485
 2620SOL    HW219494   2.507   1.391   3.707  0.1528  2.0325 -0.0479
 2621SOL     OW19495   4.168   1.367   4.371  0.0503  0.1780  0.4693
 2621SOL    HW119496   4.187   1.344   4.463 -0.1872  3.1017  1.2409
 2621SOL    HW219497   4.102   1.435   4.382 -0.2822  0.0115 -0.6148
 2622SOL     OW19498   1.941   4.703   4.614 -0.0311  0.0400  0.1902
 2622SOL    HW119499   1.883   4.628   4.623 -0.5266  0.1129 -2.2416
 2622SOL    HW219500   1.976   4.693   4.525 -1.3427 -2.0932 -0.0758
 2623SOL     OW19501   1.153   0.033   5.017 -0.2800 -0.2689  0.0771
 2623SOL    HW119502   1.207   0.108   5.043 -0.5523  0.1466 -0.5735
 2623SOL    HW219503   1.116   0.071   4.938  0.9969  1.3293  0.2390
 2624SOL     OW19504   0.518   2.667   4.936 -0.2379  0.1676  0.1987
 2624SOL    HW119505   0.603   2.695   4.901 -1.0542  0.1629 -1.7538
 2624SOL    HW219506   0.468   2.643   4.858  1.4035  2.6347 -1.6304
 2625SOL     OW19507   1.410   2.900  14.307  0.2495  0.2382 -0.8366
 2625SOL    HW119508   1.354   2.977  14.297 -1.3477 -0.4826  2.4472
 2625SOL    HW219509   1.375   2.857  14.229 -0.4691 -0.3340 -0.1987
 2626SOL     OW19510   3.597   3.452  13.963  0.8784  0.3080  0.2867
 2626SOL    HW119511   3.566   3.479  14.049 -2.3631 -3.5558  0.3377
 2626SOL    HW219512   3.521   3.402  13.932 -0.0729  2.1669 -0.3705
 2627SOL     OW19513   0.610   4.150  13.541 -0.1133 -0.6057  0.5325
 2627SOL    HW119514   0.578   4.061  13.558  2.0141 -1.3888  0.4845
 2627SOL    HW219515   0.579   4.164  13.452  1.5932 -0.3768 -0.0377
 2628SOL     OW19516   3.246   4.073   4.503 -0.1206  0.4673  0.0605
 2628SOL    HW119517   3.171   4.050   4.558  0.7574 -0.8368  0.7038
 2628SOL    HW219518   3.263   3.988   4.462 -4.0610 -1.3415  2.2115
 2629SOL     OW19519   2.216   2.490  11.662 -0.6727  0.6179  0.3153
 2629SOL    HW119520   2.151   2.429  11.627 -0.8454  1.6470 -1.1712
 2629SOL    HW219521   2.278   2.439  11.714 -0.5839 -1.6072 -1.9469
 2630SOL     OW19522   3.559   0.332  10.419  0.5424 -0.3236 -0.2106
 2630SOL    HW119523   3.562   0.239  10.398  0.8895 -0.4037  0.1937
 2630SOL    HW219524   3.482   0.326  10.477  2.4564 -3.8825  1.9457
 2631SOL     OW19525   1.888   4.028   2.249 -0.1078  0.0989  0.1204
 2631SOL    HW119526   1.897   4.123   2.261 -0.9463  0.3270 -1.0348
 2631SOL    HW219527   1.839   3.997   2.326  0.8135  1.0221  1.0729
 2632SOL     OW19528   3.067   4.650   8.047  0.7547 -0.0450  0.8712
 2632SOL    HW119529   3.154   4.624   8.017  0.7696  0.1150  0.7779
 2632SOL    HW219530   3.087   4.683   8.135 -1.5386  0.8973  1.0480
 2633SOL     OW19531   2.371   1.414   3.788  0.4987 -0.0096  0.3191
 2633SOL    HW119532   2.288   1.374   3.763  0.2230  0.6577  0.1494
 2633SOL    HW219533   2.378   1.373   3.874  2.2913  0.1848  0.2731
 2634SOL     OW19534   2.653   2.195   6.949 -0.5803 -0.1795  0.5026
 2634SOL    HW119535   2.589   2.248   6.902 -0.1117  0.8310  0.9963
 2634SOL    HW219536   2.718   2.171   6.883 -1.5209 -0.6564 -0.2576
 2635SOL     OW19537   1.207   4.414   6.610 -0.3578  0.1990  0.4291
 2635SOL    HW119538   1.129   4.464   6.635 -1.2449 -1.0294  0.0563
 2635SOL    HW219539   1.236   4.399   6.700 -1.1210  2.4630  1.0610
 2636SOL     OW19540   0.627   2.118   7.273 -0.0454 -0.3875 -0.0365
 2636SOL    HW119541   0.708   2.135   7.323  0.5938  0.5447 -1.3958
 2636SOL    HW219542   0.654   2.032   7.242 -1.6743 -0.4099 -1.3390
 2637SOL     OW19543   3.264   3.590   2.880  0.5578  0.0433 -0.3506
 2637SOL    HW119544   3.268   3.556   2.791 -0.7229  1.3982 -0.9327
 2637SOL    HW219545   3.343   3.645   2.883  0.1133  0.6565  0.1192
 2638SOL     OW19546   0.455   2.252   5.913 -0.1293  0.0180  0.1001
 2638SOL    HW119547   0.492   2.328   5.959  2.9598 -2.2790  1.3980
 2638SOL    HW219548   0.475   2.277   5.823 -0.8036 -0.1806 -0.1003
 2639SOL     OW19549   1.125   3.164   5.628 -0.1695  0.1946 -0.0491
 2639SOL    HW119550   1.221   3.156   5.622 -0.0919 -1.0222  2.8023
 2639SOL    HW219551   1.106   3.184   5.719 -0.0382 -1.3522  0.3286
 2640SOL     OW19552   1.878   4.207   7.384  0.5714 -0.1075  0.6745
 2640SOL    HW119553   1.917   4.282   7.338 -0.8062  0.2434  0.0681
 2640SOL    HW219554   1.906   4.215   7.475 -0.1493  1.5937  0.7602
 2641SOL     OW19555   0.704   2.737   3.440 -0.4510 -0.6120  0.1613
 2641SOL    HW119556   0.722   2.650   3.477 -1.4066 -0.9119 -0.1009
 2641SOL    HW219557   0.661   2.774   3.517  1.5125  1.6349  0.2074
 2642SOL     OW19558   2.481   4.024   6.933  0.4865  0.4610  0.0547
 2642SOL    HW119559   2.516   4.091   6.992  2.2436 -1.3904  1.1295
 2642SOL    HW219560   2.478   4.064   6.846  0.8190  0.3236 -0.0232
 2643SOL     OW19561   1.365   0.757   5.235 -0.0976  0.0018  0.1919
 2643SOL    HW119562   1.384   0.721   5.148 -2.0779 -1.5716  0.4041
 2643SOL    HW219563   1.313   0.834   5.215 -0.7534 -0.4138  0.2824
 2644SOL     OW19564   3.539   2.826   4.484  0.0794 -0.4251 -0.1719
 2644SOL    HW119565   3.583   2.744   4.461  0.6431 -0.7102  1.8687
 2644SOL    HW219566   3.595   2.895   4.447 -0.1948 -0.6817 -1.0659
 2645SOL     OW19567   4.226   3.509  14.990 -0.6178 -0.0121  0.3936
 2645SOL    HW119568   4.225   3.596  15.030 -2.2148  0.5460 -0.8638
 2645SOL    HW219569   4.214   3.537  14.900 -0.8888 -0.5115  0.2722
 2646SOL     OW19570   1.580   4.547   8.573  0.0594 -0.1113 -0.0805
 2646SOL    HW119571   1.674   4.546   8.557  0.1180 -0.4854  0.2655
 2646SOL    HW219572   1.585   4.588   8.660 -0.3967 -3.3269  1.4379
 2647SOL     OW19573   2.300   2.014   8.012  0.4444  0.2686 -0.2714
 2647SOL    HW119574   2.302   2.101   7.972 -1.8205  0.9624  1.1518
 2647SOL    HW219575   2.318   1.953   7.940  0.4622 -2.4497  2.0346
 2648SOL     OW19576   2.797   3.688  14.149  0.3151  0.2299  0.6248
 2648SOL    HW119577   2.848   3.721  14.223  0.8603  1.0071 -0.0999
 2648SOL    HW219578   2.710   3.712  14.182 -1.5630 -3.0393 -1.8799
 2649SOL     OW19579   2.535   1.607   5.517 -0.2556 -0.2492  0.6976
 2649SOL    HW119580   2.484   1.615   5.598 -0.9517  1.2918  0.1134
 2649SOL    HW219581   2.500   1.529   5.473  0.8623 -0.2130 -0.2477
 2650SOL     OW19582   0.581   3.337   9.520 -0.4364 -0.0024  0.6692
 2650SOL    HW119583   0.623   3.368   9.600  2.6556  3.4340 -2.2986
 2650SOL    HW219584   0.588   3.242   9.527  0.5717  0.1611  1.7564
 2651SOL     OW19585   1.729   0.980  15.399  0.6582  0.1201  0.2931
 2651SOL    HW119586   1.639   1.012  15.395  0.4522 -0.6165 -0.8535
 2651SOL    HW219587   1.749   1.013  15.487  1.4056 -0.1437  0.2176
 2652SOL     OW19588   0.261   0.406   6.441  0.8715  0.0319  0.4148
 2652SOL    HW119589   0.236   0.380   6.530 -1.4206 -2.5810 -0.9895
 2652SOL    HW219590   0.189   0.461   6.411  0.1393 -1.4050 -0.4574
 2653SOL     OW19591   2.584   3.341  14.815  0.1773 -0.2309  0.0197
 2653SOL    HW119592   2.627   3.407  14.870 -3.0178 -0.1030  2.3488
 2653SOL    HW219593   2.522   3.314  14.883 -0.7181 -2.0935 -1.5557
 2654SOL     OW19594   2.138   1.709   9.244  0.2368  0.2972  0.0377
 2654SOL    HW119595   2.144   1.632   9.188  0.5456  0.3645 -0.0229
 2654SOL    HW219596   2.118   1.681   9.333  0.3620 -0.5852 -0.2130
 2655SOL     OW19597   4.044   1.228   2.581 -0.6237  0.0824  0.7124
 2655SOL    HW119598   3.998   1.289   2.523 -1.8311 -1.7507 -0.2734
 2655SOL    HW219599   3.976   1.161   2.591 -0.7282  0.1494  0.4650
 2656SOL     OW19600   0.240   2.114   1.078 -0.1891  0.3003 -0.0533
 2656SOL    HW119601   0.292   2.033   1.075 -0.2044  0.2938 -0.1463
 2656SOL    HW219602   0.236   2.141   0.986  3.3213  1.4823  0.1533
 2657SOL     OW19603   4.450   1.883   6.739  0.7374 -0.0894  0.4076
 2657SOL    HW119604   4.469   1.953   6.676  2.0124 -1.7755 -1.0705
 2657SOL    HW219605   4.465   1.924   6.824 -1.3458 -1.9528  1.6578
 2658SOL     OW19606   2.435   2.150   3.243 -0.2736  0.0092  0.1711
 2658SOL    HW119607   2.353   2.111   3.273  0.3372 -0.0110  1.8271
 2658SOL    HW219608   2.486   2.165   3.323 -0.4227  3.0483 -0.3076
 2659SOL     OW19609   3.820   0.281  12.431  0.1092 -0.1461 -0.3443
 2659SOL    HW119610   3.865   0.232  12.363  1.9836 -0.3077  1.0049
 2659SOL    HW219611   3.731   0.267  12.398 -0.4526 -0.2606  1.2001
 2660SOL     OW19612   3.840   0.281   6.077 -0.3584 -0.0641  0.2852
 2660SOL    HW119613   3.852   0.251   5.986 -0.2191 -0.3549  0.3979
 2660SOL    HW219614   3.858   0.196   6.117  2.8472  1.2142  1.5974
 2661SOL     OW19615   2.028   4.726  10.438  0.1458 -0.1382 -0.3808
 2661SOL    HW119616   1.974   4.671  10.495 -2.3970  3.2873  0.4880
 2661SOL    HW219617   2.106   4.670  10.443 -0.4933 -1.1074 -1.2328
 2662SOL     OW19618   2.252   1.162   6.459  0.6727  0.2832 -0.1437
 2662SOL    HW119619   2.206   1.210   6.390  0.5530 -0.3778 -0.5253
 2662SOL    HW219620   2.188   1.091   6.461 -0.8825  1.6857  0.0060
 2663SOL     OW19621   0.974   0.278   0.747 -0.2641 -0.2480  0.7258
 2663SOL    HW119622   0.978   0.298   0.840 -0.1024  0.5591  0.5543
 2663SOL    HW219623   0.882   0.283   0.723 -0.3523 -1.9562  0.7260
 2664SOL     OW19624   2.787   3.862   3.846 -0.0397  0.5115 -0.3370
 2664SOL    HW119625   2.773   3.767   3.853 -2.6795  1.0204  1.3542
 2664SOL    HW219626   2.742   3.883   3.765 -0.1028 -0.6741 -0.6068
 2665SOL     OW19627   3.866   3.462  14.056 -0.3927  0.0354  0.0380
 2665SOL    HW119628   3.776   3.467  14.025 -0.6506 -0.8685  0.6766
 2665SOL    HW219629   3.906   3.392  14.004  1.1142 -0.8290  2.3661
 2666SOL     OW19630   3.042   4.077   9.904 -0.4580  0.0974 -0.2294
 2666SOL    HW119631   2.987   4.062   9.827  0.3145  1.3004 -1.0136
 2666SOL    HW219632   3.068   4.168   9.888  0.5935 -0.2301 -0.3880
 2667SOL     OW19633   2.968   2.582  13.290 -0.0396  0.2481 -0.0513
 2667SOL    HW119634   3.000   2.661  13.246 -0.0131 -0.4107 -1.2353
 2667SOL    HW219635   2.943   2.524  13.218  0.9356  0.5431 -0.6216
 2668SOL     OW19636   3.765   2.420   5.122 -0.0888 -0.1600 -0.1049
 2668SOL    HW119637   3.831   2.476   5.162  1.3243 -0.5856 -1.8219
 2668SOL    HW219638   3.696   2.485   5.135 -0.6751 -0.6009 -1.0205
 2669SOL     OW19639   1.842   0.412   5.484  0.2196 -0.1843  0.2495
 2669SOL    HW119640   1.891   0.344   5.530 -1.6440  0.4855  3.2114
 2669SOL    HW219641   1.864   0.477   5.550 -0.1801 -0.7912  0.9738
 2670SOL     OW19642   2.705   1.522   7.533  0.4760  0.2560  0.0075
 2670SOL    HW119643   2.610   1.521   7.530  0.5225 -0.8601 -1.2991
 2670SOL    HW219644   2.727   1.606   7.573  0.2764  0.5346 -0.4680
 2671SOL     OW19645   0.364   3.182   6.445 -0.4011  0.7757 -0.0826
 2671SOL    HW119646   0.325   3.114   6.390  0.6723  0.9453 -1.0549
 2671SOL    HW219647   0.309   3.178   6.524 -0.5764  1.3163 -0.1732
 2672SOL     OW19648   4.409   3.367  16.364  0.1573  0.7855  0.1013
 2672SOL    HW119649   4.419   3.300  16.432 -2.6268 -0.3527 -0.6164
 2672SOL    HW219650   4.476   3.337  16.303 -0.1774 -3.0921  1.6229
 2673SOL     OW19651   1.300   0.279  16.755  0.1495  0.3463  0.5234
 2673SOL    HW119652   1.288   0.342  16.825  0.1935  0.5364  0.3586
 2673SOL    HW219653   1.233   0.308  16.693  0.3646 -0.1051  0.0668
 2674SOL     OW19654   0.120   0.746   6.614  0.3240  0.1766 -0.2211
 2674SOL    HW119655   0.032   0.708   6.608  0.6485  0.0434 -3.7520
 2674SOL    HW219656   0.158   0.690   6.683 -0.1141 -1.5379 -1.3682
 2675SOL     OW19657   1.391   3.139   8.829 -0.3348 -0.2370  0.1198
 2675SOL    HW119658   1.371   3.132   8.922 -0.1469 -1.1294  0.0894
 2675SOL    HW219659   1.442   3.220   8.832  0.0345 -0.4966  0.8851
 2676SOL     OW19660   0.387   0.869   6.691 -0.1682 -0.3117 -0.0214
 2676SOL    HW119661   0.400   0.803   6.760 -3.7444 -1.1530 -0.1789
 2676SOL    HW219662   0.459   0.932   6.692  1.0015 -1.6343  1.0986
 2677SOL     OW19663   1.575   3.649   7.428  0.4566  0.0942  0.5234
 2677SOL    HW119664   1.501   3.609   7.383  2.2738 -0.5711 -1.9076
 2677SOL    HW219665   1.653   3.605   7.394 -0.4133 -1.0469 -0.0016
 2678SOL     OW19666   0.535   1.273   3.187  0.4461  0.0390  0.0692
 2678SOL    HW119667   0.558   1.182   3.204 -1.3329 -0.4093  0.0462
 2678SOL    HW219668   0.544   1.309   3.276  1.7982 -0.4715  0.1483
 2679SOL     OW19669   0.237   1.980   4.748 -0.2999 -0.1367 -0.2987
 2679SOL    HW119670   0.301   1.910   4.737 -0.7124 -0.3948 -1.0686
 2679SOL    HW219671   0.253   2.019   4.834  0.9815 -1.9410  0.2719
 2680SOL     OW19672   0.835   3.463   3.400  0.2166  0.1005  0.1666
 2680SOL    HW119673   0.830   3.435   3.309 -0.8125 -1.5582  0.7094
 2680SOL    HW219674   0.887   3.391   3.436 -0.1647 -0.3021 -0.0887
 2681SOL     OW19675   0.939   2.602   8.047 -0.0395 -0.0273  0.0807
 2681SOL    HW119676   0.910   2.692   8.032  2.0812  0.8527  1.2262
 2681SOL    HW219677   0.900   2.574   8.130  1.3181  0.5380  0.9147
 2682SOL     OW19678   3.072   3.715  14.813  0.0250 -0.3724 -0.0612
 2682SOL    HW119679   3.139   3.739  14.749  1.4770 -1.2894  1.1162
 2682SOL    HW219680   3.105   3.750  14.896  1.1062  0.2838 -0.7685
 2683SOL     OW19681   2.208   0.648   5.268  0.5066 -0.9157  0.0468
 2683SOL    HW119682   2.154   0.569   5.274  0.1909 -0.6356  0.8914
 2683SOL    HW219683   2.181   0.685   5.352  0.4777  0.2969 -0.4928
 2684SOL     OW19684   3.860   1.604   1.887 -0.0590  0.3466  0.0683
 2684SOL    HW119685   3.844   1.696   1.906  1.4544  0.6331 -0.0505
 2684SOL    HW219686   3.954   1.623   1.887  0.3403 -1.6822 -4.6786
 2685SOL     OW19687   1.400   2.151  12.194  0.3468 -0.1977  0.0184
 2685SOL    HW119688   1.454   2.076  12.221  2.4554  1.5947  0.7769
 2685SOL    HW219689   1.438   2.188  12.114 -0.6653 -0.5594 -0.6250
 2686SOL     OW19690   3.163   2.611   2.960 -0.5430 -0.4940  0.5802
 2686SOL    HW119691   3.182   2.650   2.874  1.7110  0.9972  1.7466
 2686SOL    HW219692   3.209   2.668   3.021 -1.5828  1.4023 -0.4220
 2687SOL     OW19693   2.387   4.152   7.460  0.5287 -0.2795  0.2650
 2687SOL    HW119694   2.418   4.229   7.411 -1.1228 -1.1491 -2.1380
 2687SOL    HW219695   2.402   4.083   7.396 -0.5159  0.2661 -0.5710
 2688SOL     OW19696   0.727   3.086   5.279  0.0026 -0.5990  0.5154
 2688SOL    HW119697   0.649   3.138   5.300 -0.4642 -1.6970  1.4661
 2688SOL    HW219698   0.789   3.130   5.337  0.7691  0.7841 -1.3608
 2689SOL     OW19699   1.614   3.437  15.207 -0.1837  0.2967 -0.0897
 2689SOL    HW119700   1.574   3.409  15.289  0.5434 -2.2277 -0.5936
 2689SOL    HW219701   1.571   3.371  15.154 -0.8517  1.4711 -1.0201
 2690SOL     OW19702   1.039   3.275   5.880 -0.0742  0.2650  0.3377
 2690SOL    HW119703   1.086   3.302   5.959 -0.5491 -1.0810  1.1040
 2690SOL    HW219704   0.998   3.355   5.848 -0.4464 -0.5175 -1.1246
 2691SOL     OW19705   0.289   1.688   8.375 -0.1569 -0.0413 -0.2273
 2691SOL    HW119706   0.337   1.609   8.349  0.2604  0.1301  0.0344
 2691SOL    HW219707   0.355   1.738   8.423  1.2539  0.2717 -2.4662
 2692SOL     OW19708   3.053   0.979   1.944 -0.5671 -0.2201 -0.1842
 2692SOL    HW119709   3.095   1.035   2.009 -2.0635  1.6664 -0.8251
 2692SOL    HW219710   3.037   1.045   1.877 -1.6547  0.1878  0.4719
 2693SOL     OW19711   2.347   3.161   7.933 -0.1384 -0.6258 -0.0155
 2693SOL    HW119712   2.332   3.110   8.013  1.0857 -0.4543  0.3223
 2693SOL    HW219713   2.419   3.112   7.893 -1.9312 -2.4817 -1.0173
 2694SOL     OW19714   4.384   1.613   7.245  0.3039  0.3959 -0.6572
 2694SOL    HW119715   4.318   1.616   7.313  0.6583 -0.3262 -0.2787
 2694SOL    HW219716   4.427   1.697   7.259  1.3423 -0.3074  0.4054
 2695SOL     OW19717   0.904   2.126   9.507  0.2856  0.4694 -0.2056
 2695SOL    HW119718   0.864   2.154   9.424  0.5357 -1.1519 -0.8791
 2695SOL    HW219719   0.828   2.077   9.539  0.4625  0.3850  0.0758
 2696SOL     OW19720   0.978   3.319  14.630 -0.2645  0.1392  0.4347
 2696SOL    HW119721   1.023   3.403  14.643  1.4135 -0.9258  1.5010
 2696SOL    HW219722   0.937   3.303  14.716  1.6075  0.8248  1.4519
 2697SOL     OW19723   0.605   3.474   0.559 -0.0027  0.2170  0.2048
 2697SOL    HW119724   0.524   3.511   0.594  1.0236  2.5647  0.0942
 2697SOL    HW219725   0.650   3.441   0.636  2.0019  0.2556 -0.9430
 2698SOL     OW19726   4.427   3.847   1.917 -0.7138 -0.3649 -0.3693
 2698SOL    HW119727   4.421   3.923   1.860 -0.0755 -0.3361 -0.3938
 2698SOL    HW219728   4.376   3.866   1.996  1.3863  1.3966  0.5770
 2699SOL     OW19729   1.172   2.282   3.590 -0.0992  0.2525  0.1051
 2699SOL    HW119730   1.194   2.300   3.682 -0.3432 -1.6437  0.5326
 2699SOL    HW219731   1.137   2.193   3.598 -1.6289  0.7920 -0.4981
 2700SOL     OW19732   1.485   3.754   1.014  0.4287 -0.3094 -0.8173
 2700SOL    HW119733   1.501   3.847   1.028 -0.0056 -0.4932  0.9535
 2700SOL    HW219734   1.543   3.719   1.082  1.1473  1.7516 -0.3732
 2701SOL     OW19735   3.734   1.923   3.752 -0.1704  0.5329  0.2838
 2701SOL    HW119736   3.703   2.006   3.788  0.1744  0.2943  1.1507
 2701SOL    HW219737   3.749   1.874   3.833 -0.2829 -1.2317 -0.7829
 2702SOL     OW19738   3.676   2.122   2.858  0.3276 -0.0583 -0.0540
 2702SOL    HW119739   3.635   2.158   2.779  0.9254  0.9787  0.0968
 2702SOL    HW219740   3.694   2.034   2.825 -2.2884 -0.3464 -0.7147
 2703SOL     OW19741   3.128   2.814   1.166 -0.3123  0.5431 -0.5227
 2703SOL    HW119742   3.060   2.840   1.228  0.9746  2.6088  0.0195
 2703SOL    HW219743   3.104   2.857   1.085 -0.6644  1.1340 -0.1044
 2704SOL     OW19744   1.457   1.421   7.206  0.3690  0.1936 -0.1205
 2704SOL    HW119745   1.362   1.425   7.218  0.6246  2.3370  1.0680
 2704SOL    HW219746   1.467   1.330   7.235  1.8967  0.1719 -0.6871
 2705SOL     OW19747   1.583   2.357   8.469 -0.3760  0.2820 -0.2098
 2705SOL    HW119748   1.657   2.415   8.486  0.4949 -0.9755  0.2325
 2705SOL    HW219749   1.607   2.279   8.519 -1.8072 -1.3109 -2.0183
 2706SOL     OW19750   1.611   2.321   2.221  0.3044 -0.2841 -0.4283
 2706SOL    HW119751   1.574   2.284   2.141 -2.1427 -1.0853  1.0536
 2706SOL    HW219752   1.539   2.363   2.270  2.5777  0.6088  2.1806
 2707SOL     OW19753   1.409   2.401  14.178  0.3187 -0.2737 -0.5605
 2707SOL    HW119754   1.456   2.427  14.257  0.6986 -0.1482 -0.8267
 2707SOL    HW219755   1.397   2.477  14.122 -1.0203  1.3830  1.9736
 2708SOL     OW19756   2.669   1.256  14.665 -0.1044  0.3636 -0.7843
 2708SOL    HW119757   2.590   1.207  14.686  0.1010 -0.3429 -1.6945
 2708SOL    HW219758   2.613   1.334  14.657 -1.9884 -0.7762  1.2247
 2709SOL     OW19759   2.086   4.251   8.608  0.4665 -0.2443 -0.4371
 2709SOL    HW119760   2.170   4.237   8.565  0.8570  1.7165 -0.3345
 2709SOL    HW219761   2.110   4.329   8.658  1.8611  0.0913 -1.6538
 2710SOL     OW19762   0.337   0.624  15.859 -0.7328 -0.1714 -0.2907
 2710SOL    HW119763   0.374   0.560  15.798  1.1122 -0.1140  0.7544
 2710SOL    HW219764   0.299   0.682  15.793  2.3723 -0.9558 -2.7504
 2711SOL     OW19765   0.933   1.444   9.346 -0.1709 -0.0104  0.7062
 2711SOL    HW119766   0.976   1.444   9.431 -0.9147 -0.9921  1.0721
 2711SOL    HW219767   0.962   1.358   9.315  2.2374  1.5861 -1.5223
 2712SOL     OW19768   0.056   3.027   2.145  0.0327  0.2494 -0.2662
 2712SOL    HW119769   4.726   3.014   2.080 -0.2740  0.7541 -0.0414
 2712SOL    HW219770   4.739   3.068   2.211 -1.7576 -2.4036 -0.1695
 2713SOL     OW19771   3.186   3.578   0.393  0.0251  0.0816  0.1695
 2713SOL    HW119772   3.225   3.647   0.448  0.0387 -0.1293  0.4202
 2713SOL    HW219773   3.257   3.566   0.330  0.3835  1.2941  0.3345
 2714SOL     OW19774   2.277   1.216   6.912 -0.3685 -0.1485 -0.0236
 2714SOL    HW119775   2.268   1.248   6.822 -0.9167  0.3455  0.2074
 2714SOL    HW219776   2.184   1.213   6.931 -0.0257 -1.2285  1.4319
 2715SOL     OW19777   3.297   3.566   8.017 -0.0180  0.5081  0.0163
 2715SOL    HW119778   3.375   3.594   8.063  0.7936  2.6632 -2.6936
 2715SOL    HW219779   3.332   3.494   7.964  1.8138  1.1912  0.3276
 2716SOL     OW19780   0.915   0.958   8.678 -0.0243 -0.1476 -0.1663
 2716SOL    HW119781   0.863   0.885   8.710 -0.3878  0.4244  0.5437
 2716SOL    HW219782   0.947   0.996   8.760  0.4121 -1.5363  0.3025
 2717SOL     OW19783   4.082   4.341   6.038 -0.3261 -0.6933  0.7792
 2717SOL    HW119784   3.990   4.325   6.017 -0.2771 -0.5275  0.4443
 2717SOL    HW219785   4.128   4.266   6.002 -0.6273 -0.3500 -0.3043
 2718SOL     OW19786   2.242   3.663   8.384  0.7080 -0.1087 -0.5068
 2718SOL    HW119787   2.189   3.688   8.460  1.4678 -0.3939  0.1092
 2718SOL    HW219788   2.329   3.701   8.388  0.2972  0.4681  2.4949
 2719SOL     OW19789   2.735   1.294   5.934  0.1669  0.2286 -0.0732
 2719SOL    HW119790   2.756   1.207   5.900  0.7624  0.0356  0.7832
 2719SOL    HW219791   2.695   1.330   5.855 -1.4783 -0.8071  0.2742
 2720SOL     OW19792   0.852   3.154   9.046  0.5407  0.3655  0.5471
 2720SOL    HW119793   0.843   3.249   9.033 -2.4885 -0.1187 -0.9054
 2720SOL    HW219794   0.866   3.150   9.141 -0.3168  0.8491  0.6931
 2721SOL     OW19795   1.253   1.337   3.035  0.8319  0.2433  0.1224
 2721SOL    HW119796   1.288   1.383   2.958  0.7541  0.2576  0.0959
 2721SOL    HW219797   1.339   1.333   3.077  0.7759 -1.4788  0.0505
 2722SOL     OW19798   3.492   1.880   8.524  0.7565  0.8016 -1.0566
 2722SOL    HW119799   3.449   1.963   8.505 -1.5202 -0.3193 -0.8108
 2722SOL    HW219800   3.511   1.887   8.618 -1.9191 -0.5845 -0.4202
 2723SOL     OW19801   4.382   1.762   3.267  0.4340 -0.1777  0.0761
 2723SOL    HW119802   4.391   1.679   3.315 -2.2987 -0.4055  0.1984
 2723SOL    HW219803   4.319   1.819   3.311  1.2687  1.2477 -0.5672
 2724SOL     OW19804   3.623   3.540   6.649 -0.0027 -0.2563  0.0820
 2724SOL    HW119805   3.587   3.456   6.676  1.4851 -1.1467 -0.7163
 2724SOL    HW219806   3.564   3.554   6.575 -1.2780  0.9338  1.3228
 2725SOL     OW19807   3.544   1.029   3.833  0.6327  0.1001 -0.1907
 2725SOL    HW119808   3.614   0.985   3.882  1.0096  0.9303  0.0048
 2725SOL    HW219809   3.524   1.102   3.891  2.0106 -0.1552  0.6048
 2726SOL     OW19810   1.004   0.678   6.429  0.2366  0.7344 -0.0186
 2726SOL    HW119811   1.059   0.616   6.381  3.4737  2.9447  0.8211
 2726SOL    HW219812   1.001   0.627   6.510 -0.9696 -2.6256 -2.1822
 2727SOL     OW19813   3.560   1.891   8.805 -0.5235 -0.1900 -0.0028
 2727SOL    HW119814   3.537   1.972   8.851 -0.5040  0.2604 -0.7892
 2727SOL    HW219815   3.534   1.818   8.862 -2.0593  0.0242 -0.4329
 2728SOL     OW19816   1.934   1.179   8.328  0.0841  0.4267 -0.6368
 2728SOL    HW119817   2.018   1.198   8.370 -0.3641  0.5278  0.2075
 2728SOL    HW219818   1.883   1.161   8.407 -1.6355  0.2616 -1.7959
 2729SOL     OW19819   0.883   0.242   7.181 -0.0341  0.3677 -0.1904
 2729SOL    HW119820   0.930   0.172   7.227 -1.3699 -0.1952  0.3168
 2729SOL    HW219821   0.791   0.216   7.191  0.4917 -0.8793  1.2914
 2730SOL     OW19822   3.768   4.658   2.087 -1.0120 -0.2459 -0.1048
 2730SOL    HW119823   3.787   4.726   2.023 -1.3868  0.0055  0.0501
 2730SOL    HW219824   3.837   4.593   2.074 -0.3150 -0.2546  3.7046
 2731SOL     OW19825   1.257   1.714   5.605 -0.2898  0.0976  0.0584
 2731SOL    HW119826   1.305   1.725   5.687  1.7831  0.3171 -1.1966
 2731SOL    HW219827   1.168   1.706   5.640 -0.2992 -0.9503 -0.1810
 2732SOL     OW19828   1.458   2.481   5.456  0.6293 -0.6517 -0.6155
 2732SOL    HW119829   1.366   2.454   5.458  1.0656 -2.1114 -0.3384
 2732SOL    HW219830   1.487   2.413   5.395  3.5750  0.4620 -0.4632
 2733SOL     OW19831   1.459   3.676   2.445 -0.2911 -0.2796 -0.2869
 2733SOL    HW119832   1.414   3.701   2.525 -0.6415  1.0887 -0.9056
 2733SOL    HW219833   1.414   3.597   2.416  1.7574 -2.5207  2.7016
 2734SOL     OW19834   1.839   0.739  12.069  0.0302  0.4110  0.3167
 2734SOL    HW119835   1.801   0.657  12.039 -0.0059 -0.1567  1.9560
 2734SOL    HW219836   1.785   0.756  12.146 -1.8666 -0.5299 -0.7931
 2735SOL     OW19837   4.217   2.219   3.406 -0.0035  0.0852  0.0982
 2735SOL    HW119838   4.239   2.194   3.316  1.6104  2.4099 -0.1572
 2735SOL    HW219839   4.300   2.255   3.436 -2.4642  4.6782  1.3768
 2736SOL     OW19840   3.140   2.298   2.588 -0.1960  0.2500  0.0391
 2736SOL    HW119841   3.130   2.294   2.683 -1.2018 -3.2140 -0.2161
 2736SOL    HW219842   3.118   2.208   2.563 -0.6412 -0.2471  2.2212
 2737SOL     OW19843   4.217   3.904  16.211  0.3370  0.0443  0.0473
 2737SOL    HW119844   4.262   3.834  16.163  0.6123  0.3831 -0.1940
 2737SOL    HW219845   4.269   3.910  16.291  0.0183 -0.3888  0.2879
 2738SOL     OW19846   0.781   2.863   8.809  0.6429  0.1434 -0.0772
 2738SOL    HW119847   0.824   2.920   8.872  0.7062  2.2675 -2.0583
 2738SOL    HW219848   0.818   2.889   8.724 -1.9847  2.5840 -0.4818
 2739SOL     OW19849   2.086   2.678   4.743  0.0290 -0.0469  0.1731
 2739SOL    HW119850   2.162   2.734   4.758 -1.0214  1.5111 -0.3605
 2739SOL    HW219851   2.023   2.747   4.721  1.2551  1.2319  0.6745
 2740SOL     OW19852   1.766   0.381  11.536  0.1000 -0.3107 -0.4531
 2740SOL    HW119853   1.792   0.336  11.616  0.3543 -0.1314 -0.4359
 2740SOL    HW219854   1.692   0.332  11.499  0.0518 -0.3180 -0.3488
 2741SOL     OW19855   2.367   0.205   8.030  0.2056 -0.2431 -0.0999
 2741SOL    HW119856   2.287   0.246   7.999  1.2592  0.1704 -2.2539
 2741SOL    HW219857   2.386   0.129   7.975  0.5141 -0.2170 -0.0308
 2742SOL     OW19858   0.504   3.692   2.920 -0.7468  0.0102 -0.1326
 2742SOL    HW119859   0.460   3.727   2.997  0.8042  1.4058  0.1247
 2742SOL    HW219860   0.460   3.608   2.909 -0.3364 -0.2991  0.5485
 2743SOL     OW19861   3.386   2.746   3.073  0.3111 -0.1334  0.1056
 2743SOL    HW119862   3.456   2.757   3.010 -0.9795  0.9701 -1.1338
 2743SOL    HW219863   3.411   2.814   3.135  2.3303 -0.1041 -0.7457
 2744SOL     OW19864   2.367   2.683  17.144 -0.3430 -0.8282  0.3660
 2744SOL    HW119865   2.322   2.670  17.227 -0.8318 -1.7379 -0.0431
 2744SOL    HW219866   2.438   2.619  17.149 -0.3456 -0.9363 -1.0275
 2745SOL     OW19867   4.116   4.213   2.179  0.1992 -0.1353 -0.4034
 2745SOL    HW119868   4.034   4.173   2.150 -0.0503 -0.8268  1.2547
 2745SOL    HW219869   4.087   4.292   2.224  1.6555  0.0442  0.2402
 2746SOL     OW19870   3.335   2.654  14.199  0.0860 -0.4612  0.2121
 2746SOL    HW119871   3.291   2.738  14.213  0.0013  0.0192 -2.9042
 2746SOL    HW219872   3.347   2.624  14.289  0.6089  0.8476  0.5814
 2747SOL     OW19873   0.174   3.371   6.799  0.0160  0.4433  0.3141
 2747SOL    HW119874   0.269   3.383   6.803  0.1294  0.1811 -1.3412
 2747SOL    HW219875   0.163   3.340   6.709  0.5899  4.9218 -1.3046
 2748SOL     OW19876   1.001   1.027   4.601  0.5214 -0.1582 -0.1246
 2748SOL    HW119877   0.986   1.119   4.582 -0.6299  0.0653  1.8909
 2748SOL    HW219878   1.060   1.001   4.530  0.3418 -0.1128 -0.2897
 2749SOL     OW19879   3.890   2.362   2.514  0.1529  0.5032  0.7904
 2749SOL    HW119880   3.933   2.330   2.594  1.6632  0.2377 -0.1093
 2749SOL    HW219881   3.830   2.293   2.487  1.4672 -0.6450  0.7855
 2750SOL     OW19882   1.835   2.563   4.412 -0.2565 -0.3207  0.0305
 2750SOL    HW119883   1.841   2.490   4.350 -0.1488 -1.2955  1.1900
 2750SOL    HW219884   1.927   2.591   4.411 -0.4398  0.2394 -1.1378
 2751SOL     OW19885   2.318   4.089   5.860 -0.0907  0.1774 -0.3910
 2751SOL    HW119886   2.241   4.130   5.818 -1.2605  0.3821  1.9612
 2751SOL    HW219887   2.281   4.042   5.935 -0.7914 -0.4046 -1.0958
 2752SOL     OW19888   2.916   2.008   2.813 -0.2382  0.0552  0.8441
 2752SOL    HW119889   2.891   2.095   2.844 -0.8352 -0.1200  0.8632
 2752SOL    HW219890   2.857   1.948   2.860  0.7416 -0.9235  0.8266
 2753SOL     OW19891   3.944   0.904   6.114  0.0842  0.6910 -0.1290
 2753SOL    HW119892   4.036   0.922   6.137  0.7609 -1.6618 -0.9789
 2753SOL    HW219893   3.925   0.983   6.065  0.4382  0.5337 -0.5252
 2754SOL     OW19894   2.702   1.831   7.289 -0.0280  0.0674 -0.1079
 2754SOL    HW119895   2.797   1.827   7.275  0.0057 -0.8932  0.3756
 2754SOL    HW219896   2.679   1.923   7.272  0.8828  0.5984  1.5142
 2755SOL     OW19897   3.172   1.708  11.929  0.1804 -0.4402  0.1137
 2755SOL    HW119898   3.165   1.621  11.968  1.4220  0.4891  2.3926
 2755SOL    HW219899   3.196   1.764  12.003 -4.1158  0.3182  0.9450
 2756SOL     OW19900   0.768   1.810   4.902 -0.1578  0.2175 -0.1331
 2756SOL    HW119901   0.733   1.769   4.980  0.3770  0.2043  0.1011
 2756SOL    HW219902   0.859   1.811   4.933 -0.4143 -0.8209  0.6280
 2757SOL     OW19903   1.229   3.048   6.720 -0.0656 -0.3970 -0.1813
 2757SOL    HW119904   1.188   2.982   6.664 -1.6694  0.5790 -0.1618
 2757SOL    HW219905   1.321   3.052   6.692  0.5770 -3.1789  1.5333
 2758SOL     OW19906   3.255   3.742   7.015  0.3571 -0.7152  0.0455
 2758SOL    HW119907   3.185   3.677   7.022  0.2507 -0.5015  1.0027
 2758SOL    HW219908   3.215   3.826   7.035  2.4650  0.4383 -0.5461
 2759SOL     OW19909   4.244   3.357   1.411 -0.1669  0.4093 -0.0264
 2759SOL    HW119910   4.321   3.383   1.461 -1.0493 -1.4250  2.2687
 2759SOL    HW219911   4.186   3.433   1.418  0.7696  1.1261 -0.1041
 2760SOL     OW19912   0.596   3.163   8.889 -0.8543 -0.4162  0.1967
 2760SOL    HW119913   0.547   3.160   8.971  0.4101 -1.6184  0.9212
 2760SOL    HW219914   0.689   3.172   8.911 -0.7242  1.6000 -1.1669
 2761SOL     OW19915   3.264   4.114   4.189  0.5513  0.3680  0.1329
 2761SOL    HW119916   3.218   4.093   4.270 -1.1731  2.4299 -0.3293
 2761SOL    HW219917   3.349   4.071   4.205  1.4266  0.8868 -3.0158
 2762SOL     OW19918   2.798   0.249   3.734  0.0833 -0.0453 -0.0276
 2762SOL    HW119919   2.873   0.197   3.762 -0.3626 -0.5460  0.2256
 2762SOL    HW219920   2.724   0.207   3.778 -0.4963 -0.2214 -1.1671
 2763SOL     OW19921   2.911   2.031  10.710  0.5355 -0.7835  0.3667
 2763SOL    HW119922   2.899   2.125  10.698  0.4058 -0.6837  1.2774
 2763SOL    HW219923   3.001   2.008  10.686  1.9302  2.2450  2.7127
 2764SOL     OW19924   4.149   3.558   9.278 -0.1258  0.4276 -0.2766
 2764SOL    HW119925   4.066   3.554   9.325  0.6413  0.2534  1.0494
 2764SOL    HW219926   4.173   3.650   9.290 -0.4302  0.1989  2.0242
 2765SOL     OW19927   2.892   1.293   8.164 -0.2116 -0.0044 -0.0942
 2765SOL    HW119928   2.961   1.248   8.116 -2.0287 -1.5072 -1.3235
 2765SOL    HW219929   2.835   1.218   8.184 -1.0992  0.7845  0.3465
 2766SOL     OW19930   2.448   0.416   5.808 -0.9030  0.0914  0.1784
 2766SOL    HW119931   2.443   0.320   5.818  0.3272 -0.3570 -3.4429
 2766SOL    HW219932   2.538   0.431   5.837 -0.9624  0.4195  0.1894
 2767SOL     OW19933   1.548   4.008   6.806  0.3384 -0.2504  0.0041
 2767SOL    HW119934   1.536   4.014   6.901 -0.5516  2.0026 -0.2564
 2767SOL    HW219935   1.636   3.971   6.799 -0.2869 -1.5778 -0.7295
 2768SOL     OW19936   1.433   2.054   4.803 -0.7766  0.9007  0.5166
 2768SOL    HW119937   1.372   1.987   4.833  1.3505 -1.6076 -0.6962
 2768SOL    HW219938   1.380   2.129   4.776 -2.0449 -0.3499 -0.4647
 2769SOL     OW19939   4.445   2.021   8.311  0.4205 -0.4164  0.3211
 2769SOL    HW119940   4.536   2.050   8.307 -0.0155  1.0845  1.3507
 2769SOL    HW219941   4.406   2.097   8.355 -0.4192 -1.6597  1.7437
 2770SOL     OW19942   3.709   1.784   4.024  0.1942  0.1431  0.3091
 2770SOL    HW119943   3.699   1.873   4.056  1.4987  0.5265 -0.3373
 2770SOL    HW219944   3.621   1.750   4.042  0.0432 -0.7030 -1.9861
 2771SOL     OW19945   1.941   2.618   7.745  0.0308 -0.6284  0.3923
 2771SOL    HW119946   1.901   2.535   7.769  0.3928 -0.4317  1.7291
 2771SOL    HW219947   2.029   2.583   7.732  0.9764  1.4666  1.0386
 2772SOL     OW19948   4.559   0.452  17.074  0.5655  0.8957 -0.2347
 2772SOL    HW119949   4.546   0.359  17.055 -0.6770  1.4738 -2.1950
 2772SOL    HW219950   4.643   0.448  17.121  1.2936  0.4669 -1.5670
 2773SOL     OW19951   4.191   1.480  12.624 -0.9823 -0.2337  0.0663
 2773SOL    HW119952   4.260   1.523  12.676 -1.5706  0.8646 -0.0521
 2773SOL    HW219953   4.229   1.392  12.621  1.0439  0.4849  3.2071
 2774SOL     OW19954   4.371   0.479   3.034  0.1889 -0.3517  0.7753
 2774SOL    HW119955   4.301   0.418   3.055 -0.2919 -0.9891 -2.7793
 2774SOL    HW219956   4.369   0.459   2.941  0.3797  2.3781  0.1795
 2775SOL     OW19957   3.842   2.451   8.722  0.6591  1.1149  0.6716
 2775SOL    HW119958   3.840   2.544   8.702 -1.2956  0.8672 -0.3154
 2775SOL    HW219959   3.919   2.419   8.675  0.6944  0.5189  1.1445
 2776SOL     OW19960   1.960   0.052   6.775  0.2097 -0.0679 -0.3722
 2776SOL    HW119961   1.906   4.724   6.733  1.6040 -2.3107  1.4231
 2776SOL    HW219962   1.895   0.091   6.833 -0.0451 -0.9210 -0.0785
 2777SOL     OW19963   3.281   2.858  10.581 -0.0716  0.3054  0.2301
 2777SOL    HW119964   3.356   2.850  10.640 -0.2758 -1.2154  0.2898
 2777SOL    HW219965   3.300   2.801  10.507 -3.8281  0.7531 -1.1059
 2778SOL     OW19966   2.215   2.808   9.118  0.0639 -0.1875  0.2479
 2778SOL    HW119967   2.284   2.872   9.134  0.7229 -0.7698 -0.2476
 2778SOL    HW219968   2.274   2.733   9.106 -1.0557 -0.9557 -0.5174
 2779SOL     OW19969   4.103   2.504   9.165  0.2997  0.4020 -0.2823
 2779SOL    HW119970   4.129   2.585   9.121 -1.7909  1.8255  1.0872
 2779SOL    HW219971   4.059   2.461   9.093  2.4361  0.8534 -1.8566
 2780SOL     OW19972   3.749   3.159   1.499 -0.2294 -0.3352 -0.1453
 2780SOL    HW119973   3.756   3.254   1.504  0.2043 -0.2994 -1.4098
 2780SOL    HW219974   3.715   3.144   1.411  0.5427  2.2389 -0.9007
 2781SOL     OW19975   3.610   4.522   6.061 -0.4780  0.2126 -0.2322
 2781SOL    HW119976   3.587   4.603   6.015  2.9925  1.4398  0.2636
 2781SOL    HW219977   3.651   4.486   5.982 -0.3660 -0.9433  0.3526
 2782SOL     OW19978   2.315   4.151   9.083 -0.5602 -0.0757 -0.1056
 2782SOL    HW119979   2.395   4.133   9.034 -1.6628  1.4457 -2.4682
 2782SOL    HW219980   2.296   4.237   9.045  1.6292  0.1411 -0.6757
 2783SOL     OW19981   4.666   4.561   6.525 -0.4852  0.5514  0.0265
 2783SOL    HW119982   4.578   4.559   6.561  0.0862  2.1271  1.5357
 2783SOL    HW219983   4.690   4.469   6.514 -4.2147 -0.5073  0.7515
 2784SOL     OW19984   2.681   2.240   5.622 -0.4832  0.5759  0.2153
 2784SOL    HW119985   2.591   2.267   5.607  0.2275  1.1312 -3.0738
 2784SOL    HW219986   2.679   2.207   5.711 -0.3981 -1.6848 -0.6288
 2785SOL     OW19987   1.568   1.134   8.627 -0.1436 -0.4785 -0.7103
 2785SOL    HW119988   1.662   1.147   8.623 -0.3034  1.4777  2.3068
 2785SOL    HW219989   1.538   1.224   8.636 -1.9510 -1.2090  0.8080
 2786SOL     OW19990   0.563   3.081  10.260 -0.1129 -0.4063  0.0039
 2786SOL    HW119991   0.615   3.001  10.257  0.6946  0.2163 -2.4835
 2786SOL    HW219992   0.579   3.106  10.351  0.7422  1.8418 -0.7639
 2787SOL     OW19993   2.420   2.840  15.938 -0.3539  1.0984 -0.2477
 2787SOL    HW119994   2.421   2.747  15.961  1.6831  1.0213 -0.6526
 2787SOL    HW219995   2.505   2.856  15.896  0.1144 -0.0183  0.2788
 2788SOL     OW19996   3.034   1.999   3.172 -0.2992 -0.4109  0.1924
 2788SOL    HW119997   3.106   1.973   3.114 -1.7560 -3.5393 -0.1821
 2788SOL    HW219998   3.080   2.047   3.241  0.1924 -2.1244  1.0639
 2789SOL     OW19999   3.990   3.184   4.808 -0.0546  0.3298  0.4771
 2789SOL    HW120000   3.957   3.189   4.719  1.0805 -0.5425  0.0130
 2789SOL    HW220001   3.936   3.115   4.847 -1.4700  1.2172  0.0852
 2790SOL     OW20002   4.386   0.735   5.900  0.2320 -0.1107  0.3165
 2790SOL    HW120003   4.457   0.710   5.959  0.4470 -1.4491 -0.5021
 2790SOL    HW220004   4.399   0.672   5.828  1.2691  0.9902 -0.4487
 2791SOL     OW20005   3.374   3.945   5.220 -0.4304  0.3544  0.0016
 2791SOL    HW120006   3.298   3.966   5.165 -2.8849 -4.0538  1.7335
 2791SOL    HW220007   3.439   4.001   5.177 -1.5983  1.6001 -0.1397
 2792SOL     OW20008   3.007   3.584   6.985  0.3520 -0.1282  0.0016
 2792SOL    HW120009   2.948   3.569   7.058 -1.3804  1.1909 -1.1237
 2792SOL    HW220010   3.030   3.495   6.956  0.8215 -0.2648  0.7930
 2793SOL     OW20011   2.704   1.732   5.869 -0.6093 -0.0078 -0.2122
 2793SOL    HW120012   2.730   1.818   5.835  0.1650 -0.5000 -0.8753
 2793SOL    HW220013   2.771   1.716   5.936 -1.5806 -2.2945  0.2053
 2794SOL     OW20014   2.197   3.906   5.211 -0.2571  0.0198 -0.4100
 2794SOL    HW120015   2.165   3.976   5.267 -1.2623 -0.5977 -0.2104
 2794SOL    HW220016   2.141   3.839   5.252  0.3051 -0.6160 -0.6845
 2795SOL     OW20017   3.022   2.316  10.299 -0.4103  0.4567  0.4165
 2795SOL    HW120018   3.047   2.233  10.338  1.0912 -0.2437 -2.0588
 2795SOL    HW220019   2.927   2.304  10.297 -0.1618 -0.9820 -2.1358
 2796SOL     OW20020   0.513   2.074   9.349 -0.1536 -0.3096  0.0135
 2796SOL    HW120021   0.465   2.141   9.398  0.5152 -0.2835  0.6221
 2796SOL    HW220022   0.437   2.016   9.335 -1.0898  1.0317 -0.4383
 2797SOL     OW20023   2.637   3.665   4.707  0.2963  0.4663  0.2588
 2797SOL    HW120024   2.670   3.585   4.666 -0.2888  0.1515  0.4143
 2797SOL    HW220025   2.555   3.638   4.748  0.7439  1.1013  1.6015
 2798SOL     OW20026   3.997   3.804   6.691  0.0207  0.6883 -0.4466
 2798SOL    HW120027   3.982   3.837   6.779 -0.4347  0.7086 -0.5338
 2798SOL    HW220028   3.979   3.710   6.688  1.0805  0.4638 -0.0415
 2799SOL     OW20029   0.908   1.311  11.634  0.2223  0.3926 -0.4095
 2799SOL    HW120030   0.888   1.392  11.681 -0.6041  0.3039 -0.6090
 2799SOL    HW220031   0.986   1.340  11.586  2.0484 -1.7637  1.2834
 2800SOL     OW20032   3.830   0.502  12.176  0.0470  0.4271  0.1402
 2800SOL    HW120033   3.803   0.411  12.183  1.5732 -0.2313 -2.4716
 2800SOL    HW220034   3.755   0.551  12.210 -0.0626  0.1670  0.2730
 2801SOL     OW20035   4.726   0.320   8.849 -0.4679 -0.7109 -0.3585
 2801SOL    HW120036   0.023   0.251   8.793  1.3274  1.8891 -2.3913
 2801SOL    HW220037   4.634   0.298   8.835 -0.5675 -0.3509 -0.2516
 2802SOL     OW20038   1.924   0.261   0.807  0.3133 -0.8440  0.1428
 2802SOL    HW120039   1.886   0.226   0.888  0.8282  0.9973  1.1639
 2802SOL    HW220040   1.949   0.345   0.846  0.6474 -1.1204  0.5319
 2803SOL     OW20041   4.355   3.731  13.119  0.1959  0.0125 -0.3563
 2803SOL    HW120042   4.307   3.655  13.151  0.0126 -0.6740 -2.2922
 2803SOL    HW220043   4.424   3.742  13.184 -0.4284 -0.0699  0.3312
 2804SOL     OW20044   4.565   3.373   4.786 -0.2282  0.6896 -0.4773
 2804SOL    HW120045   4.520   3.436   4.729 -0.5712 -1.9282 -3.0640
 2804SOL    HW220046   4.494   3.341   4.841  1.0771 -1.3738  0.0027
 2805SOL     OW20047   3.041   4.630   1.821 -0.2551  0.2022 -0.1206
 2805SOL    HW120048   2.974   4.581   1.869  1.2943 -0.8872  0.9555
 2805SOL    HW220049   2.984   4.704   1.801  1.1476  0.9929 -1.1184
 2806SOL     OW20050   1.829   1.558   3.146  0.0412 -0.0588  0.1784
 2806SOL    HW120051   1.805   1.467   3.162 -1.2197  0.3810  0.8177
 2806SOL    HW220052   1.749   1.586   3.101  0.9291 -0.1204 -1.4669
 2807SOL     OW20053   1.054   2.223  16.322 -0.1121  0.2388  0.0627
 2807SOL    HW120054   1.066   2.276  16.243  0.8454  1.1239  0.8201
 2807SOL    HW220055   0.965   2.188  16.311 -1.1885  1.8439  3.7589
 2808SOL     OW20056   0.573   1.700   4.329  0.4598  0.7642 -0.1279
 2808SOL    HW120057   0.576   1.750   4.411  0.6400 -0.1807  0.4513
 2808SOL    HW220058   0.579   1.767   4.262 -1.7522  0.5817 -0.5382
 2809SOL     OW20059   2.140   0.331   5.542  0.3626  0.2355 -0.3415
 2809SOL    HW120060   2.144   0.315   5.636  2.1562  1.4156 -0.2388
 2809SOL    HW220061   2.218   0.384   5.529  0.7958 -0.3526 -0.1058
 2810SOL     OW20062   1.219   1.531   4.957  0.1292 -0.7068  0.1133
 2810SOL    HW120063   1.266   1.565   4.880 -2.8430  2.1142 -0.4911
 2810SOL    HW220064   1.277   1.548   5.031 -1.2378 -2.6195  1.5888
 2811SOL     OW20065   0.126   1.873  17.465 -0.2401 -0.1813 -0.4072
 2811SOL    HW120066   0.204   1.823  17.441  1.2655  1.4951  0.9761
 2811SOL    HW220067   0.161   1.961  17.452  0.0434 -0.3790 -0.9861
 2812SOL     OW20068   3.364   1.052   7.098  0.0375 -0.2487 -0.4560
 2812SOL    HW120069   3.304   1.054   7.172  1.2788 -0.3271  0.5578
 2812SOL    HW220070   3.390   1.143   7.110 -2.3991  0.4654 -0.7132
 2813SOL     OW20071   2.373   2.494   4.432 -0.2823  0.9393  0.1371
 2813SOL    HW120072   2.454   2.447   4.411  0.2365  2.0015 -0.2290
 2813SOL    HW220073   2.404   2.566   4.486  0.4990  0.9503 -0.3295
 2814SOL     OW20074   0.443   1.119   5.773 -0.4061 -0.2935  0.1647
 2814SOL    HW120075   0.398   1.199   5.744 -0.4086 -0.0019  0.9835
 2814SOL    HW220076   0.404   1.092   5.856 -0.6389  0.2357  0.2246
 2815SOL     OW20077   1.681   1.219   7.422 -0.3824 -0.0646  0.8552
 2815SOL    HW120078   1.611   1.195   7.484  0.2895  0.2052  1.7128
 2815SOL    HW220079   1.641   1.173   7.348  0.6188  1.7646 -0.8044
 2816SOL     OW20080   1.280   2.526   3.098  0.1649  0.2786 -0.0581
 2816SOL    HW120081   1.300   2.563   3.184 -1.0022 -1.4315  0.9614
 2816SOL    HW220082   1.217   2.592   3.069 -0.5933 -0.1332  0.6396
 2817SOL     OW20083   0.825   0.583   2.350 -0.2923 -0.2062 -0.1552
 2817SOL    HW120084   0.877   0.554   2.425 -0.7142  0.2729  0.3265
 2817SOL    HW220085   0.745   0.619   2.388 -0.8756  0.8121 -2.3452
 2818SOL     OW20086   4.562   0.261  15.150 -0.1195 -0.4384 -0.1566
 2818SOL    HW120087   4.620   0.184  15.154 -0.1037 -0.5012 -1.4122
 2818SOL    HW220088   4.478   0.218  15.164 -0.2199  0.3969  1.7644
 2819SOL     OW20089   2.015   1.368  12.436 -0.3475  0.0188 -0.6000
 2819SOL    HW120090   2.058   1.446  12.400  0.2691 -0.1920 -0.3330
 2819SOL    HW220091   1.946   1.400  12.494 -1.0662 -0.6144 -1.1084
 2820SOL     OW20092   3.391   1.775   7.029 -0.0923 -0.4233  0.2859
 2820SOL    HW120093   3.378   1.680   7.035 -0.6196 -0.4621 -1.5015
 2820SOL    HW220094   3.409   1.797   7.121 -0.9214  0.1175  0.3118
 2821SOL     OW20095   4.551   1.075   5.775 -0.0749  0.3362  0.5874
 2821SOL    HW120096   4.615   1.009   5.799 -1.2307 -0.8343  0.4401
 2821SOL    HW220097   4.509   1.032   5.700 -1.8138 -0.2889  1.9100
 2822SOL     OW20098   3.143   2.989   2.663  0.2892  0.0025 -0.5575
 2822SOL    HW120099   3.091   2.909   2.654  0.3588 -0.1220  0.1931
 2822SOL    HW220100   3.156   3.003   2.757  0.1061 -2.0162 -0.2367
 2823SOL     OW20101   0.577   4.336  10.343  0.4472 -0.2106  0.2937
 2823SOL    HW120102   0.534   4.367  10.264  0.1663  2.2286  1.4170
 2823SOL    HW220103   0.525   4.381  10.409 -0.0316  0.8739 -0.8325
 2824SOL     OW20104   4.507   2.389   6.425 -0.2088 -0.2589  0.2041
 2824SOL    HW120105   4.505   2.460   6.362 -0.8766  1.9303  2.7197
 2824SOL    HW220106   4.593   2.404   6.464  0.4289  1.3374 -1.8393
 2825SOL     OW20107   2.334   1.327   4.661 -0.3373 -0.1477 -0.7668
 2825SOL    HW120108   2.275   1.292   4.727 -0.2130  2.9119  0.9293
 2825SOL    HW220109   2.297   1.411   4.633  0.1227  0.6478  1.0262
 2826SOL     OW20110   1.559   4.563   2.085 -0.6814  0.0961 -0.2310
 2826SOL    HW120111   1.585   4.642   2.132  0.8223 -1.5261  1.6699
 2826SOL    HW220112   1.467   4.547   2.105 -1.0767  2.0164 -0.5889
 2827SOL     OW20113   1.885   0.518   2.868 -0.0311 -0.7701 -0.1018
 2827SOL    HW120114   1.864   0.599   2.914  2.3721  0.6959 -1.5753
 2827SOL    HW220115   1.817   0.520   2.800  0.0146  0.2726 -0.1144
 2828SOL     OW20116   1.362   0.338   9.275  0.2589  0.2351  0.4929
 2828SOL    HW120117   1.323   0.400   9.336 -0.3629  1.5917 -1.2972
 2828SOL    HW220118   1.358   0.377   9.188 -1.9551  1.3405  1.1030
 2829SOL     OW20119   4.195   2.666   2.060  0.1108  0.2722 -0.5014
 2829SOL    HW120120   4.216   2.658   2.153  0.9839 -0.4669 -0.7628
 2829SOL    HW220121   4.248   2.740   2.031  1.5935  0.0190  1.5374
 2830SOL     OW20122   2.527   2.944   4.200 -0.1929 -0.8706  0.2415
 2830SOL    HW120123   2.500   2.855   4.179  0.6677 -1.1474  0.3225
 2830SOL    HW220124   2.496   2.986   4.120 -2.7452 -0.4370  1.4315
 2831SOL     OW20125   1.504   3.744  12.107 -0.4834 -0.0665 -0.8723
 2831SOL    HW120126   1.571   3.775  12.046  0.9598 -1.4293  0.0257
 2831SOL    HW220127   1.469   3.668  12.060  0.4485 -1.3665  0.5309
 2832SOL     OW20128   3.809   1.656   5.196 -0.1115 -0.0094 -0.2352
 2832SOL    HW120129   3.737   1.719   5.199 -0.5412 -0.4406 -1.2878
 2832SOL    HW220130   3.804   1.619   5.284  0.0444  0.2694 -0.1091
 2833SOL     OW20131   3.601   1.120   0.904  0.1798 -0.6759 -0.0578
 2833SOL    HW120132   3.521   1.088   0.946  0.8905 -0.6797  1.2844
 2833SOL    HW220133   3.592   1.214   0.915  2.0043 -0.3273 -1.5127
 2834SOL     OW20134   4.405   0.968   4.675 -0.7205 -0.5407 -0.0305
 2834SOL    HW120135   4.349   0.898   4.640  1.3541 -1.6681 -1.0760
 2834SOL    HW220136   4.482   0.918   4.699  0.5067  1.9284  1.1487
 2835SOL     OW20137   2.530   0.840   5.419  0.4640  0.5438  0.1170
 2835SOL    HW120138   2.610   0.841   5.366  0.6485  1.8981  0.4272
 2835SOL    HW220139   2.509   0.934   5.415  0.5835  0.7145  3.4544
 2836SOL     OW20140   2.331   1.517   6.498  0.0573 -0.0445 -0.0003
 2836SOL    HW120141   2.370   1.471   6.424 -1.7585 -1.9573  0.2374
 2836SOL    HW220142   2.268   1.574   6.453  0.6920 -0.4701 -1.4449
 2837SOL     OW20143   1.256   1.185   8.477  0.1347  0.0062 -0.0804
 2837SOL    HW120144   1.303   1.195   8.394  0.6807  2.4077  0.5322
 2837SOL    HW220145   1.169   1.157   8.449 -0.7197  0.9206  1.7075
 2838SOL     OW20146   0.935   0.522   2.586 -0.5254 -0.6345 -0.0313
 2838SOL    HW120147   0.994   0.576   2.638 -2.4787  0.4391  1.0445
 2838SOL    HW220148   0.855   0.537   2.636 -0.4326  0.3944 -0.2088
 2839SOL     OW20149   4.051   1.858   4.447 -0.3115  0.2285  0.4220
 2839SOL    HW120150   4.127   1.915   4.457 -0.1484  0.3476 -1.3339
 2839SOL    HW220151   4.062   1.794   4.517 -2.3275 -0.5900 -0.0175
 2840SOL     OW20152   1.517   2.617   6.654 -0.6279  0.6033 -0.1893
 2840SOL    HW120153   1.576   2.624   6.729 -1.1030 -0.5177  0.2861
 2840SOL    HW220154   1.447   2.676   6.683 -1.6600 -0.7796  0.1471
 2841SOL     OW20155   3.680   1.617  15.301  0.0860  0.3378 -0.6631
 2841SOL    HW120156   3.609   1.624  15.237 -0.1532  1.2321 -0.2935
 2841SOL    HW220157   3.750   1.633  15.239  2.1111 -1.4354  1.1436
 2842SOL     OW20158   3.152   0.748  13.864 -0.3711  0.4947  0.2510
 2842SOL    HW120159   3.084   0.709  13.810 -1.0517  1.9423  0.0689
 2842SOL    HW220160   3.110   0.827  13.900  0.7660  0.1675  2.3133
 2843SOL     OW20161   0.789   2.448   4.542 -0.0573  0.4118  0.2445
 2843SOL    HW120162   0.716   2.417   4.487 -0.0445 -0.7473  0.8910
 2843SOL    HW220163   0.810   2.526   4.489  1.1539  0.4754  0.8390
 2844SOL     OW20164   2.859   0.341   1.375 -1.0205  0.2163 -0.2639
 2844SOL    HW120165   2.828   0.414   1.322 -2.5829  1.7488  2.7656
 2844SOL    HW220166   2.824   0.263   1.332  1.6365  0.1454 -2.2764
 2845SOL     OW20167   0.378   4.308   8.910 -0.2307 -0.3104 -0.8502
 2845SOL    HW120168   0.387   4.238   8.974 -0.8835  0.5737  0.2285
 2845SOL    HW220169   0.338   4.380   8.960  1.3704  0.9588 -1.3915
 2846SOL     OW20170   0.102   1.363   5.929 -0.1378  0.0500  0.8230
 2846SOL    HW120171   0.149   1.352   5.846  2.3971  0.3168  2.2494
 2846SOL    HW220172   0.113   1.454   5.955  0.3357  0.5171 -1.0281
 2847SOL     OW20173   0.042   2.386  16.428 -0.3838  0.4038 -0.1044
 2847SOL    HW120174   0.102   2.354  16.496 -0.9892 -0.7351 -0.1036
 2847SOL    HW220175   0.094   2.367  16.351 -2.0252  1.4808 -1.4768
 2848SOL     OW20176   3.041   0.751   4.319 -0.2377  0.0159 -0.6804
 2848SOL    HW120177   2.975   0.737   4.387  1.1285 -1.9234  0.2630
 2848SOL    HW220178   3.020   0.688   4.251  1.1823 -0.6873 -0.4787
 2849SOL     OW20179   3.355   0.648  11.177 -0.2940  0.4084  0.2395
 2849SOL    HW120180   3.336   0.731  11.133 -1.7216  0.3902  0.8191
 2849SOL    HW220181   3.265   0.626  11.202 -0.9378  1.3488 -1.2000
 2850SOL     OW20182   3.189   1.507  12.275 -0.0558 -0.0333 -0.4954
 2850SOL    HW120183   3.179   1.592  12.318 -0.6030 -0.6688  0.6231
 2850SOL    HW220184   3.285   1.502  12.274  0.0072  1.3365 -1.8782
 2851SOL     OW20185   1.672   2.232   1.936 -0.3709  0.0950  0.1680
 2851SOL    HW120186   1.761   2.220   1.905 -0.2619  3.1729 -0.6721
 2851SOL    HW220187   1.637   2.295   1.873  0.6721 -0.2551 -0.7524
 2852SOL     OW20188   2.890   2.122   1.573 -0.3976 -0.0790  0.1914
 2852SOL    HW120189   2.935   2.140   1.655  1.7174 -2.5855 -0.4226
 2852SOL    HW220190   2.941   2.054   1.528 -0.4113 -0.1039  0.2135
 2853SOL     OW20191   3.426   3.837   0.753 -0.0981  0.0912 -0.0155
 2853SOL    HW120192   3.498   3.855   0.813 -0.7771 -0.0665  0.8430
 2853SOL    HW220193   3.372   3.909   0.787  0.5887  1.0096 -0.8340
 2854SOL     OW20194   4.387   1.357   6.060 -0.5276 -0.0129  0.1783
 2854SOL    HW120195   4.457   1.335   6.121 -1.1555  1.1857  1.3332
 2854SOL    HW220196   4.431   1.349   5.975 -0.0743  1.3207  0.2933
 2855SOL     OW20197   3.550   1.377   0.991 -0.1052 -0.0696  0.4750
 2855SOL    HW120198   3.604   1.447   0.954 -0.2074 -1.1081 -1.6170
 2855SOL    HW220199   3.580   1.392   1.081 -1.5775  0.4523  0.8771
 2856SOL     OW20200   1.757   2.945   6.551 -0.0324 -0.2636  0.2082
 2856SOL    HW120201   1.774   2.863   6.597 -0.3724  0.0758  0.9374
 2856SOL    HW220202   1.740   2.916   6.461 -1.0002  0.5468  0.1244
 2857SOL     OW20203   0.479   2.484   1.589  0.9362 -0.4558  0.4726
 2857SOL    HW120204   0.400   2.459   1.637  1.3584 -2.9411 -0.1115
 2857SOL    HW220205   0.467   2.578   1.590  1.5178 -0.3801  1.1552
 2858SOL     OW20206   0.442   1.094   1.146 -0.4475 -0.7213 -0.1843
 2858SOL    HW120207   0.535   1.100   1.124 -0.9081 -1.2213 -2.3244
 2858SOL    HW220208   0.419   1.005   1.121  1.5980 -1.6270  1.1800
 2859SOL     OW20209   3.274   1.607   6.412 -0.3738 -0.1742 -0.0298
 2859SOL    HW120210   3.242   1.517   6.414  1.7369 -0.9682 -3.6596
 2859SOL    HW220211   3.229   1.633   6.493  0.0784 -0.7446  0.4112
 2860SOL     OW20212   2.069   4.042  11.310  0.5071 -0.1171  0.2361
 2860SOL    HW120213   2.056   3.969  11.371 -2.1319  0.1444  0.0001
 2860SOL    HW220214   2.021   4.020  11.230  0.1661 -0.3953  0.5183
 2861SOL     OW20215   2.614   2.257   9.966  0.4658 -0.0968  0.7213
 2861SOL    HW120216   2.650   2.346   9.968  0.4727 -0.1224  1.5618
 2861SOL    HW220217   2.615   2.237  10.059 -1.7262 -0.8858  0.5664
 2862SOL     OW20218   2.081   3.990  17.055  0.0625 -0.2303  0.0645
 2862SOL    HW120219   2.117   3.925  16.995  2.1022  1.2367 -0.2945
 2862SOL    HW220220   1.989   3.997  17.030 -1.2970 -3.0326  4.4020
 2863SOL     OW20221   4.637   3.482   3.170  1.0664 -0.2703  0.1524
 2863SOL    HW120222   4.713   3.423   3.175  0.7297 -0.8283 -1.5526
 2863SOL    HW220223   4.629   3.487   3.075  0.3055  0.6552  0.2664
 2864SOL     OW20224   3.179   2.927   4.236  0.3547 -0.6177 -0.1679
 2864SOL    HW120225   3.085   2.914   4.223  0.0841  0.4345  0.7082
 2864SOL    HW220226   3.181   2.955   4.328 -0.0888 -1.8493  0.2079
 2865SOL     OW20227   2.845   3.112   6.978 -0.0081 -0.0071  0.1554
 2865SOL    HW120228   2.760   3.103   6.936 -0.3586 -2.2471  1.2993
 2865SOL    HW220229   2.835   3.071   7.064  0.0535  0.1270  0.2266
 2866SOL     OW20230   3.630   1.613   6.821 -0.3130 -0.4771 -0.0419
 2866SOL    HW120231   3.557   1.614   6.760 -0.2156  0.9057 -0.1252
 2866SOL    HW220232   3.577   1.640   6.896 -0.2223  1.6288 -0.7406
 2867SOL     OW20233   2.294   1.329   6.671  0.5096  0.5758 -0.0085
 2867SOL    HW120234   2.261   1.277   6.599  1.1694  1.2857 -0.8198
 2867SOL    HW220235   2.315   1.408   6.621  1.1313  1.1031  1.0706
 2868SOL     OW20236   0.554   1.131   1.786 -0.5969  0.1690 -0.1669
 2868SOL    HW120237   0.573   1.083   1.867  0.9516  0.3601 -0.4316
 2868SOL    HW220238   0.532   1.220   1.815 -1.8978 -0.7198  1.5485
 2869SOL     OW20239   3.174   4.149   9.406 -0.0195  0.2776  0.7721
 2869SOL    HW120240   3.136   4.074   9.452 -0.8973 -1.1975 -2.3946
 2869SOL    HW220241   3.139   4.146   9.317 -0.6593 -0.5781  1.0531
 2870SOL     OW20242   2.936   4.035   4.866  0.3640  0.2166 -0.7667
 2870SOL    HW120243   2.920   3.977   4.792  1.0044  1.5856 -2.0095
 2870SOL    HW220244   2.979   4.107   4.818 -1.4323  0.7575 -1.5776
 2871SOL     OW20245   1.535   1.213  12.626  0.2073  0.1220  0.3231
 2871SOL    HW120246   1.470   1.166  12.678  0.9800  0.5020  1.6303
 2871SOL    HW220247   1.502   1.210  12.536 -0.8314  1.3130  0.6483
 2872SOL     OW20248   3.046   2.960   7.323 -0.2068  0.1069  0.4757
 2872SOL    HW120249   3.049   2.865   7.324 -0.5082  0.0849 -0.8994
 2872SOL    HW220250   3.102   2.975   7.247 -2.4380 -1.2913 -1.4370
 2873SOL     OW20251   2.896   1.002   4.274 -0.3198  0.3066 -0.1958
 2873SOL    HW120252   2.857   0.953   4.202  1.2679  0.9590 -1.4979
 2873SOL    HW220253   2.923   0.934   4.335 -0.8075  1.8569  1.7690
 2874SOL     OW20254   0.592   0.681   3.732 -0.1748  0.3345  0.1938
 2874SOL    HW120255   0.498   0.669   3.739  0.1303 -0.2142  3.1567
 2874SOL    HW220256   0.614   0.698   3.640 -0.5450  1.2360  0.2658
 2875SOL     OW20257   3.238   3.101   9.651 -0.6996  0.3604 -0.1428
 2875SOL    HW120258   3.224   3.062   9.737 -1.7483 -0.5729 -0.7278
 2875SOL    HW220259   3.308   3.163   9.673 -2.4397  1.9339  0.9344
 2876SOL     OW20260   1.556   0.622   4.276  0.2440 -0.0429 -0.2428
 2876SOL    HW120261   1.558   0.712   4.311 -1.8707  0.6048 -1.7895
 2876SOL    HW220262   1.603   0.647   4.197  2.3635 -3.1690  0.0415
 2877SOL     OW20263   1.735   4.615   7.133  0.0933  0.1950 -0.0647
 2877SOL    HW120264   1.756   4.691   7.187  0.5277  0.9020 -1.2124
 2877SOL    HW220265   1.688   4.659   7.061  0.1407 -0.7849 -0.6927
 2878SOL     OW20266   3.132   2.830   2.003  0.0285  0.2219  0.1075
 2878SOL    HW120267   3.186   2.784   2.067 -0.0843 -1.8480 -1.2776
 2878SOL    HW220268   3.047   2.835   2.045 -1.5513 -2.1499 -2.8292
 2879SOL     OW20269   2.026   1.414  13.612 -0.2867 -0.3208  0.0436
 2879SOL    HW120270   2.095   1.365  13.655 -0.6796 -0.7007  0.2371
 2879SOL    HW220271   2.088   1.478  13.576  1.7729 -2.1830  0.2961
 2880SOL     OW20272   0.060   0.873   8.759 -0.0303  0.2129 -0.3576
 2880SOL    HW120273   0.132   0.935   8.755  2.2083 -2.3901 -0.2170
 2880SOL    HW220274   0.099   0.790   8.786 -2.2221 -0.6063  0.3286
 2881SOL     OW20275   1.790   2.868   2.918 -0.0960 -0.7050  0.1688
 2881SOL    HW120276   1.717   2.828   2.965 -0.0773  1.1951  1.8360
 2881SOL    HW220277   1.752   2.952   2.891  0.1052 -1.1797 -1.5351
 2882SOL     OW20278   0.265   1.871   4.279  0.2540  0.3298 -0.0035
 2882SOL    HW120279   0.240   1.818   4.203  0.7652 -0.2319  0.2221
 2882SOL    HW220280   0.188   1.874   4.335 -1.0475  2.8688 -1.8913
 2883SOL     OW20281   0.746   0.516   9.521 -0.1367 -0.1224 -0.1352
 2883SOL    HW120282   0.743   0.611   9.525  0.2563 -0.1705  1.4401
 2883SOL    HW220283   0.789   0.491   9.603  0.4832  3.1413  0.5127
 2884SOL     OW20284   3.865   1.005   2.950 -0.4497 -0.3300 -0.7381
 2884SOL    HW120285   3.881   1.045   2.864  1.4642  0.5967  0.0669
 2884SOL    HW220286   3.784   1.049   2.977  0.6320  0.4085  1.2464
 2885SOL     OW20287   1.358   2.864  11.713 -0.1634  0.2991 -0.0841
 2885SOL    HW120288   1.342   2.770  11.711  1.0680  0.0539  1.9440
 2885SOL    HW220289   1.276   2.898  11.676  0.3877  3.7062  1.8338
 2886SOL     OW20290   3.117   4.730   8.308 -0.5395 -0.5805 -0.1568
 2886SOL    HW120291   3.210   0.011   8.308 -1.0068  1.4366  2.9867
 2886SOL    HW220292   3.097   4.672   8.381  1.3618  1.1276  1.7219
 2887SOL     OW20293   3.237   1.494   2.772  0.2953 -0.3907 -0.4846
 2887SOL    HW120294   3.251   1.551   2.848 -1.0071 -0.0562 -0.4942
 2887SOL    HW220295   3.172   1.429   2.799  1.0746 -1.2173 -0.5980
 2888SOL     OW20296   1.259   1.727   0.387  0.1454  0.4268  0.4438
 2888SOL    HW120297   1.288   1.664   0.454 -1.0574  1.4493  1.9254
 2888SOL    HW220298   1.169   1.749   0.412 -0.3826 -1.3662  0.1374
 2889SOL     OW20299   1.069   2.324   9.050  0.0291  0.2956 -0.2736
 2889SOL    HW120300   1.097   2.335   8.960 -0.2489 -0.9404 -0.5152
 2889SOL    HW220301   0.979   2.291   9.039 -0.5605  1.3491  1.2856
 2890SOL     OW20302   1.000   3.036   2.423 -0.5458  0.0568  0.2594
 2890SOL    HW120303   0.967   2.956   2.383 -1.1554  0.5469 -0.2188
 2890SOL    HW220304   0.972   3.105   2.363 -2.9085  0.9340  2.3289
 2891SOL     OW20305   4.315   3.481   1.889 -0.5228  0.1425  0.4970
 2891SOL    HW120306   4.339   3.435   1.970  0.9980  0.8434  0.4476
 2891SOL    HW220307   4.275   3.412   1.837 -1.4386 -0.3809  1.8974
 2892SOL     OW20308   4.573   3.192  13.859 -0.1178 -0.2813  0.0144
 2892SOL    HW120309   4.656   3.144  13.870 -1.0006 -1.9355 -0.6373
 2892SOL    HW220310   4.519   3.147  13.923 -0.9855  2.4493  1.2181
 2893SOL     OW20311   2.975   1.545   3.058  0.0387 -0.0764  0.0663
 2893SOL    HW120312   2.897   1.600   3.060  0.6311  0.7605  0.2613
 2893SOL    HW220313   2.945   1.471   3.109  0.4282  0.9252  1.7326
 2894SOL     OW20314   3.761   3.036   5.443  0.6257 -0.0134  0.0401
 2894SOL    HW120315   3.779   2.959   5.497  1.7429  1.6599  2.0967
 2894SOL    HW220316   3.831   3.096   5.470  0.9205  0.5296 -1.9477
 2895SOL     OW20317   2.431   4.161  17.477 -0.0877 -0.1480  0.4229
 2895SOL    HW120318   2.350   4.163  17.529  0.5818  1.5327  1.3931
 2895SOL    HW220319   2.471   4.084  17.517  1.4400 -0.3273 -1.4839
 2896SOL     OW20320   1.199   0.882   3.722  0.0255  0.2227  0.0277
 2896SOL    HW120321   1.236   0.840   3.645 -2.0381 -0.4198 -0.6039
 2896SOL    HW220322   1.184   0.969   3.687  1.3077  0.5117  0.1788
 2897SOL     OW20323   1.386   4.491  13.173 -0.3954  0.3581  0.2976
 2897SOL    HW120324   1.437   4.453  13.245 -0.5135 -2.9246 -1.3527
 2897SOL    HW220325   1.422   4.580  13.177 -0.9536  0.5484  1.1942
 2898SOL     OW20326   0.075   4.059  12.586 -0.0512  0.1865  0.4367
 2898SOL    HW120327   4.738   4.116  12.597  0.4711  0.9374  0.1782
 2898SOL    HW220328   0.047   4.007  12.510  0.5228  0.1057  0.2820
 2899SOL     OW20329   3.199   4.445   7.877 -0.2143  0.1093 -0.2974
 2899SOL    HW120330   3.294   4.441   7.874 -0.2701 -1.7516  0.3967
 2899SOL    HW220331   3.177   4.535   7.853 -0.7296 -0.1039 -0.6171
 2900SOL     OW20332   0.132   2.490   2.625  0.6555 -0.0624 -0.1702
 2900SOL    HW120333   0.209   2.523   2.671 -0.0132  2.5630 -0.9217
 2900SOL    HW220334   0.169   2.424   2.566 -0.8598 -1.1741  0.1509
 2901SOL     OW20335   1.116   0.656   2.713 -0.0146 -0.4009  0.0492
 2901SOL    HW120336   1.202   0.622   2.738  0.6612  0.6754 -0.7988
 2901SOL    HW220337   1.067   0.651   2.795  0.0328 -0.2492  0.0868
 2902SOL     OW20338   3.634   2.669   5.709  0.1197 -0.4812  0.2385
 2902SOL    HW120339   3.624   2.681   5.615  1.8415  0.4131  0.1735
 2902SOL    HW220340   3.583   2.590   5.726 -0.3481 -0.4022 -0.7863
 2903SOL     OW20341   2.602   3.265   5.070 -0.3509  0.1023 -0.5687
 2903SOL    HW120342   2.554   3.289   5.149 -0.0159 -1.6901  0.1723
 2903SOL    HW220343   2.637   3.181   5.101  1.8127  0.6689 -1.5153
 2904SOL     OW20344   0.862   1.881  11.560 -0.4740  0.1059 -0.4353
 2904SOL    HW120345   0.784   1.859  11.611  0.6238 -0.0613  1.1735
 2904SOL    HW220346   0.849   1.832  11.479  1.2281  0.8281 -1.1441
 2905SOL     OW20347   1.739   0.864   5.873  0.5314  0.1794 -0.2458
 2905SOL    HW120348   1.660   0.817   5.900  0.2766  0.2033 -0.9612
 2905SOL    HW220349   1.713   0.880   5.783  1.7479  1.1627 -0.4185
 2906SOL     OW20350   2.162   3.331  11.677 -0.2462 -0.3957 -0.4590
 2906SOL    HW120351   2.118   3.327  11.762  1.1624 -0.5767  0.2613
 2906SOL    HW220352   2.143   3.418  11.641  0.5463 -0.0425 -0.0296
 2907SOL     OW20353   2.153   3.643   7.151  0.2239  0.2022  0.2937
 2907SOL    HW120354   2.066   3.620   7.118 -0.0904  0.7786  0.7258
 2907SOL    HW220355   2.118   3.679   7.233 -0.6186  0.3356 -0.1231
 2908SOL     OW20356   4.259   2.974   1.986 -0.0145 -0.5909 -1.0149
 2908SOL    HW120357   4.225   2.956   2.074  1.4270 -0.2446 -0.4013
 2908SOL    HW220358   4.182   2.987   1.930 -1.8164  0.6288  1.7554
 2909SOL     OW20359   0.045   1.717   2.640 -0.0262 -0.3078  0.0925
 2909SOL    HW120360   0.123   1.662   2.644 -0.2686 -0.5782  0.9921
 2909SOL    HW220361   0.027   1.738   2.731 -0.5924  0.3115 -0.1630
 2910SOL     OW20362   2.397   3.359   1.232 -0.4758 -0.0528 -0.5099
 2910SOL    HW120363   2.319   3.336   1.282 -1.8391 -1.4485 -3.2803
 2910SOL    HW220364   2.378   3.453   1.230  1.4924  0.3425 -0.6358
 2911SOL     OW20365   4.019   3.461   7.391 -0.5980  0.3387 -0.1197
 2911SOL    HW120366   3.952   3.499   7.334 -0.5659  0.9790  0.2722
 2911SOL    HW220367   3.978   3.374   7.392 -0.5246  0.3365  1.5491
 2912SOL     OW20368   0.861   1.216   9.562  0.4826 -0.0593 -0.0958
 2912SOL    HW120369   0.898   1.299   9.592 -3.4747  0.9939  1.9126
 2912SOL    HW220370   0.914   1.204   9.484  1.7357 -0.1656  0.7738
 2913SOL     OW20371   2.470   2.663   0.076  0.6251 -0.1754 -0.3858
 2913SOL    HW120372   2.493   2.597   0.010  1.8199  1.8640 -2.0203
 2913SOL    HW220373   2.545   2.668   0.134  1.0905 -1.2115 -0.9028
 2914SOL     OW20374   2.955   2.293   8.709 -0.5160 -0.5564  0.4755
 2914SOL    HW120375   2.876   2.284   8.762 -0.7457 -1.5984 -0.0454
 2914SOL    HW220376   2.975   2.383   8.735 -1.5027  0.7074 -3.1047
 2915SOL     OW20377   3.474   1.602   0.562 -0.6666  0.2433 -0.1991
 2915SOL    HW120378   3.542   1.653   0.605  0.5266 -0.5614 -1.1407
 2915SOL    HW220379   3.411   1.611   0.633  0.8013  1.1302  0.9896
 2916SOL     OW20380   3.271   3.045  14.038 -0.1870 -0.0655 -0.3155
 2916SOL    HW120381   3.176   3.037  14.034 -0.2540  0.8075 -0.4401
 2916SOL    HW220382   3.297   2.954  14.020 -0.5750 -0.3498  0.5667
 2917SOL     OW20383   4.168   1.337  15.123 -0.1589 -0.3247 -0.8994
 2917SOL    HW120384   4.262   1.354  15.120  0.1862 -2.3152 -1.1272
 2917SOL    HW220385   4.156   1.301  15.211  1.2611  0.3161 -0.4413
 2918SOL     OW20386   0.842   0.983  16.354  0.2197  0.3668 -0.4321
 2918SOL    HW120387   0.907   1.053  16.362  0.5018  0.0184  0.3264
 2918SOL    HW220388   0.813   0.993  16.444  2.1178  0.2140  0.2001
 2919SOL     OW20389   3.425   0.670   7.430  0.1257 -0.4924  0.2092
 2919SOL    HW120390   3.397   0.625   7.509 -1.3151 -1.6216 -0.9468
 2919SOL    HW220391   3.442   0.757   7.467  1.0188 -1.0647  1.1580
 2920SOL     OW20392   3.445   1.353   6.508  0.2030  0.6431  0.0971
 2920SOL    HW120393   3.393   1.345   6.588  1.6467 -0.8616  0.8779
 2920SOL    HW220394   3.522   1.302   6.531  0.6364  1.3436  0.2102
 2921SOL     OW20395   2.838   0.684   1.659 -0.7729  0.3190 -0.1583
 2921SOL    HW120396   2.883   0.609   1.621 -1.2747  0.2061 -0.5309
 2921SOL    HW220397   2.903   0.717   1.721 -1.1845 -0.7818  0.8610
 2922SOL     OW20398   2.166   3.692   4.496  0.1366  0.4706 -0.2290
 2922SOL    HW120399   2.101   3.634   4.536 -0.5231  0.5739 -1.1500
 2922SOL    HW220400   2.180   3.762   4.559  1.2843 -0.8043  0.9543
 2923SOL     OW20401   1.206   2.017  13.662  0.2778 -0.3902  0.0268
 2923SOL    HW120402   1.130   1.971  13.626 -0.6579  1.5484 -0.4827
 2923SOL    HW220403   1.175   2.021  13.753 -0.6393 -0.1310 -0.2871
 2924SOL     OW20404   3.588   2.816  17.180  0.1016  0.1165  0.0839
 2924SOL    HW120405   3.639   2.803  17.100  2.7348  1.4102  1.5299
 2924SOL    HW220406   3.651   2.862  17.235 -2.3688  2.2793  1.0866
 2925SOL     OW20407   2.436   2.629   7.894 -0.2692 -0.0931  0.1685
 2925SOL    HW120408   2.342   2.648   7.896 -0.3098 -0.3058  0.3232
 2925SOL    HW220409   2.441   2.543   7.935 -1.3082 -0.6126 -0.8164
 2926SOL     OW20410   4.687   0.060   8.743  0.0940 -0.0176 -0.1656
 2926SOL    HW120411   4.730   4.716   8.760  1.0435  0.9623  2.2972
 2926SOL    HW220412   4.596   0.035   8.730 -0.0973 -0.5335  2.1872
 2927SOL     OW20413   1.850   1.747   4.426  0.2359  0.2654 -0.5718
 2927SOL    HW120414   1.828   1.762   4.518 -1.9688  1.4975 -1.3033
 2927SOL    HW220415   1.876   1.655   4.422 -0.9310 -0.1493  1.0066
 2928SOL     OW20416   4.031   0.343   4.307 -0.3092 -0.2905 -0.3811
 2928SOL    HW120417   4.068   0.390   4.382  0.4537  2.3577 -2.4287
 2928SOL    HW220418   4.113   0.310   4.269 -0.6032 -1.1000 -0.3158
 2929SOL     OW20419   4.383   0.952   5.540 -0.3217  0.2173 -0.2562
 2929SOL    HW120420   4.326   0.976   5.467 -2.1753 -1.3584  0.6906
 2929SOL    HW220421   4.333   0.903   5.605 -1.2239 -0.1154 -1.1976
 2930SOL     OW20422   0.955   2.620   3.702 -0.0904  0.1668  0.0866
 2930SOL    HW120423   0.898   2.572   3.641  0.4595  0.2777 -0.5195
 2930SOL    HW220424   0.901   2.641   3.778 -0.8256 -2.0294  0.1810
 2931SOL     OW20425   2.916   3.279   6.665 -0.1391  0.2263 -0.2392
 2931SOL    HW120426   2.832   3.324   6.651  1.2834  2.6854 -0.9123
 2931SOL    HW220427   2.976   3.354   6.662 -0.3929  0.5536  2.4316
 2932SOL     OW20428   0.559   3.983   7.447  0.4459  0.1486 -0.4311
 2932SOL    HW120429   0.512   4.042   7.388 -0.2827 -0.1612 -0.1478
 2932SOL    HW220430   0.588   4.039   7.519 -0.8312  1.7799 -1.1766
 2933SOL     OW20431   4.107   3.824   9.161  0.0449  0.0895 -0.0905
 2933SOL    HW120432   4.196   3.857   9.154 -0.8620  2.7578  0.8354
 2933SOL    HW220433   4.070   3.845   9.075  1.6450  1.1424 -0.5102
 2934SOL     OW20434   3.061   3.523   8.133 -0.3126  0.1575  0.1222
 2934SOL    HW120435   3.154   3.524   8.110 -0.9755  0.2574 -2.5620
 2934SOL    HW220436   3.064   3.475   8.215  1.0363  0.9884  0.5597
 2935SOL     OW20437   1.119   0.251   5.277 -0.3361 -0.5828  0.1051
 2935SOL    HW120438   1.073   0.172   5.306  0.8798 -0.6982  1.7124
 2935SOL    HW220439   1.164   0.275   5.358  1.4330 -0.9919 -0.7475
 2936SOL     OW20440   1.709   1.911   3.767  0.3475 -0.3081  0.5744
 2936SOL    HW120441   1.775   1.916   3.698  0.2001 -1.0658  0.3757
 2936SOL    HW220442   1.653   1.846   3.725 -0.2865  0.1976  0.6409
 2937SOL     OW20443   3.194   1.635   7.287  0.2724 -0.1969 -0.0837
 2937SOL    HW120444   3.266   1.689   7.320 -0.6044  1.4168 -0.8014
 2937SOL    HW220445   3.152   1.607   7.368  3.6152 -0.0887  1.6673
 2938SOL     OW20446   2.898   3.892   5.114 -0.3099 -0.4216  0.3452
 2938SOL    HW120447   2.913   3.971   5.062  1.7443 -1.4490 -0.6098
 2938SOL    HW220448   2.883   3.830   5.043  0.9291  2.0771 -2.0997
 2939SOL     OW20449   1.985   0.577   3.980 -0.3152 -0.6146  0.0687
 2939SOL    HW120450   2.025   0.614   3.901  0.9702 -0.3780  0.8366
 2939SOL    HW220451   2.067   0.558   4.026  0.7986  1.5709 -1.0199
 2940SOL     OW20452   1.610   0.509   5.370  0.5241  0.0781 -0.1362
 2940SOL    HW120453   1.688   0.465   5.402  1.6564 -0.6837 -3.9474
 2940SOL    HW220454   1.556   0.433   5.348  0.6248 -0.2125  0.6135
 2941SOL     OW20455   3.477   0.463   3.494  0.3278 -0.0529  0.5008
 2941SOL    HW120456   3.483   0.529   3.563 -0.0979 -1.1191  1.5582
 2941SOL    HW220457   3.385   0.477   3.470  0.5677  2.0434  0.8358
 2942SOL     OW20458   0.255   0.573   5.844  0.1121  0.1763 -0.3704
 2942SOL    HW120459   0.274   0.657   5.803 -0.0089  1.3569  2.0363
 2942SOL    HW220460   0.340   0.566   5.887 -0.0259 -0.7798 -0.2519
 2943SOL     OW20461   2.249   2.945   2.875  0.1847  0.4482  0.1945
 2943SOL    HW120462   2.192   2.949   2.798  2.3261 -2.4070 -1.5349
 2943SOL    HW220463   2.246   3.036   2.903 -0.6929  0.6462 -0.5644
 2944SOL     OW20464   4.562   0.564   4.616 -0.1674  0.2141 -0.2803
 2944SOL    HW120465   4.545   0.654   4.644  1.5319  1.0838 -2.0309
 2944SOL    HW220466   4.571   0.519   4.700  0.7676 -2.1141 -1.6195
 2945SOL     OW20467   0.699   2.608   3.198  0.1977  0.2601  0.2447
 2945SOL    HW120468   0.686   2.671   3.269  0.3116  1.8940 -1.1766
 2945SOL    HW220469   0.749   2.668   3.142 -0.3191 -0.0790 -0.5794
 2946SOL     OW20470   3.419   4.071   2.333  0.2252 -0.4985  0.2933
 2946SOL    HW120471   3.371   4.148   2.303  0.6707 -0.2750  0.1643
 2946SOL    HW220472   3.338   4.019   2.339  0.9129 -1.6299 -0.2637
 2947SOL     OW20473   4.279   2.186   4.234  0.4677 -0.0813  0.4446
 2947SOL    HW120474   4.340   2.245   4.190  1.3217 -0.9835  0.4354
 2947SOL    HW220475   4.263   2.118   4.170 -0.1498  1.0704 -0.6214
 2948SOL     OW20476   4.308   1.923   4.082 -0.5242 -0.4028  0.2233
 2948SOL    HW120477   4.395   1.949   4.113 -1.6418  3.4973  0.1725
 2948SOL    HW220478   4.318   1.918   3.987 -1.7802 -0.5725  0.1000
 2949SOL     OW20479   0.716   4.627   8.054 -0.1698 -0.4254  0.0748
 2949SOL    HW120480   0.771   4.566   8.105 -1.2988 -0.8514  0.7890
 2949SOL    HW220481   0.727   4.606   7.961 -1.9101  0.3378 -0.2841
 2950SOL     OW20482   2.957   0.514   4.701 -0.2754  0.1777 -0.0752
 2950SOL    HW120483   2.875   0.496   4.654  0.7497 -1.1072 -1.3420
 2950SOL    HW220484   2.959   0.442   4.764  5.3494 -0.0285 -0.5479
 2951SOL     OW20485   4.714   2.252   1.387 -0.4362 -0.6989 -0.4530
 2951SOL    HW120486   4.676   2.327   1.342  0.5346 -0.9466 -1.6665
 2951SOL    HW220487   0.029   2.292   1.455 -0.6888 -0.4445 -0.3991
 2952SOL     OW20488   2.933   0.632  10.511  0.1832 -0.2339  0.4460
 2952SOL    HW120489   2.869   0.685  10.559  0.5572  1.7182 -1.2323
 2952SOL    HW220490   2.878   0.560  10.478 -2.1653  1.7547 -0.0214
 2953SOL     OW20491   0.130   2.184   7.508  0.1511  0.0252 -0.7129
 2953SOL    HW120492   0.069   2.174   7.581 -0.3284 -0.7153 -1.2156
 2953SOL    HW220493   0.171   2.267   7.532  0.9918 -0.8380  0.7774
 2954SOL     OW20494   2.382   2.904   6.942  0.0030 -0.4235  0.7314
 2954SOL    HW120495   2.370   2.974   7.006  0.1351 -0.1410  0.4464
 2954SOL    HW220496   2.297   2.861   6.941  0.8365 -2.0446 -1.0066
 2955SOL     OW20497   4.339   0.110  15.203 -0.2593 -0.3702  0.5683
 2955SOL    HW120498   4.316   0.054  15.277  0.2161 -1.0353  0.2091
 2955SOL    HW220499   4.252   0.110  15.165 -0.6077  4.1176  1.2941
 2956SOL     OW20500   2.369   0.135  10.351  0.7844 -0.5232 -0.0729
 2956SOL    HW120501   2.310   0.061  10.368 -2.6889  1.9945 -0.9824
 2956SOL    HW220502   2.305   0.201  10.377  0.8037  0.0942 -1.6051
 2957SOL     OW20503   3.912   4.027   6.001  0.1699  0.1011  0.0998
 2957SOL    HW120504   4.007   4.034   6.003  0.2925 -1.4100 -0.7458
 2957SOL    HW220505   3.898   3.941   5.961 -0.3793  1.4614 -2.6551
 2958SOL     OW20506   4.515   0.013   5.808 -0.0983 -0.2353  0.6612
 2958SOL    HW120507   4.596   4.728   5.763 -0.2943 -1.7366  1.1339
 2958SOL    HW220508   4.460   4.675   5.816 -1.0940  0.4495  0.4448
 2959SOL     OW20509   0.073   3.928  13.872  0.3894  0.0214 -0.0019
 2959SOL    HW120510   0.115   3.988  13.933  1.4440  0.7632 -1.4610
 2959SOL    HW220511   0.144   3.917  13.809  1.3082 -1.4488  1.3230
 2960SOL     OW20512   1.299   1.356   8.662 -0.6510  0.2264 -0.1099
 2960SOL    HW120513   1.286   1.301   8.584 -0.8241 -1.3247  1.0081
 2960SOL    HW220514   1.380   1.399   8.636  0.2476 -0.0041  2.3333
 2961SOL     OW20515   1.814   2.844  16.758 -0.1185  1.2412 -0.3692
 2961SOL    HW120516   1.838   2.937  16.765  0.1409  1.3048 -2.1606
 2961SOL    HW220517   1.721   2.844  16.740  0.0933  1.2760 -1.4445
 2962SOL     OW20518   4.424   0.088   8.537  0.4254 -0.1334  0.4679
 2962SOL    HW120519   4.347   0.139   8.561 -0.9194 -2.3380  0.7514
 2962SOL    HW220520   4.486   0.147   8.494  0.5983  0.7931  1.9835
 2963SOL     OW20521   2.655   3.948   2.088  0.1547  0.2625 -0.3013
 2963SOL    HW120522   2.583   3.958   2.026  0.5715  1.3622 -0.6194
 2963SOL    HW220523   2.625   3.872   2.137 -1.7815  2.0364  1.2407
 2964SOL     OW20524   0.091   2.836   3.403 -0.5915  0.5375  0.1458
 2964SOL    HW120525   0.136   2.897   3.344 -1.2035  1.8011  0.9901
 2964SOL    HW220526   0.006   2.879   3.399  0.2987  2.2000 -1.3748
 2965SOL     OW20527   4.149   3.762  11.569 -0.3114 -0.0351  0.7507
 2965SOL    HW120528   4.114   3.826  11.630 -0.3558  0.3174  0.3582
 2965SOL    HW220529   4.107   3.780  11.485  2.5032  0.6908 -0.5064
 2966SOL     OW20530   3.881   4.114  16.716  0.2040  0.6991  0.0020
 2966SOL    HW120531   3.786   4.105  16.724  0.1346  2.5342  1.3929
 2966SOL    HW220532   3.902   4.080  16.629  0.1779  0.1927  0.1984
 2967SOL     OW20533   4.467   1.432   3.722 -0.0707 -0.2082  0.7702
 2967SOL    HW120534   4.481   1.403   3.812  2.2599 -1.5423 -0.0178
 2967SOL    HW220535   4.418   1.357   3.688 -0.9806 -0.9705  3.7414
 2968SOL     OW20536   2.371   3.159  15.853  0.0358 -0.1435 -0.3977
 2968SOL    HW120537   2.355   3.237  15.907 -1.9474 -0.3691 -0.6413
 2968SOL    HW220538   2.338   3.089  15.908 -1.9034 -0.3432 -1.7989
 2969SOL     OW20539   0.852   1.594   7.921  0.3363 -0.0374  0.7358
 2969SOL    HW120540   0.853   1.604   8.016  1.3515 -0.6746  0.7983
 2969SOL    HW220541   0.760   1.599   7.894  0.2550 -0.3232  0.9546
 2970SOL     OW20542   0.086   4.145   4.063 -0.4886  0.4672  0.2924
 2970SOL    HW120543   0.092   4.235   4.030  0.9141  0.5183  0.7214
 2970SOL    HW220544   0.172   4.115   4.034  0.3225  0.5387  2.6587
 2971SOL     OW20545   0.137   2.257   4.014 -0.4460  0.0783 -0.1959
 2971SOL    HW120546   0.073   2.322   3.986 -0.7427  0.3421  1.0769
 2971SOL    HW220547   0.166   2.224   3.929 -1.0370  1.5568 -0.9700
 2972SOL     OW20548   0.373   2.875   1.159  0.1626  0.3668 -0.0158
 2972SOL    HW120549   0.408   2.792   1.191 -1.5088 -0.3114  0.0565
 2972SOL    HW220550   0.278   2.866   1.156 -0.2575  4.5196  0.8926
 2973SOL     OW20551   0.558   0.018   9.008 -0.1554 -0.2127  0.5739
 2973SOL    HW120552   0.582   0.052   9.094 -2.5144  2.1112  0.2767
 2973SOL    HW220553   0.583   0.089   8.949  1.2445  0.7985  2.3742
 2974SOL     OW20554   2.127   2.038   8.212 -0.2558  0.1648  0.0423
 2974SOL    HW120555   2.165   1.975   8.272  2.3596  1.3839 -0.3187
 2974SOL    HW220556   2.183   2.029   8.135  0.3223  0.1054  0.4740
 2975SOL     OW20557   1.057   2.306   1.993 -0.0084  0.5131 -0.6000
 2975SOL    HW120558   1.005   2.284   2.070  0.3976  1.4012 -0.0743
 2975SOL    HW220559   1.075   2.397   2.014 -0.7108  0.6217 -0.4500
 2976SOL     OW20560   2.713   4.200   8.596  0.2070  0.2503 -0.0411
 2976SOL    HW120561   2.786   4.260   8.612  0.9945 -0.1196 -2.1987
 2976SOL    HW220562   2.638   4.254   8.619 -0.2361  0.1179 -1.1552
 2977SOL     OW20563   1.034   0.196  11.089  0.1945 -0.8051  0.2356
 2977SOL    HW120564   1.072   0.232  11.169 -1.0194  1.1028 -0.0488
 2977SOL    HW220565   1.067   0.253  11.019 -1.6211  0.0050  0.0361
 2978SOL     OW20566   1.314   3.463   3.056  0.1666 -0.1985  0.3808
 2978SOL    HW120567   1.270   3.488   3.138 -0.2329 -1.5334  0.5854
 2978SOL    HW220568   1.408   3.467   3.070  0.1099 -0.6603  0.9505
 2979SOL     OW20569   2.500   0.766   5.682 -0.3471 -0.7654  0.3713
 2979SOL    HW120570   2.499   0.671   5.696  2.3999 -1.0198 -1.1685
 2979SOL    HW220571   2.512   0.770   5.587  1.0508  0.9255  0.6189
 2980SOL     OW20572   1.319   2.693   8.413  0.2301 -0.0327  0.2005
 2980SOL    HW120573   1.270   2.771   8.388  0.5320 -0.1167 -0.6685
 2980SOL    HW220574   1.308   2.642   8.332  1.1412  0.8899 -0.5022
 2981SOL     OW20575   1.625   2.737   1.386 -0.1481  0.3526  0.4082
 2981SOL    HW120576   1.583   2.704   1.465 -0.9644  2.0473  0.6841
 2981SOL    HW220577   1.672   2.663   1.348  0.0518  0.7825 -0.1996
 2982SOL     OW20578   4.444   3.576   2.265  0.0145 -0.6249  0.6354
 2982SOL    HW120579   4.401   3.635   2.203  0.3432  0.1117  1.1191
 2982SOL    HW220580   4.491   3.639   2.319 -0.4963  1.5719 -1.5088
 2983SOL     OW20581   1.539   1.868  17.425  1.0052  0.2855 -0.0084
 2983SOL    HW120582   1.497   1.895  17.506  0.3279 -3.2054  0.7902
 2983SOL    HW220583   1.459   1.858  17.374  1.9293  4.0101 -2.1828
 2984SOL     OW20584   4.228   2.962   6.491 -0.3157  0.2677 -0.3991
 2984SOL    HW120585   4.230   2.882   6.439  1.1437  0.0883 -0.0467
 2984SOL    HW220586   4.133   2.972   6.505  0.0620  2.0482  0.8686
 2985SOL     OW20587   1.299   3.229   1.706  0.5752  0.0296  0.3282
 2985SOL    HW120588   1.297   3.170   1.631 -1.5770 -0.8741  1.0915
 2985SOL    HW220589   1.242   3.298   1.671 -0.2304 -1.1354 -0.6431
 2986SOL     OW20590   0.205   0.524   9.339  0.5121  0.1306 -0.4452
 2986SOL    HW120591   0.301   0.520   9.338  0.5602  1.1260  0.7166
 2986SOL    HW220592   0.177   0.446   9.292 -1.4003  1.7587 -1.9960
 2987SOL     OW20593   4.564   2.390   7.425  0.1510 -0.1956 -0.1900
 2987SOL    HW120594   4.474   2.411   7.397 -0.0367  1.1338  1.4464
 2987SOL    HW220595   4.615   2.409   7.346 -1.7107 -0.5817 -1.5052
 2988SOL     OW20596   3.267   2.553  12.413 -0.4234 -0.1890  0.1798
 2988SOL    HW120597   3.313   2.469  12.421  0.7278  0.2834 -1.3656
 2988SOL    HW220598   3.243   2.589  12.498  2.1995  1.5473  0.1764
 2989SOL     OW20599   3.740   4.272  13.946  0.5062 -0.0415  0.4374
 2989SOL    HW120600   3.712   4.181  13.939 -1.0277  0.6291 -2.0131
 2989SOL    HW220601   3.826   4.265  13.903 -0.3067  2.3999 -1.5994
 2990SOL     OW20602   4.006   2.586   2.487  0.0388 -0.0328  0.4298
 2990SOL    HW120603   3.938   2.521   2.505 -0.1393  1.0127  3.5692
 2990SOL    HW220604   3.956   2.653   2.441 -0.3000 -1.5002 -1.3130
 2991SOL     OW20605   2.290   0.929   0.464 -0.2408 -0.2898  0.2632
 2991SOL    HW120606   2.334   0.934   0.379 -0.2745 -1.4642  0.1811
 2991SOL    HW220607   2.334   0.996   0.518 -1.8203  1.5018 -0.7021
 2992SOL     OW20608   1.327   2.142  13.960 -0.5118  0.8295  0.2415
 2992SOL    HW120609   1.245   2.180  13.929 -0.2631  0.9360 -0.2919
 2992SOL    HW220610   1.291   2.060  13.994 -0.2282  0.6607  0.1379
 2993SOL     OW20611   2.623   0.906   8.524  0.0552  0.5877  0.2630
 2993SOL    HW120612   2.550   0.850   8.497 -0.9183  1.4630  1.0481
 2993SOL    HW220613   2.688   0.850   8.566  0.4178  0.7015 -0.1498
 2994SOL     OW20614   4.046   3.688   8.828  0.4250 -0.4439  0.4530
 2994SOL    HW120615   4.078   3.608   8.870  0.6755  0.5663  2.1919
 2994SOL    HW220616   4.125   3.741   8.825  0.0391 -0.0027 -2.0479
 2995SOL     OW20617   4.694   2.978  14.499  0.3797 -0.0889 -0.4461
 2995SOL    HW120618   4.642   3.040  14.549 -0.6837 -0.7631 -0.7231
 2995SOL    HW220619   0.042   2.990  14.536  0.9489 -0.8175 -1.5331
 2996SOL     OW20620   1.469   2.704   8.656  0.1050 -0.4172  0.1162
 2996SOL    HW120621   1.437   2.697   8.566  0.4990 -2.1706  0.1166
 2996SOL    HW220622   1.479   2.799   8.655 -1.5481 -0.2621 -0.3542
 2997SOL     OW20623   3.345   1.007   9.095  0.0590  0.0064  0.2385
 2997SOL    HW120624   3.438   1.023   9.082  0.1008 -0.4430 -0.0158
 2997SOL    HW220625   3.348   0.970   9.183  3.7076 -1.3273 -0.4485
 2998SOL     OW20626   2.744   3.561   1.571  0.3543 -0.9768  0.2977
 2998SOL    HW120627   2.736   3.545   1.477 -2.3229  3.6891 -0.3053
 2998SOL    HW220628   2.762   3.474   1.606 -2.2777 -1.2363  1.0196
 2999SOL     OW20629   0.660   1.976   7.562  0.4163 -0.2086  0.4715
 2999SOL    HW120630   0.722   1.955   7.492 -1.7141 -0.1266 -1.4399
 2999SOL    HW220631   0.597   1.904   7.554 -1.7923  1.9082 -1.0310
 3000SOL     OW20632   1.009   1.020   5.794  0.3965 -0.0500 -0.1893
 3000SOL    HW120633   1.069   1.075   5.845 -0.5297  0.1302  0.7132
 3000SOL    HW220634   0.928   1.071   5.795  0.3451 -0.1341 -0.0643
 3001SOL     OW20635   0.487   0.537   3.319  0.2298  0.0553  0.1390
 3001SOL    HW120636   0.557   0.473   3.310  0.0514 -0.0918 -0.2019
 3001SOL    HW220637   0.538   0.610   3.355 -0.1353  0.7376 -0.7219
 3002SOL     OW20638   0.990   1.865   9.512  0.6542  0.3668 -0.0064
 3002SOL    HW120639   1.004   1.818   9.429  1.0719  0.9047 -0.2388
 3002SOL    HW220640   0.929   1.935   9.490  2.0098  1.1737 -1.2113
 3003SOL     OW20641   4.508   1.875   2.881  0.0510  0.5832  0.1258
 3003SOL    HW120642   4.582   1.934   2.867  1.8150 -2.1203 -1.9207
 3003SOL    HW220643   4.457   1.939   2.930  0.9818  1.0566  0.4591
 3004SOL     OW20644   4.012   2.352   3.576  0.0461 -0.2006 -0.2204
 3004SOL    HW120645   4.071   2.322   3.645  0.2828  0.4450 -0.1457
 3004SOL    HW220646   4.060   2.333   3.495  1.5613  0.2352  0.5963
 3005SOL     OW20647   1.485   2.084  13.734  0.2018  0.4516 -0.1061
 3005SOL    HW120648   1.479   2.080  13.830  2.7154  2.5689  0.1295
 3005SOL    HW220649   1.410   2.027  13.719 -0.0699  0.6372  0.5268
 3006SOL     OW20650   2.039   3.506   3.333  0.3050  0.1046 -0.2502
 3006SOL    HW120651   1.960   3.556   3.356  1.4533  1.7496  0.1097
 3006SOL    HW220652   2.009   3.415   3.321  0.8720 -0.1782  0.5211
 3007SOL     OW20653   1.812   4.548   2.753  0.8981  0.6171  0.4655
 3007SOL    HW120654   1.743   4.524   2.692  1.1720  1.4828 -0.1939
 3007SOL    HW220655   1.856   4.609   2.693 -0.3883  1.9707  0.8777
 3008SOL     OW20656   2.475   0.038   1.047  0.1928 -0.5686  0.0985
 3008SOL    HW120657   2.485   4.739   0.960  1.2419 -0.1180  0.0145
 3008SOL    HW220658   2.388   0.002   1.064 -0.0788  0.2846  0.5291
 3009SOL     OW20659   2.727   2.691   9.865 -0.4916  0.6081 -0.3738
 3009SOL    HW120660   2.822   2.693   9.871 -0.3638 -1.3919 -1.6343
 3009SOL    HW220661   2.713   2.775   9.822 -0.7115  1.5543  1.5219
 3010SOL     OW20662   1.286   4.629  11.002 -0.0873  0.1639  0.0198
 3010SOL    HW120663   1.341   4.638  10.925  1.0301 -1.7238  0.5931
 3010SOL    HW220664   1.215   4.589  10.952 -2.1708 -0.3341  3.3901
 3011SOL     OW20665   3.088   1.349   2.375  0.7522  0.4613  0.2980
 3011SOL    HW120666   3.133   1.267   2.357 -2.6094 -0.9794 -1.5730
 3011SOL    HW220667   3.006   1.318   2.414  1.3993 -0.0861  1.2215
 3012SOL     OW20668   3.160   2.649   6.243  0.0604 -0.1297 -0.6581
 3012SOL    HW120669   3.249   2.655   6.276 -0.3077 -2.1602  0.6841
 3012SOL    HW220670   3.146   2.730   6.193 -1.2474 -0.0349 -0.1620
 3013SOL     OW20671   2.966   0.198   8.208  0.1786 -0.6135  0.4139
 3013SOL    HW120672   2.900   0.157   8.152 -0.2002  0.4049  0.1138
 3013SOL    HW220673   3.014   0.122   8.241 -1.1486 -1.3091  0.7241
 3014SOL     OW20674   1.531   2.694   1.683 -0.3507 -0.3902  0.5396
 3014SOL    HW120675   1.473   2.690   1.759  0.0918  0.9331  0.9511
 3014SOL    HW220676   1.595   2.627   1.707  2.8807  2.8068  0.9193
 3015SOL     OW20677   3.200   0.266   6.152  0.4137 -0.4955  0.4475
 3015SOL    HW120678   3.177   0.206   6.223 -0.9677 -1.1240 -0.5326
 3015SOL    HW220679   3.294   0.278   6.163  0.4537 -0.7822  0.4229
 3016SOL     OW20680   1.110   0.640   9.629  0.1964 -0.2920  0.2704
 3016SOL    HW120681   1.131   0.689   9.708  0.0912 -0.0830  0.1678
 3016SOL    HW220682   1.057   0.569   9.666 -1.5705  0.2878 -1.1062
 3017SOL     OW20683   0.795   2.263   6.406 -0.0815 -0.0159  0.1431
 3017SOL    HW120684   0.852   2.208   6.459  1.8487 -1.0760 -3.0439
 3017SOL    HW220685   0.724   2.291   6.465  0.1021 -0.1057  0.4060
 3018SOL     OW20686   3.210   0.843   7.009 -0.0450 -0.4065  0.0267
 3018SOL    HW120687   3.283   0.900   7.030 -1.1690  0.5330  1.4083
 3018SOL    HW220688   3.188   0.817   7.099  0.2746 -3.8373 -0.8634
 3019SOL     OW20689   3.962   4.220  12.209 -0.0649  0.2130  0.0502
 3019SOL    HW120690   3.891   4.232  12.146  2.2525  2.6648 -2.0950
 3019SOL    HW220691   3.899   4.225  12.281  0.5755 -0.8892  0.6767
 3020SOL     OW20692   3.095   1.391   6.066 -0.1299 -0.1257 -0.5075
 3020SOL    HW120693   3.171   1.398   6.124  0.6181  1.4064 -1.6520
 3020SOL    HW220694   3.131   1.404   5.978 -0.1376 -0.5255 -0.5686
 3021SOL     OW20695   1.319   3.611   7.035 -0.1791 -0.5124  0.3669
 3021SOL    HW120696   1.323   3.680   7.101  0.9239  0.2323 -0.4899
 3021SOL    HW220697   1.228   3.613   7.008 -0.2846 -0.5142  0.7290
 3022SOL     OW20698   3.505   0.990   8.576  0.3777  0.3325 -0.1280
 3022SOL    HW120699   3.485   1.025   8.663 -0.8781 -1.2526  0.2274
 3022SOL    HW220700   3.454   1.047   8.518 -0.5715 -0.3379  0.0360
 3023SOL     OW20701   2.442   0.911   6.418 -0.2713  0.0255 -0.2032
 3023SOL    HW120702   2.407   0.991   6.457  0.8558 -1.1854  3.2781
 3023SOL    HW220703   2.537   0.920   6.426 -0.2185  0.1661 -0.9897
 3024SOL     OW20704   4.211   2.996   2.254  0.0903 -0.2848  0.0358
 3024SOL    HW120705   4.202   2.902   2.273 -0.8874  0.2333  2.1119
 3024SOL    HW220706   4.118   3.016   2.256 -0.2829 -2.2169  3.0391
 3025SOL     OW20707   1.582   4.095   8.002 -0.1218  0.4443 -0.1096
 3025SOL    HW120708   1.606   4.110   8.094 -0.6064 -0.0314  0.0938
 3025SOL    HW220709   1.577   4.000   7.994 -2.0322  0.4960  0.5784
 3026SOL     OW20710   0.401   2.769   6.640  0.5356 -0.1860 -0.1689
 3026SOL    HW120711   0.421   2.850   6.687 -0.3610  0.9097 -1.6807
 3026SOL    HW220712   0.452   2.776   6.560  0.3376  0.1645 -0.2692
 3027SOL     OW20713   0.589   3.362   1.809 -0.5935  0.3707 -0.6559
 3027SOL    HW120714   0.503   3.400   1.828 -0.1650  0.0902  1.9335
 3027SOL    HW220715   0.610   3.411   1.730  0.8010 -0.3936 -0.7619
 3028SOL     OW20716   2.482   0.235  12.377 -0.2365 -0.0453 -0.0109
 3028SOL    HW120717   2.534   0.235  12.457  0.1723 -0.6308 -0.2745
 3028SOL    HW220718   2.520   0.290  12.308  0.4613 -0.7807 -0.2092
 3029SOL     OW20719   4.604   4.130   6.227  0.6918 -0.2755 -0.4027
 3029SOL    HW120720   4.581   4.214   6.268 -1.6409 -0.7278 -0.7811
 3029SOL    HW220721   4.554   4.069   6.281  2.2969  0.5831  2.0829
 3030SOL     OW20722   1.180   2.426   5.464 -0.2829 -0.6233  0.0839
 3030SOL    HW120723   1.168   2.463   5.551 -0.2336 -2.0974  0.7241
 3030SOL    HW220724   1.093   2.429   5.425 -0.6694 -1.1869  0.9211
 3031SOL     OW20725   2.869   1.719   6.464 -0.0376  0.1175 -0.3812
 3031SOL    HW120726   2.915   1.703   6.381 -0.6661  2.1047 -1.1206
 3031SOL    HW220727   2.786   1.719   6.416  0.6990 -0.0398 -1.6753
 3032SOL     OW20728   0.317   3.909   2.385 -0.5034 -0.5706 -0.0453
 3032SOL    HW120729   0.253   3.981   2.383 -0.0639 -0.2028 -0.9125
 3032SOL    HW220730   0.394   3.956   2.353 -1.2611  1.5147  1.1350
 3033SOL     OW20731   1.784   4.711   5.966 -0.8817  0.0179  0.3411
 3033SOL    HW120732   1.843   4.739   5.896 -0.5131 -1.7230 -0.0500
 3033SOL    HW220733   1.762   0.058   5.999 -0.2027  0.4456 -0.3426
 3034SOL     OW20734   1.368   4.709  15.343  0.0187  0.2345 -0.1618
 3034SOL    HW120735   1.356   0.059  15.374 -1.5515  0.8194 -2.3863
 3034SOL    HW220736   1.300   4.704  15.275 -1.8550  1.5336  1.6104
 3035SOL     OW20737   4.613   3.774   7.155  0.1589 -0.8618 -0.8105
 3035SOL    HW120738   4.532   3.762   7.106 -1.9633  1.7366  2.0634
 3035SOL    HW220739   4.592   3.724   7.235 -0.1938 -0.3062 -0.5581
 3036SOL     OW20740   4.108   3.976   1.857 -0.0154  0.5755  1.1055
 3036SOL    HW120741   4.125   3.978   1.762  0.1485 -3.1342  1.0563
 3036SOL    HW220742   4.193   3.958   1.896 -0.8802  0.8740  3.1430
 3037SOL     OW20743   1.666   0.062   2.643  0.3724 -0.2429  0.2024
 3037SOL    HW120744   1.595   0.071   2.706  0.6543  2.7967  0.0731
 3037SOL    HW220745   1.739   0.109   2.683 -2.4388  2.2760  2.3196
 3038SOL     OW20746   1.631   0.032   6.915 -0.0619 -0.3816  0.2345
 3038SOL    HW120747   1.630   0.061   6.824  2.3433  0.8841  0.6055
 3038SOL    HW220748   1.693   0.094   6.954  2.4716 -2.2652 -0.8300
 3039SOL     OW20749   4.373   2.176   3.172 -0.0843  0.2790 -1.0492
 3039SOL    HW120750   4.415   2.094   3.196  0.4875  0.4928 -1.3269
 3039SOL    HW220751   4.448   2.233   3.190  1.4698 -2.0399 -0.2556
 3040SOL     OW20752   1.259   0.890  15.047  0.4095  0.5526  0.2523
 3040SOL    HW120753   1.318   0.897  14.972  2.8340 -1.4889  1.9968
 3040SOL    HW220754   1.289   0.804  15.076  0.9856  0.1249 -1.6495
 3041SOL     OW20755   3.254   0.154   3.299 -0.7250 -0.5810 -0.3544
 3041SOL    HW120756   3.167   0.193   3.304 -0.9582 -1.1646  0.0669
 3041SOL    HW220757   3.271   0.167   3.205 -0.6657  0.2320 -0.2268
 3042SOL     OW20758   3.400   4.637   0.286 -0.6388 -0.3900  0.2812
 3042SOL    HW120759   3.403   4.702   0.216 -3.9252 -0.6375 -0.0809
 3042SOL    HW220760   3.439   4.688   0.357 -1.7914  2.3231 -1.0720
 3043SOL     OW20761   2.319   1.068   2.407  0.4388  0.1988 -0.1244
 3043SOL    HW120762   2.364   1.083   2.490  1.7763  1.0113 -0.9890
 3043SOL    HW220763   2.232   1.106   2.420  0.1410 -0.3189 -0.6160
 3044SOL     OW20764   3.386   0.860   1.598  0.2958  0.3425 -0.0308
 3044SOL    HW120765   3.305   0.819   1.630  0.3285  0.6532  0.4543
 3044SOL    HW220766   3.354   0.948   1.617  1.4925  0.4325  1.5118
 3045SOL     OW20767   1.908   2.272   2.638  0.0653  0.3679 -0.0829
 3045SOL    HW120768   1.979   2.335   2.653 -0.8556  1.4883 -0.4536
 3045SOL    HW220769   1.942   2.198   2.688 -0.7297 -0.5367 -0.8892
 3046SOL     OW20770   2.311   2.855   6.340 -0.6545 -0.1880  0.1179
 3046SOL    HW120771   2.308   2.800   6.262 -0.5450  2.1209 -1.5198
 3046SOL    HW220772   2.221   2.845   6.370 -1.5846  1.0772 -2.2739
 3047SOL     OW20773   4.633   0.552   8.380 -0.1049 -0.3422  0.0642
 3047SOL    HW120774   4.617   0.616   8.310 -1.8319 -1.0644 -0.1893
 3047SOL    HW220775   4.583   0.591   8.452  0.1786 -0.2011  0.1856
 3048SOL     OW20776   3.736   3.149   1.168  0.1461 -0.4706 -0.2531
 3048SOL    HW120777   3.813   3.196   1.137  0.3139  0.2109  1.1838
 3048SOL    HW220778   3.667   3.180   1.109  0.8331  0.5138 -0.5297
 3049SOL     OW20779   4.694   1.192   3.588 -0.3639 -0.5700  0.1719
 3049SOL    HW120780   4.702   1.132   3.513  0.4096 -1.6571  1.1284
 3049SOL    HW220781   4.609   1.164   3.622 -0.2571 -1.9741 -0.6988
 3050SOL     OW20782   3.935   2.644   6.789  0.2774  0.0793  0.2789
 3050SOL    HW120783   3.856   2.621   6.740  0.1104 -0.1846  0.6737
 3050SOL    HW220784   3.991   2.688   6.725 -0.9260  0.5367 -0.4427
 3051SOL     OW20785   3.906   4.563   3.812  0.0658  1.3836 -0.3103
 3051SOL    HW120786   3.951   4.571   3.897 -0.4997  1.2084  0.0040
 3051SOL    HW220787   3.934   4.475   3.787 -0.3523  0.9451  0.7546
 3052SOL     OW20788   3.548   3.482  16.542  0.4035  0.0077  0.5807
 3052SOL    HW120789   3.517   3.524  16.462  1.9565  0.9736  0.4795
 3052SOL    HW220790   3.644   3.491  16.540  0.3455  0.4666 -0.1785
 3053SOL     OW20791   4.191   2.800   2.683 -0.4776  0.6267 -0.2294
 3053SOL    HW120792   4.220   2.762   2.766 -0.6026 -2.3175 -1.5122
 3053SOL    HW220793   4.117   2.744   2.660  1.0140 -1.2301 -0.5862
 3054SOL     OW20794   3.658   2.051   4.147 -0.0937  0.2529  0.4958
 3054SOL    HW120795   3.609   2.060   4.229  1.6441 -1.0622  1.6769
 3054SOL    HW220796   3.717   2.126   4.151 -1.7716  1.5521  1.1321
 3055SOL     OW20797   2.042   3.656   3.958  0.2050  0.0095 -0.4087
 3055SOL    HW120798   1.994   3.617   3.885  0.4821 -2.3492  0.6931
 3055SOL    HW220799   2.061   3.743   3.922  0.5622  0.8859  1.8778
 3056SOL     OW20800   3.954   2.963  11.498 -0.2899  0.4564  0.2113
 3056SOL    HW120801   4.008   3.042  11.502 -1.6373  1.5270 -2.8918
 3056SOL    HW220802   3.965   2.926  11.585  0.7525 -0.4809 -0.3197
 3057SOL     OW20803   4.249   0.816   5.036 -0.2046 -0.7792  0.6357
 3057SOL    HW120804   4.294   0.796   5.118  0.9792 -1.5980 -0.2195
 3057SOL    HW220805   4.287   0.752   4.976 -0.0728  0.2659 -0.3992
 3058SOL     OW20806   3.363   0.802  13.305 -0.1912 -0.6632  0.6000
 3058SOL    HW120807   3.311   0.788  13.384 -0.6553  1.6054  0.7044
 3058SOL    HW220808   3.315   0.872  13.261  1.0527  0.7233  1.3984
 3059SOL     OW20809   0.336   0.369   0.889 -0.0860  0.0019  0.6999
 3059SOL    HW120810   0.423   0.329   0.895  0.6309  1.3884 -0.3598
 3059SOL    HW220811   0.345   0.403   0.799 -2.5824 -1.7830 -0.2091
 3060SOL     OW20812   2.367   1.181   9.723 -0.0171  0.2707 -0.0866
 3060SOL    HW120813   2.412   1.120   9.782  1.2319  0.4067 -0.8960
 3060SOL    HW220814   2.352   1.256   9.780 -1.7140  1.1033 -1.6039
 3061SOL     OW20815   3.850   0.227  10.839 -0.1044 -0.0943 -0.4379
 3061SOL    HW120816   3.797   0.215  10.760 -2.3583  2.0725  0.7285
 3061SOL    HW220817   3.786   0.206  10.908 -0.0860 -1.5966 -0.8733
 3062SOL     OW20818   1.191   1.253   2.470 -0.2262  0.0512  0.5598
 3062SOL    HW120819   1.139   1.210   2.402  0.3618  0.3787 -0.0905
 3062SOL    HW220820   1.276   1.222   2.441 -0.9574 -0.7413 -0.7215
 3063SOL     OW20821   0.134   3.631  12.316  0.5147  0.0054  0.2105
 3063SOL    HW120822   0.210   3.640  12.259  0.7215  0.7678  0.6013
 3063SOL    HW220823   0.098   3.544  12.302 -0.7649  0.4263  0.8420
 3064SOL     OW20824   0.571   1.028   2.047 -0.2225 -0.7500 -0.2696
 3064SOL    HW120825   0.560   0.997   2.137 -0.2227  0.6545  0.2217
 3064SOL    HW220826   0.651   1.080   2.056 -0.3651 -0.5946  0.0873
 3065SOL     OW20827   0.096   1.744  13.494  0.1197 -0.5320  0.4738
 3065SOL    HW120828   0.138   1.669  13.451  2.3907  0.3271  1.2042
 3065SOL    HW220829   0.139   1.745  13.579  0.3831  1.2382  0.3080
 3066SOL     OW20830   3.340   3.268   4.118  0.0370  0.1688 -0.2508
 3066SOL    HW120831   3.312   3.265   4.209  0.8805 -1.1370 -0.0448
 3066SOL    HW220832   3.256   3.297   4.082  1.4748  1.0090 -2.9589
 3067SOL     OW20833   0.078   2.775   2.530 -0.4701  0.0975 -0.1346
 3067SOL    HW120834   0.049   2.685   2.544 -2.4619  0.7770  0.0486
 3067SOL    HW220835   0.158   2.755   2.482 -1.8595  0.0555 -2.4393
 3068SOL     OW20836   0.743   2.425   1.709 -0.3154 -0.2410 -0.2087
 3068SOL    HW120837   0.709   2.336   1.713 -0.8199  0.0444  1.7142
 3068SOL    HW220838   0.680   2.467   1.651  1.3947 -0.0700 -1.9289
 3069SOL     OW20839   1.233   0.814   5.599 -0.4739 -0.1936 -0.1212
 3069SOL    HW120840   1.229   0.879   5.529  2.8746  0.2983  0.1169
 3069SOL    HW220841   1.306   0.763   5.564  0.2604 -0.5232  1.8528
 3070SOL     OW20842   4.697   4.340  17.493  0.3054  0.1971 -0.0360
 3070SOL    HW120843   4.630   4.338  17.562  0.4699  0.2854  0.1266
 3070SOL    HW220844   4.652   4.300  17.419 -0.2450 -0.5591  0.7133
 3071SOL     OW20845   3.917   2.056  12.249  0.3833  0.4065  0.0209
 3071SOL    HW120846   3.897   2.146  12.276  2.0310  1.3704 -2.0032
 3071SOL    HW220847   4.011   2.062  12.261  0.4794 -1.5105  0.2280
 3072SOL     OW20848   4.546   4.429   8.911  0.4787 -0.2562 -0.3718
 3072SOL    HW120849   4.531   4.442   9.005  0.3556 -1.9476 -0.1607
 3072SOL    HW220850   4.641   4.418   8.908  0.6124 -0.4481  3.8138
 3073SOL     OW20851   3.015   0.601   7.579 -0.1174 -0.0169 -0.2453
 3073SOL    HW120852   2.952   0.674   7.578  0.2979  0.3588  0.8488
 3073SOL    HW220853   2.973   0.528   7.625 -0.3598 -1.2533 -2.4782
 3074SOL     OW20854   1.244   4.580   0.612 -0.3599 -0.1694  0.0539
 3074SOL    HW120855   1.155   4.550   0.631 -0.6761  0.2799 -0.7303
 3074SOL    HW220856   1.262   4.656   0.668 -0.9622  0.9521 -1.3020
 3075SOL     OW20857   4.582   1.141   8.206 -0.1538 -0.2486  0.5312
 3075SOL    HW120858   4.501   1.096   8.231  0.8917 -2.1687  0.4568
 3075SOL    HW220859   4.557   1.233   8.212 -2.1424 -0.6689 -1.1591
 3076SOL     OW20860   1.237   0.486   6.898 -0.0825 -0.4099 -0.0546
 3076SOL    HW120861   1.271   0.565   6.940 -1.2624 -0.5327  1.1584
 3076SOL    HW220862   1.154   0.474   6.944 -0.3306  0.7177 -0.2067
 3077SOL     OW20863   1.418   1.669   8.493 -0.1453  0.3202  0.3473
 3077SOL    HW120864   1.362   1.719   8.433 -3.2781 -2.8649  0.6585
 3077SOL    HW220865   1.358   1.668   8.567 -0.4615 -1.7155  0.0551
 3078SOL     OW20866   1.651   1.824  14.502 -0.9009 -0.3002  0.2774
 3078SOL    HW120867   1.737   1.787  14.481  0.3494  2.4516  0.6029
 3078SOL    HW220868   1.592   1.749  14.509 -0.2819 -0.8366 -0.2451
 3079SOL     OW20869   0.570   3.335   6.317  0.1784  0.0517  0.4176
 3079SOL    HW120870   0.631   3.383   6.372  0.2968  0.2996  0.0665
 3079SOL    HW220871   0.504   3.295   6.374 -0.1832  0.3616  0.2163
 3080SOL     OW20872   0.992   4.462   4.648  0.2238 -0.1472 -0.0418
 3080SOL    HW120873   0.920   4.520   4.672 -0.1289 -1.1321  1.2596
 3080SOL    HW220874   1.047   4.516   4.591 -0.1632 -0.7830 -1.0087
 3081SOL     OW20875   4.204   3.667  10.139  0.2450 -0.1296 -0.1513
 3081SOL    HW120876   4.274   3.655  10.074  1.1096 -1.7642  1.0860
 3081SOL    HW220877   4.212   3.576  10.167  0.6985 -0.4432 -1.3078
 3082SOL     OW20878   0.686   2.178   2.004  1.1428  0.0132  0.2306
 3082SOL    HW120879   0.705   2.128   1.925 -0.0982 -1.6468  0.9488
 3082SOL    HW220880   0.705   2.269   1.983  1.8916  0.6539  3.7313
 3083SOL     OW20881   2.567   4.116   2.901 -0.6621  0.1153  0.5251
 3083SOL    HW120882   2.623   4.063   2.957  1.9706  2.3875  0.0618
 3083SOL    HW220883   2.538   4.184   2.963  3.2409  0.4576  1.9789
 3084SOL     OW20884   0.191   3.295   8.186 -0.5582 -0.3736  0.0005
 3084SOL    HW120885   0.253   3.288   8.259 -0.6894  1.3437  0.2726
 3084SOL    HW220886   0.256   3.261   8.125  0.2428  0.3271  0.4758
 3085SOL     OW20887   0.377   1.696   1.957  0.1652 -1.2192  0.2989
 3085SOL    HW120888   0.340   1.655   1.879 -0.0384  0.8154 -0.6749
 3085SOL    HW220889   0.306   1.754   1.987  0.0841 -1.9093  1.4282
 3086SOL     OW20890   4.507   2.805   4.576 -0.0360 -0.7100 -0.2819
 3086SOL    HW120891   4.519   2.799   4.671  0.4973 -0.4194 -0.3281
 3086SOL    HW220892   4.425   2.762   4.555  0.0358 -0.6560 -0.6605
 3087SOL     OW20893   1.140   3.448   1.623 -0.1877 -0.4549 -0.1635
 3087SOL    HW120894   1.159   3.541   1.613 -0.2619 -0.2437  1.6968
 3087SOL    HW220895   1.135   3.422   1.531 -1.8365  1.7147 -0.6917
 3088SOL     OW20896   2.787   4.244   6.126  0.4587 -0.2377  0.2017
 3088SOL    HW120897   2.777   4.183   6.053 -0.4168  0.3996 -0.2164
 3088SOL    HW220898   2.728   4.204   6.189 -1.3241 -0.1007 -1.3992
 3089SOL     OW20899   3.905   0.827   7.710  0.1777  0.5252  0.2527
 3089SOL    HW120900   3.910   0.804   7.803 -1.2479 -1.3464 -0.1070
 3089SOL    HW220901   3.836   0.893   7.711 -0.2337  0.1421 -2.6155
 3090SOL     OW20902   0.284   1.985   2.229  0.1350  0.0918  0.1592
 3090SOL    HW120903   0.256   1.902   2.266 -2.2425  0.7294 -0.2146
 3090SOL    HW220904   0.372   1.956   2.205  0.7390  2.0221 -0.0126
 3091SOL     OW20905   4.705   4.657  16.105 -0.4343 -0.2899  0.1589
 3091SOL    HW120906   4.613   4.683  16.096 -0.1095 -0.1209 -2.8608
 3091SOL    HW220907   0.001   4.696  16.025  0.8514 -0.8414  0.4600
 3092SOL     OW20908   4.086   2.226  13.976  0.1116 -0.0156  0.4794
 3092SOL    HW120909   4.027   2.169  13.927  0.6551  1.1927 -1.5688
 3092SOL    HW220910   4.170   2.220  13.931 -0.2652  0.1352 -0.2420
 3093SOL     OW20911   3.460   0.630   3.803 -0.8990  0.1214 -0.3405
 3093SOL    HW120912   3.535   0.584   3.839 -1.5826 -0.7422 -0.0372
 3093SOL    HW220913   3.398   0.558   3.816 -0.5267 -0.1621 -0.1758
 3094SOL     OW20914   4.661   0.116   4.900  0.0291 -0.0314  0.1213
 3094SOL    HW120915   4.632   0.042   4.953  1.5945  0.1529  1.2222
 3094SOL    HW220916   4.583   0.126   4.845 -1.1737  0.9125  2.0284
 3095SOL     OW20917   4.046   4.330  13.873 -0.1921 -0.0172  0.0082
 3095SOL    HW120918   4.064   4.320  13.966 -0.4869  2.3039  0.3125
 3095SOL    HW220919   4.092   4.408  13.842 -2.0541  1.6596  1.4508
 3096SOL     OW20920   4.701   0.619   5.375  0.2386 -0.1431 -0.7683
 3096SOL    HW120921   4.693   0.714   5.378  0.6485 -0.1026 -0.9542
 3096SOL    HW220922   0.057   0.617   5.382  0.2351  1.7978 -0.1680
 3097SOL     OW20923   3.452   4.538   8.779  0.2041 -0.1919  0.0978
 3097SOL    HW120924   3.501   4.557   8.859 -0.5909 -1.5535  0.9055
 3097SOL    HW220925   3.395   4.613   8.768  0.1922 -0.3005 -0.6280
 3098SOL     OW20926   3.321   4.320   2.582  0.1281  0.6239 -0.7252
 3098SOL    HW120927   3.305   4.322   2.677 -1.1971 -0.1630 -0.9252
 3098SOL    HW220928   3.234   4.295   2.552  0.4335 -0.8990 -0.3364
 3099SOL     OW20929   1.061   2.669   4.447 -0.4022  0.0927 -0.1742
 3099SOL    HW120930   1.072   2.589   4.499  2.2275  1.4715  1.3830
 3099SOL    HW220931   1.025   2.728   4.514 -0.0246 -0.3092  0.3880
 3100SOL     OW20932   1.296   3.157   3.913  0.1691 -0.1817 -0.3519
 3100SOL    HW120933   1.290   3.181   4.006 -1.8582  0.1584 -0.5627
 3100SOL    HW220934   1.246   3.075   3.921 -0.4517  0.3334  1.0977
 3101SOL     OW20935   3.618   1.157  13.720  0.2172  0.3980 -0.6740
 3101SOL    HW120936   3.527   1.127  13.718  0.4727 -0.3224 -1.3239
 3101SOL    HW220937   3.624   1.204  13.636  1.9195 -4.0631 -3.0312
 3102SOL     OW20938   1.346   4.664   4.122 -0.0641  0.1904  0.5385
 3102SOL    HW120939   1.386   4.711   4.195 -0.4607  0.7378  0.4096
 3102SOL    HW220940   1.390   4.579   4.130 -0.4293 -0.1412 -0.9757
 3103SOL     OW20941   0.275   0.228   9.213 -0.2393 -0.4293 -0.3492
 3103SOL    HW120942   0.352   0.248   9.160  0.3981  0.9063  1.0821
 3103SOL    HW220943   0.315   0.174   9.281  1.7280  0.7995 -0.5562
 3104SOL     OW20944   4.240   2.313  12.195  0.1794 -0.3615  0.1178
 3104SOL    HW120945   4.332   2.332  12.176  0.1746 -0.5147 -0.0744
 3104SOL    HW220946   4.250   2.239  12.254 -2.2998 -0.7731  0.0128
 3105SOL     OW20947   2.305   3.817  14.021  0.2457  0.0460  0.2180
 3105SOL    HW120948   2.375   3.830  14.084 -1.6531  1.2812  2.0949
 3105SOL    HW220949   2.236   3.778  14.076 -0.8369  1.1576 -0.3424
 3106SOL     OW20950   3.659   1.736   5.899 -0.5207  0.1209  0.1191
 3106SOL    HW120951   3.649   1.644   5.921 -0.1983  0.2066  0.6267
 3106SOL    HW220952   3.642   1.780   5.983  0.2319  0.4248  0.1080
 3107SOL     OW20953   2.970   3.144   4.441 -0.1741 -0.4715 -0.2784
 3107SOL    HW120954   2.890   3.099   4.415 -1.5127  1.8391 -0.1062
 3107SOL    HW220955   3.014   3.071   4.485 -2.1219 -0.9619  0.8377
 3108SOL     OW20956   0.427   1.406  12.038 -0.6949  0.0327  0.2659
 3108SOL    HW120957   0.459   1.349  12.108 -1.5313 -2.4151 -1.3375
 3108SOL    HW220958   0.463   1.488  12.072 -2.0989  0.7120  0.1242
 3109SOL     OW20959   4.193   0.286   8.646  0.4085  0.1971 -0.0112
 3109SOL    HW120960   4.163   0.323   8.729 -0.1761  1.0054 -0.5783
 3109SOL    HW220961   4.264   0.345   8.620  0.8283 -0.1930  0.2534
 3110SOL     OW20962   1.185   3.677   3.804 -0.1167  0.2807 -0.2729
 3110SOL    HW120963   1.090   3.666   3.812 -0.3343  1.0475 -1.7982
 3110SOL    HW220964   1.205   3.585   3.817 -0.1015  0.6590  2.4931
 3111SOL     OW20965   4.267   3.684   1.731  0.1093  0.2813 -0.0459
 3111SOL    HW120966   4.263   3.601   1.780  0.4748 -0.5144 -1.3675
 3111SOL    HW220967   4.299   3.746   1.796 -1.0034  1.3829 -0.5587
 3112SOL     OW20968   4.550   0.639   7.309  0.2514 -0.3418  0.2172
 3112SOL    HW120969   4.542   0.558   7.258  0.3327  0.6147 -1.3368
 3112SOL    HW220970   4.545   0.601   7.396 -0.3652 -0.1537  0.2622
 3113SOL     OW20971   1.603   3.755  10.312 -0.3025  0.4809  0.0281
 3113SOL    HW120972   1.576   3.767  10.221 -2.9068 -1.5423  0.5257
 3113SOL    HW220973   1.690   3.794  10.315 -0.0103 -0.1512 -0.1901
 3114SOL     OW20974   0.535   4.648   3.251  0.7042  0.0380  0.3661
 3114SOL    HW120975   0.488   4.586   3.195  0.1818  0.1878  0.6404
 3114SOL    HW220976   0.525   4.603   3.334 -1.0563  1.5162  0.9570
 3115SOL     OW20977   2.511   1.760   7.009 -1.3954 -0.1921  0.2688
 3115SOL    HW120978   2.480   1.752   6.918 -2.8836 -1.2648  0.8885
 3115SOL    HW220979   2.458   1.830   7.047 -0.0912  1.8259 -1.5326
 3116SOL     OW20980   0.333   2.686   7.569  0.6426  0.8756  0.0969
 3116SOL    HW120981   0.392   2.613   7.585  1.0017  0.9062 -1.0848
 3116SOL    HW220982   0.322   2.728   7.654 -0.9969  1.1473 -0.2421
 3117SOL     OW20983   1.912   1.141   4.873 -0.5799 -0.2758  0.2459
 3117SOL    HW120984   1.930   1.057   4.832  0.3411 -0.7947  1.7352
 3117SOL    HW220985   1.837   1.177   4.826 -1.1111  1.0183  2.0828
 3118SOL     OW20986   1.008   3.861   3.210 -0.3933  0.1897  0.3290
 3118SOL    HW120987   1.031   3.796   3.143 -1.6733  2.7487 -2.5624
 3118SOL    HW220988   0.927   3.824   3.245 -0.4982 -0.4269 -0.5787
 3119SOL     OW20989   4.119   2.494   6.188  0.2055 -0.1158  0.1444
 3119SOL    HW120990   4.187   2.448   6.138  0.2601  0.5661 -0.4086
 3119SOL    HW220991   4.057   2.421   6.195 -1.3669  1.4450  2.4406
 3120SOL     OW20992   2.982   3.111   0.418 -0.0023  0.1322 -0.0457
 3120SOL    HW120993   2.962   3.116   0.324 -1.2764 -1.8039  0.1264
 3120SOL    HW220994   3.054   3.047   0.418 -2.2699 -2.4144 -2.1278
 3121SOL     OW20995   1.917   3.858   5.572  0.0676 -0.1955  0.1750
 3121SOL    HW120996   1.862   3.917   5.624 -1.0121 -2.0231  1.1104
 3121SOL    HW220997   1.944   3.811   5.652 -1.3059 -2.2113 -0.5686
 3122SOL     OW20998   0.660   0.983   6.659  0.5738  0.5414  0.1059
 3122SOL    HW120999   0.722   0.956   6.591 -1.5276 -0.5333 -1.4272
 3122SOL    HW221000   0.697   1.066   6.686  0.0115  0.1056  2.1611
 3123SOL     OW21001   2.276   2.169   0.181 -0.6375 -0.4455 -0.1220
 3123SOL    HW121002   2.312   2.253   0.211 -1.2255  0.1266 -1.0237
 3123SOL    HW221003   2.326   2.106   0.233  1.1213 -1.1461 -2.6952
 3124SOL     OW21004   3.494   0.973   6.512  0.7432  0.3040 -0.3514
 3124SOL    HW121005   3.424   1.029   6.547  1.4278  0.3380  0.9706
 3124SOL    HW221006   3.518   0.911   6.580 -0.1471  0.5193  0.1640
 3125SOL     OW21007   0.511   2.923  12.552  0.0517 -0.4084 -0.2241
 3125SOL    HW121008   0.579   2.931  12.618  0.9578  0.7659 -1.2906
 3125SOL    HW221009   0.567   2.945  12.478 -1.6430  0.0986 -1.3773
 3126SOL     OW21010   1.240   2.885   4.964  0.0566  0.0774  0.1656
 3126SOL    HW121011   1.214   2.797   4.940  0.8770 -0.3306  0.7707
 3126SOL    HW221012   1.307   2.897   4.895  0.4822 -1.4890  0.3194
 3127SOL     OW21013   0.328   3.030   2.073 -0.3018  0.0720  0.0350
 3127SOL    HW121014   0.337   3.045   2.167  2.1943 -1.4259  0.0191
 3127SOL    HW221015   0.233   3.019   2.065 -0.2785 -0.4682  0.5574
 3128SOL     OW21016   1.714   2.597   9.679 -1.0656 -0.7103  0.2334
 3128SOL    HW121017   1.771   2.653   9.732  0.9288 -1.3676 -1.2193
 3128SOL    HW221018   1.673   2.661   9.622  0.7450  0.3590  0.1248
 3129SOL     OW21019   0.505   2.166   2.403  0.1511 -0.1695 -0.0251
 3129SOL    HW121020   0.560   2.238   2.373 -0.7858  0.7272  0.4304
 3129SOL    HW221021   0.479   2.125   2.320 -0.3038  2.8901 -1.3660
 3130SOL     OW21022   4.714   0.814   4.972 -0.4367 -0.2970  0.3335
 3130SOL    HW121023   4.627   0.840   5.001  0.0402  1.6547  0.0083
 3130SOL    HW221024   0.028   0.889   4.997 -0.5588  0.0077 -0.3233
 3131SOL     OW21025   4.090   4.709  15.615  0.5728  0.1414  0.5124
 3131SOL    HW121026   4.042   0.025  15.555  0.7582  1.0494  1.2037
 3131SOL    HW221027   4.118   0.045  15.667 -1.9297  1.9765 -0.8083
 3132SOL     OW21028   0.633   1.369   9.272 -0.2354 -0.0826  0.3786
 3132SOL    HW121029   0.613   1.325   9.189 -1.3962  0.8086  0.1823
 3132SOL    HW221030   0.688   1.304   9.315  0.1494  0.2358  0.3677
 3133SOL     OW21031   4.643   1.235   7.163 -0.1347 -0.4038 -0.2619
 3133SOL    HW121032   4.555   1.216   7.196  0.8628 -0.3084  2.4753
 3133SOL    HW221033   4.633   1.327   7.141  0.7645 -0.4324 -0.7821
 3134SOL     OW21034   1.181   0.831   3.191 -0.3316  0.5476  0.1023
 3134SOL    HW121035   1.088   0.817   3.175 -0.1568 -0.3066 -0.1534
 3134SOL    HW221036   1.230   0.806   3.113 -0.1399 -2.8114  1.3157
 3135SOL     OW21037   0.863   3.032   4.729 -0.2832  0.2144  0.1657
 3135SOL    HW121038   0.799   3.091   4.769  1.7296  2.2078  0.4851
 3135SOL    HW221039   0.891   2.977   4.803 -0.3884 -1.1892 -0.8570
 3136SOL     OW21040   2.718   3.127   4.073 -0.1349 -0.3572  0.0232
 3136SOL    HW121041   2.672   3.071   4.135  0.6074 -0.5361  0.4130
 3136SOL    HW221042   2.738   3.069   3.999  1.7103  0.9722 -0.5487
 3137SOL     OW21043   4.163   3.197  13.762 -0.2621  0.3761  0.2614
 3137SOL    HW121044   4.218   3.246  13.822  0.2375 -0.2006  0.2743
 3137SOL    HW221045   4.082   3.187  13.812  0.3989 -1.7388  0.8820
 3138SOL     OW21046   4.263   1.669   7.799  0.0924  0.5798  0.2053
 3138SOL    HW121047   4.186   1.690   7.852  0.8727  0.5165  1.3670
 3138SOL    HW221048   4.316   1.745   7.824  1.0852  0.1253 -0.5287
 3139SOL     OW21049   1.507   1.043   5.885  0.3902  0.2493  0.4183
 3139SOL    HW121050   1.514   0.948   5.876 -0.6702  0.2612 -0.5108
 3139SOL    HW221051   1.434   1.057   5.825 -1.4126 -1.9435  2.1058
 3140SOL     OW21052   4.451   2.476  14.503  0.9016  0.0624  0.1807
 3140SOL    HW121053   4.468   2.566  14.533  1.2661  0.2366 -0.5511
 3140SOL    HW221054   4.486   2.492  14.415 -0.3226  3.4719  0.2939
 3141SOL     OW21055   3.904   4.180   1.882 -0.2276  0.5282 -0.0259
 3141SOL    HW121056   3.977   4.117   1.887  0.1774  1.0700  0.9629
 3141SOL    HW221057   3.865   4.152   1.800  1.7694  0.9394 -1.1255
 3142SOL     OW21058   0.870   0.894   1.201  0.1970  0.0971 -0.0714
 3142SOL    HW121059   0.932   0.955   1.241  2.5451 -1.4615 -1.3414
 3142SOL    HW221060   0.784   0.904   1.242  0.5422  3.0705 -0.0623
 3143SOL     OW21061   1.818   0.284  11.767 -0.1242 -0.4849  0.1340
 3143SOL    HW121062   1.904   0.281  11.810 -1.2886 -0.3103  2.4539
 3143SOL    HW221063   1.764   0.272  11.845 -1.9999 -1.5969 -1.3482
 3144SOL     OW21064   0.485   0.545   5.965 -0.7410 -0.2407  0.8258
 3144SOL    HW121065   0.502   0.547   6.059 -1.6167  2.0239  0.9227
 3144SOL    HW221066   0.555   0.603   5.935 -0.9547 -0.5718 -0.3221
 3145SOL     OW21067   2.510   0.019  13.580  0.2156  0.4420 -0.0357
 3145SOL    HW121068   2.488   4.739  13.490  0.0701 -1.3783  0.3979
 3145SOL    HW221069   2.555   0.099  13.552  0.6672  1.0631  2.4480
 3146SOL     OW21070   0.549   1.430   1.687  0.0475  0.2093 -0.1866
 3146SOL    HW121071   0.455   1.420   1.677  0.1986 -2.1073  0.7374
 3146SOL    HW221072   0.553   1.403   1.778  0.1643  0.6221 -0.0700
 3147SOL     OW21073   0.804   2.519   2.904 -0.6660 -0.1338 -0.0561
 3147SOL    HW121074   0.803   2.492   2.996 -0.3138 -1.9709 -0.5854
 3147SOL    HW221075   0.792   2.434   2.862 -0.1245 -0.5567  0.6521
 3148SOL     OW21076   4.611   4.112  12.139  0.1972  0.2765 -0.2750
 3148SOL    HW121077   4.534   4.122  12.084 -0.6932 -0.2062  0.8846
 3148SOL    HW221078   4.634   4.020  12.126 -1.2833 -0.4903  2.4942
 3149SOL     OW21079   2.957   1.470  16.207  0.1095 -0.7087  0.2239
 3149SOL    HW121080   2.984   1.451  16.117 -0.0455 -0.7662  0.1883
 3149SOL    HW221081   2.924   1.384  16.234  0.3654 -0.5496  1.0474
 3150SOL     OW21082   3.974   0.842   5.040 -0.2065  0.1218 -0.4029
 3150SOL    HW121083   4.070   0.843   5.038 -0.1208 -2.7102  3.3037
 3150SOL    HW221084   3.962   0.762   5.091  1.2651 -0.2171 -0.6094
 3151SOL     OW21085   0.196   3.305   4.853 -0.4590 -0.6843 -0.2441
 3151SOL    HW121086   0.156   3.383   4.891 -0.6189 -1.1380  0.5201
 3151SOL    HW221087   0.260   3.344   4.793  0.6635  0.2472  1.5611
 3152SOL     OW21088   2.568   3.428  16.863  0.3126  0.1271 -0.1083
 3152SOL    HW121089   2.489   3.471  16.894  0.6472  0.8446 -0.2565
 3152SOL    HW221090   2.619   3.437  16.944  0.6583  1.1044 -0.4359
 3153SOL     OW21091   2.516   4.188  11.755  0.0938  0.0780 -0.4625
 3153SOL    HW121092   2.573   4.264  11.760 -0.1752  0.2241  0.4075
 3153SOL    HW221093   2.438   4.219  11.802 -0.2570 -0.9130 -0.3704
 3154SOL     OW21094   4.593   4.231  14.189  0.5957  0.2667 -0.1568
 3154SOL    HW121095   4.520   4.250  14.130  0.4916 -1.2206 -0.5244
 3154SOL    HW221096   4.667   4.274  14.147  0.6436  1.3923  1.0884
 3155SOL     OW21097   1.227   2.405   5.159  0.5121 -0.2432  0.1243
 3155SOL    HW121098   1.207   2.481   5.214  0.3253  1.0915 -1.7979
 3155SOL    HW221099   1.322   2.406   5.159  0.5142 -0.7514 -2.3542
 3156SOL     OW21100   4.393   3.900   7.957 -0.1818  0.3773 -0.1738
 3156SOL    HW121101   4.312   3.928   7.914 -2.0046 -2.0854  1.6301
 3156SOL    HW221102   4.415   3.836   7.890 -1.8914 -0.5418  0.1485
 3157SOL     OW21103   1.841   0.662   4.650 -1.1203 -0.3566 -0.2542
 3157SOL    HW121104   1.878   0.713   4.578 -0.9655  1.8143  1.3617
 3157SOL    HW221105   1.886   0.584   4.618 -1.4702 -0.5275 -0.3343
 3158SOL     OW21106   0.665   3.450   3.852  0.2467 -0.6215 -0.0549
 3158SOL    HW121107   0.677   3.355   3.856 -0.8830 -0.7147  1.0024
 3158SOL    HW221108   0.693   3.462   3.761  0.6274  3.0898  0.5206
 3159SOL     OW21109   2.660   3.500  10.198  0.0651  0.4982 -0.4309
 3159SOL    HW121110   2.745   3.544  10.204 -0.0351  0.6345 -0.0088
 3159SOL    HW221111   2.612   3.540  10.270 -0.2200  0.1086 -0.4063
 3160SOL     OW21112   2.198   0.997  11.382 -0.3070  0.2143  0.3577
 3160SOL    HW121113   2.234   1.063  11.440 -0.4965 -0.3090  1.0683
 3160SOL    HW221114   2.130   0.960  11.439  1.2552 -3.2862 -0.0198
 3161SOL     OW21115   1.290   0.459   9.035 -0.1958  0.4273  0.3074
 3161SOL    HW121116   1.255   0.412   8.959 -0.3200  1.3506 -0.2019
 3161SOL    HW221117   1.249   0.545   9.030  0.4880  0.6332 -2.1415
 3162SOL     OW21118   4.319   1.324   2.189 -0.3157 -0.1843 -0.2222
 3162SOL    HW121119   4.406   1.327   2.149 -1.4707  1.3391 -2.6498
 3162SOL    HW221120   4.277   1.240   2.173  0.6905 -0.6576 -0.3850
 3163SOL     OW21121   3.325   0.324  10.598  0.1509 -0.5861  0.1075
 3163SOL    HW121122   3.250   0.313  10.656 -1.1978  4.2718 -0.7332
 3163SOL    HW221123   3.390   0.274  10.647 -0.4225 -0.5400  0.9113
 3164SOL     OW21124   3.777   3.237   6.523  0.8254  0.2134 -0.8139
 3164SOL    HW121125   3.758   3.149   6.490 -1.5995  1.1448 -1.9409
 3164SOL    HW221126   3.743   3.216   6.610 -0.9582  1.7527 -1.1359
 3165SOL     OW21127   1.335   1.032   5.172  0.7190  0.2029  0.5128
 3165SOL    HW121128   1.393   1.101   5.204  0.6758  0.5986 -0.2726
 3165SOL    HW221129   1.275   1.072   5.109  0.8468  2.0241  1.5372
 3166SOL     OW21130   1.174   0.452   8.008  0.0937  0.3714  0.0796
 3166SOL    HW121131   1.209   0.456   7.920 -0.0450 -2.0065 -0.0722
 3166SOL    HW221132   1.239   0.393   8.046 -0.5840  0.0520  0.7636
 3167SOL     OW21133   3.140   1.855   2.770 -0.4128 -0.1390 -0.5002
 3167SOL    HW121134   3.169   1.858   2.862  0.6207 -2.0757 -0.7603
 3167SOL    HW221135   3.073   1.923   2.764 -0.5872 -0.2477  0.1564
 3168SOL     OW21136   0.909   1.380   6.486 -0.2361 -0.0125  0.2352
 3168SOL    HW121137   0.869   1.442   6.548 -2.1210  0.0740 -1.0539
 3168SOL    HW221138   0.996   1.419   6.484 -0.4967  0.4059 -2.7423
 3169SOL     OW21139   0.459   1.830   8.553  0.2570 -0.0263  0.1331
 3169SOL    HW121140   0.547   1.857   8.527  0.0393 -1.4736 -2.0806
 3169SOL    HW221141   0.431   1.878   8.631 -0.2711 -0.9199  0.4949
 3170SOL     OW21142   1.657   3.636   5.280 -0.4262 -0.3475  0.1824
 3170SOL    HW121143   1.728   3.572   5.274 -2.9057 -3.0788  0.1885
 3170SOL    HW221144   1.591   3.590   5.229 -1.1155 -0.1416  0.8995
 3171SOL     OW21145   3.905   0.572   5.103 -0.3724 -0.4809 -0.3061
 3171SOL    HW121146   3.869   0.546   5.019 -1.4454  0.4599 -0.1368
 3171SOL    HW221147   3.826   0.568   5.157 -0.6158 -0.0416 -0.6302
 3172SOL     OW21148   2.504   0.373   9.616 -0.1205  0.2037  0.6851
 3172SOL    HW121149   2.565   0.320   9.667 -0.9213 -2.8695 -1.5685
 3172SOL    HW221150   2.523   0.335   9.531  1.7837  0.3842  1.0404
 3173SOL     OW21151   2.784   3.765   8.668 -0.1786  0.2444 -0.2225
 3173SOL    HW121152   2.744   3.681   8.690 -2.1729  1.6857  1.5988
 3173SOL    HW221153   2.834   3.740   8.591  0.5317  1.5076 -0.1701
 3174SOL     OW21154   4.299   3.788   3.118 -0.0602 -0.1495 -0.6770
 3174SOL    HW121155   4.246   3.720   3.160  0.1155 -1.4786 -2.5519
 3174SOL    HW221156   4.279   3.776   3.025  0.9633 -0.3330 -0.8776
 3175SOL     OW21157   2.399   2.091   9.302  0.2408  0.0007  0.3379
 3175SOL    HW121158   2.395   2.008   9.254 -1.0522 -1.7348  3.4205
 3175SOL    HW221159   2.331   2.077   9.368 -0.9349 -0.6594 -1.0008
 3176SOL     OW21160   0.958   1.734   7.708  0.5163 -0.5128  0.6244
 3176SOL    HW121161   0.921   1.678   7.777  0.4402  0.5410  1.4354
 3176SOL    HW221162   0.921   1.818   7.736  0.9890  0.8947 -2.9421
 3177SOL     OW21163   0.623   0.358   4.505 -0.1564 -0.0469  0.1965
 3177SOL    HW121164   0.653   0.446   4.481  3.7869 -1.3937  0.1159
 3177SOL    HW221165   0.540   0.349   4.459 -0.8229  0.2762  1.3516
 3178SOL     OW21166   2.619   4.162   5.398  0.6857  0.0720 -0.3910
 3178SOL    HW121167   2.540   4.130   5.440 -1.0285  3.0660 -1.3608
 3178SOL    HW221168   2.639   4.091   5.337 -1.7614 -1.2642  0.3888
 3179SOL     OW21169   1.773   2.885  12.614  0.2125  0.3151 -0.2500
 3179SOL    HW121170   1.854   2.840  12.590  0.1135  1.2655 -2.3254
 3179SOL    HW221171   1.729   2.818  12.667 -2.6433  2.4282  0.0510
 3180SOL     OW21172   2.165   4.026   8.216  0.8178 -0.1085  0.1291
 3180SOL    HW121173   2.193   4.116   8.233  3.2057 -1.2396  2.2279
 3180SOL    HW221174   2.241   3.985   8.175  0.9236  1.6198 -1.3751
 3181SOL     OW21175   1.158   0.200   3.454 -0.0474  0.0508  0.4879
 3181SOL    HW121176   1.182   0.121   3.502 -0.3645  1.5940  3.2406
 3181SOL    HW221177   1.228   0.259   3.484 -1.3736  1.1939  1.3456
 3182SOL     OW21178   2.852   4.621  17.446  0.7518  0.7253  0.0200
 3182SOL    HW121179   2.804   4.702  17.429  0.7767  0.4559 -1.3381
 3182SOL    HW221180   2.851   4.585  17.358 -0.5030  1.1095 -0.1241
 3183SOL     OW21181   2.696   2.451   2.109  0.3368  0.4616 -0.0817
 3183SOL    HW121182   2.610   2.410   2.118  1.4117 -1.3954  1.6283
 3183SOL    HW221183   2.697   2.496   2.193 -0.0002 -0.6877  0.5451
 3184SOL     OW21184   3.507   3.838  16.323  0.4556  0.0467  0.1196
 3184SOL    HW121185   3.434   3.899  16.326 -0.1348 -0.7270  1.5609
 3184SOL    HW221186   3.556   3.890  16.259  1.4738 -0.1921  0.7152
 3185SOL     OW21187   2.880   0.144   2.259 -0.1244  0.4562 -0.1788
 3185SOL    HW121188   2.860   0.086   2.185  1.3739 -1.7757  1.1800
 3185SOL    HW221189   2.789   0.161   2.282 -0.3935 -0.2109 -0.7350
 3186SOL     OW21190   0.674   3.925   3.673 -0.0042  0.8915  0.0692
 3186SOL    HW121191   0.583   3.914   3.701  0.4555 -1.0846  0.8098
 3186SOL    HW221192   0.683   4.019   3.690 -0.4200  0.4825  2.5866
 3187SOL     OW21193   1.255   3.721   4.079  0.1236 -0.0064 -0.3797
 3187SOL    HW121194   1.312   3.647   4.056  3.8221  2.3091  1.3602
 3187SOL    HW221195   1.219   3.723   3.991 -0.3443 -2.0382 -0.2421
 3188SOL     OW21196   3.506   3.049   5.553  0.0928 -0.2940  0.1307
 3188SOL    HW121197   3.582   3.054   5.495 -0.4372 -0.1468 -0.5502
 3188SOL    HW221198   3.549   3.025   5.635 -1.2766  1.2665  1.3211
 3189SOL     OW21199   3.272   2.802   6.036 -0.3892 -0.2067 -0.1959
 3189SOL    HW121200   3.313   2.809   5.950  3.5369 -3.8557  1.3670
 3189SOL    HW221201   3.291   2.888   6.072 -2.6519  0.3821 -0.3646
 3190SOL     OW21202   3.333   2.311   4.263 -0.5999 -0.3169  0.1503
 3190SOL    HW121203   3.336   2.259   4.183 -0.2503 -2.1117  1.3045
 3190SOL    HW221204   3.408   2.371   4.255  0.1603 -1.3235 -0.2707
 3191SOL     OW21205   0.290   1.984   7.330 -0.3029 -0.1545 -0.1212
 3191SOL    HW121206   0.304   2.075   7.358 -1.6730 -0.7306  2.4234
 3191SOL    HW221207   0.256   2.000   7.242 -2.4017 -1.5784  0.4290
 3192SOL     OW21208   2.846   3.348   6.093  0.1485 -0.1220  0.3582
 3192SOL    HW121209   2.832   3.281   6.026  1.2768  1.5206 -1.4813
 3192SOL    HW221210   2.829   3.289   6.167  0.6056  0.1243  0.6614
 3193SOL     OW21211   0.880   4.109  11.438  0.3212  0.0545 -0.5119
 3193SOL    HW121212   0.940   4.136  11.508 -0.6380  2.3111 -0.5837
 3193SOL    HW221213   0.811   4.064  11.487 -1.0846 -0.0366 -2.5732
 3194SOL     OW21214   0.140   1.362  16.876  0.4509  0.1530 -0.6286
 3194SOL    HW121215   0.185   1.367  16.960 -0.3363  0.4826 -0.2276
 3194SOL    HW221216   0.212   1.380  16.815  2.1013 -0.1556  1.2147
 3195SOL     OW21217   0.253   1.005   5.304  0.0625  0.4119  0.2372
 3195SOL    HW121218   0.322   1.060   5.341 -0.5001  1.8389 -0.8334
 3195SOL    HW221219   0.289   0.965   5.225  0.4062  2.3533 -0.5766
 3196SOL     OW21220   0.725   4.381   0.543  0.4020  0.3486  0.3902
 3196SOL    HW121221   0.631   4.377   0.527  0.5221 -1.5852  0.2315
 3196SOL    HW221222   0.759   4.299   0.508  1.1982 -0.0802  2.1921
 3197SOL     OW21223   1.426   1.976  15.600  0.3121 -0.1149 -0.1902
 3197SOL    HW121224   1.438   2.069  15.615  2.1735 -0.3660 -0.1939
 3197SOL    HW221225   1.376   1.946  15.677  0.0030 -2.7863 -1.4239
 3198SOL     OW21226   0.093   1.901   4.044 -0.1864  0.1193  0.1509
 3198SOL    HW121227   0.043   1.820   4.030  0.0095 -0.3453  2.0014
 3198SOL    HW221228   0.030   1.947   4.099  0.7175  0.2036  1.1151
 3199SOL     OW21229   3.242   0.861  16.659 -0.0321  0.0636 -0.2027
 3199SOL    HW121230   3.204   0.833  16.575  0.3233 -0.7835 -0.0840
 3199SOL    HW221231   3.337   0.852  16.650  0.0480  0.9482 -0.1929
 3200SOL     OW21232   0.376   3.037   4.773 -0.6328 -0.2831 -0.0385
 3200SOL    HW121233   0.425   3.051   4.691 -0.8086  0.3795 -0.0289
 3200SOL    HW221234   0.387   3.122   4.815  2.2083  0.2824 -1.9173
 3201SOL     OW21235   3.056   0.599   6.119 -0.1446 -0.5204  0.3156
 3201SOL    HW121236   3.089   0.653   6.190 -0.0548 -0.6197  0.3494
 3201SOL    HW221237   3.134   0.549   6.095  0.5688 -0.5472  2.6818
 3202SOL     OW21238   1.956   1.967  15.547  0.2839  0.0446  0.8265
 3202SOL    HW121239   1.967   1.993  15.638 -1.0362 -0.4379  1.1291
 3202SOL    HW221240   1.863   1.987  15.534  0.1007 -0.9259  0.6085
 3203SOL     OW21241   2.483   3.024   1.656 -0.1182 -0.2691 -0.0543
 3203SOL    HW121242   2.447   3.032   1.744 -0.3331 -1.0613 -0.0666
 3203SOL    HW221243   2.431   3.092   1.614  1.5739  0.9939 -0.1096
 3204SOL     OW21244   1.328   0.739   7.812  0.0769  0.1751  0.0103
 3204SOL    HW121245   1.301   0.801   7.745 -0.9277  0.2822  0.5209
 3204SOL    HW221246   1.279   0.662   7.782 -2.0456  1.8426 -0.7851
 3205SOL     OW21247   3.081   2.458  11.921  0.7874  0.5741  0.3034
 3205SOL    HW121248   3.162   2.488  11.881  0.2422  2.6483  0.7672
 3205SOL    HW221249   3.033   2.431  11.843  2.6792  1.0474 -1.0102
 3206SOL     OW21250   1.692   3.840   8.111  0.5932  0.2360 -0.0120
 3206SOL    HW121251   1.741   3.836   8.192  1.0778  1.5751 -0.2421
 3206SOL    HW221252   1.706   3.764   8.054  1.9186  0.2066  0.3649
 3207SOL     OW21253   2.819   0.837   2.839 -0.5764  0.5815  0.6319
 3207SOL    HW121254   2.864   0.788   2.908 -2.3243 -0.8184  0.7614
 3207SOL    HW221255   2.887   0.903   2.823 -0.4644  0.6919  1.5190
 3208SOL     OW21256   2.555   0.817  13.565  0.3213  0.0754 -0.0973
 3208SOL    HW121257   2.564   0.904  13.526 -1.6577  0.1994 -0.2520
 3208SOL    HW221258   2.465   0.822  13.596 -0.0956 -0.6842 -1.2045
 3209SOL     OW21259   4.715   2.540   3.124 -0.4852  0.4291  0.6341
 3209SOL    HW121260   4.739   2.475   3.058  0.0921  1.8540 -0.5637
 3209SOL    HW221261   0.037   2.609   3.100  0.0914 -0.8917 -1.6243
 3210SOL     OW21262   2.238   1.682   4.091 -0.6284 -0.7122 -0.1317
 3210SOL    HW121263   2.214   1.593   4.116 -0.5303 -0.3991  1.0770
 3210SOL    HW221264   2.187   1.699   4.012 -1.8584  2.3266  1.3280
 3211SOL     OW21265   3.911   1.760   2.474 -0.1552  0.1649 -0.2026
 3211SOL    HW121266   3.917   1.855   2.475  0.3560  0.1271  0.2525
 3211SOL    HW221267   3.835   1.743   2.419 -1.0995 -0.2785  1.2441
 3212SOL     OW21268   3.594   1.052   4.756 -0.0849 -0.2152  0.4306
 3212SOL    HW121269   3.575   1.009   4.840 -1.0453 -3.9477 -1.6745
 3212SOL    HW221270   3.506   1.061   4.721  0.4802  0.1740 -0.9034
 3213SOL     OW21271   0.254   2.363   7.121  0.5322  0.5134  0.0856
 3213SOL    HW121272   0.325   2.314   7.162 -0.0560  1.0756  1.7527
 3213SOL    HW221273   0.304   2.440   7.094 -0.6849  1.0824 -0.5524
 3214SOL     OW21274   2.772   0.253   8.605  0.3920  0.0298 -0.3657
 3214SOL    HW121275   2.700   0.203   8.644 -0.0932  0.4292 -0.7530
 3214SOL    HW221276   2.826   0.184   8.568  1.6052  0.3878  0.7152
 3215SOL     OW21277   4.628   3.244  16.560 -0.2288 -0.2964 -0.5263
 3215SOL    HW121278   4.684   3.167  16.561  0.2997  0.0949  0.7461
 3215SOL    HW221279   4.674   3.298  16.625 -1.0810 -0.5530  0.3000
 3216SOL     OW21280   4.383   4.087   6.490 -0.4319  0.0253  0.4157
 3216SOL    HW121281   4.421   4.002   6.469  2.4381  1.3520  0.1861
 3216SOL    HW221282   4.375   4.073   6.584 -1.4224  2.0036  0.6351
 3217SOL     OW21283   1.112   2.990  12.306  0.2057 -0.3596 -0.6589
 3217SOL    HW121284   1.039   2.995  12.368 -0.8491 -0.1504 -1.9079
 3217SOL    HW221285   1.123   2.896  12.291  0.4868 -0.7890  2.2494
 3218SOL     OW21286   1.154   1.591   6.528 -0.2816 -0.4039 -0.3373
 3218SOL    HW121287   1.147   1.567   6.620 -1.7026  0.1687 -0.3083
 3218SOL    HW221288   1.250   1.593   6.522 -0.2887  0.0519 -0.2549
 3219SOL     OW21289   0.400   3.458   5.483 -0.4438 -0.2808 -0.1832
 3219SOL    HW121290   0.470   3.518   5.457 -0.1646 -0.2444  0.6601
 3219SOL    HW221291   0.409   3.391   5.415 -0.0124  0.3832 -0.7781
 3220SOL     OW21292   4.464   4.007   3.706  0.7351 -0.3988  0.1940
 3220SOL    HW121293   4.514   4.053   3.773  1.9917 -1.2114 -0.1888
 3220SOL    HW221294   4.479   3.917   3.735  0.6616 -1.0433 -1.7480
 3221SOL     OW21295   2.738   4.616  12.069  0.4708  0.0591  0.3761
 3221SOL    HW121296   2.793   4.537  12.068  0.0299 -0.2394 -1.6512
 3221SOL    HW221297   2.789   4.666  12.132  0.8284  1.4773 -1.0543
 3222SOL     OW21298   0.914   1.761   8.979  0.1135 -0.1485  0.2044
 3222SOL    HW121299   0.863   1.703   8.923 -1.6377  2.8558 -1.3027
 3222SOL    HW221300   0.914   1.713   9.061  0.3036 -0.6393 -0.0858
 3223SOL     OW21301   0.887   3.628   6.083 -0.1842 -0.4087  0.2864
 3223SOL    HW121302   0.840   3.619   6.166 -0.6793 -2.9434 -0.2695
 3223SOL    HW221303   0.980   3.637   6.105 -0.4069 -0.3728  1.2190
 3224SOL     OW21304   4.541   3.113   4.289 -0.3397  0.8745  0.6528
 3224SOL    HW121305   4.583   3.196   4.267 -0.5271  1.0229  0.8523
 3224SOL    HW221306   4.580   3.099   4.375  1.1882 -3.2801 -0.7280
 3225SOL     OW21307   3.225   3.878   4.761  0.0153  0.0571  0.2572
 3225SOL    HW121308   3.304   3.903   4.810 -1.0751  0.7929  1.6305
 3225SOL    HW221309   3.257   3.845   4.677  1.8784 -0.4952  1.1811
 3226SOL     OW21310   3.503   0.726   4.427  0.4833  0.3704 -0.1267
 3226SOL    HW121311   3.427   0.740   4.485  0.4969  1.8218 -0.4583
 3226SOL    HW221312   3.536   0.816   4.420 -1.4995  1.0168 -1.2862
 3227SOL     OW21313   0.653   3.623   7.645 -0.3254 -0.5235  0.6320
 3227SOL    HW121314   0.733   3.625   7.696  1.0950  2.1740 -1.7013
 3227SOL    HW221315   0.664   3.533   7.612  0.8638 -0.2052  0.1667
 3228SOL     OW21316   3.826   4.195   3.081  0.4105  0.7018 -0.0294
 3228SOL    HW121317   3.777   4.172   3.161 -1.1101 -0.4512 -1.2872
 3228SOL    HW221318   3.914   4.165   3.103 -0.2712 -0.7739  0.7679
 3229SOL     OW21319   1.920   3.472   8.755 -0.2253 -0.2208 -0.3569
 3229SOL    HW121320   2.000   3.497   8.801 -0.4299  1.8502 -1.1341
 3229SOL    HW221321   1.889   3.404   8.815  1.4974 -1.4756 -0.8931
 3230SOL     OW21322   2.026   2.022   2.659  0.1165  0.0743  0.0141
 3230SOL    HW121323   2.078   1.947   2.687 -0.2723 -0.6774 -1.2447
 3230SOL    HW221324   2.013   2.005   2.566  1.7920 -0.9223 -0.0270
 3231SOL     OW21325   2.807   1.292   7.675  0.1537  0.1382 -0.3455
 3231SOL    HW121326   2.758   1.370   7.649 -1.6791 -0.4185  1.4866
 3231SOL    HW221327   2.834   1.264   7.587  1.4598 -1.4634  0.5603
 3232SOL     OW21328   4.408   0.646   4.394 -0.0386  0.1788  0.0082
 3232SOL    HW121329   4.465   0.612   4.462 -0.5648  0.1733  0.4467
 3232SOL    HW221330   4.478   0.669   4.333 -0.7520  2.3360  0.0212
 3233SOL     OW21331   0.182   3.133   3.564 -0.0935 -0.1463  0.1414
 3233SOL    HW121332   0.155   3.222   3.589  2.5851  0.0715  2.2560
 3233SOL    HW221333   0.162   3.090   3.648 -1.3259  1.2373  0.5732
 3234SOL     OW21334   4.715   3.244   5.805 -0.5470 -0.0593  0.1090
 3234SOL    HW121335   4.710   3.216   5.896 -0.4612  1.9438  0.7432
 3234SOL    HW221336   4.639   3.302   5.807  0.2988  0.9778  2.6014
 3235SOL     OW21337   4.586   3.626   4.255 -0.3774 -0.4579 -0.4269
 3235SOL    HW121338   4.511   3.684   4.243  1.5166  1.8109 -1.4221
 3235SOL    HW221339   4.584   3.610   4.349  1.3002  3.0182  0.2172
 3236SOL     OW21340   2.444   1.934  12.301 -0.0580  0.6735 -0.1708
 3236SOL    HW121341   2.441   1.973  12.213 -1.7676  0.7278 -0.0852
 3236SOL    HW221342   2.537   1.910  12.311 -0.0919 -0.3235 -2.2329
 3237SOL     OW21343   2.546   0.129   8.675 -0.2060  0.0442  0.2078
 3237SOL    HW121344   2.491   0.104   8.749  1.1875  0.1584  1.2870
 3237SOL    HW221345   2.492   0.151   8.599  1.5286  2.4066 -0.3425
 3238SOL     OW21346   2.919   4.528  12.561 -0.1566 -0.4074  0.0547
 3238SOL    HW121347   2.997   4.579  12.584 -0.5280  1.0644 -1.8958
 3238SOL    HW221348   2.869   4.519  12.642 -1.5207 -0.3214 -0.7777
 3239SOL     OW21349   2.434   0.376   7.773 -0.2124 -0.4722 -0.0370
 3239SOL    HW121350   2.470   0.392   7.860 -0.7856 -2.1827  0.5219
 3239SOL    HW221351   2.339   0.372   7.787  0.3450 -0.6918  3.7592
 3240SOL     OW21352   0.163   1.684   7.621 -0.1194  0.2560 -0.0306
 3240SOL    HW121353   0.174   1.644   7.535  0.0216  0.5244 -0.1399
 3240SOL    HW221354   0.090   1.744   7.607 -0.9496 -0.3941  1.4922
 3241SOL     OW21355   4.349   2.255  13.676 -0.2069 -0.4048  0.2969
 3241SOL    HW121356   4.316   2.339  13.709 -1.4031 -1.0853  0.8613
 3241SOL    HW221357   4.362   2.206  13.757  0.2090  0.4526  0.7590
 3242SOL     OW21358   0.836   1.359   8.119  0.8342 -0.3383  0.1742
 3242SOL    HW121359   0.821   1.453   8.133  0.8032 -0.1629 -1.0548
 3242SOL    HW221360   0.833   1.327   8.210 -2.4229 -0.7962 -0.0813
 3243SOL     OW21361   1.034   1.312   3.811  0.1714  0.2134  1.1356
 3243SOL    HW121362   1.012   1.405   3.811  0.0842  0.1920  1.3556
 3243SOL    HW221363   0.966   1.272   3.865  0.0370  0.0980  0.8820
 3244SOL     OW21364   3.468   3.242  16.228  0.0007  0.9536  0.0042
 3244SOL    HW121365   3.545   3.286  16.192 -0.2070  0.0301 -1.5406
 3244SOL    HW221366   3.509   3.193  16.300  2.1449  0.1585 -1.7580
 3245SOL     OW21367   2.574   2.920   4.910  0.2543 -0.1099  0.2120
 3245SOL    HW121368   2.660   2.908   4.872 -0.1358 -1.5131 -0.2205
 3245SOL    HW221369   2.536   2.989   4.855  0.6086  0.4880  0.7122
 3246SOL     OW21370   0.718   1.043   6.090 -0.5398 -0.1770  0.8652
 3246SOL    HW121371   0.767   1.080   6.016 -1.7653  0.2028  0.2316
 3246SOL    HW221372   0.765   1.097   6.152  0.0996 -1.2323  1.2944
 3247SOL     OW21373   1.641   3.039   2.492 -0.1519 -0.4513 -0.3495
 3247SOL    HW121374   1.607   3.015   2.406  1.2634  1.4125 -1.4415
 3247SOL    HW221375   1.735   3.041   2.476  0.4629  1.8266  3.5453
 3248SOL     OW21376   2.418   3.296   8.998 -0.6787 -0.4664 -0.3654
 3248SOL    HW121377   2.454   3.264   9.081 -1.0057 -0.3034 -0.1609
 3248SOL    HW221378   2.449   3.231   8.935  0.4480 -0.9198  0.6321
 3249SOL     OW21379   4.579   4.029   3.206 -0.1834  0.4781 -0.1834
 3249SOL    HW121380   4.623   4.073   3.134  1.6218 -0.6946  0.2105
 3249SOL    HW221381   4.551   4.106   3.255 -1.4682  0.5603 -1.0572
 3250SOL     OW21382   1.541   0.953   1.188 -0.4650 -0.0454 -0.3172
 3250SOL    HW121383   1.553   0.996   1.103  1.5527  3.4891  1.7591
 3250SOL    HW221384   1.450   0.923   1.181 -0.9301  1.7404 -2.0625
 3251SOL     OW21385   0.495   4.216  11.144  0.8585 -0.1913  0.1843
 3251SOL    HW121386   0.578   4.262  11.129 -0.3663  1.3691 -1.7955
 3251SOL    HW221387   0.442   4.271  11.087 -0.9055 -3.5539 -1.3917
 3252SOL     OW21388   2.167   1.975  12.709 -0.3670 -0.1707 -0.5009
 3252SOL    HW121389   2.190   1.966  12.802  1.3116 -1.1700 -1.0063
 3252SOL    HW221390   2.172   1.886  12.675 -0.4491 -0.5014  0.3648
 3253SOL     OW21391   3.784   1.926   8.472 -0.9510  0.8959  0.5408
 3253SOL    HW121392   3.765   1.895   8.561 -1.4505 -0.9333 -0.1919
 3253SOL    HW221393   3.695   1.918   8.436 -0.7538  0.8336  0.0640
 3254SOL     OW21394   4.521   2.093   1.528 -0.1006  0.0076  0.2141
 3254SOL    HW121395   4.573   2.151   1.473  0.9106 -1.0400  0.0774
 3254SOL    HW221396   4.452   2.149   1.562  1.6989  0.8697  2.4069
 3255SOL     OW21397   1.195   3.200   6.341 -0.2101  0.5224 -0.5662
 3255SOL    HW121398   1.209   3.267   6.408  1.6621 -0.2317 -0.2077
 3255SOL    HW221399   1.109   3.183   6.379 -0.9441  3.4677 -0.9395
 3256SOL     OW21400   4.589   3.761   7.775  0.4512  0.3629 -0.2143
 3256SOL    HW121401   4.647   3.685   7.778  0.9527  0.6774 -2.2882
 3256SOL    HW221402   4.643   3.827   7.819  0.0881  0.9356 -0.6300
 3257SOL     OW21403   4.387   4.537   1.598 -0.3183  0.5954  0.6017
 3257SOL    HW121404   4.339   4.464   1.638  0.1111  0.6817  1.2785
 3257SOL    HW221405   4.474   4.500   1.583 -0.4049  0.3165  0.7876
 3258SOL     OW21406   2.294   2.818  10.179 -0.0380  0.0611 -0.4373
 3258SOL    HW121407   2.349   2.753  10.135  1.5390 -0.6638  2.6020
 3258SOL    HW221408   2.218   2.830  10.122 -0.8124  2.3433  1.0749
 3259SOL     OW21409   1.489   1.486   5.053 -0.1061  0.9866  0.0695
 3259SOL    HW121410   1.472   1.426   4.981  0.0211  0.7167  0.2617
 3259SOL    HW221411   1.517   1.428   5.125  2.7335  0.5069 -1.4545
 3260SOL     OW21412   1.778   2.018  14.056 -0.2093  0.6332 -0.1042
 3260SOL    HW121413   1.696   2.061  14.079 -1.0454 -0.9369 -0.1837
 3260SOL    HW221414   1.814   2.085  13.997 -1.2135  0.7834 -0.5561
 3261SOL     OW21415   2.352   1.823   3.582 -0.2748  0.1092  0.7174
 3261SOL    HW121416   2.369   1.911   3.549  1.5722 -0.8361 -0.9046
 3261SOL    HW221417   2.267   1.841   3.622 -0.8906 -2.4318  0.5976
 3262SOL     OW21418   1.927   0.794  15.951  0.7261  0.0690  0.2744
 3262SOL    HW121419   2.009   0.768  15.994  0.5932 -0.9010 -0.0429
 3262SOL    HW221420   1.868   0.747  16.010 -1.2325  2.3956  0.1464
 3263SOL     OW21421   4.051   0.471   2.991  0.2947 -0.5295 -0.2038
 3263SOL    HW121422   4.047   0.431   2.904  1.9489 -0.1321 -0.4671
 3263SOL    HW221423   3.960   0.462   3.019  0.3115  0.4481  0.1810
 3264SOL     OW21424   0.713   4.532   8.883  0.3032  0.0898  0.4678
 3264SOL    HW121425   0.634   4.517   8.830 -0.8709  0.5484  2.0878
 3264SOL    HW221426   0.681   4.612   8.926  0.0511 -0.1605  0.7445
 3265SOL     OW21427   3.191   3.081   3.443  0.2834  0.3454 -0.6256
 3265SOL    HW121428   3.175   3.157   3.388  1.0821  0.9970  0.0411
 3265SOL    HW221429   3.114   3.026   3.429  1.2425 -1.7346  2.2104
 3266SOL     OW21430   2.813   4.507   5.212  0.1749  0.1226  0.0897
 3266SOL    HW121431   2.758   4.490   5.136 -1.8166  0.7569  1.3818
 3266SOL    HW221432   2.766   4.449   5.272 -1.0064  1.6121  0.6003
 3267SOL     OW21433   3.113   3.373   7.182  0.4670 -0.0012  0.0241
 3267SOL    HW121434   3.085   3.341   7.097  0.2702  0.5903 -0.1277
 3267SOL    HW221435   3.034   3.369   7.235 -0.5211  1.4017 -1.3695
 3268SOL     OW21436   0.833   1.358   2.353  0.1966  0.3965 -0.2094
 3268SOL    HW121437   0.794   1.356   2.266 -0.3332 -1.1352  0.0705
 3268SOL    HW221438   0.896   1.287   2.342 -1.4731 -1.0885 -0.0523
 3269SOL     OW21439   0.109   0.274   5.225 -0.0294  0.3391 -0.1557
 3269SOL    HW121440   0.068   0.327   5.157  0.3936 -0.2917 -0.8961
 3269SOL    HW221441   0.140   0.198   5.176 -2.2516  0.2635 -1.4342
 3270SOL     OW21442   3.424   3.532  15.349 -0.5391  0.1141  0.2474
 3270SOL    HW121443   3.372   3.511  15.271 -0.0644  1.8906 -0.5570
 3270SOL    HW221444   3.437   3.626  15.335 -2.6637  0.3479 -0.0878
 3271SOL     OW21445   1.466   4.647   0.358  0.6945  0.5352  0.1906
 3271SOL    HW121446   1.437   4.647   0.267 -1.1677  0.2735  0.7874
 3271SOL    HW221447   1.517   4.728   0.353 -1.6350  1.8766 -1.7176
 3272SOL     OW21448   4.717   1.636   4.739  0.0250 -0.2513  0.0808
 3272SOL    HW121449   0.026   1.553   4.737  0.6326  0.0567  2.4872
 3272SOL    HW221450   4.728   1.672   4.827 -1.6450 -0.5911  0.4391
 3273SOL     OW21451   0.121   0.088   4.741 -0.3649  0.3053 -0.0489
 3273SOL    HW121452   0.052   0.092   4.807 -0.1589 -1.6072  0.2823
 3273SOL    HW221453   0.088   0.018   4.686 -1.1799 -0.0148  0.8571
 3274SOL     OW21454   2.103   0.193   2.824  0.5802  0.0293 -0.0982
 3274SOL    HW121455   2.142   0.132   2.761  2.4058  1.5419 -0.4259
 3274SOL    HW221456   2.137   0.164   2.908 -0.4173 -0.8067  0.0139
 3275SOL     OW21457   4.302   2.679   7.700  0.0684  0.0616  0.0371
 3275SOL    HW121458   4.289   2.705   7.608 -0.7243 -1.5002 -0.2902
 3275SOL    HW221459   4.388   2.717   7.720 -0.7553  1.1709  1.4811
 3276SOL     OW21460   3.955   1.605   8.558  0.5528 -0.0865  0.5316
 3276SOL    HW121461   4.015   1.666   8.515  0.3661  0.4666  1.0627
 3276SOL    HW221462   3.923   1.571   8.474  1.3503  0.6458 -0.0746
 3277SOL     OW21463   1.808   2.109   4.688  0.2003  0.0282 -0.0151
 3277SOL    HW121464   1.768   2.179   4.739  0.0632 -1.0971  1.4286
 3277SOL    HW221465   1.898   2.127   4.716  0.5419 -0.8669 -0.5259
 3278SOL     OW21466   4.495   1.578  15.808  0.1895 -0.1773  0.6082
 3278SOL    HW121467   4.539   1.634  15.873  0.7868  2.6216 -2.2166
 3278SOL    HW221468   4.570   1.533  15.768 -1.8064 -2.6470 -0.3600
 3279SOL     OW21469   1.928   1.179   9.318  0.4368 -0.3293 -0.6381
 3279SOL    HW121470   1.944   1.273   9.314 -0.0688 -0.1208  2.4486
 3279SOL    HW221471   1.999   1.141   9.267  1.0269  1.4786 -1.1693
 3280SOL     OW21472   2.793   0.209   5.537 -0.5785 -0.0130  0.4270
 3280SOL    HW121473   2.698   0.204   5.544 -0.5940  0.6551  0.7088
 3280SOL    HW221474   2.798   0.300   5.508 -2.8933  0.1554  0.5737
 3281SOL     OW21475   3.588   2.523   3.182 -0.2616  0.0532  0.0235
 3281SOL    HW121476   3.540   2.572   3.115 -0.4066  1.0280  0.8426
 3281SOL    HW221477   3.674   2.513   3.141 -1.5270 -0.4547 -2.4908
 3282SOL     OW21478   3.528   3.267   3.877 -0.4365 -0.0822  0.0063
 3282SOL    HW121479   3.496   3.251   3.788 -0.5543  1.5454 -0.2426
 3282SOL    HW221480   3.454   3.257   3.937 -0.6143  0.6542 -0.0933
 3283SOL     OW21481   2.128   3.033   3.230  0.0146 -0.3422  0.1565
 3283SOL    HW121482   2.215   3.011   3.264  1.2271  0.6010 -2.3733
 3283SOL    HW221483   2.110   2.956   3.177 -0.3604  0.6883 -1.2243
 3284SOL     OW21484   1.494   0.802  16.142 -0.0946 -0.6411  0.3351
 3284SOL    HW121485   1.583   0.771  16.128  0.7286  1.5979  0.5265
 3284SOL    HW221486   1.497   0.894  16.116  0.0670 -1.2832 -1.8501
 3285SOL     OW21487   3.983   2.789  17.506  0.9784 -0.2570  0.7090
 3285SOL    HW121488   3.903   2.737  17.497  0.1273  1.0568  0.6919
 3285SOL    HW221489   3.949   2.851  17.570  1.5754 -0.9368  1.6835
 3286SOL     OW21490   4.539   3.746  13.303 -0.0746 -0.4053 -0.5510
 3286SOL    HW121491   4.626   3.735  13.265 -0.6851  1.4049 -2.4340
 3286SOL    HW221492   4.518   3.655  13.321  0.8301 -0.2113  1.5401
 3287SOL     OW21493   0.732   0.594  13.161  0.1818 -0.1287  0.2915
 3287SOL    HW121494   0.682   0.621  13.238  1.0868  2.0166  0.1300
 3287SOL    HW221495   0.701   0.662  13.101  2.7418  1.6340  0.9676
 3288SOL     OW21496   1.876   1.505   8.586  0.3086  0.1152  0.1582
 3288SOL    HW121497   1.930   1.484   8.510 -1.6827 -0.9051 -0.9827
 3288SOL    HW221498   1.824   1.580   8.558  1.8887  0.6784 -1.2468
 3289SOL     OW21499   0.924   1.821  12.986  0.9861 -0.3675  0.4900
 3289SOL    HW121500   0.923   1.737  13.032 -2.8315 -0.5135  0.1070
 3289SOL    HW221501   1.013   1.831  12.952 -0.2653  1.5339 -2.2705
 3290SOL     OW21502   1.934   2.230   1.530 -0.5839 -0.0276  0.1811
 3290SOL    HW121503   1.881   2.179   1.469  0.4743  0.6151 -1.2752
 3290SOL    HW221504   1.969   2.298   1.472 -0.5128  1.8020  2.3742
 3291SOL     OW21505   4.077   2.279   2.735  0.3123  0.2424 -0.3180
 3291SOL    HW121506   4.130   2.227   2.796  0.9488  1.8368  0.4683
 3291SOL    HW221507   4.153   2.321   2.694  0.5591 -2.6646 -2.8478
 3292SOL     OW21508   3.954   1.329   8.652 -0.1285  0.1183 -0.5489
 3292SOL    HW121509   3.979   1.274   8.579 -0.5411 -1.6450  0.6290
 3292SOL    HW221510   3.939   1.410   8.603  1.1777  0.9796  0.4633
 3293SOL     OW21511   1.530   4.179   5.296  0.2306 -0.0398  0.1879
 3293SOL    HW121512   1.613   4.176   5.247  0.1931 -0.7622  0.1626
 3293SOL    HW221513   1.517   4.085   5.307  2.8836 -0.3282  0.8151
 3294SOL     OW21514   3.435   2.368   8.441 -0.5426 -0.0986 -0.1193
 3294SOL    HW121515   3.438   2.304   8.511  1.7815  0.5589  0.3830
 3294SOL    HW221516   3.504   2.429   8.467 -1.5300  0.4431  1.2271
 3295SOL     OW21517   3.896   3.877   2.012 -0.0027 -0.1335  0.1188
 3295SOL    HW121518   3.966   3.899   1.951  0.0409 -0.9643 -0.1321
 3295SOL    HW221519   3.823   3.868   1.950  0.0622  0.9337 -0.1022
 3296SOL     OW21520   3.821   4.076   7.426  0.7204 -0.0753 -0.3636
 3296SOL    HW121521   3.895   4.070   7.487  1.1175 -0.6364 -0.9114
 3296SOL    HW221522   3.805   4.170   7.428 -1.7467 -0.5221  0.8249
 3297SOL     OW21523   4.120   3.809   7.128  0.6325 -0.0581  0.2371
 3297SOL    HW121524   4.209   3.797   7.162  0.9345  0.1090 -0.5160
 3297SOL    HW221525   4.111   3.903   7.112 -0.4500  0.1131  1.7450
 3298SOL     OW21526   3.372   2.837   6.885 -0.0434  0.4483 -0.0612
 3298SOL    HW121527   3.304   2.892   6.847 -0.5084 -1.2406 -1.7011
 3298SOL    HW221528   3.325   2.755   6.898  1.8191 -0.8943 -1.7122
 3299SOL     OW21529   3.048   0.576  13.632 -0.2551 -0.1428  0.2281
 3299SOL    HW121530   2.963   0.614  13.652  0.0085 -0.1581  1.3495
 3299SOL    HW221531   3.051   0.496  13.685 -0.3968 -1.0383 -1.1080
 3300SOL     OW21532   2.914   2.031  16.660  0.1256 -0.1816 -0.1657
 3300SOL    HW121533   2.889   2.123  16.669 -0.4723 -0.3739  0.2014
 3300SOL    HW221534   3.008   2.041  16.676  0.3795  0.0458 -1.8364
 3301SOL     OW21535   1.637   0.251  16.262  0.0840 -0.3399 -0.0069
 3301SOL    HW121536   1.542   0.242  16.274 -0.1475 -0.5718 -1.9560
 3301SOL    HW221537   1.664   0.201  16.185  1.4851 -0.5704  0.6396
 3302SOL     OW21538   0.200   4.155  14.375  0.0940  0.2228 -0.3902
 3302SOL    HW121539   0.274   4.150  14.314  0.9315  1.4742  0.5036
 3302SOL    HW221540   0.123   4.163  14.319 -0.0571  2.1796  0.0792
 3303SOL     OW21541   0.164   0.530  14.376  0.1283  0.3039  0.1176
 3303SOL    HW121542   0.181   0.546  14.469 -1.4341  0.6400  0.3471
 3303SOL    HW221543   0.158   0.622  14.349 -0.0493  0.2887  0.1047
 3304SOL     OW21544   0.768   1.477  14.030 -0.0429  0.3821 -0.6515
 3304SOL    HW121545   0.723   1.497  14.112  1.2533  0.4004  0.0609
 3304SOL    HW221546   0.714   1.529  13.969 -0.0629 -0.1096 -1.0482
 3305SOL     OW21547   0.298   4.319   3.254 -0.3217  0.8334  0.1944
 3305SOL    HW121548   0.246   4.355   3.326  2.1410  0.8328  1.9752
 3305SOL    HW221549   0.370   4.271   3.294 -2.7275 -2.6179  0.4149
 3306SOL     OW21550   4.241   0.059   2.523  0.4673 -0.7240  0.1262
 3306SOL    HW121551   4.324   0.020   2.493  0.2896 -0.3642 -0.8173
 3306SOL    HW221552   4.227   0.023   2.611  0.7492 -2.5651 -0.5821
 3307SOL     OW21553   2.452   0.495   6.811 -0.2789 -0.7680  0.4039
 3307SOL    HW121554   2.528   0.441   6.792  0.9324  0.9146  0.5401
 3307SOL    HW221555   2.455   0.566   6.747 -1.2114 -1.1395 -0.0599
 3308SOL     OW21556   3.019   3.707  15.919 -0.3446  0.8909  0.3165
 3308SOL    HW121557   2.956   3.643  15.952 -0.0296  0.1774 -0.4508
 3308SOL    HW221558   2.996   3.789  15.962  0.1741  1.2809 -0.1553
 3309SOL     OW21559   3.635   1.922  13.308 -0.4395  0.4332 -0.1240
 3309SOL    HW121560   3.725   1.951  13.314 -0.4977  1.1766 -2.8675
 3309SOL    HW221561   3.639   1.828  13.323  1.2789  0.2315 -1.9278
 3310SOL     OW21562   4.123   1.735   4.197 -0.1298 -0.4029 -0.2058
 3310SOL    HW121563   4.167   1.814   4.167 -0.3702 -0.5068 -0.8119
 3310SOL    HW221564   4.116   1.753   4.291 -1.3726  1.4288 -0.6589
 3311SOL     OW21565   0.673   2.447   7.455  0.5749 -0.3414  0.2955
 3311SOL    HW121566   0.608   2.485   7.513 -0.3317 -3.7931  1.5792
 3311SOL    HW221567   0.739   2.414   7.515  0.7479  0.1102  0.3514
 3312SOL     OW21568   4.720   3.216   7.845  0.0551 -0.1206 -0.2207
 3312SOL    HW121569   4.659   3.153   7.807 -0.5706  0.8186 -0.7862
 3312SOL    HW221570   4.691   3.214   7.936  1.9632  2.1919  0.4566
 3313SOL     OW21571   4.333   4.630   8.414 -0.3477  0.4496  0.4184
 3313SOL    HW121572   4.312   4.585   8.496 -0.9895  1.9917  1.1054
 3313SOL    HW221573   4.385   4.702   8.450 -1.4447  1.5322 -0.1886
 3314SOL     OW21574   0.316   1.035   1.914  0.1067  0.0485 -0.0906
 3314SOL    HW121575   0.387   1.041   1.977  1.0280 -0.1136 -1.1239
 3314SOL    HW221576   0.331   1.093   1.839  1.7738 -3.0229 -2.1156
 3315SOL     OW21577   4.650   0.871   5.434 -0.4816 -0.2924  0.0870
 3315SOL    HW121578   4.689   0.952   5.468 -2.8845 -0.6840  3.6963
 3315SOL    HW221579   4.557   0.884   5.453 -0.2694  1.6559 -0.1485
 3316SOL     OW21580   3.369   2.305  11.543 -0.0028  0.1603 -0.0130
 3316SOL    HW121581   3.384   2.303  11.448  3.1740  1.2397  0.4560
 3316SOL    HW221582   3.312   2.228  11.547  0.2333 -0.1007 -1.8806
 3317SOL     OW21583   3.237   4.267   6.056 -1.0405  0.0005 -0.0729
 3317SOL    HW121584   3.259   4.354   6.022  0.2136  0.1640  1.1499
 3317SOL    HW221585   3.311   4.217   6.023 -1.5833  0.0017 -1.2741
 3318SOL     OW21586   1.354   4.293   5.084 -0.1441  0.3588 -0.1616
 3318SOL    HW121587   1.420   4.269   5.149  0.7400  0.7223 -0.9457
 3318SOL    HW221588   1.406   4.296   5.004 -0.3624 -1.4989 -0.3796
 3319SOL     OW21589   4.092   0.118   5.473 -0.0327  0.4622 -0.0118
 3319SOL    HW121590   4.169   0.148   5.522  2.7345 -2.0763 -2.8530
 3319SOL    HW221591   4.040   0.197   5.468 -1.0704 -0.3159 -1.4018
 3320SOL     OW21592   1.291   0.806   4.097 -0.3422  0.0411 -0.2417
 3320SOL    HW121593   1.205   0.816   4.056 -0.1582  1.8533 -0.1834
 3320SOL    HW221594   1.291   0.711   4.111  0.7379  0.1939  0.7604
 3321SOL     OW21595   1.781   4.341  10.754 -0.4872  0.6674  0.4240
 3321SOL    HW121596   1.702   4.287  10.757 -0.0189 -0.0775 -0.5684
 3321SOL    HW221597   1.851   4.276  10.767  0.1350  1.0105 -1.1696
 3322SOL     OW21598   3.902   3.246  14.270  0.4540  0.4030  0.3807
 3322SOL    HW121599   3.813   3.218  14.288  0.5865 -0.0038  0.3964
 3322SOL    HW221600   3.886   3.306  14.197  0.6168 -0.3035 -0.2394
 3323SOL     OW21601   3.007   2.317  15.252  0.4969 -0.0496 -0.0830
 3323SOL    HW121602   2.948   2.294  15.180 -2.2053  3.2839  1.0749
 3323SOL    HW221603   2.950   2.351  15.320  1.2476  0.7701  0.1365
 3324SOL     OW21604   0.051   2.278   1.844 -0.5125  0.0261 -0.2431
 3324SOL    HW121605   0.056   2.314   1.933  0.9077 -1.2044  0.1905
 3324SOL    HW221606   4.723   2.210   1.852 -2.0892  1.4622 -1.4111
 3325SOL     OW21607   0.795   1.556   5.983 -0.0300 -0.2940  0.1944
 3325SOL    HW121608   0.807   1.461   5.982  1.2411 -0.1129 -1.4786
 3325SOL    HW221609   0.744   1.577   6.061 -0.7680 -1.4841  0.0359
 3326SOL     OW21610   4.377   4.559   6.497  0.3673  0.2415  0.1493
 3326SOL    HW121611   4.306   4.543   6.558  0.2504  0.9196  0.1935
 3326SOL    HW221612   4.351   4.637   6.448 -2.7704 -1.3346 -0.6786
 3327SOL     OW21613   3.489   1.740   4.984  0.1874  0.0246  0.2284
 3327SOL    HW121614   3.571   1.757   5.030  0.3782  1.3678 -0.6088
 3327SOL    HW221615   3.514   1.661   4.937  3.1505  1.4409 -0.5487
 3328SOL     OW21616   0.580   2.368   4.387 -0.2818 -0.3981  0.6751
 3328SOL    HW121617   0.634   2.302   4.345 -1.0055 -1.3187  1.2014
 3328SOL    HW221618   0.538   2.309   4.450  0.5142 -2.2179 -0.5055
 3329SOL     OW21619   1.439   3.896   6.487  0.3530 -0.0462  0.4732
 3329SOL    HW121620   1.386   3.961   6.534 -1.5767  0.0413 -1.7983
 3329SOL    HW221621   1.471   3.835   6.554  1.1957 -0.1180  0.0064
 3330SOL     OW21622   1.780   4.561   2.343 -0.1867 -0.4349  0.2851
 3330SOL    HW121623   1.748   4.635   2.291  1.8346 -0.4104 -0.9377
 3330SOL    HW221624   1.821   4.605   2.418  3.5411 -0.0245 -2.0093
 3331SOL     OW21625   1.057   3.146   9.349  0.0958 -0.0641  0.6709
 3331SOL    HW121626   1.128   3.210   9.361 -1.2720  1.4758  0.5135
 3331SOL    HW221627   0.982   3.205   9.354 -0.9405 -1.6354  3.1280
 3332SOL     OW21628   1.615   1.391   3.466 -0.1419 -0.1890 -0.3996
 3332SOL    HW121629   1.562   1.401   3.545 -0.9405  0.5929 -1.0349
 3332SOL    HW221630   1.680   1.328   3.497 -0.8814 -1.7691 -2.0837
 3333SOL     OW21631   1.101   2.310   7.990  0.5659 -0.8776 -0.5397
 3333SOL    HW121632   1.115   2.226   7.947  0.2541 -1.6812  0.9202
 3333SOL    HW221633   1.145   2.304   8.075 -0.5168  1.3359  0.1748
 3334SOL     OW21634   1.293   0.391   2.661  0.1383 -0.5228 -0.5786
 3334SOL    HW121635   1.207   0.391   2.705  0.1335  0.2672 -0.5918
 3334SOL    HW221636   1.350   0.403   2.737 -0.7845 -1.3069  0.2479
 3335SOL     OW21637   1.292   3.307  16.791 -0.6019 -0.4105  0.2049
 3335SOL    HW121638   1.333   3.314  16.878 -1.3089  2.8501  0.2905
 3335SOL    HW221639   1.298   3.399  16.765 -1.9309  0.0186  1.3983
 3336SOL     OW21640   0.414   1.751   5.994  0.0708  0.0188  0.6097
 3336SOL    HW121641   0.440   1.732   6.084  0.0923  0.8863  0.7845
 3336SOL    HW221642   0.444   1.841   5.982 -1.7428  0.7475  1.5772
 3337SOL     OW21643   2.281   3.594   3.256  0.6302 -0.1521 -0.0149
 3337SOL    HW121644   2.190   3.576   3.278  0.2858  1.3969 -0.1759
 3337SOL    HW221645   2.310   3.504   3.272  1.0625  0.2756  1.6643
 3338SOL     OW21646   4.134   0.869   6.925  0.1577 -0.0442 -0.0464
 3338SOL    HW121647   4.221   0.906   6.941 -0.3629  1.8736 -1.7027
 3338SOL    HW221648   4.138   0.855   6.830 -0.0624 -0.0894 -0.0505
 3339SOL     OW21649   3.070   0.178   1.161 -0.5536 -0.6290  0.0250
 3339SOL    HW121650   2.994   0.147   1.113 -0.6329  2.2825 -1.7136
 3339SOL    HW221651   3.072   0.109   1.227  2.6207  1.1885  1.8671
 3340SOL     OW21652   1.163   0.217   7.364  0.4850  0.2290  0.3658
 3340SOL    HW121653   1.146   0.283   7.430 -1.4140 -1.0561  1.1697
 3340SOL    HW221654   1.214   0.264   7.298  1.9548 -1.5409  0.2150
 3341SOL     OW21655   0.575   3.053   9.470  0.1219  0.2804 -0.6043
 3341SOL    HW121656   0.529   2.988   9.523 -0.0390  0.0483 -1.0240
 3341SOL    HW221657   0.614   2.993   9.406  0.4263 -1.1490  0.9247
 3342SOL     OW21658   1.544   2.773   9.572  0.1019  0.1800 -0.4262
 3342SOL    HW121659   1.531   2.850   9.516 -0.7386 -1.4256 -2.4191
 3342SOL    HW221660   1.477   2.711   9.544  0.1590  0.6248 -1.5387
 3343SOL     OW21661   3.095   2.637   8.187  0.1579 -0.0732  0.5271
 3343SOL    HW121662   3.184   2.631   8.153  0.2508 -0.0594  0.7686
 3343SOL    HW221663   3.102   2.588   8.269  2.1231 -1.7898 -0.6628
 3344SOL     OW21664   4.014   4.184  13.631  0.8301 -0.7327 -0.2935
 3344SOL    HW121665   4.086   4.167  13.571  1.2067  1.5714 -0.4817
 3344SOL    HW221666   4.062   4.198  13.712  0.3265 -1.1846  0.0838
 3345SOL     OW21667   4.263   3.840   2.640 -0.4804 -0.5728 -0.6777
 3345SOL    HW121668   4.221   3.887   2.569  1.5743  0.5520 -1.1581
 3345SOL    HW221669   4.262   3.908   2.707 -0.5632 -1.3533  0.1232
 3346SOL     OW21670   4.380   1.798  15.514 -0.7529  0.9038  0.0350
 3346SOL    HW121671   4.376   1.867  15.448  0.4434 -1.3639 -2.4132
 3346SOL    HW221672   4.424   1.849  15.582 -2.3390  1.0042  0.9925
 3347SOL     OW21673   0.791   4.414   3.311  0.0843  0.7309 -0.3121
 3347SOL    HW121674   0.732   4.476   3.355  1.7131  0.3624  2.3842
 3347SOL    HW221675   0.871   4.463   3.330 -1.2817  3.0887 -0.5267
 3348SOL     OW21676   2.087   1.710   5.633  0.3263  0.0208 -0.1447
 3348SOL    HW121677   2.117   1.673   5.550 -0.2451 -0.3985 -0.1683
 3348SOL    HW221678   2.069   1.632   5.686 -1.8075  0.5761 -0.0156
 3349SOL     OW21679   0.519   0.752   1.634  0.6268 -0.9309 -0.7331
 3349SOL    HW121680   0.449   0.735   1.696  0.0533  0.4894 -0.9974
 3349SOL    HW221681   0.495   0.841   1.607  0.6535 -0.4937  0.7029
 3350SOL     OW21682   3.386   0.117   3.559 -0.2799 -0.6122  0.0726
 3350SOL    HW121683   3.322   0.085   3.496 -0.9917  2.0237 -0.5530
 3350SOL    HW221684   3.453   0.154   3.502  0.6430 -0.5776  1.1647
 3351SOL     OW21685   2.433   2.793   2.968  0.3579  0.3862 -0.1258
 3351SOL    HW121686   2.514   2.835   2.940  0.5284  1.1571  1.5291
 3351SOL    HW221687   2.369   2.855   2.934 -0.7093 -1.4686 -1.5204
 3352SOL     OW21688   2.220   3.738   6.804 -0.2074 -0.3318  0.7499
 3352SOL    HW121689   2.209   3.689   6.723  2.4064  2.3395 -1.2075
 3352SOL    HW221690   2.135   3.781   6.800  0.8775  1.5740 -1.6526
 3353SOL     OW21691   3.007   3.165   8.459 -0.3099  0.3076 -0.3989
 3353SOL    HW121692   3.072   3.121   8.404  1.1053  0.4102  1.1926
 3353SOL    HW221693   2.927   3.115   8.440  0.5383 -0.7047 -1.3136
 3354SOL     OW21694   3.682   2.391   9.590 -0.1442  0.1532  0.0647
 3354SOL    HW121695   3.711   2.434   9.670 -0.7440 -2.9132  1.9431
 3354SOL    HW221696   3.609   2.346   9.634  1.1154 -2.1398 -0.1699
 3355SOL     OW21697   2.028   2.913   5.634 -0.2634 -0.1376  0.2038
 3355SOL    HW121698   1.936   2.901   5.655 -0.8285  0.4834 -1.9001
 3355SOL    HW221699   2.072   2.844   5.683 -0.7217 -0.2770  0.4163
 3356SOL     OW21700   3.509   1.585  10.668  0.0104  0.7507 -0.1443
 3356SOL    HW121701   3.417   1.579  10.690 -0.3664 -3.1590 -2.6387
 3356SOL    HW221702   3.534   1.646  10.737  0.1486  0.3238  0.1859
 3357SOL     OW21703   2.676   1.679   2.292 -0.2559 -0.2210  0.6764
 3357SOL    HW121704   2.598   1.733   2.279  0.9260  1.3070 -0.0006
 3357SOL    HW221705   2.689   1.699   2.385  1.0350  1.6962  0.0711
 3358SOL     OW21706   4.378   3.595   7.103  0.3985  0.7815 -0.2625
 3358SOL    HW121707   4.359   3.643   7.184 -2.1865  0.2167 -0.5279
 3358SOL    HW221708   4.339   3.516   7.142 -0.2717  1.5994  0.7255
 3359SOL     OW21709   0.399   1.286   7.587  0.5386 -0.8036  0.0672
 3359SOL    HW121710   0.391   1.261   7.679 -1.1079 -1.6635 -0.3140
 3359SOL    HW221711   0.352   1.216   7.543 -0.3930 -0.1953  0.0860
 3360SOL     OW21712   2.487   1.315   2.485  0.0073  0.2713  0.3095
 3360SOL    HW121713   2.558   1.288   2.543 -0.9090  2.1011  2.3012
 3360SOL    HW221714   2.438   1.233   2.492  0.3912 -0.0835 -1.2585
 3361SOL     OW21715   3.716   0.010   7.331 -0.5054  0.3964 -0.0860
 3361SOL    HW121716   3.801   4.710   7.312 -0.7608  1.3170 -3.2127
 3361SOL    HW221717   3.744   0.098   7.354 -0.1975  0.5071 -0.8705
 3362SOL     OW21718   3.812   4.031   8.937  1.0048 -0.0554  0.6538
 3362SOL    HW121719   3.902   4.003   8.920  0.8566  0.1957 -0.5652
 3362SOL    HW221720   3.788   3.976   9.012  0.3923  2.2887  2.1516
 3363SOL     OW21721   4.291   2.062   4.732  0.3147 -0.1683 -0.5326
 3363SOL    HW121722   4.211   2.019   4.765 -1.5811  1.1445 -3.4117
 3363SOL    HW221723   4.295   2.038   4.639  2.4519  1.4246 -0.8276
 3364SOL     OW21724   1.037   3.937   5.695  0.1405  0.1233 -0.0765
 3364SOL    HW121725   1.085   4.007   5.740  2.3834  0.2786 -2.6562
 3364SOL    HW221726   0.951   3.932   5.737  0.0686  1.2665 -0.0943
 3365SOL     OW21727   3.837   2.184  14.980 -0.5165  0.5505  0.0751
 3365SOL    HW121728   3.871   2.187  14.891  1.1124 -0.2194  0.6614
 3365SOL    HW221729   3.762   2.243  14.978 -0.7286  0.2359 -1.2533
 3366SOL     OW21730   1.750   2.165   4.421  0.2628 -0.3365 -0.0330
 3366SOL    HW121731   1.659   2.135   4.410  0.2161 -0.0500 -0.4127
 3366SOL    HW221732   1.766   2.132   4.510 -0.9862  1.9340  1.0419
 3367SOL     OW21733   1.820   2.571   2.261  0.7014  0.4436 -0.4493
 3367SOL    HW121734   1.826   2.623   2.181 -0.4626  0.9455 -0.2130
 3367SOL    HW221735   1.752   2.506   2.246  1.1135  0.0660 -0.6760
 3368SOL     OW21736   2.431   4.705   7.355 -0.3927  0.2601  0.4623
 3368SOL    HW121737   2.363   4.732   7.416 -0.5069  2.1662 -0.4857
 3368SOL    HW221738   2.439   0.046   7.303 -0.0277 -0.9745 -1.3921
 3369SOL     OW21739   1.780   4.191   3.840 -0.2422 -0.2357 -0.1959
 3369SOL    HW121740   1.687   4.213   3.839  0.0406  1.0143  0.4131
 3369SOL    HW221741   1.793   4.180   3.935 -1.9425  2.9311  0.4041
 3370SOL     OW21742   3.524   3.507  10.144  0.4109  0.1793 -0.0167
 3370SOL    HW121743   3.617   3.529  10.132  0.9076  0.1150  3.5673
 3370SOL    HW221744   3.493   3.580  10.091 -0.1750 -1.0120 -1.2965
 3371SOL     OW21745   2.779   3.574   3.844  0.0702 -0.3624 -0.0223
 3371SOL    HW121746   2.767   3.499   3.786  0.2956 -0.2537 -0.2075
 3371SOL    HW221747   2.869   3.555   3.870  0.0876 -0.0027  0.1824
 3372SOL     OW21748   3.293   3.887   8.938 -0.4677  0.7256  0.4018
 3372SOL    HW121749   3.261   3.805   8.976 -0.1972  1.0087  1.2443
 3372SOL    HW221750   3.361   3.861   8.877 -2.3194 -2.4772 -0.2862
 3373SOL     OW21751   0.356   2.937   7.189  0.1380  0.1579  0.6092
 3373SOL    HW121752   0.354   2.874   7.118  1.1891 -0.4100  1.0873
 3373SOL    HW221753   0.304   3.007   7.149  0.4371  0.3075  0.4803
 3374SOL     OW21754   3.591   4.170  13.067  0.5599 -0.0978 -0.0571
 3374SOL    HW121755   3.498   4.151  13.066  0.8866 -1.6183 -1.2853
 3374SOL    HW221756   3.621   4.110  12.998 -0.3342 -1.3729  0.6585
 3375SOL     OW21757   3.013   2.525   7.327 -0.4606 -0.3721  0.8060
 3375SOL    HW121758   2.958   2.487   7.258  0.2347 -0.4717  0.2956
 3375SOL    HW221759   3.105   2.513   7.300 -0.4261  1.3697  0.1326
 3376SOL     OW21760   2.591   0.312   4.017 -0.5882  0.7425 -0.2455
 3376SOL    HW121761   2.584   0.393   3.966 -0.5866  0.7281 -0.2681
 3376SOL    HW221762   2.622   0.251   3.951 -1.3484 -1.0965  1.0972
 3377SOL     OW21763   4.315   3.652   0.987  0.1401 -0.7063  0.0936
 3377SOL    HW121764   4.307   3.634   0.893 -0.1339 -2.4725  0.4522
 3377SOL    HW221765   4.316   3.566   1.028 -1.4589  0.7445  3.1634
 3378SOL     OW21766   4.082   2.267   5.871 -0.0370 -0.8313  0.2295
 3378SOL    HW121767   4.071   2.188   5.923 -1.6238 -0.6231  0.2185
 3378SOL    HW221768   4.158   2.243   5.818 -0.0499 -1.6712  0.5973
 3379SOL     OW21769   3.111   4.600   2.212  0.1638  0.1807  0.2821
 3379SOL    HW121770   3.116   4.612   2.307 -0.4980 -2.3733  0.6235
 3379SOL    HW221771   3.016   4.610   2.207  0.2683  0.4636 -1.1149
 3380SOL     OW21772   4.319   2.507   1.868  0.4161  0.3561  0.2093
 3380SOL    HW121773   4.253   2.546   1.925  0.3318 -0.8391  0.9070
 3380SOL    HW221774   4.373   2.454   1.926 -1.6145  0.1554  1.9039
 3381SOL     OW21775   3.466   1.654   1.869 -0.1728 -0.3888  0.2817
 3381SOL    HW121776   3.411   1.730   1.853 -0.3877 -0.4754  0.5998
 3381SOL    HW221777   3.534   1.659   1.803 -0.9480  0.7004 -0.4273
 3382SOL     OW21778   3.141   2.476   2.368 -0.1149 -0.1286 -0.1131
 3382SOL    HW121779   3.162   2.410   2.434  1.3406  1.6128  1.1623
 3382SOL    HW221780   3.064   2.442   2.322 -1.2577 -0.0493  1.6983
 3383SOL     OW21781   2.825   0.861   5.432 -0.0424 -0.1387  0.1967
 3383SOL    HW121782   2.875   0.907   5.499  2.0688 -0.4721 -1.1480
 3383SOL    HW221783   2.797   0.777   5.468  1.3205 -0.7815 -0.2323
 3384SOL     OW21784   0.037   1.557  13.808  0.1136  0.3665 -0.6863
 3384SOL    HW121785   0.033   1.506  13.727  1.1180 -1.1991  0.2466
 3384SOL    HW221786   0.099   1.625  13.782 -0.9021  0.8319 -1.8655
 3385SOL     OW21787   3.645   4.548  12.444 -0.2027  0.4537 -0.1690
 3385SOL    HW121788   3.603   4.461  12.443  0.9476 -0.1086  0.8005
 3385SOL    HW221789   3.737   4.529  12.464 -0.6519  0.0398  1.4610
 3386SOL     OW21790   0.687   2.333   9.048 -0.1005  0.3070  0.4149
 3386SOL    HW121791   0.728   2.403   8.996 -0.2379  0.1734  0.1274
 3386SOL    HW221792   0.617   2.297   8.994 -0.0357  0.8873 -0.0587
 3387SOL     OW21793   4.640   2.498   3.833 -0.4056 -1.1783 -0.4933
 3387SOL    HW121794   4.617   2.533   3.919  3.1098  0.1697 -0.1015
 3387SOL    HW221795   4.577   2.536   3.771 -2.6057 -1.4122  1.5994
 3388SOL     OW21796   0.615   4.124   1.989 -0.3241 -0.2467  0.7452
 3388SOL    HW121797   0.674   4.191   2.022 -1.0951 -0.1032  1.8368
 3388SOL    HW221798   0.660   4.096   1.909  0.2768  0.9963  0.6467
 3389SOL     OW21799   2.228   1.000   7.375 -0.2633  0.0903 -0.5461
 3389SOL    HW121800   2.268   1.079   7.338  0.1528 -0.4660 -1.2691
 3389SOL    HW221801   2.269   0.996   7.462 -2.1204 -3.9634  0.1134
 3390SOL     OW21802   1.316   3.031   5.985  0.0721 -0.4738 -0.1238
 3390SOL    HW121803   1.248   3.099   5.986  1.6400  1.0672  0.5838
 3390SOL    HW221804   1.272   2.960   5.938  1.3439 -0.4147 -1.4266
 3391SOL     OW21805   2.107   3.050  14.472  0.5269 -0.5595  0.4947
 3391SOL    HW121806   2.027   3.028  14.520  1.2417 -2.8158  0.6283
 3391SOL    HW221807   2.144   2.962  14.461  2.5713  0.1672  1.5120
 3392SOL     OW21808   3.705   0.190   8.376 -0.2496  0.2265 -0.3575
 3392SOL    HW121809   3.765   0.136   8.427  1.9476  2.9392 -0.0615
 3392SOL    HW221810   3.668   0.249   8.442 -0.3623  0.6826 -0.8280
 3393SOL     OW21811   2.675   2.127  15.180 -0.0007  0.1105  0.2104
 3393SOL    HW121812   2.597   2.139  15.126  1.2211 -3.4412 -2.3622
 3393SOL    HW221813   2.739   2.185  15.137  0.9735 -0.4853  0.8469
 3394SOL     OW21814   2.826   3.070   7.840 -0.0291 -0.1598 -0.0203
 3394SOL    HW121815   2.907   3.019   7.845 -0.8758 -1.2038  2.8500
 3394SOL    HW221816   2.844   3.129   7.913  0.5434 -0.3822  0.0193
 3395SOL     OW21817   3.841   3.894   3.485  0.4578  0.2329  0.1289
 3395SOL    HW121818   3.837   3.983   3.450 -0.0841  0.1000 -0.1520
 3395SOL    HW221819   3.895   3.851   3.419 -0.0263  0.4588 -0.4131
 3396SOL     OW21820   3.069   3.145   7.524  0.3166 -0.1605 -0.0371
 3396SOL    HW121821   3.047   3.068   7.473 -0.5026 -0.4002  0.6773
 3396SOL    HW221822   3.031   3.209   7.463 -1.2699 -0.3004  0.8081
 3397SOL     OW21823   4.500   3.184   6.751 -0.0265 -0.0662 -0.4493
 3397SOL    HW121824   4.425   3.175   6.809  0.0490  1.0170 -0.1869
 3397SOL    HW221825   4.570   3.207   6.811  2.0337 -0.2759 -2.7582
 3398SOL     OW21826   0.739   4.286   6.709  0.1320  0.5159  0.2571
 3398SOL    HW121827   0.656   4.243   6.729  1.7073 -1.4973  2.4796
 3398SOL    HW221828   0.797   4.257   6.779  1.0195  1.6493 -0.0175
 3399SOL     OW21829   0.681   0.528   9.064 -0.1369  0.3168  0.3886
 3399SOL    HW121830   0.722   0.464   9.122  0.4698 -2.1058 -2.7057
 3399SOL    HW221831   0.595   0.485   9.071  1.3365 -2.4982  1.2555
 3400SOL     OW21832   3.067   2.587  10.650 -0.2738 -0.8001 -0.3994
 3400SOL    HW121833   3.054   2.633  10.568  1.4005  2.1500  0.9986
 3400SOL    HW221834   3.012   2.634  10.712 -0.8821  0.6572 -2.0668
 3401SOL     OW21835   0.987   0.219   8.146  0.1238 -0.6048  0.3589
 3401SOL    HW121836   0.995   0.313   8.130  2.0260 -0.7121  0.7182
 3401SOL    HW221837   0.892   0.208   8.144  0.2234 -1.7904  2.4451
 3402SOL     OW21838   1.356   4.002   3.651 -0.3160  0.3754 -0.0194
 3402SOL    HW121839   1.333   3.919   3.609  2.9789 -0.6001  0.0999
 3402SOL    HW221840   1.299   4.058   3.599  0.4509  1.7308  0.6080
 3403SOL     OW21841   2.220   0.609  11.431  0.5585  0.9784 -0.4998
 3403SOL    HW121842   2.257   0.528  11.466  0.5777  0.7117 -1.1235
 3403SOL    HW221843   2.198   0.578  11.343  2.5212 -0.6613 -0.4320
 3404SOL     OW21844   4.628   2.419   7.679  0.0841 -0.4645 -0.1146
 3404SOL    HW121845   4.723   2.428   7.690 -0.1418  1.0051  0.6390
 3404SOL    HW221846   4.619   2.434   7.585 -1.1588 -4.3798 -0.6300
 3405SOL     OW21847   2.466   4.528   6.302 -0.0789 -0.0431  0.3595
 3405SOL    HW121848   2.417   4.594   6.252  0.5831 -0.3106 -0.6504
 3405SOL    HW221849   2.512   4.586   6.363  0.9481  2.0746 -2.4081
 3406SOL     OW21850   4.737   2.471   0.061 -0.2117 -0.1343  0.5487
 3406SOL    HW121851   0.056   2.402   0.030  1.1947  0.4818  1.8256
 3406SOL    HW221852   0.037   2.483   0.147  0.1361  1.8179  0.1299
 3407SOL     OW21853   3.302   4.717   6.050  0.0644  0.1858 -0.6020
 3407SOL    HW121854   3.384   4.724   6.097 -0.0692 -0.3385 -0.2899
 3407SOL    HW221855   3.311   0.032   5.972  0.6561  1.2240  0.2028
 3408SOL     OW21856   3.719   1.406  10.281  0.0239 -0.0513  0.3777
 3408SOL    HW121857   3.722   1.349  10.204  0.2311 -0.1181  0.4350
 3408SOL    HW221858   3.734   1.344  10.352  0.2371 -0.6138 -0.1537
 3409SOL     OW21859   4.651   0.808   1.940  0.6922 -0.4205  0.6277
 3409SOL    HW121860   4.643   0.859   1.860 -1.4413 -1.5842  0.1056
 3409SOL    HW221861   4.571   0.758   1.924 -0.0490  0.2930  1.9914
 3410SOL     OW21862   2.949   4.295   0.943 -0.4017  0.4936 -0.0312
 3410SOL    HW121863   2.961   4.200   0.933  2.4824  0.8217  0.4850
 3410SOL    HW221864   2.971   4.328   0.856  1.2536 -2.8262 -0.8737
 3411SOL     OW21865   1.636   3.615   1.204 -0.4792  0.0875  0.9326
 3411SOL    HW121866   1.584   3.596   1.281 -1.6288  3.8835  1.1018
 3411SOL    HW221867   1.635   3.528   1.163  0.4298  0.1535  0.7617
 3412SOL     OW21868   2.032   2.793   8.376 -0.2960  0.1629  0.2826
 3412SOL    HW121869   2.056   2.885   8.368 -2.6760  0.6517 -1.2968
 3412SOL    HW221870   1.994   2.795   8.464 -1.1605  0.0776 -0.0833
 3413SOL     OW21871   3.394   3.764   4.554  0.4157 -0.5937  0.3809
 3413SOL    HW121872   3.467   3.763   4.491  0.8822 -3.9021  0.9938
 3413SOL    HW221873   3.426   3.745   4.642 -0.2040  1.9817  1.1814
 3414SOL     OW21874   1.224   1.751   3.153 -0.1491 -0.3603 -0.5573
 3414SOL    HW121875   1.212   1.815   3.083  2.7130  1.9022  1.0165
 3414SOL    HW221876   1.136   1.737   3.187 -0.1106 -1.8703 -1.0719
 3415SOL     OW21877   3.582   1.379   3.672  0.3966 -0.0825  0.6354
 3415SOL    HW121878   3.643   1.448   3.644  0.6546 -0.1434  1.0398
 3415SOL    HW221879   3.630   1.298   3.692  1.0915  0.1256 -0.2059
 3416SOL     OW21880   3.277   0.634   6.647 -0.2872 -0.1165 -0.3595
 3416SOL    HW121881   3.343   0.659   6.582 -1.1933 -1.3563 -1.7789
 3416SOL    HW221882   3.237   0.720   6.662 -1.1517 -1.0878  2.9284
 3417SOL     OW21883   3.741   2.821   1.808 -0.0296 -0.0077 -0.7553
 3417SOL    HW121884   3.724   2.800   1.716  0.5692 -0.3968 -0.7799
 3417SOL    HW221885   3.723   2.914   1.818 -3.1065 -0.7751  0.7757
 3418SOL     OW21886   4.160   4.202  14.764  0.6840  0.1908  0.4976
 3418SOL    HW121887   4.137   4.182  14.855  1.0249  0.6799  0.6879
 3418SOL    HW221888   4.236   4.255  14.786  0.4521  1.0288 -0.7416
 3419SOL     OW21889   3.547   4.422   4.954  0.0445  0.1572  0.0505
 3419SOL    HW121890   3.580   4.399   5.041 -0.0300 -0.3264 -0.0530
 3419SOL    HW221891   3.523   4.511   4.980  1.6584  0.8016 -0.6780
 3420SOL     OW21892   2.460   2.671   4.197 -0.0161 -0.1342 -0.0870
 3420SOL    HW121893   2.462   2.585   4.155  0.3855 -0.9720  1.6419
 3420SOL    HW221894   2.367   2.691   4.209 -0.3643 -0.6799 -1.8446
 3421SOL     OW21895   2.129   4.227   7.613 -0.0390  0.3184 -0.5639
 3421SOL    HW121896   2.144   4.172   7.691  1.6881 -0.0855 -1.1922
 3421SOL    HW221897   2.189   4.183   7.552  0.9112 -0.2347  0.7548
 3422SOL     OW21898   4.390   4.471   7.718  0.0426 -0.4370 -0.3497
 3422SOL    HW121899   4.348   4.459   7.633 -0.5875  0.8180 -0.2256
 3422SOL    HW221900   4.483   4.462   7.699 -0.3850 -3.3123 -1.0407
 3423SOL     OW21901   1.378   3.284   5.177  0.0583 -0.0427 -0.6783
 3423SOL    HW121902   1.433   3.295   5.100 -0.6885  0.0263 -1.1967
 3423SOL    HW221903   1.364   3.189   5.179 -0.2965  0.0969  3.2758
 3424SOL     OW21904   2.902   3.504  17.284  0.3290  0.1729  0.0630
 3424SOL    HW121905   2.982   3.502  17.231  0.6694  1.2083  0.5337
 3424SOL    HW221906   2.928   3.467  17.369  2.1159  0.3685 -0.3944
 3425SOL     OW21907   4.573   1.518   3.031  0.4974 -0.0771 -0.4191
 3425SOL    HW121908   4.484   1.551   3.017  0.7271  0.4737 -0.5839
 3425SOL    HW221909   4.588   1.465   2.953  0.8335  1.7470 -1.5951
 3426SOL     OW21910   1.013   4.460   1.228  0.0447  0.4572 -0.1855
 3426SOL    HW121911   0.959   4.534   1.256 -0.2768 -0.0745  0.5685
 3426SOL    HW221912   1.071   4.454   1.303 -1.8133  0.4362  1.2615
 3427SOL     OW21913   4.673   4.648   1.835 -0.2969 -0.3218 -0.2866
 3427SOL    HW121914   4.622   4.698   1.900  0.9451 -1.0723  1.2652
 3427SOL    HW221915   4.617   4.577   1.805 -2.2131  0.6812  0.8359
 3428SOL     OW21916   1.447   3.411   4.454 -0.4849  0.1087  0.3792
 3428SOL    HW121917   1.369   3.454   4.418  0.3450  2.3408  1.2928
 3428SOL    HW221918   1.463   3.351   4.381 -0.4164 -1.9672  2.1031
 3429SOL     OW21919   4.633   1.178   1.249 -0.4139 -0.5975 -0.1103
 3429SOL    HW121920   4.602   1.128   1.173  0.8115 -1.1255 -0.2596
 3429SOL    HW221921   4.553   1.181   1.301 -1.5641 -0.6039 -1.9005
 3430SOL     OW21922   3.941   0.421   8.457  0.3594  0.1787 -0.1760
 3430SOL    HW121923   3.918   0.417   8.549 -0.6885 -1.9892 -0.5193
 3430SOL    HW221924   3.961   0.330   8.435  1.3710  0.2115  0.6361
 3431SOL     OW21925   1.201   0.530   3.525  0.1974  0.0506 -0.1282
 3431SOL    HW121926   1.225   0.621   3.508  3.6556 -0.2326  3.0976
 3431SOL    HW221927   1.221   0.533   3.618 -0.4437 -2.1029  0.0760
 3432SOL     OW21928   3.349   4.569   2.103  0.3317 -0.3652 -0.0312
 3432SOL    HW121929   3.265   4.559   2.148 -0.7986  2.9105 -1.4478
 3432SOL    HW221930   3.317   4.608   2.022  1.6516 -0.1559 -0.4405
 3433SOL     OW21931   3.734   3.714  13.893  0.7305  0.9746 -0.0936
 3433SOL    HW121932   3.799   3.685  13.828  0.9531 -1.8803  1.4441
 3433SOL    HW221933   3.786   3.722  13.973  1.0551 -1.5404 -0.0657
 3434SOL     OW21934   0.244   1.355  14.846  0.0680  0.3506  0.6570
 3434SOL    HW121935   0.185   1.421  14.809 -0.1650 -0.4346 -0.3699
 3434SOL    HW221936   0.203   1.342  14.931 -0.2617 -0.9099  0.3058
 3435SOL     OW21937   1.335   0.194   0.815  0.4562  0.2827 -0.2862
 3435SOL    HW121938   1.356   0.285   0.836 -1.3932  0.6086  0.1696
 3435SOL    HW221939   1.387   0.187   0.736  0.5217 -1.3678 -0.0836
 3436SOL     OW21940   3.418   3.271  10.245 -0.0342  0.2179  0.0237
 3436SOL    HW121941   3.477   3.341  10.217  1.5676 -1.2117 -0.1716
 3436SOL    HW221942   3.362   3.318  10.307 -1.0247 -1.1864  0.1914
 3437SOL     OW21943   0.411   4.214   8.210 -0.2870 -0.2493 -0.8361
 3437SOL    HW121944   0.503   4.212   8.235  0.2438 -0.6049 -2.8499
 3437SOL    HW221945   0.385   4.123   8.218  0.7166 -0.4981 -0.4212
 3438SOL     OW21946   1.192   3.660   7.467 -0.4507  0.4438 -0.6173
 3438SOL    HW121947   1.130   3.590   7.487 -0.0269  0.5099  0.9277
 3438SOL    HW221948   1.250   3.619   7.403  1.3837  1.7804  0.1806
 3439SOL     OW21949   2.460   3.901  11.857 -0.0862  0.3441  0.2190
 3439SOL    HW121950   2.494   3.989  11.873  1.1588 -0.2120  0.6354
 3439SOL    HW221951   2.501   3.888  11.772  2.3155  2.5879  1.0318
 3440SOL     OW21952   4.285   3.977  14.739 -0.7750 -0.6704  0.5858
 3440SOL    HW121953   4.366   4.026  14.749 -0.3894 -1.1199 -0.3173
 3440SOL    HW221954   4.222   4.048  14.725 -0.3285 -0.4949 -0.5036
 3441SOL     OW21955   1.877   0.846  12.976 -0.4157 -0.1082  0.4463
 3441SOL    HW121956   1.869   0.920  13.036 -1.5368  1.4147 -1.5922
 3441SOL    HW221957   1.848   0.890  12.897  1.1222  3.8236  2.0900
 3442SOL     OW21958   0.461   3.857   9.177 -0.2505 -0.1117 -0.5445
 3442SOL    HW121959   0.431   3.766   9.171 -0.2941 -0.2478  1.5059
 3442SOL    HW221960   0.551   3.831   9.197 -1.6837 -1.5736  3.9976
 3443SOL     OW21961   3.452   3.590  16.271  0.0957  0.3863 -0.4008
 3443SOL    HW121962   3.493   3.671  16.300 -0.4475 -0.0658  1.5926
 3443SOL    HW221963   3.365   3.629  16.277  0.7002  1.8690 -1.2546
 3444SOL     OW21964   2.833   3.212   4.745 -0.3476  0.0608 -0.0387
 3444SOL    HW121965   2.811   3.145   4.680 -0.3118  0.8439 -0.8604
 3444SOL    HW221966   2.860   3.155   4.817  2.9284  1.4678 -0.1861
 3445SOL     OW21967   0.307   1.289   5.002 -0.5079 -0.0340  0.5218
 3445SOL    HW121968   0.377   1.236   5.041  0.1621  1.0163  0.7337
 3445SOL    HW221969   0.256   1.215   4.969  1.0206 -0.2901 -1.3136
 3446SOL     OW21970   3.859   3.951   2.921  0.1434  0.1476  0.1253
 3446SOL    HW121971   3.945   3.970   2.958  0.5237 -2.4906  0.5897
 3446SOL    HW221972   3.847   4.018   2.853 -0.2829  0.2317  0.2834
 3447SOL     OW21973   4.434   2.254   4.913  0.2791  0.8918 -0.0455
 3447SOL    HW121974   4.439   2.293   4.825  1.1521  0.1534 -0.3315
 3447SOL    HW221975   4.394   2.171   4.888  1.5657  0.3703 -0.4101
 3448SOL     OW21976   2.190   2.869  14.201 -0.0394 -0.1210 -0.2150
 3448SOL    HW121977   2.257   2.800  14.199  0.8487  0.7465 -0.2666
 3448SOL    HW221978   2.137   2.837  14.273  0.2070 -0.0782 -0.0134
 3449SOL     OW21979   1.095   3.862   6.119 -0.4567 -0.2105  0.0585
 3449SOL    HW121980   1.158   3.832   6.184 -0.1558 -1.4719 -0.8101
 3449SOL    HW221981   1.139   3.829   6.040 -0.7881 -2.1268  0.6750
 3450SOL     OW21982   3.651   1.946   9.243 -0.3973 -0.2927 -0.2854
 3450SOL    HW121983   3.564   1.964   9.277 -0.6364 -0.9259 -0.5652
 3450SOL    HW221984   3.692   2.022   9.286  0.0934 -1.4174  1.2331
 3451SOL     OW21985   0.739   4.237   8.576  0.5314 -0.5071  0.6094
 3451SOL    HW121986   0.661   4.194   8.612  0.2375 -0.0413  0.5265
 3451SOL    HW221987   0.722   4.331   8.586  0.9880 -0.5901  2.1066
 3452SOL     OW21988   4.311   1.893  16.007 -0.1933  0.3697 -0.0025
 3452SOL    HW121989   4.341   1.982  15.988 -2.6017  1.4579  1.1864
 3452SOL    HW221990   4.260   1.871  15.929 -2.0140 -0.8440  1.5202
 3453SOL     OW21991   0.130   3.024   4.617  0.7316  0.2165 -0.3637
 3453SOL    HW121992   0.184   3.096   4.651  0.9801 -0.5651  0.8694
 3453SOL    HW221993   0.172   2.943   4.645  0.9415  0.7098  0.7704
 3454SOL     OW21994   4.235   2.282   8.011 -0.0233  0.3504 -0.0133
 3454SOL    HW121995   4.266   2.259   8.099  1.8672 -2.1071 -1.3308
 3454SOL    HW221996   4.314   2.302   7.962  1.0156 -0.8998  1.1374
 3455SOL     OW21997   0.324   2.474   9.086  0.0563 -0.1880  0.0094
 3455SOL    HW121998   0.263   2.429   9.027 -0.4037  0.4291  0.0209
 3455SOL    HW221999   0.408   2.436   9.060  0.2550  0.7169 -0.6394
 3456SOL     OW22000   4.649   2.970   9.023  0.0066  0.2495 -0.0065
 3456SOL    HW122001   4.570   2.985   9.075  0.7901 -0.6172  1.4439
 3456SOL    HW222002   4.716   3.013   9.076  1.3516 -0.0344 -1.4640
 3457SOL     OW22003   0.722   1.080   7.275 -0.6691 -0.2031 -0.1884
 3457SOL    HW122004   0.752   1.115   7.359  1.0602  0.1136 -0.9340
 3457SOL    HW222005   0.745   0.988   7.285  2.3202  0.1318 -4.2054
 3458SOL     OW22006   2.439   1.043  17.036  0.8608  0.1007 -0.4842
 3458SOL    HW122007   2.465   1.080  17.121 -1.2446 -0.6567  0.4780
 3458SOL    HW222008   2.349   1.076  17.031  2.0148  3.9385  3.4499
 3459SOL     OW22009   2.341   3.461   8.604  0.5040  0.2392 -0.4465
 3459SOL    HW122010   2.417   3.502   8.645  0.3571  0.3123 -0.2440
 3459SOL    HW222011   2.264   3.501   8.645 -0.4525  0.0537 -2.0656
 3460SOL     OW22012   3.872   0.576   3.782 -0.4779 -0.4237  0.1080
 3460SOL    HW122013   3.903   0.503   3.836  3.1876 -0.4240 -2.0159
 3460SOL    HW222014   3.956   0.621   3.769 -0.7333  0.2441  0.7163
 3461SOL     OW22015   3.027   2.332   1.787  0.4935 -0.1947 -0.0509
 3461SOL    HW122016   3.019   2.246   1.829 -0.2770 -0.9917 -1.8182
 3461SOL    HW222017   2.950   2.363   1.835  0.7585 -0.2539  0.4176
 3462SOL     OW22018   0.471   0.127   3.516 -0.2022  0.3598 -0.2097
 3462SOL    HW122019   0.527   0.164   3.448 -1.8200 -0.2122 -1.8624
 3462SOL    HW222020   0.388   0.102   3.474  0.2793  0.6777 -1.3394
 3463SOL     OW22021   1.165   0.712  15.864 -0.4940  0.4336 -0.0226
 3463SOL    HW122022   1.107   0.778  15.901  0.3626  0.2370  1.6732
 3463SOL    HW222023   1.227   0.768  15.816  2.1068 -0.5853  2.1660
 3464SOL     OW22024   1.519   1.256   4.858 -0.0795  0.0380  0.3420
 3464SOL    HW122025   1.558   1.171   4.874  0.3844  0.6277  2.3796
 3464SOL    HW222026   1.432   1.232   4.826  0.1548 -0.7488  0.2974
 3465SOL     OW22027   3.680   3.788   8.336  0.4350  0.5946 -0.6182
 3465SOL    HW122028   3.728   3.772   8.418  1.2983 -0.2335 -1.2767
 3465SOL    HW222029   3.669   3.883   8.335 -0.6838  0.4471 -2.0954
 3466SOL     OW22030   0.990   2.096   6.545 -0.8256  0.4784  0.3432
 3466SOL    HW122031   0.958   2.023   6.598 -1.2530 -0.0888 -0.6903
 3466SOL    HW222032   1.084   2.078   6.543 -0.6926  1.2569 -0.5021
 3467SOL     OW22033   3.199   4.248   6.729  0.2166  0.0354  0.7709
 3467SOL    HW122034   3.148   4.272   6.652  1.9507  2.1799  0.3135
 3467SOL    HW222035   3.259   4.181   6.696  3.3880  1.5007  3.5883
 3468SOL     OW22036   1.630   2.577  13.113 -0.2757 -0.4348 -0.5382
 3468SOL    HW122037   1.700   2.635  13.082 -0.8621 -0.0860 -1.2116
 3468SOL    HW222038   1.683   2.499  13.121 -0.9028 -1.1467 -3.2818
 3469SOL     OW22039   2.538   1.367  10.134 -0.2009  0.1632  0.1449
 3469SOL    HW122040   2.496   1.296  10.183 -0.8052 -0.9425 -2.0116
 3469SOL    HW222041   2.536   1.349  10.040 -1.7032  1.1522 -0.0107
 3470SOL     OW22042   2.857   2.132   6.795  0.1802  0.7235  0.3193
 3470SOL    HW122043   2.831   2.099   6.710  2.4089 -3.9493  1.4378
 3470SOL    HW222044   2.863   2.226   6.775 -1.8904  0.3404 -2.0449
 3471SOL     OW22045   3.026   2.824   5.889  0.2740 -0.5624 -0.3175
 3471SOL    HW122046   3.036   2.745   5.836  1.7647 -1.4143  1.2282
 3471SOL    HW222047   3.109   2.820   5.938 -0.7764  0.5242  1.5542
 3472SOL     OW22048   1.364   0.033   5.510 -0.2356 -0.6026 -0.0734
 3472SOL    HW122049   1.442   0.034   5.455 -0.2324  0.3217 -0.0623
 3472SOL    HW222050   1.373   4.685   5.548  1.1297  1.2104  3.8387
 3473SOL     OW22051   1.787   1.947  17.302  0.1476 -0.2473 -0.0472
 3473SOL    HW122052   1.777   2.018  17.365 -1.6244 -2.9837  2.7516
 3473SOL    HW222053   1.706   1.897  17.312 -0.8992  1.3715 -0.5019
 3474SOL     OW22054   3.312   1.372  17.581  0.3045  0.2512 -0.3362
 3474SOL    HW122055   3.319   1.357  17.675  0.7348 -1.0442 -0.5655
 3474SOL    HW222056   3.377   1.308  17.552  1.1995  1.6009 -1.3096
 3475SOL     OW22057   2.149   1.819   5.097 -0.0785  0.4988 -0.0847
 3475SOL    HW122058   2.134   1.807   5.003 -0.8991 -0.9438  0.2270
 3475SOL    HW222059   2.233   1.865   5.093 -1.0622  2.3152 -0.2063
 3476SOL     OW22060   2.689   0.355   7.218 -0.2662 -0.3551 -0.5820
 3476SOL    HW122061   2.639   0.437   7.224 -0.4464 -0.6399  1.9152
 3476SOL    HW222062   2.741   0.366   7.139  1.5598  0.2456  0.6992
 3477SOL     OW22063   4.553   4.251   4.462 -1.1177 -0.4435 -0.2237
 3477SOL    HW122064   4.582   4.168   4.425  0.8542  0.6572 -1.1251
 3477SOL    HW222065   4.548   4.221   4.553 -0.9649 -1.8476 -0.6661
 3478SOL     OW22066   0.858   2.591   2.151 -0.6890 -0.1073 -0.1194
 3478SOL    HW122067   0.801   2.537   2.096  0.2366 -1.7616  0.5386
 3478SOL    HW222068   0.935   2.540   2.177 -0.5421 -0.8073 -1.9503
 3479SOL     OW22069   2.730   2.419  12.154 -0.4590 -0.0698  0.2131
 3479SOL    HW122070   2.661   2.467  12.200 -1.0624 -0.9873  0.2673
 3479SOL    HW222071   2.675   2.346  12.126 -0.1660 -1.0305  2.1561
 3480SOL     OW22072   3.555   0.045   3.252  0.0518  0.4675 -0.0557
 3480SOL    HW122073   3.460   0.041   3.246 -0.0474  0.6329  1.3376
 3480SOL    HW222074   3.564   0.125   3.303 -1.1266  1.2978 -1.1617
 3481SOL     OW22075   4.585   4.194   3.880 -0.1917  0.5769 -0.2560
 3481SOL    HW122076   4.536   4.272   3.853 -0.1394  0.7944  0.2840
 3481SOL    HW222077   4.566   4.189   3.974 -3.3254  0.6606 -0.9094
 3482SOL     OW22078   0.350   4.273   9.417 -0.7809 -0.2111  0.2954
 3482SOL    HW122079   0.338   4.296   9.325  1.3185 -1.9476 -0.4371
 3482SOL    HW222080   0.297   4.344   9.452  0.7532 -1.0263  4.2455
 3483SOL     OW22081   3.586   2.723   7.580  0.2755  0.6681 -0.1356
 3483SOL    HW122082   3.597   2.632   7.606 -1.1205  0.4039 -0.5213
 3483SOL    HW222083   3.551   2.755   7.664 -0.3111  1.9411 -0.8575
 3484SOL     OW22084   4.589   1.314   9.082  0.3763 -0.3359 -0.8486
 3484SOL    HW122085   4.510   1.322   9.137  0.1163 -1.9927 -0.9523
 3484SOL    HW222086   4.633   1.393   9.111 -1.3544  0.9976 -1.8641
 3485SOL     OW22087   1.020   4.624   2.603 -0.2272 -0.0032  0.0176
 3485SOL    HW122088   0.959   4.567   2.651  0.6382 -0.7457  0.2353
 3485SOL    HW222089   0.989   4.710   2.631  3.9731  1.6000 -0.4309
 3486SOL     OW22090   2.251   0.345  12.534  0.3352 -0.0568 -0.7618
 3486SOL    HW122091   2.234   0.273  12.595 -1.5992  0.0979 -1.1157
 3486SOL    HW222092   2.213   0.421  12.577  0.2429 -0.6566  0.2058
 3487SOL     OW22093   2.794   4.271   6.788  0.0599  0.3057 -0.2112
 3487SOL    HW122094   2.807   4.283   6.882 -1.7579 -1.2731  0.2498
 3487SOL    HW222095   2.876   4.228   6.765 -0.0215  0.1926 -0.2932
 3488SOL     OW22096   1.670   2.990   5.339  0.1118 -0.6692  0.3275
 3488SOL    HW122097   1.581   2.999   5.304 -0.5030 -1.1320  1.7476
 3488SOL    HW222098   1.662   3.016   5.431  1.8343  0.9335  0.0060
 3489SOL     OW22099   2.919   0.495   5.721 -0.3120  0.1031  0.4448
 3489SOL    HW122100   2.864   0.420   5.744 -1.5099  0.7705 -0.2098
 3489SOL    HW222101   3.007   0.465   5.745 -0.8693 -1.0431  1.0408
 3490SOL     OW22102   3.011   2.493   5.560  0.5882  0.0975 -0.1458
 3490SOL    HW122103   2.925   2.514   5.595  0.8697  0.4046  0.3713
 3490SOL    HW222104   2.998   2.407   5.519 -4.8398  1.3076 -0.8749
 3491SOL     OW22105   1.434   1.755   9.613 -0.7343  0.4136  0.4251
 3491SOL    HW122106   1.498   1.695   9.653 -0.5006 -1.8839 -3.4459
 3491SOL    HW222107   1.430   1.810   9.691  1.0234  2.3931 -0.8732
 3492SOL     OW22108   2.711   2.856   8.247 -0.5987  0.2165 -0.2581
 3492SOL    HW122109   2.659   2.861   8.167  0.2488 -1.7880 -0.9378
 3492SOL    HW222110   2.673   2.778   8.289  1.0850 -0.0173  0.8398
 3493SOL     OW22111   4.056   4.489   2.604 -0.0102 -0.5526 -0.7561
 3493SOL    HW122112   4.017   4.525   2.524  0.9109  1.2652 -0.3939
 3493SOL    HW222113   3.983   4.487   2.666  0.0420  0.5079 -0.6512
 3494SOL     OW22114   4.016   0.412   7.091 -0.2139  0.9284 -0.1227
 3494SOL    HW122115   3.990   0.442   7.003 -0.0480 -1.2852 -0.9283
 3494SOL    HW222116   4.001   0.318   7.093 -0.0571  0.8595 -2.0790
 3495SOL     OW22117   2.378   2.177   2.531  0.2473 -0.3158  0.2103
 3495SOL    HW122118   2.364   2.264   2.569 -1.5059 -0.6216  0.2805
 3495SOL    HW222119   2.464   2.189   2.491 -0.1899  0.2661 -0.5494
 3496SOL     OW22120   3.147   3.085   8.214  0.4556 -0.3773 -0.7871
 3496SOL    HW122121   3.151   3.152   8.147  1.9747 -2.4812 -2.8027
 3496SOL    HW222122   3.076   3.029   8.183 -0.3452  0.2455 -0.0697
 3497SOL     OW22123   3.077   0.000   4.921 -0.5105 -0.3255 -0.0098
 3497SOL    HW122124   3.036   0.006   5.008 -0.1157  0.3824  0.1288
 3497SOL    HW222125   3.056   4.651   4.891  0.2026 -1.0649  1.6661
 3498SOL     OW22126   2.815   4.507   1.024 -0.2101 -0.4203  0.0225
 3498SOL    HW122127   2.736   4.480   1.072 -0.4281 -0.6651 -0.4804
 3498SOL    HW222128   2.824   4.430   0.968 -0.2363 -1.1112  0.9606
 3499SOL     OW22129   3.668   1.637   2.625  0.3548 -0.1999 -0.2772
 3499SOL    HW122130   3.715   1.590   2.694  1.0978 -0.0551 -0.6827
 3499SOL    HW222131   3.647   1.560   2.573 -2.5540 -0.5467  1.4512
 3500SOL     OW22132   3.124   1.163   8.061 -0.1635  0.2469 -0.4227
 3500SOL    HW122133   3.080   1.139   7.979 -1.3489  0.1943  0.2243
 3500SOL    HW222134   3.123   1.076   8.100  1.9404  1.1382  1.6266
 3501SOL     OW22135   1.396   1.640  15.712 -0.0934  0.1515 -0.0706
 3501SOL    HW122136   1.386   1.551  15.745 -0.7354  0.1423 -0.2923
 3501SOL    HW222137   1.490   1.644  15.695  0.8350 -0.1108  4.8747
 3502SOL     OW22138   1.513   4.244   8.262  0.2613 -0.1886 -0.0410
 3502SOL    HW122139   1.480   4.282   8.344  3.5284  2.0558  0.2635
 3502SOL    HW222140   1.606   4.267   8.250  0.0526 -0.6405 -2.4133
 3503SOL     OW22141   3.543   2.610  15.066 -0.1606  0.3345 -0.8112
 3503SOL    HW122142   3.597   2.654  15.131 -1.4164  1.0227 -0.2443
 3503SOL    HW222143   3.588   2.640  14.987 -0.1106  0.0353 -0.8965
 3504SOL     OW22144   4.644   2.155   7.664 -0.0708  0.2527  0.0568
 3504SOL    HW122145   4.567   2.141   7.610  0.8330 -2.0138 -0.6507
 3504SOL    HW222146   4.635   2.250   7.678  1.3755  0.5598 -1.0978
 3505SOL     OW22147   2.512   3.049  15.638  0.4355 -0.1308  0.0076
 3505SOL    HW122148   2.464   3.086  15.712 -1.0941 -1.3951 -0.3462
 3505SOL    HW222149   2.589   3.010  15.679  1.2505 -0.7816 -2.1477
 3506SOL     OW22150   3.102   1.773   4.383 -0.4085 -0.1357 -0.2469
 3506SOL    HW122151   3.049   1.698   4.409 -1.1050  0.4380 -0.0149
 3506SOL    HW222152   3.104   1.825   4.464  1.2594 -1.2501  0.4369
 3507SOL     OW22153   2.826   4.504   7.244  0.5606 -0.3674 -0.2172
 3507SOL    HW122154   2.737   4.516   7.279  1.5739  1.4896  1.7489
 3507SOL    HW222155   2.809   4.433   7.183  0.6511  1.0265 -1.8665
 3508SOL     OW22156   4.056   2.804   8.441 -0.1936 -0.7195  0.5280
 3508SOL    HW122157   4.041   2.856   8.362 -0.5092  1.5612  2.0706
 3508SOL    HW222158   4.112   2.861   8.494  1.9069 -0.7684 -1.6318
 3509SOL     OW22159   3.295   0.451   4.927  0.1752  0.7792  0.2649
 3509SOL    HW122160   3.230   0.421   4.991  2.6614  0.8311  2.7941
 3509SOL    HW222161   3.280   0.381   4.864  4.2741 -0.4854  0.7584
 3510SOL     OW22162   2.916   1.796  12.433 -0.0207 -0.0951  0.2366
 3510SOL    HW122163   2.866   1.740  12.373  0.8881 -0.4452 -0.1914
 3510SOL    HW222164   2.874   1.786  12.518  0.5426 -0.2665  0.4928
 3511SOL     OW22165   3.987   0.889   3.217 -0.2601  0.0713 -0.0195
 3511SOL    HW122166   3.934   0.948   3.162  0.1676 -1.9101 -2.5389
 3511SOL    HW222167   4.047   0.858   3.149  0.7081 -1.0430  1.3600
 3512SOL     OW22168   1.120   3.564   7.908  0.2082  0.1111 -0.3212
 3512SOL    HW122169   1.170   3.533   7.984  0.7899 -0.5620 -0.9722
 3512SOL    HW222170   1.194   3.579   7.849 -1.8727 -2.4174 -3.6084
 3513SOL     OW22171   0.868   1.817   2.394 -0.6067 -0.0662 -0.2789
 3513SOL    HW122172   0.926   1.841   2.466  0.9394 -0.1205 -1.4822
 3513SOL    HW222173   0.785   1.828   2.439  0.5905 -0.0307  1.9448
 3514SOL     OW22174   0.817   1.217   3.948 -0.5339 -0.1862  0.1319
 3514SOL    HW122175   0.812   1.224   4.043 -1.6232  1.5677 -0.0529
 3514SOL    HW222176   0.770   1.134   3.938 -3.3831  1.4464 -0.0529
 3515SOL     OW22177   2.228   3.378   9.210  0.0274  0.0476 -0.3432
 3515SOL    HW122178   2.241   3.394   9.117  1.7216 -0.6693 -0.2343
 3515SOL    HW222179   2.307   3.412   9.253 -0.1933  0.2401 -0.0857
 3516SOL     OW22180   1.498   2.560   2.708  0.2751  0.0122  0.1200
 3516SOL    HW122181   1.584   2.602   2.717  0.8976 -0.9457 -1.5586
 3516SOL    HW222182   1.437   2.633   2.697 -0.2314 -0.1679  1.6395
 3517SOL     OW22183   2.990   4.231   8.647  0.1846 -0.7430 -0.2190
 3517SOL    HW122184   3.079   4.209   8.621  0.5457 -0.9453  1.1551
 3517SOL    HW222185   2.951   4.144   8.649  2.6125 -1.7974  1.3225
 3518SOL     OW22186   2.315   4.670   5.394 -0.2665  0.0221  0.4850
 3518SOL    HW122187   2.252   4.700   5.459 -0.6316 -1.3459  0.7562
 3518SOL    HW222188   2.381   4.740   5.394 -1.5396  1.2546 -1.2597
 3519SOL     OW22189   0.664   2.881   9.270 -0.0772 -0.1899 -0.1541
 3519SOL    HW122190   0.742   2.839   9.235  1.1616  1.4321  0.6535
 3519SOL    HW222191   0.601   2.825   9.225 -1.8392  0.6871  1.1964
 3520SOL     OW22192   2.494   0.692  12.501 -0.5361  0.3917 -0.2085
 3520SOL    HW122193   2.426   0.644  12.452  1.6278  0.4859 -3.2761
 3520SOL    HW222194   2.478   0.668  12.593  0.4397  3.1523  0.6772
 3521SOL     OW22195   1.564   3.639   9.472 -0.6639  0.0181  0.6191
 3521SOL    HW122196   1.648   3.592   9.467 -0.9181 -0.3846  0.0927
 3521SOL    HW222197   1.585   3.705   9.538  0.8188  0.9181 -0.7412
 3522SOL     OW22198   2.724   3.377   3.663  0.1180  0.1909 -0.3156
 3522SOL    HW122199   2.666   3.311   3.701  1.3823 -1.1451 -0.7285
 3522SOL    HW222200   2.775   3.335   3.594 -1.1460 -0.5368 -0.8121
 3523SOL     OW22201   2.075   0.589  16.973  0.0437  0.0870  0.4171
 3523SOL    HW122202   2.146   0.646  17.003 -1.0751  1.1770  0.9984
 3523SOL    HW222203   2.069   0.640  16.892  1.1418  0.3681  0.5085
 3524SOL     OW22204   4.113   1.196   5.026 -0.2382  0.0376 -0.2115
 3524SOL    HW122205   4.115   1.288   4.999  0.4082 -0.0548 -0.4814
 3524SOL    HW222206   4.174   1.156   4.964 -0.9300 -1.9941  0.4281
 3525SOL     OW22207   0.201   2.484  13.182  0.4757  0.3408  0.4930
 3525SOL    HW122208   0.205   2.514  13.091  0.0195 -2.8218 -0.5916
 3525SOL    HW222209   0.234   2.559  13.231 -0.4667  0.1526  1.4101
 3526SOL     OW22210   4.479   1.575   5.451 -0.4001 -0.0482  0.0494
 3526SOL    HW122211   4.427   1.602   5.527  1.6891  1.0176  1.0926
 3526SOL    HW222212   4.414   1.553   5.385 -0.8047 -1.5380  0.9390
 3527SOL     OW22213   3.115   3.952   8.712 -0.6355  0.0713  0.2725
 3527SOL    HW122214   3.159   4.009   8.649 -1.4973  1.3430  0.8345
 3527SOL    HW222215   3.174   3.946   8.787 -0.6645  1.7363  0.4269
 3528SOL     OW22216   0.208   2.250   8.946 -0.0599  0.0900  0.4966
 3528SOL    HW122217   0.170   2.275   8.862  0.4962  1.9819  0.7881
 3528SOL    HW222218   0.146   2.185   8.978 -1.2747  0.2633 -1.4838
 3529SOL     OW22219   2.439   4.502  12.447  0.6718  0.0201  0.0949
 3529SOL    HW122220   2.533   4.486  12.448  0.7759  0.6549  1.4552
 3529SOL    HW222221   2.437   4.593  12.419 -2.1098 -0.3326 -0.8502
 3530SOL     OW22222   3.936   2.346   3.265  0.7252  1.2687  0.0916
 3530SOL    HW122223   3.921   2.317   3.355  0.3289  1.1196 -0.0239
 3530SOL    HW222224   3.867   2.308   3.211  0.9735 -0.7542  1.1833
 3531SOL     OW22225   2.488   3.728   5.679 -0.7834 -0.3325 -0.3519
 3531SOL    HW122226   2.412   3.760   5.633 -1.9926  0.5793  2.2782
 3531SOL    HW222227   2.469   3.634   5.679 -0.1976 -0.4532 -1.5392
 3532SOL     OW22228   1.685   3.147   6.809  0.3921  0.4455  0.2367
 3532SOL    HW122229   1.634   3.224   6.784  1.2948  0.3503 -1.9012
 3532SOL    HW222230   1.673   3.102   6.725  1.1088  0.8311 -0.0615
 3533SOL     OW22231   1.012   3.221   2.166 -0.5840 -0.1769  0.2915
 3533SOL    HW122232   1.085   3.244   2.109 -0.3050 -1.7521  0.0037
 3533SOL    HW222233   0.940   3.252   2.110 -0.3041  0.8803  0.5309
 3534SOL     OW22234   3.863   2.044   6.283 -0.4219  0.0077  0.1117
 3534SOL    HW122235   3.931   2.015   6.343  0.7372  0.2541 -1.0965
 3534SOL    HW222236   3.782   2.003   6.316 -0.3203 -0.1730  0.1364
 3535SOL     OW22237   0.099   2.397   9.241  0.1740  0.4188  0.2350
 3535SOL    HW122238   0.163   2.464   9.216  1.0164 -0.5832 -0.2512
 3535SOL    HW222239   0.116   2.390   9.335 -1.3059  2.1479  0.6481
 3536SOL     OW22240   3.018   1.102   2.781  0.8653 -0.3303  0.6038
 3536SOL    HW122241   3.059   1.186   2.801 -2.2478  1.2520  0.3470
 3536SOL    HW222242   2.996   1.116   2.689 -3.6050  2.0623  2.0420
 3537SOL     OW22243   0.958   3.778   7.365 -0.2483  0.3615 -0.2208
 3537SOL    HW122244   1.045   3.753   7.396 -0.5584 -0.9530 -0.4289
 3537SOL    HW222245   0.925   3.692   7.339 -0.7652  0.5177 -0.0979
 3538SOL     OW22246   3.515   1.511  13.100 -0.4745  0.3614  0.0475
 3538SOL    HW122247   3.608   1.493  13.088 -0.5139  0.2904 -0.1506
 3538SOL    HW222248   3.498   1.531  13.008  0.9171  0.6574 -0.1470
 3539SOL     OW22249   4.650   3.582   2.838  0.4429  0.6328  0.3137
 3539SOL    HW122250   4.722   3.605   2.778  1.2637  2.3591  1.9677
 3539SOL    HW222251   4.594   3.549   2.768  1.1076 -0.3594  0.2374
 3540SOL     OW22252   0.236   4.496   9.518  0.1625  0.2241  0.4010
 3540SOL    HW122253   0.201   4.497   9.607 -3.1246  2.2535 -0.8887
 3540SOL    HW222254   0.152   4.517   9.477  0.3418 -1.1111 -0.6332
 3541SOL     OW22255   2.678   1.261  15.946 -0.0860 -0.2035  0.3213
 3541SOL    HW122256   2.602   1.241  16.002  1.6356 -1.5490  2.1780
 3541SOL    HW222257   2.682   1.353  15.973  3.2143  0.2351 -1.6134
 3542SOL     OW22258   0.473   0.700   6.345 -0.4227  0.3848  0.6677
 3542SOL    HW122259   0.490   0.645   6.421 -0.1596 -0.6860 -0.1542
 3542SOL    HW222260   0.383   0.733   6.347  0.9355  4.1336 -0.4664
 3543SOL     OW22261   2.928   1.429  14.498 -0.0914 -0.1983  0.2721
 3543SOL    HW122262   2.912   1.485  14.422  1.8186  1.0881  0.8285
 3543SOL    HW222263   2.861   1.469  14.554 -0.7221  1.2955 -1.5373
 3544SOL     OW22264   2.096   3.259   2.705 -0.8168  0.1522 -0.1916
 3544SOL    HW122265   2.175   3.283   2.656  0.9131  1.6897  3.3191
 3544SOL    HW222266   2.078   3.166   2.692  0.8486 -0.1893 -0.1215
 3545SOL     OW22267   3.244   0.186   7.538 -0.3689 -0.1790 -0.0695
 3545SOL    HW122268   3.288   0.269   7.516  0.9788 -0.6918  0.6701
 3545SOL    HW222269   3.150   0.199   7.530 -0.3311  0.5323  0.6238
 3546SOL     OW22270   0.735   2.126   3.576  0.1003 -0.4342 -0.5305
 3546SOL    HW122271   0.774   2.210   3.551  2.5408 -1.8815 -1.5591
 3546SOL    HW222272   0.665   2.159   3.633  3.0197  2.1446  1.5427
 3547SOL     OW22273   2.608   3.040   6.889 -0.4107  0.6027  0.1793
 3547SOL    HW122274   2.553   2.962   6.899  2.1145 -1.4943 -2.4497
 3547SOL    HW222275   2.562   3.102   6.945 -0.7988 -0.1962  0.7526
 3548SOL     OW22276   1.430   2.978   8.589  0.3005  0.2950  0.2510
 3548SOL    HW122277   1.426   3.042   8.660  0.4513  0.0636  0.4685
 3548SOL    HW222278   1.383   3.015   8.514  0.3886 -0.2785 -0.0857
 3549SOL     OW22279   2.948   0.731   7.023 -0.5310  0.3798 -0.6069
 3549SOL    HW122280   2.895   0.713   6.945 -0.7700 -1.7871  0.0589
 3549SOL    HW222281   3.031   0.745   6.978 -0.4494 -0.2832 -0.6649
 3550SOL     OW22282   1.510   0.745   5.934  0.1524  0.4461 -0.0757
 3550SOL    HW122283   1.422   0.710   5.916 -1.0483  2.6010  1.6700
 3550SOL    HW222284   1.529   0.684   6.006  0.2221 -0.1993 -0.6383
 3551SOL     OW22285   1.225   4.298   3.110  0.3496  0.3451  0.1821
 3551SOL    HW122286   1.175   4.218   3.123  1.7579 -1.1024 -3.2891
 3551SOL    HW222287   1.147   4.350   3.092  1.5067  2.2326  0.5280
 3552SOL     OW22288   4.389   0.251  11.465  0.5225  0.4861 -0.6223
 3552SOL    HW122289   4.428   0.306  11.396  0.9986  1.8470  0.7168
 3552SOL    HW222290   4.309   0.302  11.477 -0.9696 -1.8980 -0.4391
 3553SOL     OW22291   0.545   3.245  11.189  0.2560  0.4303  0.1911
 3553SOL    HW122292   0.482   3.312  11.213 -1.5330 -1.1769  0.0033
 3553SOL    HW222293   0.623   3.272  11.238 -1.5220 -0.2513  3.3971
 3554SOL     OW22294   1.611   2.741  10.086 -0.0100 -0.3081 -0.2340
 3554SOL    HW122295   1.517   2.738  10.071 -0.1527 -0.0064  0.5827
 3554SOL    HW222296   1.643   2.795  10.013 -3.1977  1.9755  0.0597
 3555SOL     OW22297   0.404   0.387  14.346  0.5534 -0.2254 -0.5998
 3555SOL    HW122298   0.313   0.415  14.353  0.7509  0.4737 -0.8363
 3555SOL    HW222299   0.400   0.317  14.282 -1.1982 -0.7502  0.0921
 3556SOL     OW22300   3.584   3.440   4.143  0.0660  0.2706  0.1484
 3556SOL    HW122301   3.505   3.397   4.175  0.2782 -1.6854 -1.9618
 3556SOL    HW222302   3.590   3.405   4.055  1.6706  3.2178 -0.9130
 3557SOL     OW22303   2.208   2.881  16.994 -0.2365  0.3425  0.0780
 3557SOL    HW122304   2.263   2.839  17.060  0.3079 -0.5324 -0.9486
 3557SOL    HW222305   2.236   2.832  16.917  0.3249 -0.7396  0.9864
 3558SOL     OW22306   1.333   0.160  11.334 -0.4526 -0.5342 -0.2723
 3558SOL    HW122307   1.322   0.154  11.239 -0.9590 -2.7245 -0.0943
 3558SOL    HW222308   1.402   0.093  11.337 -1.3778 -1.5044 -0.3859
 3559SOL     OW22309   2.695   1.518   8.914 -0.2771  0.2155 -0.0773
 3559SOL    HW122310   2.633   1.466   8.864  1.2801 -1.9048  0.1700
 3559SOL    HW222311   2.722   1.580   8.846 -2.5867  0.4412 -0.7633
 3560SOL     OW22312   2.787   1.508   4.165 -0.0401  0.2673 -0.4149
 3560SOL    HW122313   2.835   1.508   4.082 -1.5048  3.5748 -1.2807
 3560SOL    HW222314   2.692   1.513   4.153 -0.1554  0.7197  0.6455
 3561SOL     OW22315   2.623   1.118  14.109 -0.2520 -0.3175 -0.3193
 3561SOL    HW122316   2.603   1.117  14.202 -2.2620  2.9831 -0.7514
 3561SOL    HW222317   2.719   1.114  14.115 -0.2722 -0.2464  0.0640
 3562SOL     OW22318   4.574   4.017   1.509  0.4259 -0.1754 -0.2132
 3562SOL    HW122319   4.538   4.099   1.476  0.4854  0.1008  0.4132
 3562SOL    HW222320   4.622   4.058   1.580 -0.1841  0.6996 -0.3066
 3563SOL     OW22321   2.745   3.044   3.121 -0.0608  0.3605 -0.5807
 3563SOL    HW122322   2.761   2.959   3.163  0.8144  0.2580 -1.1281
 3563SOL    HW222323   2.724   3.015   3.032  1.9945  2.1473 -1.6460
 3564SOL     OW22324   4.391   3.999   6.734  0.2108  0.8249 -0.0517
 3564SOL    HW122325   4.418   4.039   6.816  0.6095  1.2605 -0.3919
 3564SOL    HW222326   4.391   3.907   6.760 -0.8941  1.1870  1.2244
 3565SOL     OW22327   1.012   4.604   4.232  0.1629  0.0103 -0.4351
 3565SOL    HW122328   0.962   4.676   4.271 -2.5136 -2.1082 -0.0044
 3565SOL    HW222329   0.944   4.576   4.171  0.9524  1.1668 -1.8536
 3566SOL     OW22330   0.825   3.439   3.129 -0.5390 -0.4279 -0.0289
 3566SOL    HW122331   0.744   3.411   3.086 -0.8744 -1.0232  0.9818
 3566SOL    HW222332   0.891   3.405   3.069 -0.2326 -0.6531  0.4391
 3567SOL     OW22333   1.533   0.340   7.470  0.1358  0.3609  0.2898
 3567SOL    HW122334   1.606   0.391   7.436  1.0267 -0.0674  1.5902
 3567SOL    HW222335   1.583   0.294   7.537 -1.0536  1.2586  1.7739
 3568SOL     OW22336   2.629   3.692   3.586 -0.1907 -0.1003  0.4117
 3568SOL    HW122337   2.555   3.633   3.577 -0.4562  0.1122  1.1208
 3568SOL    HW222338   2.686   3.638   3.641  1.0203  0.0835 -0.6836
 3569SOL     OW22339   0.086   4.246   9.927  0.4187  0.5356  0.4878
 3569SOL    HW122340   0.093   4.322   9.869  0.8834 -0.1215 -0.3363
 3569SOL    HW222341   0.159   4.190   9.900  0.7585  2.0245 -1.7387
 3570SOL     OW22342   4.386   4.329  11.171 -0.1074 -0.2282  0.4292
 3570SOL    HW122343   4.451   4.259  11.164 -1.2308 -1.3156  0.9409
 3570SOL    HW222344   4.449   4.394  11.202  0.3207  0.6816 -2.4264
 3571SOL     OW22345   4.547   4.416   9.213 -0.1585 -0.4338 -0.2378
 3571SOL    HW122346   4.566   4.324   9.227  1.0419 -0.2865 -0.8525
 3571SOL    HW222347   4.462   4.420   9.257 -0.5198 -3.7286 -0.6750
 3572SOL     OW22348   2.782   0.099   6.074  0.0026  0.1413  0.5945
 3572SOL    HW122349   2.844   0.169   6.053 -0.3609 -0.0383 -1.0363
 3572SOL    HW222350   2.837   0.030   6.038 -0.5854 -0.1424  0.2490
 3573SOL     OW22351   4.314   2.376   6.064 -0.1328  0.2721  0.1362
 3573SOL    HW122352   4.350   2.322   5.993  0.5438 -0.3934  0.9846
 3573SOL    HW222353   4.321   2.311   6.134 -0.3740 -0.3499 -0.4141
 3574SOL     OW22354   4.713   2.654   8.375 -0.6110  0.4523 -0.6129
 3574SOL    HW122355   4.718   2.679   8.467 -0.7031  0.6352 -0.6595
 3574SOL    HW222356   0.032   2.720   8.340 -0.1450 -0.4327 -1.5128
 3575SOL     OW22357   1.800   2.417  12.167  0.0751  0.3184 -0.3332
 3575SOL    HW122358   1.751   2.485  12.212  0.1626  0.3079 -0.2219
 3575SOL    HW222359   1.842   2.367  12.237 -1.4947  0.6588  0.8683
 3576SOL     OW22360   2.120   0.674   3.792 -0.4113  0.1063 -0.6252
 3576SOL    HW122361   2.197   0.721   3.822 -0.1148 -1.9359  1.7624
 3576SOL    HW222362   2.155   0.600   3.741  1.7159  1.8714 -1.7125
 3577SOL     OW22363   3.344   4.036  16.208 -0.0469  0.1061  0.6608
 3577SOL    HW122364   3.318   4.114  16.159 -1.2126 -0.0601  1.0264
 3577SOL    HW222365   3.332   3.972  16.138 -0.9208 -1.1927  2.0132
 3578SOL     OW22366   1.544   2.728  15.117 -0.1345 -0.1496  0.3714
 3578SOL    HW122367   1.568   2.659  15.054  1.4105  0.0523  0.7513
 3578SOL    HW222368   1.471   2.770  15.072  1.3799  0.5475 -1.4448
 3579SOL     OW22369   2.775   2.111  11.791 -0.2285 -0.2972  0.9336
 3579SOL    HW122370   2.860   2.084  11.756 -1.7486 -1.3884 -1.8598
 3579SOL    HW222371   2.811   2.158  11.867 -1.8044  0.8971  0.9488
 3580SOL     OW22372   1.462   3.865   7.840  0.3955  0.1437  0.1740
 3580SOL    HW122373   1.401   3.803   7.800  1.5062  0.3601 -1.8620
 3580SOL    HW222374   1.415   3.948   7.832 -1.0645 -0.8038 -1.0257
 3581SOL     OW22375   0.587   3.642   5.421  0.8084 -0.6659 -0.4658
 3581SOL    HW122376   0.605   3.628   5.514 -0.7332 -0.4050 -0.1227
 3581SOL    HW222377   0.670   3.683   5.398  1.6462 -1.5670  0.9138
 3582SOL     OW22378   3.216   1.433   6.709  0.3149 -0.1422  1.0620
 3582SOL    HW122379   3.194   1.398   6.795  1.4037  2.5681  2.4520
 3582SOL    HW222380   3.275   1.506   6.728  0.4306  0.0748 -0.1311
 3583SOL     OW22381   2.465   0.945  16.620  0.4158  0.3383 -0.1058
 3583SOL    HW122382   2.410   1.023  16.624  0.2197  0.2871 -1.5317
 3583SOL    HW222383   2.463   0.914  16.710 -1.3916  0.3462 -0.1487
 3584SOL     OW22384   1.317   2.539  16.716 -0.1306 -0.4117 -0.2599
 3584SOL    HW122385   1.374   2.487  16.773  1.7395  2.3535  0.3891
 3584SOL    HW222386   1.267   2.468  16.674 -0.4127 -0.0287 -0.5681
 3585SOL     OW22387   4.288   3.584   0.728 -0.3631  0.4168 -0.2056
 3585SOL    HW122388   4.247   3.527   0.662  0.7978 -0.9002  0.2109
 3585SOL    HW222389   4.368   3.602   0.678 -0.5627 -0.0399 -0.6978
 3586SOL     OW22390   1.125   1.165   4.076 -0.0161 -0.0232  0.0966
 3586SOL    HW122391   1.142   1.191   3.985 -1.1628 -0.2910 -0.2019
 3586SOL    HW222392   1.057   1.228   4.102 -0.9543 -0.2612 -1.7957
 3587SOL     OW22393   3.960   1.625   3.729  0.2388  0.1632  0.5639
 3587SOL    HW122394   4.050   1.591   3.734  0.7691  1.6919  1.2516
 3587SOL    HW222395   3.926   1.626   3.818 -1.4312 -0.0827 -0.0842
 3588SOL     OW22396   3.878   4.494   2.817 -0.7952  0.1750  0.3817
 3588SOL    HW122397   3.914   4.408   2.838  1.6800  1.3115  0.7516
 3588SOL    HW222398   3.915   4.539   2.893  1.3841  1.2763 -1.3163
 3589SOL     OW22399   3.174   1.884   8.244 -0.0367 -0.7570 -0.2652
 3589SOL    HW122400   3.227   1.947   8.294  0.2602 -0.5946 -0.7891
 3589SOL    HW222401   3.209   1.887   8.155 -1.2675  0.1015 -0.7214
 3590SOL     OW22402   1.103   2.027   3.569  0.1323 -0.1104  0.3095
 3590SOL    HW122403   1.066   2.009   3.482  0.2434 -2.1329  0.6769
 3590SOL    HW222404   1.027   2.008   3.624 -0.0098  3.0162  1.1483
 3591SOL     OW22405   2.278   1.105  11.950 -0.0423 -0.0519  0.0282
 3591SOL    HW122406   2.234   1.036  11.900 -0.4868  1.2987 -1.4261
 3591SOL    HW222407   2.211   1.159  11.991 -1.1985 -2.0406  0.7673
 3592SOL     OW22408   1.155   3.976   4.207  0.2465  0.1576  0.1973
 3592SOL    HW122409   1.160   3.945   4.117  1.6405  2.6983 -0.5920
 3592SOL    HW222410   1.107   4.059   4.199 -1.3135 -0.9654 -2.0028
 3593SOL     OW22411   4.122   0.318   3.741 -0.4230 -0.0158 -0.4007
 3593SOL    HW122412   4.106   0.238   3.689 -0.8598  0.6221 -1.2512
 3593SOL    HW222413   4.146   0.382   3.674 -0.9409  0.0304 -0.5394
 3594SOL     OW22414   0.072   0.097   6.643  0.4589 -0.9244  0.1228
 3594SOL    HW122415   0.113   0.021   6.602 -0.6984 -2.0655  1.0496
 3594SOL    HW222416   4.727   0.081   6.601 -0.1067 -2.1965  1.7197
 3595SOL     OW22417   3.080   2.463   3.278 -0.1506 -0.1352  0.2307
 3595SOL    HW122418   3.164   2.483   3.320  1.2811  0.3652 -2.9232
 3595SOL    HW222419   3.098   2.491   3.188 -0.1496 -0.0482  0.2579
 3596SOL     OW22420   4.015   4.485  11.818 -0.2326 -0.1460 -0.1843
 3596SOL    HW122421   4.065   4.565  11.803  0.5426 -0.2520  1.8331
 3596SOL    HW222422   4.022   4.436  11.736  1.4710 -2.2455  1.2316
 3597SOL     OW22423   2.846   1.946   4.150  0.1183  0.5079 -0.1273
 3597SOL    HW122424   2.854   1.861   4.108  2.6700  0.2683  0.8131
 3597SOL    HW222425   2.931   1.991   4.143  1.3279 -1.8834 -0.8953
 3598SOL     OW22426   2.125   4.278   3.376  0.0798  0.0915  0.4492
 3598SOL    HW122427   2.039   4.291   3.336  1.1593  2.5959 -1.0066
 3598SOL    HW222428   2.097   4.285   3.467  1.0117  2.7064  0.5245
 3599SOL     OW22429   4.528   2.251   3.754 -0.1601 -0.3489 -0.3147
 3599SOL    HW122430   4.446   2.282   3.793  2.0554  3.0654  1.6304
 3599SOL    HW222431   4.583   2.327   3.774 -0.6448 -0.4346  1.3543
 3600SOL     OW22432   0.415   4.368   7.956  0.3828  0.5358 -0.2728
 3600SOL    HW122433   0.506   4.365   7.927  1.4915  1.1776  3.1848
 3600SOL    HW222434   0.406   4.298   8.020 -1.2231  1.4850  0.5366
 3601SOL     OW22435   1.561   3.119   5.836  0.1493 -0.5344 -0.4010
 3601SOL    HW122436   1.508   3.192   5.869  0.4324  0.3962 -2.0334
 3601SOL    HW222437   1.515   3.049   5.883 -2.3760  0.1252 -1.8802
 3602SOL     OW22438   3.083   2.595   3.830 -0.5444 -0.0486  0.8149
 3602SOL    HW122439   3.027   2.517   3.835 -0.4402 -0.2537 -1.7117
 3602SOL    HW222440   3.066   2.634   3.916 -3.2260 -0.7443  0.6037
 3603SOL     OW22441   1.478   4.038   7.081 -0.0208 -0.2292 -0.0618
 3603SOL    HW122442   1.561   4.084   7.095 -0.0562 -0.9940  2.6635
 3603SOL    HW222443   1.411   4.106   7.073 -0.7194 -0.9877 -0.6664
 3604SOL     OW22444   2.500   1.024  12.123  0.1609 -0.1162  0.1420
 3604SOL    HW122445   2.569   1.055  12.065  1.2523 -0.4625  1.2598
 3604SOL    HW222446   2.425   1.031  12.063 -0.0925  0.7701  0.5614
 3605SOL     OW22447   4.535   2.892   5.512  0.4394  0.1536 -0.1407
 3605SOL    HW122448   4.615   2.922   5.469  1.4407 -0.3129  1.3707
 3605SOL    HW222449   4.549   2.798   5.523 -0.8971  0.1764  1.9715
 3606SOL     OW22450   3.410   2.630   8.223 -0.8955 -0.4408  0.8272
 3606SOL    HW122451   3.467   2.558   8.195  0.2927  0.5926  0.6235
 3606SOL    HW222452   3.447   2.656   8.307 -1.8263 -2.1356  1.7679
 3607SOL     OW22453   2.456   1.482   6.234  0.0827  0.3632 -0.1884
 3607SOL    HW122454   2.444   1.455   6.143  1.7506 -1.5775  0.1617
 3607SOL    HW222455   2.485   1.396   6.264  0.2428  0.6715  0.5498
 3608SOL     OW22456   4.568   1.871   1.113  1.1353 -0.5810 -0.0090
 3608SOL    HW122457   4.634   1.930   1.150  0.7412 -0.1867  0.0584
 3608SOL    HW222458   4.585   1.786   1.155 -2.1129  0.2356  2.8911
 3609SOL     OW22459   4.024   4.358   7.779  0.5014 -0.4572  0.4185
 3609SOL    HW122460   4.041   4.442   7.735  1.3799 -0.9472 -0.1717
 3609SOL    HW222461   3.929   4.365   7.789  0.2778 -0.9922 -1.2995
 3610SOL     OW22462   2.445   2.727   7.165  0.7923 -0.0261  0.5726
 3610SOL    HW122463   2.391   2.778   7.105 -0.3728 -0.5563  1.1677
 3610SOL    HW222464   2.490   2.793   7.218  0.0816  0.1471  0.9623
 3611SOL     OW22465   2.661   1.640   2.569  0.1111  0.0294  0.7012
 3611SOL    HW122466   2.660   1.664   2.662 -1.5528  1.4589  0.3247
 3611SOL    HW222467   2.570   1.611   2.561  0.1714 -0.1992  0.8708
 3612SOL     OW22468   4.460   2.399   3.475  0.2383 -0.6430  0.0534
 3612SOL    HW122469   4.419   2.418   3.559  0.5772  1.6657 -0.2984
 3612SOL    HW222470   4.463   2.487   3.440 -1.8936  0.3944  2.4577
 3613SOL     OW22471   0.468   1.078   4.293 -0.0086  0.3136  0.1443
 3613SOL    HW122472   0.395   1.024   4.262 -2.4837  4.0028 -0.5249
 3613SOL    HW222473   0.467   1.057   4.386  0.6702  0.8340  0.2666
 3614SOL     OW22474   2.750   1.545   4.645 -0.4180 -0.4477  0.4955
 3614SOL    HW122475   2.812   1.548   4.717  0.9336  0.4329 -0.7287
 3614SOL    HW222476   2.688   1.489   4.693 -0.7124 -0.4259  0.1463
 3615SOL     OW22477   2.973   1.656  11.284 -0.9186 -0.2196  0.4925
 3615SOL    HW122478   2.989   1.638  11.377  2.0299  1.9700  0.3881
 3615SOL    HW222479   3.046   1.716  11.272 -0.6604 -1.4901 -4.3285
 3616SOL     OW22480   0.435   0.289  12.301 -0.3180 -0.2679  0.0748
 3616SOL    HW122481   0.341   0.273  12.303 -0.1460 -1.0561  1.6609
 3616SOL    HW222482   0.447   0.306  12.208 -2.1042 -0.6505 -0.2131
 3617SOL     OW22483   3.477   2.355  11.290 -0.0579 -0.6732 -0.2174
 3617SOL    HW122484   3.572   2.357  11.296  0.0247 -1.7997 -1.1216
 3617SOL    HW222485   3.471   2.313  11.204 -1.0540 -2.1735  0.5994
 3618SOL     OW22486   0.055   4.416   3.979  0.5013  0.6675 -0.2441
 3618SOL    HW122487   0.130   4.423   3.920 -0.3467  1.9086 -1.1803
 3618SOL    HW222488   0.059   4.508   4.009 -0.1651  0.6834 -0.2075
 3619SOL     OW22489   1.844   3.469   4.887 -0.4656 -0.6255 -0.0666
 3619SOL    HW122490   1.915   3.499   4.944 -0.4719 -1.0664  0.1782
 3619SOL    HW222491   1.781   3.542   4.884  1.2328  0.7406 -2.0490
 3620SOL     OW22492   2.343   1.787   4.738 -0.0249 -0.0103 -0.2324
 3620SOL    HW122493   2.304   1.708   4.700 -0.2750  0.3804 -0.7970
 3620SOL    HW222494   2.364   1.844   4.663 -0.2464 -1.1676 -1.1746
 3621SOL     OW22495   1.567   1.649   6.080  0.8577  0.1419 -0.0261
 3621SOL    HW122496   1.618   1.674   6.157 -0.9551  2.8528  0.3232
 3621SOL    HW222497   1.553   1.728   6.027 -0.3128 -0.6753 -0.9371
 3622SOL     OW22498   1.865   2.242   2.341 -0.1374 -0.2656  0.0772
 3622SOL    HW122499   1.772   2.254   2.321 -0.9799 -1.5518  3.1796
 3622SOL    HW222500   1.866   2.238   2.437  1.3784 -2.0249 -0.0288
 3623SOL     OW22501   0.474   3.126   2.936 -0.2478  0.6256  0.0975
 3623SOL    HW122502   0.438   3.071   2.867 -3.2501 -0.3469  2.4341
 3623SOL    HW222503   0.397   3.136   2.994 -0.0982 -0.6441  0.5201
 3624SOL     OW22504   2.575   0.198   4.527  0.4732  0.1932  0.6766
 3624SOL    HW122505   2.492   0.241   4.506  1.9462  2.2076 -1.0933
 3624SOL    HW222506   2.537   0.112   4.545 -2.7042  1.4052 -0.2601
 3625SOL     OW22507   1.508   0.992  14.964  0.8450 -0.1776 -0.4049
 3625SOL    HW122508   1.597   1.012  14.934  1.5957  0.7514  2.4432
 3625SOL    HW222509   1.482   1.084  14.973  0.0518 -0.5791  1.5080
 3626SOL     OW22510   3.480   1.657   7.632 -0.1979 -0.3263  0.4391
 3626SOL    HW122511   3.494   1.638   7.539  0.0923  1.5058  0.1189
 3626SOL    HW222512   3.530   1.582   7.665  1.2786  0.7794  0.7343
 3627SOL     OW22513   0.926   3.795   4.155  0.2734  0.2213 -0.9605
 3627SOL    HW122514   1.014   3.797   4.193  0.7469  2.1267 -2.1633
 3627SOL    HW222515   0.879   3.724   4.199 -2.4599  2.2098 -0.6651
 3628SOL     OW22516   3.587   3.435   2.689  0.2137  0.5388  0.4435
 3628SOL    HW122517   3.613   3.366   2.628  1.3802 -0.6621  2.2670
 3628SOL    HW222518   3.551   3.504   2.634  3.1950 -1.3065 -3.7910
 3629SOL     OW22519   1.983   4.149   6.183 -0.5535  0.0977  0.1894
 3629SOL    HW122520   2.066   4.109   6.159 -0.4296  0.4291  0.0694
 3629SOL    HW222521   1.979   4.124   6.275 -0.2555 -2.1249 -0.4159
 3630SOL     OW22522   0.838   3.675  12.822 -0.7082  0.4340  0.1766
 3630SOL    HW122523   0.748   3.646  12.808 -0.5847 -0.1230  0.5393
 3630SOL    HW222524   0.853   3.720  12.738  1.3639  2.5010  1.6529
 3631SOL     OW22525   4.189   1.569   5.611 -0.0204 -0.5586 -0.4938
 3631SOL    HW122526   4.124   1.578   5.541 -0.3238 -0.7374 -0.2327
 3631SOL    HW222527   4.134   1.544   5.686 -1.2340 -0.1509 -1.2448
 3632SOL     OW22528   2.749   3.549   6.439 -0.0816 -0.6313 -0.3818
 3632SOL    HW122529   2.723   3.504   6.520  2.7925 -0.7344  0.4650
 3632SOL    HW222530   2.742   3.473   6.381 -0.7118 -0.0856 -1.0196
 3633SOL     OW22531   0.280   4.349   2.858 -0.2738  0.1654 -0.0780
 3633SOL    HW122532   0.278   4.286   2.786  0.1885 -0.5086  0.4992
 3633SOL    HW222533   0.257   4.291   2.931 -1.9066  0.5021 -0.3103
 3634SOL     OW22534   3.652   3.106   3.015  0.0692 -0.1359  0.2208
 3634SOL    HW122535   3.566   3.140   2.991  0.2269 -1.5346 -2.3975
 3634SOL    HW222536   3.686   3.089   2.927  0.6816 -0.0228  0.4353
 3635SOL     OW22537   1.821   1.314   4.193 -0.1034 -0.1057  0.4291
 3635SOL    HW122538   1.898   1.268   4.158  0.8232  0.9719  1.0567
 3635SOL    HW222539   1.743   1.287   4.144  0.4848  1.3357 -1.3061
 3636SOL     OW22540   4.529   0.408  16.792  0.2379  0.6692  0.0077
 3636SOL    HW122541   4.550   0.455  16.873  0.4294  2.0559 -0.8644
 3636SOL    HW222542   4.436   0.413  16.768  0.0864  0.8179  0.6183
 3637SOL     OW22543   3.087   0.099  13.021 -0.0209 -0.0388  0.0085
 3637SOL    HW122544   3.106   0.133  13.108 -0.7868 -1.3981  0.7031
 3637SOL    HW222545   3.156   0.151  12.981 -0.3500  0.8325  0.5754
 3638SOL     OW22546   2.925   4.126  12.161  0.1180 -0.4263 -0.3286
 3638SOL    HW122547   2.861   4.056  12.153 -1.3010  0.6986  1.4451
 3638SOL    HW222548   2.953   4.109  12.251  2.9377 -0.1583 -1.1493
 3639SOL     OW22549   0.539   4.055   5.392 -0.0403  0.0289  0.1677
 3639SOL    HW122550   0.635   4.048   5.397 -0.1759 -0.1226  2.4619
 3639SOL    HW222551   0.527   4.148   5.374 -0.8094 -0.1818 -0.4238
 3640SOL     OW22552   1.980   0.444  10.031 -0.3893 -0.0907 -0.9663
 3640SOL    HW122553   1.951   0.404  10.113  0.1180  0.3628 -0.5727
 3640SOL    HW222554   1.934   0.525  10.050 -2.9129 -2.2409  2.0680
 3641SOL     OW22555   1.931   2.439   4.718 -0.0629  0.2172 -0.3239
 3641SOL    HW122556   1.935   2.429   4.623  2.4896  2.9099 -0.5191
 3641SOL    HW222557   1.966   2.528   4.726 -3.3613  1.5230 -0.5040
 3642SOL     OW22558   4.442   1.226   2.641 -0.3552 -0.6617 -0.4944
 3642SOL    HW122559   4.351   1.232   2.673 -0.3846  1.7388 -1.0318
 3642SOL    HW222560   4.497   1.220   2.719 -0.4071 -2.7704 -0.6214
 3643SOL     OW22561   0.704   4.265   5.041  0.1047 -0.1721  0.2270
 3643SOL    HW122562   0.615   4.231   5.042  0.0475 -0.1170 -1.4602
 3643SOL    HW222563   0.751   4.198   4.991 -2.0753 -2.4221  1.1994
 3644SOL     OW22564   3.472   2.191   8.659 -0.3009  0.2559 -0.1722
 3644SOL    HW122565   3.379   2.173   8.642 -0.7968  1.5337  1.1765
 3644SOL    HW222566   3.479   2.159   8.749  0.8464  0.6983 -0.1097
 3645SOL     OW22567   4.655   2.825   9.325 -0.1327  0.9699 -0.3533
 3645SOL    HW122568   4.612   2.770   9.260 -2.2244  1.3877  0.6932
 3645SOL    HW222569   4.578   2.871   9.358  0.0266  0.3907  0.8617
 3646SOL     OW22570   4.290   4.678  15.418  0.1624 -0.3469 -0.2806
 3646SOL    HW122571   4.351   4.606  15.436 -0.9865 -1.4444 -0.7908
 3646SOL    HW222572   4.238   4.670  15.498 -0.1404  0.2229 -0.4213
 3647SOL     OW22573   2.627   2.378   4.486 -0.4614 -0.5183 -0.6549
 3647SOL    HW122574   2.651   2.329   4.564  0.3237 -0.1368 -0.6542
 3647SOL    HW222575   2.646   2.314   4.417  1.7430 -1.5760  0.9481
 3648SOL     OW22576   4.446   2.341   2.044 -0.7508  0.2388  0.0652
 3648SOL    HW122577   4.353   2.324   2.059 -0.4432  0.2216  2.0062
 3648SOL    HW222578   4.461   2.362   2.137 -1.6441  0.3555  0.1810
 3649SOL     OW22579   1.230   3.303   1.961 -1.0316 -0.9567 -0.1904
 3649SOL    HW122580   1.264   3.392   1.964 -1.5156 -0.8748  2.6733
 3649SOL    HW222581   1.225   3.292   1.866 -0.4274  0.0268 -0.3354
 3650SOL     OW22582   0.119   2.115   2.709  0.0258  0.4956  0.1149
 3650SOL    HW122583   0.185   2.183   2.695  0.2168  0.6814  1.8711
 3650SOL    HW222584   0.084   2.099   2.621  0.9291  0.3157 -0.2072
 3651SOL     OW22585   4.628   3.454  15.350 -0.0876  0.1319 -0.3397
 3651SOL    HW122586   4.548   3.502  15.330 -1.0063 -0.4001  2.0509
 3651SOL    HW222587   4.588   3.375  15.386  1.6741 -0.2206  0.8064
 3652SOL     OW22588   1.475   3.402   2.675 -0.9572  0.4100  0.2680
 3652SOL    HW122589   1.428   3.384   2.594  3.2895 -2.1837 -1.6143
 3652SOL    HW222590   1.414   3.470   2.705 -2.4022 -0.4756 -0.6741
 3653SOL     OW22591   2.187   2.409   7.700 -0.0739 -0.4762  0.2476
 3653SOL    HW122592   2.271   2.431   7.660  0.5770 -3.0950  0.1876
 3653SOL    HW222593   2.125   2.414   7.627  0.9958 -0.7836 -0.6944
 3654SOL     OW22594   1.798   4.148   5.533 -0.6224 -0.5440 -0.0201
 3654SOL    HW122595   1.804   4.097   5.613 -1.5815 -1.1984 -0.3662
 3654SOL    HW222596   1.759   4.088   5.469 -0.2694 -0.9475  0.1450
 3655SOL     OW22597   3.280   4.721   2.396 -0.1863 -0.4298  0.1361
 3655SOL    HW122598   3.350   4.674   2.443  0.6376  0.9295  0.2729
 3655SOL    HW222599   3.320   4.736   2.311  0.2960 -0.1795  0.4037
 3656SOL     OW22600   2.158   0.632   3.057  0.0507  0.0343  0.0046
 3656SOL    HW122601   2.231   0.621   3.119 -0.4785  1.2624  0.8550
 3656SOL    HW222602   2.189   0.718   3.027  0.0562  0.7654  2.0808
 3657SOL     OW22603   2.598   1.253   9.890 -0.0507 -0.2141  0.4831
 3657SOL    HW122604   2.561   1.165   9.896 -0.3298 -0.0349  1.4061
 3657SOL    HW222605   2.651   1.244   9.810  0.4408 -0.3837  0.8253
 3658SOL     OW22606   4.448   1.190   5.389 -0.0863 -0.0958 -0.1603
 3658SOL    HW122607   4.455   1.170   5.482  0.3030  0.5956 -0.0406
 3658SOL    HW222608   4.422   1.283   5.391  2.3735  0.5854  0.2029
 3659SOL     OW22609   4.693   4.352   8.396 -0.3644  0.0099 -0.4831
 3659SOL    HW122610   0.010   4.306   8.335  0.8797  0.9109 -0.0050
 3659SOL    HW222611   4.734   4.332   8.480  1.4240  2.1744 -0.8388
 3660SOL     OW22612   0.687   3.227   4.852 -0.0991 -0.4472  0.0864
 3660SOL    HW122613   0.763   3.284   4.867 -1.0845  0.5975  1.0917
 3660SOL    HW222614   0.618   3.282   4.890  0.3886 -0.1565  0.5610
 3661SOL     OW22615   3.169   3.599   7.784 -0.1496 -0.1080 -0.0968
 3661SOL    HW122616   3.141   3.508   7.791 -1.7253  0.4157  0.2980
 3661SOL    HW222617   3.213   3.614   7.868  1.3631 -1.5684 -0.6408
 3662SOL     OW22618   3.605   3.440  16.106 -0.5423 -0.1288 -0.2527
 3662SOL    HW122619   3.678   3.499  16.094  0.1471 -1.1558 -1.0919
 3662SOL    HW222620   3.554   3.491  16.169 -0.7264 -1.3000  0.5441
 3663SOL     OW22621   4.614   2.052   7.976  0.4164 -0.6861  0.0743
 3663SOL    HW122622   4.664   2.038   7.896  1.4631  2.8577  0.0946
 3663SOL    HW222623   4.648   2.137   8.003  1.2016 -0.8234 -0.4966
 3664SOL     OW22624   4.041   3.393   4.302 -0.4271 -0.3869 -0.1296
 3664SOL    HW122625   4.059   3.355   4.216 -0.6442  1.5984 -1.0451
 3664SOL    HW222626   4.104   3.465   4.306  0.7456 -1.4411  0.7239
 3665SOL     OW22627   4.087   0.262   2.133 -0.0462  0.0648  0.3315
 3665SOL    HW122628   4.090   0.342   2.185 -1.1451  0.5758 -0.3926
 3665SOL    HW222629   4.004   0.225   2.160  0.7451 -2.7542 -1.1041
 3666SOL     OW22630   2.695   0.857  12.452 -1.4110  0.0961 -0.1082
 3666SOL    HW122631   2.618   0.802  12.464  0.0547 -2.1877 -0.9563
 3666SOL    HW222632   2.669   0.937  12.407 -0.7378  0.6209  0.4247
 3667SOL     OW22633   3.414   1.167   9.352  0.0468  0.3949 -0.7532
 3667SOL    HW122634   3.483   1.159   9.418  0.2527 -0.4343 -1.0638
 3667SOL    HW222635   3.384   1.078   9.334  1.2965 -0.3709  0.8812
 3668SOL     OW22636   2.996   0.776   6.603  0.4574 -0.0952  0.3022
 3668SOL    HW122637   2.964   0.716   6.536  0.1257  0.9042 -0.4264
 3668SOL    HW222638   2.926   0.767   6.668 -1.2083 -2.0492 -1.7683
 3669SOL     OW22639   1.138   2.333   7.534 -0.2798  0.1171 -0.1525
 3669SOL    HW122640   1.154   2.363   7.445 -3.3161 -0.3670 -0.8640
 3669SOL    HW222641   1.216   2.370   7.577 -0.9487  0.3761  0.8445
 3670SOL     OW22642   2.643   4.167  17.712  0.0158  0.1927  0.1775
 3670SOL    HW122643   2.574   4.202   0.012 -1.5340 -1.9205 -0.4217
 3670SOL    HW222644   2.713   4.230  17.733 -0.5398  0.1641  2.1800
 3671SOL     OW22645   1.584   1.322   2.257 -0.0920 -0.9684 -0.9087
 3671SOL    HW122646   1.614   1.308   2.347  0.4088 -0.3859 -0.9894
 3671SOL    HW222647   1.666   1.347   2.214 -0.0808  2.8117  1.3029
 3672SOL     OW22648   1.827   1.301  16.622 -0.1384 -0.4942  0.8420
 3672SOL    HW122649   1.762   1.356  16.579  0.3624 -0.8137 -0.3217
 3672SOL    HW222650   1.770   1.276  16.695  0.2007  2.1156  2.0027
 3673SOL     OW22651   0.178   1.375   9.290 -0.0567  0.2526  0.1672
 3673SOL    HW122652   0.177   1.445   9.356  0.7794  1.1974 -0.8204
 3673SOL    HW222653   0.154   1.294   9.336 -0.6554 -0.7728 -1.9766
 3674SOL     OW22654   3.448   3.549   1.611  0.3114 -0.1769  0.7285
 3674SOL    HW122655   3.473   3.555   1.519  1.0318  1.3671  1.0099
 3674SOL    HW222656   3.455   3.456   1.631 -1.2613  0.4076  4.0325
 3675SOL     OW22657   3.179   3.102   0.086 -0.2617 -0.4001  0.4412
 3675SOL    HW122658   3.221   3.072   0.167  1.9486  1.2607 -0.1000
 3675SOL    HW222659   3.095   3.063   0.111 -0.1043 -0.4932  0.8202
 3676SOL     OW22660   0.641   0.750   5.396 -0.1624 -0.2698 -0.2237
 3676SOL    HW122661   0.552   0.727   5.422 -0.9416  1.0907 -1.6777
 3676SOL    HW222662   0.678   0.669   5.430  1.7322  0.4127 -0.6878
 3677SOL     OW22663   1.698   4.139   4.615 -0.0884 -0.0293  0.2226
 3677SOL    HW122664   1.676   4.125   4.707  1.2838  0.8070  0.6795
 3677SOL    HW222665   1.609   4.120   4.587 -1.1388  0.3566  3.2714
 3678SOL     OW22666   4.046   1.054   7.361  0.0394  0.1584  0.4500
 3678SOL    HW122667   4.087   1.066   7.446  1.9667  0.0832 -0.4652
 3678SOL    HW222668   4.076   0.967   7.334  0.8387  0.2060  1.2039
 3679SOL     OW22669   2.101   4.252   7.013  0.2734 -0.0066 -0.4416
 3679SOL    HW122670   2.175   4.276   7.069 -0.8512 -0.1641  1.1084
 3679SOL    HW222671   2.034   4.320   7.017  0.3011 -0.1455  2.3257
 3680SOL     OW22672   1.233   1.739   2.272  0.5602  0.0340 -0.2292
 3680SOL    HW122673   1.268   1.698   2.192 -1.3862  0.6679 -1.3905
 3680SOL    HW222674   1.177   1.670   2.306  1.7959 -0.4356  0.8683
 3681SOL     OW22675   0.133   4.583  17.518  0.2445 -0.6204  0.0680
 3681SOL    HW122676   0.050   4.553  17.481  1.4023 -0.8257 -2.3831
 3681SOL    HW222677   0.183   4.608  17.440 -1.6086 -2.0417 -1.6178
 3682SOL     OW22678   2.710   0.940   7.858 -0.0597  0.1691 -0.4363
 3682SOL    HW122679   2.770   0.942   7.932  0.7499 -2.5700 -1.0019
 3682SOL    HW222680   2.768   0.892   7.799 -0.3913 -0.0305 -0.6029
 3683SOL     OW22681   3.568   0.236   6.914  0.0764 -0.4686 -0.3561
 3683SOL    HW122682   3.638   0.181   6.947 -0.7257  0.5788  3.0423
 3683SOL    HW222683   3.530   0.256   6.999 -3.5326  1.7573 -2.4412
 3684SOL     OW22684   1.900   0.519  11.365 -0.1880 -0.0003  0.0149
 3684SOL    HW122685   1.847   0.496  11.441 -1.1899 -1.0168 -1.0021
 3684SOL    HW222686   1.895   0.445  11.305 -1.3960 -1.3318  1.7866
 3685SOL     OW22687   1.778   0.753   6.188 -0.3833 -0.5308 -0.0471
 3685SOL    HW122688   1.736   0.825   6.236 -0.5854  0.5143 -1.8015
 3685SOL    HW222689   1.704   0.694   6.175 -0.0548 -0.9664  0.0865
 3686SOL     OW22690   2.002   1.192   5.432 -0.2754  0.4084 -0.5447
 3686SOL    HW122691   2.061   1.117   5.430  0.1113  0.6621  1.2794
 3686SOL    HW222692   2.054   1.236   5.365 -0.6394 -2.2563 -2.5656
 3687SOL     OW22693   2.191   1.313  10.690  0.2917  0.4563 -0.8261
 3687SOL    HW122694   2.133   1.268  10.752  0.1064  0.8448 -0.7172
 3687SOL    HW222695   2.257   1.245  10.677  0.9956  0.9862  0.0283
 3688SOL     OW22696   2.025   3.892   2.769 -0.2329 -0.7121  0.1946
 3688SOL    HW122697   1.948   3.858   2.723 -0.1598  1.2221 -1.3409
 3688SOL    HW222698   2.032   3.824   2.836 -0.9123  0.0732  1.0574
 3689SOL     OW22699   2.401   2.024   4.318  0.1463 -0.0131  0.0460
 3689SOL    HW122700   2.457   1.958   4.277 -0.0534 -1.5057  2.1739
 3689SOL    HW222701   2.312   2.005   4.289  0.0517  0.8333 -0.2176
 3690SOL     OW22702   3.990   0.515   6.604  0.1093 -0.3847  0.5218
 3690SOL    HW122703   4.012   0.555   6.520  1.6035 -0.6698  0.7833
 3690SOL    HW222704   3.947   0.440   6.562  2.0547 -0.9301 -0.4728
 3691SOL     OW22705   1.196   4.599   2.869 -0.3886  0.7376 -0.3050
 3691SOL    HW122706   1.164   4.579   2.781 -1.5031  1.1854 -0.0048
 3691SOL    HW222707   1.170   4.690   2.855  0.2843  1.0685  0.6162
 3692SOL     OW22708   1.329   3.483   8.754  0.7034  0.0071  0.3923
 3692SOL    HW122709   1.401   3.420   8.746 -0.7066 -1.3404 -1.6979
 3692SOL    HW222710   1.338   3.527   8.839  0.3434 -0.1533  0.5146
 3693SOL     OW22711   1.275   2.589  14.474 -0.7982  0.1778 -0.4228
 3693SOL    HW122712   1.320   2.621  14.396 -0.9159 -2.0674 -1.4055
 3693SOL    HW222713   1.192   2.637  14.478 -1.8979 -1.6430 -1.6116
 3694SOL     OW22714   2.621   3.323  10.722 -0.1521 -0.8413  0.6561
 3694SOL    HW122715   2.702   3.287  10.757 -0.0123 -0.5855  0.5982
 3694SOL    HW222716   2.549   3.276  10.764 -1.0508 -0.8597 -0.9005
 3695SOL     OW22717   3.356   1.515   0.820 -0.3122  0.2708 -0.2818
 3695SOL    HW122718   3.263   1.491   0.827 -0.5358  1.3012  0.3675
 3695SOL    HW222719   3.391   1.438   0.864  0.4269 -1.2731 -3.5426
 3696SOL     OW22720   2.673   2.315   2.715  0.7516  0.0677 -0.4745
 3696SOL    HW122721   2.749   2.299   2.772  1.1609 -0.5876 -1.1918
 3696SOL    HW222722   2.676   2.234   2.664  0.7496  0.8491 -1.7222
 3697SOL     OW22723   1.790   3.484   7.247  0.4408 -0.1728  0.2516
 3697SOL    HW122724   1.796   3.443   7.333  2.7883 -2.3404 -0.9422
 3697SOL    HW222725   1.736   3.420   7.201  0.4724  0.3891 -0.5656
 3698SOL     OW22726   1.487   2.496  17.459 -0.0755  0.5496 -0.5965
 3698SOL    HW122727   1.546   2.497  17.384 -1.0010 -1.3646 -1.3485
 3698SOL    HW222728   1.549   2.479  17.529 -0.3559 -1.1826 -0.7861
 3699SOL     OW22729   3.511   1.342   4.651  0.0921  0.0802  0.6376
 3699SOL    HW122730   3.432   1.319   4.601  0.8790  0.9743 -1.0111
 3699SOL    HW222731   3.515   1.260   4.700 -2.9978  0.8804  2.2516
 3700SOL     OW22732   2.697   2.010   3.320 -0.1866  0.4003 -0.4440
 3700SOL    HW122733   2.778   2.060   3.335  0.8124 -1.2825 -0.1843
 3700SOL    HW222734   2.644   2.051   3.388  0.3786  0.2488  0.0875
 3701SOL     OW22735   2.947   3.507  14.924 -0.6080  0.3184 -0.2516
 3701SOL    HW122736   2.994   3.574  14.875 -1.1131  0.8654  0.0120
 3701SOL    HW222737   3.011   3.490  14.993 -1.8772 -0.6814  0.6755
 3702SOL     OW22738   2.264   2.266   3.459  0.2724  0.0984 -0.1311
 3702SOL    HW122739   2.201   2.238   3.525 -1.2320 -1.8331 -2.3897
 3702SOL    HW222740   2.212   2.250   3.381 -2.5266  0.5149  1.6425
 3703SOL     OW22741   2.109   3.546   7.671 -0.9782  0.1242 -0.2215
 3703SOL    HW122742   2.027   3.504   7.697 -0.2686 -0.5627  0.9350
 3703SOL    HW222743   2.170   3.508   7.734  0.9316  1.6930 -1.1312
 3704SOL     OW22744   0.151   4.136  16.847  0.4497  0.4545  0.6241
 3704SOL    HW122745   0.236   4.137  16.892  1.2823 -3.6954 -0.8959
 3704SOL    HW222746   0.153   4.206  16.782  0.7699 -1.0554 -0.9622
 3705SOL     OW22747   1.154   1.829  12.849 -0.2956 -0.2128 -0.0280
 3705SOL    HW122748   1.137   1.757  12.788 -2.8634  0.4528 -0.1180
 3705SOL    HW222749   1.219   1.877  12.799  0.2056  0.2424  1.0738
 3706SOL     OW22750   3.492   4.667   5.036 -0.5728  0.4083 -0.0744
 3706SOL    HW122751   3.540   4.711   5.106  2.8414 -0.3979 -1.8941
 3706SOL    HW222752   3.431   4.737   5.011 -2.0297 -0.2887  1.4811
 3707SOL     OW22753   2.153   3.578  17.118  0.2496 -0.1833  0.2557
 3707SOL    HW122754   2.228   3.636  17.112 -1.3278  1.7009 -1.0777
 3707SOL    HW222755   2.193   3.495  17.092  1.3406  0.8780 -1.4677
 3708SOL     OW22756   1.619   3.744   4.910 -0.0028 -0.0224  0.5755
 3708SOL    HW122757   1.540   3.724   4.960  0.7258 -2.7768  0.6361
 3708SOL    HW222758   1.583   3.805   4.846 -0.1007 -1.4419 -0.7418
 3709SOL     OW22759   1.466   0.439   3.986 -0.0568  0.1266 -0.0555
 3709SOL    HW122760   1.561   0.429   3.993  0.1391  0.5111 -2.2102
 3709SOL    HW222761   1.438   0.349   3.971  1.6806 -0.6128  1.2252
 3710SOL     OW22762   2.239   2.976   2.219 -0.6941 -0.2660  0.3673
 3710SOL    HW122763   2.278   2.909   2.162  0.4161  0.5924  0.1100
 3710SOL    HW222764   2.149   2.979   2.188 -1.0665 -1.2491  1.3524
 3711SOL     OW22765   4.387   0.760   5.279  0.9975 -0.2761  0.4587
 3711SOL    HW122766   4.477   0.733   5.261  0.8343 -1.6984  1.7291
 3711SOL    HW222767   4.367   0.714   5.361  3.2272 -0.5394  0.8492
 3712SOL     OW22768   1.899   1.257   1.109  0.1708  0.2173  0.0120
 3712SOL    HW122769   1.901   1.333   1.168 -0.0863  0.4387 -0.2629
 3712SOL    HW222770   1.922   1.187   1.171 -1.6486  0.2724  0.7584
 3713SOL     OW22771   2.678   2.409  14.725  0.1790  0.2341  0.0534
 3713SOL    HW122772   2.644   2.431  14.811 -1.0833 -2.3274  0.2103
 3713SOL    HW222773   2.769   2.439  14.723  0.5067 -0.6915  0.8934
 3714SOL     OW22774   2.251   2.432   5.955 -0.1663 -0.0991 -0.0835
 3714SOL    HW122775   2.234   2.371   6.027  2.4246  1.4168  1.8320
 3714SOL    HW222776   2.311   2.374   5.908 -1.9926 -0.6523 -1.7011
 3715SOL     OW22777   0.884   1.415   3.299 -0.1380 -0.4010 -0.2027
 3715SOL    HW122778   0.855   1.396   3.210  1.5904 -1.2107 -0.5986
 3715SOL    HW222779   0.811   1.388   3.355  0.3857 -1.2651  0.0632
 3716SOL     OW22780   4.418   0.651   1.926 -0.5891  0.2406  0.0695
 3716SOL    HW122781   4.324   0.659   1.941 -0.4581  0.3281  0.8293
 3716SOL    HW222782   4.415   0.580   1.862  0.4513  0.3851 -0.1404
 3717SOL     OW22783   4.481   2.819   6.546  0.7381  0.1007  0.3649
 3717SOL    HW122784   4.400   2.870   6.537  2.1321  2.6236  2.0918
 3717SOL    HW222785   4.438   2.735   6.557  2.6112 -0.7946  0.8707
 3718SOL     OW22786   2.705   2.429   5.170 -0.7001  0.2190  0.4835
 3718SOL    HW122787   2.622   2.473   5.154  0.1298  1.3459 -0.7637
 3718SOL    HW222788   2.693   2.383   5.253  0.3264  0.7015  0.9013
 3719SOL     OW22789   1.113   0.677   9.034 -0.1193 -0.4918  0.2272
 3719SOL    HW122790   1.150   0.755   8.993 -0.1179 -0.5096  0.1942
 3719SOL    HW222791   1.021   0.701   9.026 -0.1424 -0.8398 -0.6062
 3720SOL     OW22792   2.922   1.213   5.376 -0.4306 -1.1938  0.3098
 3720SOL    HW122793   2.879   1.205   5.291  0.1800 -2.0464  0.0767
 3720SOL    HW222794   2.842   1.228   5.428 -0.0659 -1.3639  0.9243
 3721SOL     OW22795   4.562   3.444   6.126  0.2388 -0.5642  0.2267
 3721SOL    HW122796   4.596   3.356   6.143 -1.0590 -1.5491 -2.2029
 3721SOL    HW222797   4.613   3.468   6.049 -0.7895 -2.7911 -1.1756
 3722SOL     OW22798   2.699   0.955   2.615 -0.2456 -0.2830 -1.0574
 3722SOL    HW122799   2.747   0.890   2.563 -1.4622 -2.2061  0.2246
 3722SOL    HW222800   2.711   0.914   2.701  2.5304  0.0618 -1.2857
 3723SOL     OW22801   3.500   2.951   3.210 -0.3836 -0.2339 -0.1133
 3723SOL    HW122802   3.580   2.980   3.166 -2.2032  0.2259 -3.1694
 3723SOL    HW222803   3.446   3.030   3.204 -0.8595 -0.5028  0.6847
 3724SOL     OW22804   2.904   2.824   1.343  0.0959  0.5591 -0.0055
 3724SOL    HW122805   2.885   2.759   1.409  0.2174  1.7944  1.2455
 3724SOL    HW222806   2.842   2.813   1.271  1.1696 -2.1755 -0.5056
 3725SOL     OW22807   4.416   0.213   9.960  0.2358  0.0569 -0.2934
 3725SOL    HW122808   4.488   0.176  10.011 -0.1655  1.0499  0.9914
 3725SOL    HW222809   4.347   0.211  10.027  1.5483 -2.5251  1.0002
 3726SOL     OW22810   2.404   1.556  13.711  0.2382 -0.0335 -0.2812
 3726SOL    HW122811   2.318   1.598  13.712  0.2084 -0.1403  1.7251
 3726SOL    HW222812   2.460   1.617  13.663  0.8289  1.5450  2.3941
 3727SOL     OW22813   0.179   2.657  16.393 -0.4489  0.0422  0.3601
 3727SOL    HW122814   0.110   2.706  16.437  0.4343  0.7711  0.9388
 3727SOL    HW222815   0.164   2.566  16.419  0.2181  0.0782  0.8680
 3728SOL     OW22816   0.462   3.453   8.437 -0.1629  0.2394  0.0160
 3728SOL    HW122817   0.395   3.485   8.496 -1.8525  0.0389 -1.7857
 3728SOL    HW222818   0.517   3.412   8.504  0.4135  0.3492 -0.3833
 3729SOL     OW22819   1.107   2.523   7.847 -0.1871 -0.5161  0.1041
 3729SOL    HW122820   1.063   2.557   7.925  1.7184  0.7428  0.6264
 3729SOL    HW222821   1.133   2.442   7.892 -1.3286 -0.9487 -0.0065
 3730SOL     OW22822   2.554   3.890   3.415 -0.0376  0.7216  0.5608
 3730SOL    HW122823   2.597   3.808   3.442  0.0724  1.6342  3.1752
 3730SOL    HW222824   2.596   3.950   3.476 -0.3403  0.4315  1.0547
 3731SOL     OW22825   1.914   1.399   6.685 -0.3113  0.2105 -0.5098
 3731SOL    HW122826   1.824   1.418   6.712 -0.3117  0.7604 -0.8900
 3731SOL    HW222827   1.906   1.371   6.593  0.3490 -1.6085 -0.0260
 3732SOL     OW22828   0.291   3.917  13.729  0.6396  0.1442  0.0941
 3732SOL    HW122829   0.336   3.833  13.743 -1.7673 -1.0402  0.6536
 3732SOL    HW222830   0.365   3.972  13.702  0.3477 -0.1069 -1.2124
 3733SOL     OW22831   2.960   2.433  13.766  0.2919  0.7603 -0.1185
 3733SOL    HW122832   2.898   2.369  13.730  0.1383 -0.1067  1.6968
 3733SOL    HW222833   2.924   2.462  13.850  0.0164  1.7760 -0.5886
 3734SOL     OW22834   2.083   0.144   6.548  0.5335 -0.3475  0.2437
 3734SOL    HW122835   2.053   0.231   6.574  0.1400 -0.4037 -0.0195
 3734SOL    HW222836   2.080   0.094   6.629  0.6356  0.1374  0.5475
 3735SOL     OW22837   1.593   4.658   3.869  0.2804  0.0203 -0.5034
 3735SOL    HW122838   1.647   4.612   3.804 -1.4728  0.5507 -2.2962
 3735SOL    HW222839   1.508   4.637   3.832  0.5831  0.2563 -1.3421
 3736SOL     OW22840   0.497   4.105   2.285  0.8045  0.7316 -0.7256
 3736SOL    HW122841   0.523   4.083   2.196 -1.4090  2.3935 -1.7880
 3736SOL    HW222842   0.514   4.197   2.266 -2.1184  1.1843 -1.1897
 3737SOL     OW22843   3.289   1.772   5.170  0.4464 -0.1023  0.1002
 3737SOL    HW122844   3.345   1.762   5.093 -1.4266  0.5113 -1.3357
 3737SOL    HW222845   3.257   1.862   5.170 -1.5183 -0.8189 -0.4134
 3738SOL     OW22846   2.826   3.712   4.904  0.1726 -0.7907  0.2175
 3738SOL    HW122847   2.761   3.702   4.834  1.8490 -1.4322 -1.2553
 3738SOL    HW222848   2.822   3.623   4.940  3.8871 -0.1265  2.2016
 3739SOL     OW22849   4.640   2.118   7.310 -0.3547 -0.1665 -0.4779
 3739SOL    HW122850   4.726   2.149   7.284  0.3535 -1.3629  0.4393
 3739SOL    HW222851   4.619   2.168   7.389  2.5703 -0.0602  0.2466
 3740SOL     OW22852   0.641   1.413  12.268 -0.0519 -0.0916  0.6591
 3740SOL    HW122853   0.692   1.424  12.188 -0.9888  1.4392  0.2601
 3740SOL    HW222854   0.713   1.399  12.329  0.4490  1.7835  0.5010
 3741SOL     OW22855   3.795   0.568   9.522 -0.1974 -0.3108  0.6455
 3741SOL    HW122856   3.821   0.600   9.435 -3.1005 -2.0073 -0.8391
 3741SOL    HW222857   3.849   0.491   9.539 -2.2501 -1.6639  0.9623
 3742SOL     OW22858   2.453   4.338   0.084 -0.0148  0.2157  0.1571
 3742SOL    HW122859   2.361   4.359   0.067  0.8389  2.5260 -1.6679
 3742SOL    HW222860   2.504   4.390   0.021 -0.8232 -0.5074 -1.0967
 3743SOL     OW22861   3.718   2.183   9.852  0.3257 -0.1503  0.3184
 3743SOL    HW122862   3.780   2.156   9.919 -0.0310  1.8972  1.4826
 3743SOL    HW222863   3.718   2.279   9.855 -1.1064 -0.1600  0.4545
 3744SOL     OW22864   1.959   3.446   5.782  0.6932 -0.2113  0.1158
 3744SOL    HW122865   1.931   3.365   5.824  1.5808 -0.2775  0.5937
 3744SOL    HW222866   2.039   3.463   5.833  1.1359  2.5976 -1.5291
 3745SOL     OW22867   0.562   4.650   9.649 -0.3016 -0.0183 -0.3054
 3745SOL    HW122868   0.576   4.566   9.604  3.7488  0.9983 -0.8567
 3745SOL    HW222869   0.634   4.653   9.712  0.6138  0.8902 -1.4052
 3746SOL     OW22870   1.745   1.849   8.711  0.1087 -0.4270 -0.2878
 3746SOL    HW122871   1.682   1.823   8.779 -1.0850  0.2529 -1.1467
 3746SOL    HW222872   1.722   1.787   8.642 -1.8105 -0.6067  0.5146
 3747SOL     OW22873   3.043   1.215  14.577 -0.5047 -0.1627 -0.0019
 3747SOL    HW122874   2.997   1.295  14.549  0.0841  0.5495  1.0896
 3747SOL    HW222875   3.111   1.211  14.510 -1.5399 -0.1716 -1.0645
 3748SOL     OW22876   0.657   4.332   2.743  0.0764 -0.1913 -0.5709
 3748SOL    HW122877   0.597   4.393   2.699  1.5358  0.9646 -0.9596
 3748SOL    HW222878   0.622   4.249   2.712  1.0839 -0.4591 -0.9844
 3749SOL     OW22879   1.394   4.212  16.762 -0.3725  0.2645 -0.9288
 3749SOL    HW122880   1.326   4.252  16.816  1.9333 -1.1225  2.9531
 3749SOL    HW222881   1.440   4.291  16.735 -0.2450  0.6345  0.3733
 3750SOL     OW22882   3.469   3.012   4.790 -0.1233 -0.0974  0.5247
 3750SOL    HW122883   3.403   2.976   4.731  0.0169  0.3789  0.0730
 3750SOL    HW222884   3.419   3.012   4.872 -2.6416  0.7308 -0.9823
 3751SOL     OW22885   0.095   4.645   0.867  0.4202  0.0941  0.0458
 3751SOL    HW122886   0.107   0.001   0.863  0.5837 -0.0162 -2.6226
 3751SOL    HW222887   0.153   4.624   0.940  0.8992  1.4808  0.0709
 3752SOL     OW22888   2.935   2.840   8.491 -0.1188 -0.6707 -0.0134
 3752SOL    HW122889   2.912   2.753   8.523 -0.1120 -1.7823 -2.9714
 3752SOL    HW222890   2.852   2.886   8.503  0.6584  0.9932 -0.9659
 3753SOL     OW22891   1.245   1.704  14.508  0.1512  0.0992 -0.1920
 3753SOL    HW122892   1.191   1.753  14.570  1.4584 -2.0208  2.6143
 3753SOL    HW222893   1.184   1.640  14.473 -1.5848  0.6966  1.7298
 3754SOL     OW22894   2.081   1.872   4.538  0.2691  0.7158 -0.4544
 3754SOL    HW122895   1.995   1.863   4.497  0.5171 -2.2292 -0.2988
 3754SOL    HW222896   2.129   1.811   4.482 -1.1552 -0.6638 -0.1764
 3755SOL     OW22897   4.493   2.271   8.678 -0.1251  0.2580  0.4862
 3755SOL    HW122898   4.492   2.307   8.766  1.2387  1.0789  0.1732
 3755SOL    HW222899   4.424   2.328   8.644 -0.5435 -1.5272 -1.6940
 3756SOL     OW22900   3.410   3.265  13.914 -0.4861 -0.3246  0.1482
 3756SOL    HW122901   3.390   3.174  13.935 -0.0688 -0.7926 -1.4838
 3756SOL    HW222902   3.376   3.307  13.993 -0.3409 -0.8376  0.4760
 3757SOL     OW22903   2.984   0.371   3.255 -0.8278 -0.4026  0.1828
 3757SOL    HW122904   2.904   0.405   3.295 -0.1591  1.9512 -0.4620
 3757SOL    HW222905   2.955   0.359   3.165  0.7400 -3.1490  0.0471
 3758SOL     OW22906   4.028   3.605   5.669 -0.0788  0.0765  0.2994
 3758SOL    HW122907   4.054   3.654   5.591 -1.2509  0.5875  0.2311
 3758SOL    HW222908   4.090   3.650   5.727 -0.0452  1.3115 -0.6756
 3759SOL     OW22909   4.381   1.062   8.458 -0.1938  0.0074  0.1805
 3759SOL    HW122910   4.448   1.130   8.451 -1.0473  0.9007  0.7693
 3759SOL    HW222911   4.413   0.988   8.406 -0.8866  1.4078 -2.2326
 3760SOL     OW22912   2.165   4.246  10.861 -0.0348 -0.2640  0.3426
 3760SOL    HW122913   2.199   4.329  10.896  2.3193 -0.4981 -1.3852
 3760SOL    HW222914   2.084   4.232  10.910 -1.3047 -1.2007 -2.0481
 3761SOL     OW22915   4.233   1.978   1.407  0.4494  0.4400  0.4555
 3761SOL    HW122916   4.246   1.903   1.351 -0.4792 -1.0981  2.2938
 3761SOL    HW222917   4.269   2.050   1.355 -1.1555  1.3795  0.6347
 3762SOL     OW22918   1.392   2.477   2.294 -0.0306 -0.2502  0.4111
 3762SOL    HW122919   1.416   2.562   2.259 -2.6139 -0.1723 -1.1196
 3762SOL    HW222920   1.318   2.446   2.241  0.1678 -1.1012  0.6269
 3763SOL     OW22921   1.112   2.488   4.099  0.6829 -0.5964  0.1459
 3763SOL    HW122922   1.018   2.485   4.120  0.9170 -1.4910  1.0423
 3763SOL    HW222923   1.149   2.427   4.163  0.4522 -1.7083 -0.7963
 3764SOL     OW22924   0.943   4.214   2.271  0.2521 -0.1263 -0.2332
 3764SOL    HW122925   1.006   4.154   2.230 -0.1020 -0.3795 -0.4093
 3764SOL    HW222926   0.992   4.248   2.345  0.2702 -2.7516  0.9762
 3765SOL     OW22927   2.868   1.027   4.705  0.4470  0.3120  0.2850
 3765SOL    HW122928   2.800   0.971   4.742 -0.9127  0.7134 -1.6172
 3765SOL    HW222929   2.814   1.097   4.669  1.0056  0.6195  0.0452
 3766SOL     OW22930   2.792   0.431   5.330  0.3919 -0.3099  0.0709
 3766SOL    HW122931   2.818   0.351   5.284 -0.6391 -1.6499  1.8289
 3766SOL    HW222932   2.863   0.495   5.321  0.1207  0.1557  1.3636
 3767SOL     OW22933   3.487   3.285   2.878  0.6793 -0.6933 -0.1731
 3767SOL    HW122934   3.502   3.354   2.944  2.7353 -1.7464  0.4743
 3767SOL    HW222935   3.522   3.336   2.805 -0.0950 -0.3403 -0.2958
 3768SOL     OW22936   4.637   4.009   6.007 -0.0723 -0.0372 -0.7498
 3768SOL    HW122937   4.617   4.059   6.086 -0.0038  1.0767 -1.4488
 3768SOL    HW222938   4.704   3.948   6.040  1.2459  1.8668  0.0949
 3769SOL     OW22939   1.116   4.004   2.222  0.6526 -0.2193 -0.5058
 3769SOL    HW122940   1.083   3.927   2.177  0.2865 -0.1927 -0.2806
 3769SOL    HW222941   1.166   4.046   2.152  1.8509 -2.2835 -0.8656
 3770SOL     OW22942   4.438   0.389   8.875  0.0313 -0.7636  0.2704
 3770SOL    HW122943   4.472   0.422   8.958 -0.3688 -1.0578  0.5511
 3770SOL    HW222944   4.390   0.317   8.917 -2.6603 -0.2328 -1.8823
 3771SOL     OW22945   1.580   0.168   3.695 -0.0371 -0.9684  0.6257
 3771SOL    HW122946   1.671   0.137   3.698 -0.2865 -1.8995 -1.6206
 3771SOL    HW222947   1.547   0.161   3.784 -0.9957 -0.6939  0.2869
 3772SOL     OW22948   2.121   2.137   4.629  0.0706 -0.1202 -0.3031
 3772SOL    HW122949   2.145   2.045   4.640 -1.9257 -0.8406 -1.8412
 3772SOL    HW222950   2.186   2.175   4.688 -0.0516  0.1240 -0.3260
 3773SOL     OW22951   0.025   1.881   4.588  0.3774 -0.3826  0.1776
 3773SOL    HW122952   0.091   1.924   4.642  0.4414  1.0927 -1.0893
 3773SOL    HW222953   4.731   1.818   4.652 -1.7982  0.0752 -0.5331
 3774SOL     OW22954   1.834   2.607  14.305  0.0081 -0.1662 -0.3457
 3774SOL    HW122955   1.882   2.532  14.269  1.1438  0.2505  0.2930
 3774SOL    HW222956   1.866   2.612  14.395 -1.2612  2.5602 -0.0376
 3775SOL     OW22957   4.011   4.291   9.834 -0.2110  0.6323  0.6974
 3775SOL    HW122958   4.053   4.355   9.891  0.2526  0.0844  0.9652
 3775SOL    HW222959   4.045   4.318   9.749  1.1898  3.6617  2.2119
 3776SOL     OW22960   3.829   2.516   3.063  0.0117 -0.2722 -0.5947
 3776SOL    HW122961   3.847   2.431   3.103  2.3749  0.5144  0.0177
 3776SOL    HW222962   3.906   2.518   3.006  0.5073 -0.3303  0.0632
 3777SOL     OW22963   4.664   0.546  11.056 -0.6236 -0.7511  0.4562
 3777SOL    HW122964   4.631   0.614  11.114 -2.5640 -0.7852 -0.5871
 3777SOL    HW222965   4.630   0.472  11.106 -0.0067 -2.1045 -1.1043
 3778SOL     OW22966   4.182   3.013   6.774  0.2952  0.1108  0.0870
 3778SOL    HW122967   4.192   3.040   6.683 -0.2178 -1.5378 -0.4617
 3778SOL    HW222968   4.273   2.995   6.794  0.7403  0.6217 -1.4921
 3779SOL     OW22969   0.499   3.949   6.135 -0.4751 -0.0515  0.4229
 3779SOL    HW122970   0.465   4.037   6.151 -2.4324 -0.7939  0.3659
 3779SOL    HW222971   0.494   3.942   6.039  2.6206  1.2311  0.1647
 3780SOL     OW22972   0.230   0.658   8.174 -0.1393 -0.0437  0.0076
 3780SOL    HW122973   0.225   0.680   8.267  1.4025  0.1829  0.0376
 3780SOL    HW222974   0.282   0.734   8.147 -2.4414  1.6652  0.3231
 3781SOL     OW22975   1.097   1.624  10.582 -0.9743 -0.3984 -0.0714
 3781SOL    HW122976   1.069   1.543  10.541 -4.3535  1.7523 -2.0230
 3781SOL    HW222977   1.192   1.608  10.587 -0.9942 -0.9253 -1.6075
 3782SOL     OW22978   1.205   2.790   0.906 -0.3423 -0.1097 -0.0401
 3782SOL    HW122979   1.122   2.742   0.902  0.2043 -0.9631 -1.1262
 3782SOL    HW222980   1.271   2.723   0.889 -0.8589 -1.1973  2.2643
 3783SOL     OW22981   1.213   3.743   1.031 -0.0151  0.3431 -0.2715
 3783SOL    HW122982   1.307   3.742   1.015  0.0914  0.0318  0.3552
 3783SOL    HW222983   1.202   3.837   1.043 -2.4056  0.2869 -2.1141
 3784SOL     OW22984   0.064   2.973   5.728  0.0819 -0.0737  0.0868
 3784SOL    HW122985   0.135   3.017   5.774  0.1564  1.2194 -1.2863
 3784SOL    HW222986   4.732   3.035   5.735  1.1454  1.5137 -3.3124
 3785SOL     OW22987   3.849   1.560   6.665  0.4360  0.6162  0.2457
 3785SOL    HW122988   3.801   1.535   6.744  0.1475  1.0145  0.1923
 3785SOL    HW222989   3.850   1.655   6.663 -0.4121  0.5786 -1.4885
 3786SOL     OW22990   2.306   3.169   7.649 -0.1481 -0.1925  0.4424
 3786SOL    HW122991   2.318   3.192   7.741  0.9772  0.6895  0.0777
 3786SOL    HW222992   2.227   3.116   7.658 -0.1029 -0.5580 -1.3121
 3787SOL     OW22993   2.291   1.452   5.509 -0.1841  0.1796 -0.0959
 3787SOL    HW122994   2.277   1.366   5.469  1.4636 -0.0382 -0.1765
 3787SOL    HW222995   2.244   1.521   5.462  0.2512  0.3819 -0.2289
 3788SOL     OW22996   1.298   0.858   0.471  0.1978 -0.0476 -0.2364
 3788SOL    HW122997   1.244   0.831   0.396 -1.0053 -1.3255  1.1055
 3788SOL    HW222998   1.310   0.949   0.444 -1.0268  0.4887  1.0458
 3789SOL     OW22999   1.773   0.970   5.403  0.0457  0.0795 -0.6372
 3789SOL    HW123000   1.713   1.004   5.336 -3.0062  0.5698  2.3758
 3789SOL    HW223001   1.830   1.047   5.408  0.6762 -0.2497 -2.6898
 3790SOL     OW23002   2.278   3.345  12.048  0.1360  0.3121 -0.1210
 3790SOL    HW123003   2.294   3.382  12.135  0.1471  2.1040 -0.9055
 3790SOL    HW223004   2.324   3.261  12.061 -0.8717 -0.4912 -1.7257
 3791SOL     OW23005   3.820   0.027   0.005 -0.0464  0.1062 -0.3312
 3791SOL    HW123006   3.826   0.123   0.012 -0.2489  0.0351  0.8302
 3791SOL    HW223007   3.784   4.737   0.089 -1.0918  0.5477 -0.6157
 3792SOL     OW23008   2.273   2.683   6.111 -0.0729  0.4340  0.3924
 3792SOL    HW123009   2.177   2.676   6.109 -0.0117 -0.5104  0.6437
 3792SOL    HW223010   2.309   2.610   6.061  0.2670  0.1904  0.9854
 3793SOL     OW23011   3.591   1.125   5.231  0.4414  0.4542  0.3968
 3793SOL    HW123012   3.630   1.157   5.312  0.1412  1.2504  0.2263
 3793SOL    HW223013   3.669   1.108   5.178  0.5313 -0.2440  0.7590
 3794SOL     OW23014   1.889   4.036   8.289  0.2226  0.8408  0.0612
 3794SOL    HW123015   1.978   4.003   8.300 -1.0421 -2.9946 -1.3476
 3794SOL    HW223016   1.908   4.128   8.270 -1.4144  1.0785 -0.4685
 3795SOL     OW23017   3.279   2.736   4.554 -0.1374 -0.3139  0.7521
 3795SOL    HW123018   3.350   2.783   4.511 -0.1608 -1.4490 -0.5312
 3795SOL    HW223019   3.339   2.672   4.592 -1.6875 -2.2757 -0.0618
 3796SOL     OW23020   1.957   0.660   8.404 -0.7765 -0.4412  0.3818
 3796SOL    HW123021   1.992   0.735   8.358  0.5365 -1.7162 -0.7117
 3796SOL    HW223022   2.025   0.648   8.471 -0.5443 -1.2272  0.0110
 3797SOL     OW23023   2.340   3.436  11.406  0.3135 -0.4965 -0.0133
 3797SOL    HW123024   2.415   3.433  11.347  1.1349 -1.8151  1.0849
 3797SOL    HW223025   2.386   3.471  11.482  0.6674 -0.2392 -0.3521
 3798SOL     OW23026   2.391   0.778   5.107 -0.2452  0.0290  0.2578
 3798SOL    HW123027   2.332   0.745   5.175  1.4359  0.4241  1.8922
 3798SOL    HW223028   2.462   0.713   5.101  0.4831  0.9601 -1.1845
 3799SOL     OW23029   2.346   4.030   1.654 -0.2430  0.3778  0.1715
 3799SOL    HW123030   2.253   4.052   1.652 -0.6835 -1.7459 -1.9496
 3799SOL    HW223031   2.377   4.108   1.607  1.3144 -0.9016 -0.9419
 3800SOL     OW23032   4.559   3.095   7.128 -0.1612  0.5823  0.6614
 3800SOL    HW123033   4.567   3.131   7.216 -1.3995 -2.7234  2.1280
 3800SOL    HW223034   4.636   3.126   7.079 -1.1814  2.5760  0.3391
 3801SOL     OW23035   4.488   4.361   6.311 -0.3363  0.4046  0.5259
 3801SOL    HW123036   4.405   4.326   6.280  0.5841 -1.4142  0.1476
 3801SOL    HW223037   4.469   4.374   6.404 -1.0398  1.2689  0.2668
 3802SOL     OW23038   3.947   1.811   8.282 -0.3230 -0.0057  0.0105
 3802SOL    HW123039   3.883   1.780   8.218  0.8433 -0.9884 -0.6796
 3802SOL    HW223040   3.895   1.862   8.344  0.7821  0.0946  0.8732
 3803SOL     OW23041   4.479   0.776   3.790 -0.2719 -0.3163  0.0192
 3803SOL    HW123042   4.466   0.871   3.786  1.9586 -0.0773 -1.6819
 3803SOL    HW223043   4.427   0.748   3.866  1.6505  0.3618  1.5875
 3804SOL     OW23044   0.762   3.862   3.409  0.3984  0.1736  0.1891
 3804SOL    HW123045   0.762   3.949   3.370  2.8903  0.8128  1.5974
 3804SOL    HW223046   0.697   3.870   3.479 -0.2145 -3.1971  0.0134
 3805SOL     OW23047   4.350   3.403   7.613  0.4596 -0.3248 -0.2558
 3805SOL    HW123048   4.338   3.310   7.628  2.5099 -0.3645  1.0771
 3805SOL    HW223049   4.381   3.405   7.522  0.6413 -3.8619 -0.2470
 3806SOL     OW23050   4.159   1.012   2.712 -0.1304 -0.2546 -0.1686
 3806SOL    HW123051   4.100   0.939   2.726  0.5111 -1.1012 -1.9017
 3806SOL    HW223052   4.097   1.080   2.686 -0.7569 -0.0530  1.8546
 3807SOL     OW23053   4.693   0.799   3.048  0.0243 -0.1746  0.5409
 3807SOL    HW123054   4.736   0.714   3.049 -1.6340 -1.0215 -0.2114
 3807SOL    HW223055   4.618   0.777   2.993  0.3292  0.9120 -0.3197
 3808SOL     OW23056   0.477   2.161   4.614  0.1785 -0.4726  0.1215
 3808SOL    HW123057   0.479   2.181   4.707 -0.7740 -0.1479  0.0717
 3808SOL    HW223058   0.548   2.097   4.610  1.3628  0.7676  1.6589
 3809SOL     OW23059   0.272   4.648   6.897  0.3894 -0.1412  0.8138
 3809SOL    HW123060   0.300   4.704   6.969 -0.3022  0.0465  0.9278
 3809SOL    HW223061   0.339   4.579   6.907 -1.6494 -2.1926  0.2909
 3810SOL     OW23062   2.199   0.296   7.374  0.0939 -0.0312  0.6800
 3810SOL    HW123063   2.210   0.254   7.288  0.6069  1.8328 -0.1820
 3810SOL    HW223064   2.230   0.385   7.355 -1.3464  0.2698 -0.2822
 3811SOL     OW23065   0.990   0.535  13.134  0.1237 -0.1447  0.3795
 3811SOL    HW123066   0.988   0.496  13.047 -0.4422  0.7359  0.0086
 3811SOL    HW223067   0.899   0.562  13.148 -0.1856 -0.8383 -0.2860
 3812SOL     OW23068   1.544   0.155  16.723 -0.4948  0.0133  0.2836
 3812SOL    HW123069   1.460   0.197  16.743  0.6428  1.8138  1.2523
 3812SOL    HW223070   1.564   0.132  16.814  0.6564 -1.0864 -0.2514
 3813SOL     OW23071   4.503   3.681  12.347 -0.2617  0.5099  0.1229
 3813SOL    HW123072   4.493   3.605  12.404 -1.3554  0.1235 -0.5682
 3813SOL    HW223073   4.506   3.643  12.259 -1.4269  1.1157 -0.1719
 3814SOL     OW23074   0.977   4.159  13.198  0.3925  0.3326  0.1542
 3814SOL    HW123075   0.972   4.122  13.286  2.9495  0.8102  0.5145
 3814SOL    HW223076   1.001   4.081  13.148  1.4436 -0.1441  1.3998
 3815SOL     OW23077   4.053   1.533   5.125  0.1844 -0.6411 -0.0836
 3815SOL    HW123078   3.968   1.574   5.139  1.0918  0.9330  0.8198
 3815SOL    HW223079   4.031   1.493   5.041 -0.9342  1.5365 -0.8267
 3816SOL     OW23080   0.777   4.536  13.228  0.0460  0.0057 -0.2226
 3816SOL    HW123081   0.720   4.606  13.196 -0.8728 -1.0328 -0.8607
 3816SOL    HW223082   0.747   4.501  13.312  0.8696 -1.2014 -0.4290
 3817SOL     OW23083   2.063   2.892   6.383  0.4843  0.1668 -0.3460
 3817SOL    HW123084   2.047   2.958   6.316  0.1786  0.3972 -0.0478
 3817SOL    HW223085   1.974   2.855   6.382  1.0884 -1.2499 -2.1034
 3818SOL     OW23086   2.545   4.715   3.599 -0.2092  0.2885  0.6103
 3818SOL    HW123087   2.547   4.621   3.615  0.5277  0.3257  0.7508
 3818SOL    HW223088   2.563   4.720   3.505 -0.5655 -1.7114  0.4414
 3819SOL     OW23089   1.603   3.652  13.083 -0.1485 -0.3732  0.3492
 3819SOL    HW123090   1.532   3.588  13.090  0.9962 -1.9167 -2.0514
 3819SOL    HW223091   1.670   3.604  13.035  1.3342  0.5390  1.5262
 3820SOL     OW23092   2.361   1.807  16.920  0.2736  0.2058 -0.3439
 3820SOL    HW123093   2.339   1.899  16.908 -1.0299 -0.1172 -0.4053
 3820SOL    HW223094   2.447   1.804  16.962  0.3379 -0.8047 -0.5395
 3821SOL     OW23095   3.714   3.124  11.796 -0.1982 -0.5942 -0.2456
 3821SOL    HW123096   3.751   3.212  11.797  1.0473 -1.1136 -1.1747
 3821SOL    HW223097   3.732   3.092  11.885  0.0421 -1.3666 -0.5737
 3822SOL     OW23098   4.206   1.461   8.010 -0.3772  0.7195 -0.1762
 3822SOL    HW123099   4.119   1.456   8.050 -1.3270  3.8104 -1.8076
 3822SOL    HW223100   4.196   1.549   7.973  0.4801  1.6779  1.8772
 3823SOL     OW23101   0.345   1.863   1.065 -0.4020  0.2633  0.0222
 3823SOL    HW123102   0.419   1.826   1.113  0.5140  0.6158 -1.1068
 3823SOL    HW223103   0.277   1.804   1.097 -0.8466  0.4547 -0.5790
 3824SOL     OW23104   4.205   3.139  12.109 -0.1483  0.0338 -0.1236
 3824SOL    HW123105   4.145   3.135  12.183 -0.1794 -2.6465 -0.2654
 3824SOL    HW223106   4.144   3.171  12.043 -1.5715  0.1961  1.2736
 3825SOL     OW23107   4.531   1.732   9.027 -0.0016  0.0790  0.2686
 3825SOL    HW123108   4.534   1.796   9.099  0.8587 -0.8564  1.0684
 3825SOL    HW223109   4.589   1.775   8.964  1.5512 -2.0246  0.2860
 3826SOL     OW23110   1.090   3.830   1.361  0.4645  0.2293  0.0215
 3826SOL    HW123111   1.069   3.891   1.432 -1.9467 -1.1631  0.5234
 3826SOL    HW223112   1.034   3.857   1.289  0.5301 -2.4352 -1.0249
 3827SOL     OW23113   4.718   0.530  10.487 -0.3940  0.8066  0.2890
 3827SOL    HW123114   0.025   0.460  10.443 -0.3263  0.7978  0.3764
 3827SOL    HW223115   0.053   0.564  10.535  0.1697  0.9995 -0.7223
 3828SOL     OW23116   1.584   1.167  14.712  0.5885  0.1900  0.3427
 3828SOL    HW123117   1.665   1.146  14.759  0.5715 -1.1213 -0.2151
 3828SOL    HW223118   1.589   1.262  14.703 -1.6339  0.2699 -0.0801
 3829SOL     OW23119   0.274   2.971   6.303 -0.2617  0.7036  0.0749
 3829SOL    HW123120   0.342   2.977   6.235 -1.4628 -0.9074 -1.2729
 3829SOL    HW223121   0.194   2.992   6.254 -0.4808 -0.3003  0.0093
 3830SOL     OW23122   3.651   4.541   6.530 -0.2794 -0.0883  0.0581
 3830SOL    HW123123   3.635   4.484   6.455 -1.3287  3.0097 -2.0786
 3830SOL    HW223124   3.658   4.626   6.486 -0.5126 -0.8257 -1.4054
 3831SOL     OW23125   0.360   4.374   2.406 -0.0866 -0.3685  0.0339
 3831SOL    HW123126   0.355   4.469   2.392  0.9270 -0.7593 -2.9950
 3831SOL    HW223127   0.401   4.347   2.323  1.1696  0.4917  0.3633
 3832SOL     OW23128   3.761   3.656  16.120  1.3565 -0.5531  0.6670
 3832SOL    HW123129   3.846   3.649  16.163  0.8951  2.5621  2.0675
 3832SOL    HW223130   3.737   3.744  16.146  1.6047 -0.3008  0.0472
 3833SOL     OW23131   2.353   2.216   9.868 -0.1398  0.3811  0.3817
 3833SOL    HW123132   2.441   2.228   9.903 -0.2748 -0.4361  1.0041
 3833SOL    HW223133   2.375   2.171   9.786 -2.1570  0.6878 -0.3268
 3834SOL     OW23134   2.599   2.015   3.040  0.6103 -0.4550  0.6213
 3834SOL    HW123135   2.579   2.038   3.131 -0.1619  0.8806  0.0991
 3834SOL    HW223136   2.634   2.096   3.004  0.6571 -0.1596  1.3310
 3835SOL     OW23137   1.328   3.925   1.887 -0.5214  0.0565  0.2132
 3835SOL    HW123138   1.293   4.011   1.910 -0.3732  0.0361  0.5178
 3835SOL    HW223139   1.258   3.879   1.934 -1.4646 -0.3809 -1.6257
 3836SOL     OW23140   0.186   3.556   6.307  0.1405 -0.1620 -0.4666
 3836SOL    HW123141   0.215   3.503   6.232 -1.1361  2.2148 -2.6268
 3836SOL    HW223142   0.255   3.622   6.305 -2.8579  3.0051  0.9140
 3837SOL     OW23143   2.232   3.820   0.985 -0.9844  1.3098  0.3750
 3837SOL    HW123144   2.155   3.845   0.934  0.8691  1.5771 -2.3156
 3837SOL    HW223145   2.274   3.751   0.934 -1.1884  2.5515 -1.4611
 3838SOL     OW23146   2.388   3.713   1.994  0.0485  0.2596 -0.0325
 3838SOL    HW123147   2.355   3.672   2.074 -2.4955  0.1012 -1.1563
 3838SOL    HW223148   2.308   3.745   1.952 -0.8537 -1.0635  0.7054
 3839SOL     OW23149   3.770   3.860   8.592  0.1213  0.0171  0.2812
 3839SOL    HW123150   3.848   3.887   8.642 -0.8377  1.2950  1.0599
 3839SOL    HW223151   3.718   3.933   8.625  1.0485  0.9532 -0.3361
 3840SOL     OW23152   4.457   3.831   5.175 -0.7017 -0.5314  0.1457
 3840SOL    HW123153   4.393   3.785   5.121  0.6677 -1.5433 -0.6161
 3840SOL    HW223154   4.425   3.808   5.262  0.5077 -0.9781  0.4671
 3841SOL     OW23155   3.649   2.119   1.955  0.1147  0.0288 -0.3609
 3841SOL    HW123156   3.570   2.068   1.975 -1.1954  2.1405 -0.2265
 3841SOL    HW223157   3.665   2.164   2.038  1.9892  0.9179 -1.2071
 3842SOL     OW23158   2.687   4.700   7.612  0.7773 -0.2472 -0.2630
 3842SOL    HW123159   2.703   0.025   7.544  0.0531  0.5534  0.3231
 3842SOL    HW223160   2.647   4.628   7.564  2.0961 -1.2735  0.1751
 3843SOL     OW23161   4.593   0.665   4.180 -0.4705  0.1009 -0.1941
 3843SOL    HW123162   4.653   0.736   4.156  0.2134 -0.3172  0.2764
 3843SOL    HW223163   4.619   0.584   4.136  0.7269  1.1465 -1.4091
 3844SOL     OW23164   1.906   4.359  16.462  0.9458 -0.3018  0.6788
 3844SOL    HW123165   1.935   4.450  16.470 -2.6090  0.7690  1.2489
 3844SOL    HW223166   1.924   4.344  16.369  4.0422 -0.8168  1.3552
 3845SOL     OW23167   2.505   0.272   3.548  0.8388 -0.4679 -0.2077
 3845SOL    HW123168   2.436   0.236   3.492 -0.4880  0.2575  0.9561
 3845SOL    HW223169   2.529   0.195   3.600  0.9203 -0.6652 -0.5377
 3846SOL     OW23170   1.633   1.730   9.180 -0.4957  0.1631  0.5290
 3846SOL    HW123171   1.688   1.659   9.147 -0.0536  1.6265 -1.8946
 3846SOL    HW223172   1.679   1.797   9.129 -1.3032 -1.1580 -1.9257
 3847SOL     OW23173   0.843   1.242   4.853 -0.3458 -0.0318 -0.4912
 3847SOL    HW123174   0.842   1.323   4.904 -3.2778 -0.1361 -0.3959
 3847SOL    HW223175   0.818   1.282   4.770  3.1532  0.4550 -1.3281
 3848SOL     OW23176   3.089   2.392   9.155 -0.2375 -0.0771 -0.2132
 3848SOL    HW123177   3.149   2.329   9.195 -0.1601  0.6555  0.7970
 3848SOL    HW223178   3.153   2.462   9.144 -0.1534 -0.0723  0.3512
 3849SOL     OW23179   1.505   2.724   2.230  0.2484  0.4803  0.1456
 3849SOL    HW123180   1.468   2.775   2.159 -1.2290  1.7592  1.8223
 3849SOL    HW223181   1.578   2.782   2.251  0.3078  1.0284 -1.6163
 3850SOL     OW23182   2.857   2.105   9.622 -0.2866 -0.5871  0.3877
 3850SOL    HW123183   2.880   2.136   9.534  0.3817  1.6961  1.3579
 3850SOL    HW223184   2.855   2.010   9.612 -0.5403 -0.5934  0.5019
 3851SOL     OW23185   2.740   4.139   8.329 -0.0935 -0.2891  0.3429
 3851SOL    HW123186   2.697   4.150   8.413 -1.8507 -2.4647 -0.2741
 3851SOL    HW223187   2.716   4.050   8.303  0.4014 -0.3644  0.1452
 3852SOL     OW23188   2.996   1.000   7.615  0.0690  0.6739  0.5174
 3852SOL    HW123189   2.964   1.059   7.546  1.9971 -0.2073 -1.1576
 3852SOL    HW223190   2.930   0.932   7.619 -1.0607  1.7801  0.7105
 3853SOL     OW23191   3.503   0.677   5.080 -0.2332 -0.1669 -0.0676
 3853SOL    HW123192   3.566   0.608   5.062  0.5811  0.9284 -1.3497
 3853SOL    HW223193   3.424   0.640   5.043 -1.9747  0.0674  3.3840
 3854SOL     OW23194   0.860   0.907   4.378 -0.6084 -0.1374 -0.1905
 3854SOL    HW123195   0.802   0.902   4.302 -0.4942 -1.7161 -0.1852
 3854SOL    HW223196   0.823   0.979   4.429 -2.5153  1.2426 -3.5256
 3855SOL     OW23197   4.044   1.292   3.631 -0.1812  0.0821 -0.1663
 3855SOL    HW123198   4.057   1.374   3.678 -0.6069  1.0623 -1.7578
 3855SOL    HW223199   4.022   1.231   3.701  1.1395  1.7093  1.6874
 3856SOL     OW23200   1.140   0.122   2.836  0.6558  0.6442  0.4174
 3856SOL    HW123201   1.127   0.215   2.856 -1.5953 -0.0070  2.0732
 3856SOL    HW223202   1.049   0.104   2.810  0.4743  0.3717  1.2309
 3857SOL     OW23203   0.283   0.357   7.090 -0.2768 -0.0172 -0.5859
 3857SOL    HW123204   0.194   0.338   7.119 -0.1780  1.8864  1.0096
 3857SOL    HW223205   0.265   0.437   7.041  1.7942  1.2230  0.7037
 3858SOL     OW23206   0.302   3.964   8.551 -0.2050 -0.1030 -0.0671
 3858SOL    HW123207   0.303   3.924   8.464  1.8281 -2.8265  1.2391
 3858SOL    HW223208   0.232   3.920   8.598  0.4498  0.8537  1.7787
 3859SOL     OW23209   3.169   4.341  15.101  0.2506  0.3478  0.7839
 3859SOL    HW123210   3.220   4.320  15.023  1.8120  0.1379  1.8673
 3859SOL    HW223211   3.201   4.429  15.122  1.1861 -0.2865  2.0206
 3860SOL     OW23212   1.365   2.201   5.474  0.4233  0.0630  0.2274
 3860SOL    HW123213   1.289   2.249   5.509  0.0080 -0.3971 -0.0395
 3860SOL    HW223214   1.322   2.118   5.451  0.1930  1.1223 -3.1538
 3861SOL     OW23215   1.840   1.984   1.396  0.0033  0.0917 -0.3217
 3861SOL    HW123216   1.907   1.917   1.381  0.7903  0.3321  2.1086
 3861SOL    HW223217   1.778   1.944   1.457  0.3985  1.3447  0.9150
 3862SOL     OW23218   2.860   1.270   3.880  0.5956  0.6295 -0.5394
 3862SOL    HW123219   2.858   1.363   3.902 -1.5708  0.1204  1.4077
 3862SOL    HW223220   2.946   1.248   3.916  0.8030  1.3747 -0.5816
 3863SOL     OW23221   2.775   0.984   1.523 -0.4167 -0.7989 -0.1291
 3863SOL    HW123222   2.734   1.007   1.440 -1.2356  0.3188  0.5798
 3863SOL    HW223223   2.760   0.891   1.536 -1.3383 -0.7216 -0.6819
 3864SOL     OW23224   0.349   4.151   4.105 -0.1243 -0.2599  0.4496
 3864SOL    HW123225   0.329   4.130   4.196  1.5724  0.9477  1.0915
 3864SOL    HW223226   0.407   4.227   4.106  1.3473 -1.3501 -2.8082
 3865SOL     OW23227   1.328   0.772   4.442  0.3547 -1.0499 -0.0078
 3865SOL    HW123228   1.351   0.680   4.455  0.1708 -0.7543  2.3332
 3865SOL    HW223229   1.248   0.756   4.391  0.4930  0.8082 -0.8137
 3866SOL     OW23230   3.114   4.691   7.732  0.2028  0.0836 -0.2035
 3866SOL    HW123231   3.142   0.019   7.671  1.1956 -0.6405 -0.5366
 3866SOL    HW223232   3.064   4.637   7.671  0.9063  1.1160 -1.6687
 3867SOL     OW23233   4.233   3.590   2.875 -0.0812 -0.2739  0.6444
 3867SOL    HW123234   4.172   3.517   2.865  0.1951 -0.3305 -0.6739
 3867SOL    HW223235   4.230   3.645   2.797  4.4908 -0.7310  0.1381
 3868SOL     OW23236   4.457   4.422   6.853  0.3420 -0.0430 -0.0486
 3868SOL    HW123237   4.441   4.508   6.893 -3.8678 -0.8670  0.0645
 3868SOL    HW223238   4.389   4.410   6.787 -0.1833 -1.5218  0.7523
 3869SOL     OW23239   1.799   4.080   8.956  0.0155  0.1754 -0.2168
 3869SOL    HW123240   1.891   4.097   8.974  0.6339 -3.7390  0.4584
 3869SOL    HW223241   1.772   4.030   9.033  2.4811 -0.8897 -0.0275
 3870SOL     OW23242   4.013   3.593   8.555  0.4173 -0.3567  0.2826
 3870SOL    HW123243   4.046   3.640   8.631 -1.1855  1.2450 -0.0114
 3870SOL    HW223244   4.077   3.624   8.491 -1.1012 -0.2516 -1.1906
 3871SOL     OW23245   2.199   3.039   5.939 -0.5233  0.6516 -0.0294
 3871SOL    HW123246   2.250   3.087   6.003 -0.8437  0.2405  0.5383
 3871SOL    HW223247   2.264   3.021   5.871 -0.0529 -0.3102  0.6791
 3872SOL     OW23248   1.028   2.519  16.217  0.1703  0.0123 -0.2401
 3872SOL    HW123249   1.091   2.526  16.288  0.2067  1.0847 -0.3830
 3872SOL    HW223250   0.956   2.577  16.241 -0.8881 -1.1452 -0.5920
 3873SOL     OW23251   3.309   1.961   4.521  0.4451  0.1754 -0.0366
 3873SOL    HW123252   3.309   1.885   4.578  1.5717 -0.0223 -0.3019
 3873SOL    HW223253   3.235   2.013   4.553  1.3974  0.8889  0.9842
 3874SOL     OW23254   2.782   2.224  13.700  0.7306  0.1094  0.3675
 3874SOL    HW123255   2.734   2.180  13.629 -0.2738  0.6676  0.7054
 3874SOL    HW223256   2.741   2.180  13.774  1.4153 -3.7645 -1.4913
 3875SOL     OW23257   3.976   0.913   8.679  0.1375 -0.0845  0.2721
 3875SOL    HW123258   4.069   0.902   8.700  0.6994  1.4304 -1.4020
 3875SOL    HW223259   3.977   0.977   8.607  0.2595 -0.5948 -0.1785
 3876SOL     OW23260   2.036   0.481   2.625  0.1662 -0.6738 -0.6098
 3876SOL    HW123261   1.998   0.456   2.709 -0.1835  1.1786 -0.2143
 3876SOL    HW223262   1.970   0.439   2.570 -1.1660  0.7669 -0.1161
 3877SOL     OW23263   4.675   3.930   2.112 -0.3829 -0.5666 -0.5036
 3877SOL    HW123264   4.652   3.954   2.202  1.8632  1.9426 -0.6137
 3877SOL    HW223265   4.642   4.003   2.059  0.3329 -0.5808 -0.9571
 3878SOL     OW23266   1.556   2.613   3.392 -0.1151 -0.1169  0.0764
 3878SOL    HW123267   1.469   2.600   3.353  1.4326  0.7153 -3.6333
 3878SOL    HW223268   1.539   2.577   3.479 -1.6717  1.1020  0.2804
 3879SOL     OW23269   3.265   3.850   0.023  0.2233 -0.7387  0.0129
 3879SOL    HW123270   3.284   3.878  17.690 -0.3335  0.6938  0.3425
 3879SOL    HW223271   3.176   3.883   0.033  0.4255 -0.5978  1.3618
 3880SOL     OW23272   3.932   2.676  17.096  0.0198 -0.0073 -0.7777
 3880SOL    HW123273   3.890   2.691  17.181  1.5609 -0.7844  0.1131
 3880SOL    HW223274   3.858   2.682  17.036 -1.1692  0.6212  0.7501
 3881SOL     OW23275   2.818   2.570   9.478  0.0421 -0.1812  0.3193
 3881SOL    HW123276   2.749   2.573   9.544  0.3029  1.8698  0.5011
 3881SOL    HW223277   2.849   2.480   9.489 -1.2158 -0.7702 -0.9350
 3882SOL     OW23278   0.661   3.424  10.249  1.5154  0.2006 -0.0073
 3882SOL    HW123279   0.610   3.442  10.170 -1.0498  0.3320  1.6788
 3882SOL    HW223280   0.615   3.349  10.286  0.6568 -0.2199 -1.9136
 3883SOL     OW23281   1.052   4.054   8.269  0.1604  0.5932  0.2824
 3883SOL    HW123282   1.146   4.039   8.259  0.2676  0.3552  1.6590
 3883SOL    HW223283   1.021   3.964   8.258 -2.3537  1.5743 -0.6383
 3884SOL     OW23284   3.294   1.284   3.555 -0.2700  0.1075 -0.0260
 3884SOL    HW123285   3.233   1.287   3.629  0.4038 -0.1499  0.5394
 3884SOL    HW223286   3.367   1.328   3.598 -0.0705 -0.5588  0.3258
 3885SOL     OW23287   3.433   0.185   0.408 -0.3393  0.2886  0.4597
 3885SOL    HW123288   3.467   0.263   0.452 -0.3414  0.0661  0.8596
 3885SOL    HW223289   3.366   0.165   0.474 -1.2603 -1.4269 -1.0066
 3886SOL     OW23290   4.306   0.724   2.299 -0.3419  0.3439  0.3065
 3886SOL    HW123291   4.336   0.796   2.356  0.7257 -2.0927  2.8204
 3886SOL    HW223292   4.213   0.742   2.311  0.0099  1.3338  1.5089
 3887SOL     OW23293   4.170   1.976  11.931 -0.0546 -0.0730 -0.3459
 3887SOL    HW123294   4.202   2.054  11.885  0.8301  0.6119  1.4382
 3887SOL    HW223295   4.216   1.902  11.891  1.1921  1.8106 -2.3765
 3888SOL     OW23296   4.673   4.535   7.708  0.1500  0.4956  0.0511
 3888SOL    HW123297   4.660   4.629   7.697  0.7079  0.7375  1.4418
 3888SOL    HW223298   4.650   4.534   7.801  0.0346 -1.2396  0.0130
 3889SOL     OW23299   2.967   0.283   6.001  0.7933 -0.1640 -0.1932
 3889SOL    HW123300   3.045   0.266   6.054 -0.8553 -1.9440  1.6424
 3889SOL    HW223301   3.004   0.242   5.923  2.3967 -0.3154  0.6643
 3890SOL     OW23302   3.343   1.270   3.117 -0.2546 -0.0869  0.4440
 3890SOL    HW123303   3.315   1.295   3.205  0.1450  4.0553 -0.6283
 3890SOL    HW223304   3.429   1.311   3.129 -0.2505 -0.2164  0.8544
 3891SOL     OW23305   3.586   1.769   2.112  0.3630 -0.3662  0.3926
 3891SOL    HW123306   3.530   1.692   2.104  2.2103 -1.7995  1.2087
 3891SOL    HW223307   3.622   1.780   2.024 -3.0099  0.6848 -0.8308
 3892SOL     OW23308   1.912   2.241   8.040  0.4122  0.6759  0.4665
 3892SOL    HW123309   1.862   2.225   8.120 -0.2152 -1.2413 -0.2865
 3892SOL    HW223310   1.939   2.149   8.037  0.8469  0.7557  2.1315
 3893SOL     OW23311   4.429   0.107   5.156  0.2337 -0.0979  0.3846
 3893SOL    HW123312   4.370   0.061   5.215  0.7940  0.1747  1.1536
 3893SOL    HW223313   4.455   0.048   5.085  0.4267 -0.5507  0.8381
 3894SOL     OW23314   4.619   3.766  12.002 -0.2082 -0.7611  0.2420
 3894SOL    HW123315   4.558   3.801  12.067  0.6902  1.0514  0.1052
 3894SOL    HW223316   4.596   3.673  11.995 -0.1628 -0.8955  1.7773
 3895SOL     OW23317   3.201   0.688  11.998  0.0363 -0.4890  0.3749
 3895SOL    HW123318   3.214   0.770  11.950 -1.4815 -1.6406 -2.0228
 3895SOL    HW223319   3.213   0.723  12.086  0.7850 -0.6038  0.3146
 3896SOL     OW23320   0.481   2.554   8.625  0.1007  0.1068  0.2666
 3896SOL    HW123321   0.511   2.637   8.662 -0.8302  0.5165  0.0967
 3896SOL    HW223322   0.499   2.490   8.694 -0.9352 -0.7089 -0.2237
 3897SOL     OW23323   4.009   0.797   2.763 -0.1861 -0.5503  0.5017
 3897SOL    HW123324   3.962   0.842   2.833 -1.7457 -0.9954 -0.2474
 3897SOL    HW223325   3.945   0.743   2.717  1.6787 -1.4583 -1.0099
 3898SOL     OW23326   0.567   1.630   3.425  0.2685  0.0948  1.0489
 3898SOL    HW123327   0.578   1.721   3.453 -0.1722  0.2377  0.7344
 3898SOL    HW223328   0.543   1.632   3.333 -1.4918 -0.3733  1.5057
 3899SOL     OW23329   0.869   1.542   1.408 -0.3018 -0.3110 -0.0991
 3899SOL    HW123330   0.825   1.614   1.454 -0.2290 -0.2079 -0.1901
 3899SOL    HW223331   0.832   1.462   1.446  0.6794 -1.2036 -1.0383
 3900SOL     OW23332   2.721   4.559  10.375 -0.1544  0.1516  0.1318
 3900SOL    HW123333   2.700   4.626  10.440  3.1753  0.0805  1.2433
 3900SOL    HW223334   2.815   4.573  10.371 -0.3513  1.9820  1.8187
 3901SOL     OW23335   1.229   2.002   7.121 -0.7976  0.2786  0.0044
 3901SOL    HW123336   1.249   2.090   7.152  1.1309 -0.0328 -0.3388
 3901SOL    HW223337   1.209   2.018   7.029 -2.6650  0.6821  0.4705
 3902SOL     OW23338   3.964   1.340  10.554 -0.4092 -0.0678 -0.2233
 3902SOL    HW123339   4.041   1.283  10.559 -1.1399 -0.9768  0.6717
 3902SOL    HW223340   3.901   1.268  10.554  0.5493 -0.9184  0.3076
 3903SOL     OW23341   2.611   3.419   5.329 -0.1271  0.2884  0.5669
 3903SOL    HW123342   2.575   3.503   5.302  1.6832  0.5570 -1.0689
 3903SOL    HW223343   2.696   3.446   5.366  1.3347 -1.9591 -1.1369
 3904SOL     OW23344   0.921   0.376   4.496 -0.4900  0.2510  0.5185
 3904SOL    HW123345   0.981   0.392   4.423 -2.2356  0.0997 -0.9464
 3904SOL    HW223346   0.843   0.351   4.447 -0.7830  3.2772 -0.5741
 3905SOL     OW23347   0.654   1.291  15.234 -0.2746  0.9074  0.1083
 3905SOL    HW123348   0.670   1.269  15.326 -1.8651 -1.0604 -0.0912
 3905SOL    HW223349   0.733   1.260  15.190 -1.1921  0.0513 -0.9245
 3906SOL     OW23350   3.719   3.916   1.390  0.4731 -0.0204  0.2323
 3906SOL    HW123351   3.782   3.847   1.373  1.3296  0.8863 -0.2740
 3906SOL    HW223352   3.662   3.909   1.313  0.6821 -0.9475  0.1687
 3907SOL     OW23353   2.636   2.085   4.979  0.5226 -0.5474  0.2701
 3907SOL    HW123354   2.588   2.012   4.941 -2.1310  1.9238 -1.1152
 3907SOL    HW223355   2.647   2.045   5.065 -1.9329 -0.1565  0.7668
 3908SOL     OW23356   0.815   2.311  10.463 -0.8424 -0.2164 -0.2294
 3908SOL    HW123357   0.756   2.286  10.535  0.6014  1.0258  1.3951
 3908SOL    HW223358   0.866   2.368  10.520 -2.3389  2.6483 -1.7236
 3909SOL     OW23359   4.305   0.458   2.768 -0.4176 -0.1112 -0.1386
 3909SOL    HW123360   4.260   0.406   2.701  0.5436 -1.0773 -0.0453
 3909SOL    HW223361   4.307   0.546   2.732 -0.7726  0.2315  0.6756
 3910SOL     OW23362   0.019   1.459   6.796 -0.1022  0.2644 -0.0701
 3910SOL    HW123363   0.006   1.364   6.793  2.1211 -0.1126  1.9007
 3910SOL    HW223364   4.665   1.480   6.788 -0.1991 -0.4111 -0.6241
 3911SOL     OW23365   2.992   2.762   2.610  0.6759 -0.0715  0.3165
 3911SOL    HW123366   2.925   2.706   2.649  1.0871 -0.6677  0.1676
 3911SOL    HW223367   2.952   2.784   2.526  1.2439  0.9903  0.3183
 3912SOL     OW23368   1.522   2.849  14.780 -1.2962 -0.5865 -0.2016
 3912SOL    HW123369   1.458   2.891  14.837 -1.1492  0.3819 -0.7480
 3912SOL    HW223370   1.466   2.835  14.704 -0.5538 -3.2100 -0.2798
 3913SOL     OW23371   2.070   0.349   6.947 -0.0402  0.1607 -0.0252
 3913SOL    HW123372   2.155   0.384   6.974  1.1046 -3.1341  0.6665
 3913SOL    HW223373   2.035   0.437   6.938 -1.1087 -0.1407  1.2818
 3914SOL     OW23374   0.092   3.229   8.523 -0.7512 -0.2016  0.2570
 3914SOL    HW123375   0.176   3.199   8.488 -0.2261  0.6700  0.7561
 3914SOL    HW223376   0.117   3.282   8.599  1.8230 -2.3116  0.8463
 3915SOL     OW23377   1.115   2.075   8.680  0.4063 -0.0484  0.4029
 3915SOL    HW123378   1.210   2.063   8.680  0.1945 -1.7615 -1.0787
 3915SOL    HW223379   1.103   2.161   8.721 -0.0906 -1.0028  2.2297
 3916SOL     OW23380   3.866   0.662   5.935  0.2749  0.5117  0.0556
 3916SOL    HW123381   3.775   0.670   5.963 -0.0940  0.0127 -0.9953
 3916SOL    HW223382   3.895   0.739   5.984 -0.4452  0.8423 -0.0481
 3917SOL     OW23383   1.779   4.568   6.615  0.1143 -0.2316 -0.5945
 3917SOL    HW123384   1.686   4.556   6.638 -0.2369  2.8643 -0.4367
 3917SOL    HW223385   1.781   4.570   6.519  2.1381  0.5352 -0.5323
 3918SOL     OW23386   2.529   4.730   3.314 -0.3181 -0.0403  0.2736
 3918SOL    HW123387   2.555   0.048   3.242 -0.2569  0.1542  0.4518
 3918SOL    HW223388   2.609   4.677   3.318 -0.5317 -0.5180 -1.9859
 3919SOL     OW23389   2.728   0.615   7.371 -0.3380 -0.4421  0.5070
 3919SOL    HW123390   2.799   0.678   7.361 -2.0241  1.2941 -0.4913
 3919SOL    HW223391   2.774   0.532   7.366 -1.3760 -1.0403  0.8468
 3920SOL     OW23392   1.350   2.361   2.543  0.7875 -0.6787 -0.6175
 3920SOL    HW123393   1.345   2.432   2.608  2.2869 -0.0894 -1.1331
 3920SOL    HW223394   1.348   2.413   2.462  0.4260 -0.1397 -0.2663
 3921SOL     OW23395   0.348   2.017   4.013 -0.6964 -0.0539  0.2180
 3921SOL    HW123396   0.364   2.061   4.096  0.4693  1.1373 -0.6417
 3921SOL    HW223397   0.264   1.978   4.036 -0.4383 -0.4855  0.4401
 3922SOL     OW23398   3.613   1.969   3.297 -0.0453  0.3492  0.5497
 3922SOL    HW123399   3.704   1.996   3.305 -0.1104  0.9367 -0.7108
 3922SOL    HW223400   3.568   2.044   3.336 -0.3870  0.8026 -0.7358
 3923SOL     OW23401   3.743   1.539   3.540  0.4989  0.2527 -0.0149
 3923SOL    HW123402   3.785   1.453   3.536 -0.3766 -0.2004  0.5679
 3923SOL    HW223403   3.815   1.592   3.575  0.9582  1.1644 -2.3182
 3924SOL     OW23404   1.379   3.329   3.399 -0.3734  1.0201  0.1835
 3924SOL    HW123405   1.426   3.255   3.438  0.2338  1.4501  0.2681
 3924SOL    HW223406   1.451   3.366   3.349 -0.0696 -1.2757 -1.0899
 3925SOL     OW23407   2.243   3.405   7.877  0.1197  0.2381  0.2629
 3925SOL    HW123408   2.214   3.414   7.968 -0.6555  0.1392  0.0243
 3925SOL    HW223409   2.296   3.326   7.887 -0.0725  0.1083  0.2657
 3926SOL     OW23410   0.767   4.195  16.088 -0.2113 -0.6518  0.2700
 3926SOL    HW123411   0.802   4.268  16.139 -1.2146 -0.4434  0.6655
 3926SOL    HW223412   0.707   4.239  16.028  1.8296  0.9441 -0.6109
 3927SOL     OW23413   2.950   4.582   3.081 -0.2615 -0.6790 -0.2953
 3927SOL    HW123414   2.939   4.674   3.107 -0.6487 -1.4356  2.1782
 3927SOL    HW223415   3.043   4.579   3.103 -0.6039  2.7248  1.5713
 3928SOL     OW23416   4.622   0.953   8.052  0.5720  0.1364  0.4751
 3928SOL    HW123417   4.614   1.019   8.120  2.5777  1.7914 -0.8997
 3928SOL    HW223418   4.533   0.934   8.022  0.1555  0.4344  1.5000
 3929SOL     OW23419   0.305   4.337  11.851 -0.4220  0.7923  0.4631
 3929SOL    HW123420   0.286   4.245  11.868 -0.4237  0.4403 -1.4813
 3929SOL    HW223421   0.362   4.360  11.925 -3.3790  1.0627  2.6506
 3930SOL     OW23422   1.594   4.429   5.987 -0.2386 -0.1542  0.2773
 3930SOL    HW123423   1.629   4.515   5.965 -1.8511  0.3159 -0.4513
 3930SOL    HW223424   1.570   4.445   6.078 -1.2871  1.7916 -0.3473
 3931SOL     OW23425   2.896   3.120   0.155 -0.7254 -0.0318  0.4278
 3931SOL    HW123426   2.863   3.210   0.153 -0.0859  0.1559 -1.6601
 3931SOL    HW223427   2.860   3.084   0.074  0.1853 -0.8216  0.3646
 3932SOL     OW23428   1.868   3.075  10.554 -0.6442 -0.1673  0.5721
 3932SOL    HW123429   1.906   3.014  10.491 -3.1614 -0.1768 -0.9038
 3932SOL    HW223430   1.854   3.019  10.630 -1.3771 -1.8818 -0.8449
 3933SOL     OW23431   4.678   0.219   6.922  0.5070  0.0958 -0.8946
 3933SOL    HW123432   4.661   0.274   6.846  0.3471  0.0374 -0.9013
 3933SOL    HW223433   4.688   0.131   6.886 -0.6070 -0.2754 -0.3184
 3934SOL     OW23434   4.714   1.868   5.771 -0.5318 -0.8997 -0.4217
 3934SOL    HW123435   0.001   1.776   5.769 -1.2702 -1.1409  1.5248
 3934SOL    HW223436   4.619   1.857   5.775 -0.8563  0.5905 -3.4265
 3935SOL     OW23437   0.172   1.000   4.271  0.0133 -0.6234 -0.1296
 3935SOL    HW123438   0.183   0.908   4.295 -0.2373 -0.8025 -0.7223
 3935SOL    HW223439   0.194   0.994   4.178 -0.7642  0.8051 -0.4151
 3936SOL     OW23440   1.704   4.392   5.556  0.0514  0.1837  0.5609
 3936SOL    HW123441   1.767   4.454   5.519  1.2795 -1.2177  0.2525
 3936SOL    HW223442   1.744   4.305   5.546 -1.0070 -0.3346  0.9124
 3937SOL     OW23443   3.594   4.622   6.777 -1.1180 -0.1717  0.4441
 3937SOL    HW123444   3.603   4.589   6.687  1.1792  1.1696  0.1739
 3937SOL    HW223445   3.604   4.715   6.756 -1.4355 -0.4665 -1.0484
 3938SOL     OW23446   4.435   4.230   2.113 -0.7076  0.0657  0.6585
 3938SOL    HW123447   4.378   4.283   2.167  1.3852  1.9274  1.0289
 3938SOL    HW223448   4.505   4.289   2.085  0.1426 -1.1300  0.2186
 3939SOL     OW23449   0.804   3.247   1.984 -0.2812  0.4788 -0.0766
 3939SOL    HW123450   0.714   3.256   1.953 -0.7396  1.8779  1.6819
 3939SOL    HW223451   0.847   3.254   1.898 -1.6929  1.4464 -0.7076
 3940SOL     OW23452   1.769   0.129  10.320  0.4721  0.0228  0.0751
 3940SOL    HW123453   1.839   0.063  10.324 -0.4498 -1.0474 -1.6773
 3940SOL    HW223454   1.816   0.212  10.324  1.5036 -0.5973  0.7866
 3941SOL     OW23455   0.345   0.533   2.457  0.4134 -0.1749 -0.7126
 3941SOL    HW123456   0.319   0.525   2.365 -0.5443  1.5556 -0.5804
 3941SOL    HW223457   0.291   0.607   2.485  0.6299  0.6599 -2.4718
 3942SOL     OW23458   4.503   2.269   2.725  0.1543 -0.2731  0.4521
 3942SOL    HW123459   4.539   2.200   2.781  0.2849 -0.6360 -0.0717
 3942SOL    HW223460   4.489   2.225   2.642  1.4681 -1.0979  0.6730
 3943SOL     OW23461   2.945   2.366   7.542 -0.1293  0.8414 -0.4310
 3943SOL    HW123462   2.983   2.285   7.509 -0.3234  0.1257  1.1103
 3943SOL    HW223463   2.945   2.422   7.464 -0.6847  2.5183  0.7634
 3944SOL     OW23464   3.215   0.901   6.546 -0.3294  0.3416 -0.0012
 3944SOL    HW123465   3.222   0.885   6.452 -2.2253 -0.4464 -0.0024
 3944SOL    HW223466   3.123   0.878   6.561 -0.6713  1.5252 -0.3661
 3945SOL     OW23467   3.458   3.701  13.997 -0.2446  0.4453 -0.4221
 3945SOL    HW123468   3.378   3.742  13.964 -0.9384 -0.7337 -0.1736
 3945SOL    HW223469   3.510   3.689  13.917 -1.2700  1.7780 -1.2986
 3946SOL     OW23470   3.017   1.084  15.707  0.3047 -0.1786  0.6970
 3946SOL    HW123471   3.109   1.065  15.725  0.1484  0.4362  2.1174
 3946SOL    HW223472   2.981   1.075  15.795  2.2290  1.3558  1.6286
 3947SOL     OW23473   4.660   4.684   7.081  0.4567 -0.4522 -0.3533
 3947SOL    HW123474   4.679   4.624   7.009 -1.5059 -1.3801 -0.0973
 3947SOL    HW223475   4.568   4.692   7.056  0.2023  0.8992  0.9977
 3948SOL     OW23476   2.831   2.843   3.646  0.3019  0.0462 -0.0538
 3948SOL    HW123477   2.860   2.758   3.679  1.8306 -0.1366 -1.8769
 3948SOL    HW223478   2.912   2.895   3.652 -0.3167  0.9680  0.3838
 3949SOL     OW23479   3.421   2.251   6.877 -1.0747  0.1266  0.2210
 3949SOL    HW123480   3.385   2.278   6.962  2.9190  0.2943  1.8627
 3949SOL    HW223481   3.365   2.180   6.844  0.0606 -1.9828  2.7923
 3950SOL     OW23482   1.064   0.589  15.190  0.9099  0.1615 -0.7026
 3950SOL    HW123483   1.013   0.663  15.157 -0.2865 -0.6414 -0.6312
 3950SOL    HW223484   1.114   0.567  15.111  0.7216  0.3085 -0.8595
 3951SOL     OW23485   3.566   1.722  10.899  0.3589  0.0761  0.1002
 3951SOL    HW123486   3.510   1.681  10.966 -0.4051  2.2261  0.7719
 3951SOL    HW223487   3.554   1.813  10.926 -0.0386  0.5246 -1.6496
 3952SOL     OW23488   1.726   0.750   9.142  0.4446  0.6655  0.5322
 3952SOL    HW123489   1.795   0.747   9.209  1.9259  1.6201 -0.9492
 3952SOL    HW223490   1.643   0.741   9.190  0.2102 -1.2435 -0.2317
 3953SOL     OW23491   1.883   0.615   8.966 -0.0595 -0.3463  0.1701
 3953SOL    HW123492   1.843   0.675   9.029 -1.3238  0.7960 -1.7478
 3953SOL    HW223493   1.807   0.580   8.921 -0.7624  0.4270  0.7498
 3954SOL     OW23494   2.413   4.012   1.964 -0.3852 -0.4645  0.3297
 3954SOL    HW123495   2.398   4.040   1.874 -0.4861 -0.3350  0.3868
 3954SOL    HW223496   2.324   3.993   1.996 -0.5882 -0.7629 -0.4107
 3955SOL     OW23497   0.520   1.147   5.074  0.3841  0.1273 -0.1544
 3955SOL    HW123498   0.516   1.063   5.027 -1.5513 -0.5397  1.2266
 3955SOL    HW223499   0.587   1.113   5.134  0.3751  0.3112 -0.0425
 3956SOL     OW23500   1.168   1.946   9.068  0.0222 -0.4461  0.0792
 3956SOL    HW123501   1.095   1.996   9.104 -1.5715 -3.2968  0.7964
 3956SOL    HW223502   1.120   1.888   9.008 -1.8706 -0.4301  1.5850
 3957SOL     OW23503   0.285   4.229   7.569 -0.0576 -0.0119  0.9659
 3957SOL    HW123504   0.200   4.273   7.576 -0.5661 -0.8865  0.4037
 3957SOL    HW223505   0.296   4.207   7.476  0.1818  2.2735  0.4696
 3958SOL     OW23506   2.092   2.537  15.517  0.4435 -0.5701 -0.0091
 3958SOL    HW123507   2.089   2.601  15.587 -1.3190 -1.2117  0.5108
 3958SOL    HW223508   2.076   2.459  15.570  2.9271 -0.0426  1.4853
 3959SOL     OW23509   2.411   4.471  13.511  0.0349  0.1959  0.1399
 3959SOL    HW123510   2.349   4.422  13.457 -0.5383  1.4868 -0.3574
 3959SOL    HW223511   2.495   4.457  13.467  0.9090 -0.2167  1.9184
 3960SOL     OW23512   2.781   2.230   4.223  0.0831  0.0541  0.0791
 3960SOL    HW123513   2.739   2.224   4.138 -2.0863 -0.6360  1.1966
 3960SOL    HW223514   2.779   2.139   4.251  0.7068 -0.1067 -0.4074
 3961SOL     OW23515   1.580   0.302   7.091 -0.2676 -0.1232 -0.4602
 3961SOL    HW123516   1.662   0.269   7.056 -1.2879  0.1425 -3.1336
 3961SOL    HW223517   1.545   0.225   7.135 -1.5800  0.2566 -0.8209
 3962SOL     OW23518   0.439   1.770   9.712  0.0442 -0.2177  0.2657
 3962SOL    HW123519   0.501   1.712   9.668 -1.6396 -1.6948 -0.2064
 3962SOL    HW223520   0.464   1.759   9.803 -0.5662  0.5944  0.5299
 3963SOL     OW23521   3.666   2.273   6.747  0.1967  0.2121 -0.0415
 3963SOL    HW123522   3.583   2.277   6.796  1.1846 -1.0610  1.7296
 3963SOL    HW223523   3.673   2.182   6.720  0.9171  0.4567 -0.6589
 3964SOL     OW23524   2.969   1.948  12.222  0.1369 -0.5935  0.1886
 3964SOL    HW123525   2.935   2.031  12.255  0.9254 -0.3622  0.4150
 3964SOL    HW223526   2.969   1.897  12.303  1.0044  1.3706  1.4043
 3965SOL     OW23527   3.106   2.527  13.543  0.1312 -0.1250  0.5934
 3965SOL    HW123528   3.052   2.568  13.476  0.8068  2.6701  1.7491
 3965SOL    HW223529   3.043   2.518  13.614 -1.0762 -0.0119 -0.4578
 3966SOL     OW23530   0.546   4.651   3.729  0.2570  0.0179  0.2083
 3966SOL    HW123531   0.505   4.704   3.660  2.3614  1.2795 -0.0814
 3966SOL    HW223532   0.552   4.700   3.811 -0.8644 -0.3487  0.5106
 3967SOL     OW23533   4.269   1.411  13.231  0.0595 -0.0356 -0.4540
 3967SOL    HW123534   4.334   1.460  13.182  1.2889  0.9378  2.1457
 3967SOL    HW223535   4.226   1.479  13.282  0.9351  0.0188  0.1984
 3968SOL     OW23536   0.729   1.111   4.479  0.0041 -0.2550  0.6344
 3968SOL    HW123537   0.661   1.056   4.518  0.1956 -0.7008  0.3446
 3968SOL    HW223538   0.712   1.194   4.524  2.5012  0.1967  0.7292
 3969SOL     OW23539   1.513   4.243   1.949  0.3310  0.4339 -0.5999
 3969SOL    HW123540   1.503   4.329   1.990 -0.0406 -1.1078  2.5358
 3969SOL    HW223541   1.606   4.223   1.964  0.9503  3.3582 -0.5801
 3970SOL     OW23542   0.379   4.366   0.711 -0.1000  1.4599  0.3030
 3970SOL    HW123543   0.429   4.430   0.761 -1.2892  2.6716 -0.0672
 3970SOL    HW223544   0.422   4.382   0.627 -0.8403  0.1323 -0.3187
 3971SOL     OW23545   0.175   2.360   7.722 -0.2458  0.4683  0.1834
 3971SOL    HW123546   0.245   2.414   7.686  1.2795 -1.9444 -0.4988
 3971SOL    HW223547   0.223   2.296   7.775  1.8591  1.6366 -0.2949
 3972SOL     OW23548   2.924   3.470   1.808 -0.1229 -0.4918  0.5773
 3972SOL    HW123549   3.000   3.418   1.783  0.4484  0.8320 -0.4477
 3972SOL    HW223550   2.869   3.407   1.855 -0.3740 -1.5365 -1.0951
 3973SOL     OW23551   3.716   0.736   1.529 -0.5891 -0.3174 -0.4538
 3973SOL    HW123552   3.724   0.668   1.461  0.7521 -0.2127 -0.4084
 3973SOL    HW223553   3.809   0.747   1.550 -0.7098 -1.6073  0.7778
 3974SOL     OW23554   1.547   4.714  11.492  0.2198 -0.0299 -0.1083
 3974SOL    HW123555   1.621   4.665  11.529  0.9452  0.4029 -1.0033
 3974SOL    HW223556   1.587   0.061  11.498  0.5415 -0.3845  3.0669
 3975SOL     OW23557   4.332   3.068   2.500  0.1510  0.2730 -0.3654
 3975SOL    HW123558   4.400   3.003   2.516 -0.3653  0.2180  1.6322
 3975SOL    HW223559   4.296   3.042   2.415 -2.7447  0.6559  0.7418
 3976SOL     OW23560   2.775   1.921  14.867  0.3397 -0.4961 -0.6542
 3976SOL    HW123561   2.870   1.920  14.863  0.3504  2.2003 -1.3138
 3976SOL    HW223562   2.749   1.984  14.800 -1.0488 -0.7823 -0.3880
 3977SOL     OW23563   2.032   2.462   7.493  0.2829 -0.5332 -0.1113
 3977SOL    HW123564   2.029   2.556   7.479 -1.2396 -0.3388  1.4429
 3977SOL    HW223565   2.075   2.427   7.416  0.3972 -2.2181  0.7149
 3978SOL     OW23566   3.593   2.226   5.616  0.1796 -0.1398  0.0528
 3978SOL    HW123567   3.517   2.168   5.622  1.2206 -1.1188  3.7755
 3978SOL    HW223568   3.627   2.201   5.530 -0.3872 -0.8578  0.0363
 3979SOL     OW23569   0.629   1.233   0.440 -0.4228  0.2488  0.2524
 3979SOL    HW123570   0.612   1.274   0.525 -1.1617 -0.4467  0.4410
 3979SOL    HW223571   0.597   1.144   0.459  0.9127  0.7485  4.8051
 3980SOL     OW23572   1.335   1.623   7.791 -0.4452 -0.4448  0.4473
 3980SOL    HW123573   1.283   1.606   7.712  0.5352 -1.5647  0.0505
 3980SOL    HW223574   1.325   1.718   7.793 -0.6819 -0.4471 -0.9396
 3981SOL     OW23575   3.680   4.168   5.958 -0.2091  0.5175  0.6302
 3981SOL    HW123576   3.745   4.100   5.972 -0.6530 -0.0703 -0.1968
 3981SOL    HW223577   3.599   4.124   5.985 -1.4323 -0.2512 -4.3411
 3982SOL     OW23578   1.195   3.961   4.623  0.4333  0.4502 -0.4485
 3982SOL    HW123579   1.126   3.951   4.557 -0.4943 -3.8495  1.1779
 3982SOL    HW223580   1.160   4.031   4.679 -0.9410  0.2959 -1.1042
 3983SOL     OW23581   4.446   4.076   2.676  0.0207 -0.5169  0.6221
 3983SOL    HW123582   4.461   4.136   2.748  3.3635  2.0128 -2.2097
 3983SOL    HW223583   4.525   4.025   2.690 -0.5403 -0.4870  3.9347
 3984SOL     OW23584   0.751   1.285  13.605  0.2857 -0.5756  0.4131
 3984SOL    HW123585   0.806   1.309  13.678  1.2701 -1.0256 -0.1831
 3984SOL    HW223586   0.790   1.205  13.569 -1.1055  0.2673 -3.0351
 3985SOL     OW23587   3.948   2.033   2.490 -0.2800 -0.3271 -0.1185
 3985SOL    HW123588   4.003   2.110   2.478 -1.2049  0.3128 -0.2576
 3985SOL    HW223589   3.860   2.067   2.473 -0.0376  0.1466 -0.4332
 3986SOL     OW23590   0.760   3.717  13.417  0.5853  0.2011 -0.3244
 3986SOL    HW123591   0.838   3.771  13.429  0.4508 -0.1511  2.2250
 3986SOL    HW223592   0.760   3.700  13.323  0.0835  0.5246 -0.3861
 3987SOL     OW23593   2.927   1.752   7.020  0.2833  0.0498 -0.4767
 3987SOL    HW123594   2.919   1.729   6.928 -1.4158 -0.4826 -0.2004
 3987SOL    HW223595   2.973   1.836   7.022 -0.7394  0.6112 -0.5816
 3988SOL     OW23596   4.678   3.060  14.218 -0.0399  1.2150 -0.1619
 3988SOL    HW123597   0.018   3.106  14.190  0.8372  1.3231  2.5273
 3988SOL    HW223598   4.695   3.014  14.300  0.9476 -0.7562 -1.4655
 3989SOL     OW23599   1.815   2.164   6.100  0.1523  0.4494 -0.1929
 3989SOL    HW123600   1.739   2.110   6.078  0.0873 -0.3756  2.0357
 3989SOL    HW223601   1.792   2.201   6.186  1.2661 -0.4725  0.5087
 3990SOL     OW23602   3.219   3.878   6.270  0.2436 -0.4280 -0.0212
 3990SOL    HW123603   3.169   3.858   6.191 -0.2284  0.4675  0.0591
 3990SOL    HW223604   3.303   3.841   6.243  0.0767  0.4125 -1.6332
 3991SOL     OW23605   4.369   3.285   4.521  0.4223 -0.2815 -0.0729
 3991SOL    HW123606   4.452   3.242   4.541  1.4167  2.2890  1.3303
 3991SOL    HW223607   4.315   3.209   4.500  1.8096 -0.7145 -2.1720
 3992SOL     OW23608   4.382   2.664  15.330 -0.4845  0.6502  0.4527
 3992SOL    HW123609   4.334   2.596  15.284 -0.1628  0.9256 -0.2954
 3992SOL    HW223610   4.323   2.679  15.404 -0.7888  1.7990 -0.0228
 3993SOL     OW23611   2.672   0.893  13.931 -0.1850 -0.2684  0.0909
 3993SOL    HW123612   2.637   0.972  13.974 -0.4481  0.2167 -1.0279
 3993SOL    HW223613   2.598   0.831  13.931 -1.2164  0.9459  0.7995
 3994SOL     OW23614   0.723   1.633   3.982 -0.1538  0.3679 -0.0177
 3994SOL    HW123615   0.650   1.634   3.920 -2.3376  0.7382  2.5329
 3994SOL    HW223616   0.793   1.594   3.930  1.8252  0.5802  2.4566
 3995SOL     OW23617   0.546   1.532   7.527  0.1377 -0.2655 -0.3563
 3995SOL    HW123618   0.513   1.444   7.544 -1.3397  0.3543  0.0111
 3995SOL    HW223619   0.641   1.517   7.534  0.2916  0.8712 -0.0698
 3996SOL     OW23620   2.103   0.765   0.573 -0.3946 -0.2587  1.0148
 3996SOL    HW123621   2.171   0.818   0.531 -0.1798  0.0760  1.7945
 3996SOL    HW223622   2.110   0.677   0.537  0.9379  0.6066 -0.8393
 3997SOL     OW23623   2.463   2.666   9.165 -0.4480 -0.2024  0.2728
 3997SOL    HW123624   2.548   2.650   9.125  0.4538  0.0410  2.1122
 3997SOL    HW223625   2.477   2.669   9.260 -0.8238 -1.2990  0.3627
 3998SOL     OW23626   1.319   4.467   3.385  0.3700  0.4595 -0.1207
 3998SOL    HW123627   1.397   4.518   3.407  2.2146 -3.3030  2.1691
 3998SOL    HW223628   1.271   4.514   3.317  1.2829 -0.4082 -1.3640
 3999SOL     OW23629   2.972   2.721   6.750 -0.7697 -0.1386 -0.1691
 3999SOL    HW123630   2.980   2.702   6.843  0.5558 -0.2655 -0.3167
 3999SOL    HW223631   2.986   2.815   6.740 -2.1318 -0.0356 -1.2043
 4000SOL     OW23632   3.664   3.236   8.945  0.4815 -0.3098 -0.5482
 4000SOL    HW123633   3.749   3.223   8.904  0.0114 -0.0233 -1.6081
 4000SOL    HW223634   3.620   3.159   8.912 -0.6697 -0.1939  0.7174
 4001SOL     OW23635   2.009   2.643  12.227  0.0808 -0.3772 -0.2033
 4001SOL    HW123636   2.026   2.593  12.147 -3.8542  1.9513 -2.5003
 4001SOL    HW223637   2.089   2.631  12.279 -1.3281 -0.3693  1.9519
 4002SOL     OW23638   0.568   2.551   7.830  0.1385 -0.3058  0.1626
 4002SOL    HW123639   0.573   2.524   7.922  0.0478  0.7472  0.4718
 4002SOL    HW223640   0.484   2.596   7.832  0.1643 -0.3329  2.5266
 4003SOL     OW23641   2.562   3.026   7.784 -0.5013  0.0674  0.0291
 4003SOL    HW123642   2.652   3.034   7.816 -0.8895 -0.1346  1.1592
 4003SOL    HW223643   2.572   3.091   7.715 -1.3367  0.5015  0.3255
 4004SOL     OW23644   3.537   4.075  15.556 -0.2252 -0.5399  0.2521
 4004SOL    HW123645   3.627   4.107  15.560  0.9628 -3.9464  0.8422
 4004SOL    HW223646   3.502   4.114  15.636 -1.8737  0.2042 -0.8294
 4005SOL     OW23647   1.028   4.523   7.973 -0.3791 -0.3564 -0.3167
 4005SOL    HW123648   1.058   4.608   8.007 -0.3211 -0.5145  0.0277
 4005SOL    HW223649   1.053   4.465   8.045  3.1366 -0.0098 -1.2529
 4006SOL     OW23650   3.615   1.232   7.132 -0.1881  0.4162 -0.0012
 4006SOL    HW123651   3.702   1.269   7.150 -1.3019  2.7582  0.4389
 4006SOL    HW223652   3.623   1.215   7.038  0.9365 -2.1511  0.5318
 4007SOL     OW23653   1.992   4.396  15.674 -0.0477  0.2589 -0.1050
 4007SOL    HW123654   2.059   4.383  15.607  0.1856  1.7960 -0.1573
 4007SOL    HW223655   1.926   4.339  15.635 -1.0544  1.3372  0.0443
 4008SOL     OW23656   3.704   3.126   4.029 -0.8188 -0.2298 -0.1221
 4008SOL    HW123657   3.634   3.062   4.038  0.8586 -1.7029  2.2805
 4008SOL    HW223658   3.664   3.186   3.966  2.2133  2.6780  0.6420
 4009SOL     OW23659   2.606   1.980   0.233  0.8091  0.3298 -0.1606
 4009SOL    HW123660   2.691   1.945   0.260  0.9872  1.6971  1.0892
 4009SOL    HW223661   2.548   1.938   0.297 -0.6458  1.3720 -0.7925
 4010SOL     OW23662   2.952   0.573   4.133 -0.5000  0.2969  0.6502
 4010SOL    HW123663   2.893   0.577   4.058 -1.1375  0.7700  1.1726
 4010SOL    HW223664   2.886   0.536   4.192 -0.6539 -0.8736 -0.2760
 4011SOL     OW23665   0.254   3.335  10.838  0.6885 -0.0755 -0.2956
 4011SOL    HW123666   0.252   3.269  10.768  1.6577 -0.2957 -0.1228
 4011SOL    HW223667   0.159   3.343  10.847  0.5328 -1.4414 -0.7177
 4012SOL     OW23668   4.375   1.569   2.649 -0.5080  0.2499  0.0378
 4012SOL    HW123669   4.427   1.645   2.622 -1.5884  0.4393 -1.4856
 4012SOL    HW223670   4.331   1.537   2.570  2.7418 -0.0257 -1.6499
 4013SOL     OW23671   0.737   1.722   1.822  0.3279 -0.6917 -0.7986
 4013SOL    HW123672   0.700   1.689   1.903  0.5723 -0.6373 -0.6640
 4013SOL    HW223673   0.812   1.775   1.847 -0.2803  0.1549 -0.7811
 4014SOL     OW23674   3.502   0.703  11.397 -0.2052  0.3418  0.4319
 4014SOL    HW123675   3.558   0.630  11.426  1.4022  0.7969 -1.5341
 4014SOL    HW223676   3.456   0.672  11.319 -1.1710  2.8399  0.0164
 4015SOL     OW23677   4.549   1.978   4.454 -0.2408 -0.0211 -0.0307
 4015SOL    HW123678   4.613   1.946   4.518  0.0067 -0.1582 -0.3506
 4015SOL    HW223679   4.534   1.899   4.403  0.1856  0.4961 -0.9703
 4016SOL     OW23680   1.894   3.918   3.855  0.0215 -0.2368  0.4361
 4016SOL    HW123681   1.826   3.980   3.829 -0.6296 -1.5592 -0.9813
 4016SOL    HW223682   1.849   3.857   3.913 -2.0257  1.8922  1.0952
 4017SOL     OW23683   1.772   2.395  15.739  0.0677 -0.3479 -0.2078
 4017SOL    HW123684   1.740   2.408  15.650 -0.9364  0.5976  0.2845
 4017SOL    HW223685   1.688   2.393  15.785 -0.2879  0.3632 -0.8272
 4018SOL     OW23686   3.140   1.644   7.953 -0.4247 -0.6931 -0.1857
 4018SOL    HW123687   3.191   1.655   8.033 -1.0294 -1.3263  0.2875
 4018SOL    HW223688   3.187   1.575   7.906  1.0651 -0.2193  0.5951
 4019SOL     OW23689   3.008   2.999   6.731 -0.5528  0.2552  0.0631
 4019SOL    HW123690   2.967   3.037   6.808 -1.2186 -2.3827  1.0121
 4019SOL    HW223691   3.039   3.077   6.686  0.3820  1.2666  2.4687
 4020SOL     OW23692   0.723   0.671   1.829  0.7089 -0.1256 -0.2375
 4020SOL    HW123693   0.803   0.722   1.829  0.5448  0.1207  2.2838
 4020SOL    HW223694   0.660   0.724   1.780  0.4078 -0.7396 -0.5264
 4021SOL     OW23695   2.251   2.054   6.626 -0.3059  0.1693 -0.2464
 4021SOL    HW123696   2.325   1.995   6.609 -0.3618 -0.4006  1.5191
 4021SOL    HW223697   2.179   1.992   6.629  0.6829 -0.9227  0.8827
 4022SOL     OW23698   2.377   3.959   8.072  0.2736  0.5300  0.4694
 4022SOL    HW123699   2.444   3.941   8.139  0.7149  1.6682  0.3412
 4022SOL    HW223700   2.413   4.039   8.034  0.9436  0.7962  1.6405
 4023SOL     OW23701   3.746   1.922   4.879 -0.1207 -0.3304 -0.5786
 4023SOL    HW123702   3.826   1.904   4.927 -0.2029  1.4240  0.2423
 4023SOL    HW223703   3.737   2.014   4.907 -1.8714 -0.5895 -0.2602
 4024SOL     OW23704   0.325   0.624  11.265  0.2709  0.2310 -0.0778
 4024SOL    HW123705   0.383   0.670  11.326  0.9723  1.3108 -1.5562
 4024SOL    HW223706   0.260   0.691  11.247  1.7243  2.0162  1.3489
 4025SOL     OW23707   3.407   1.066   5.863  0.3672  0.4331  1.1249
 4025SOL    HW123708   3.460   1.051   5.784  1.1809  2.0135  1.3894
 4025SOL    HW223709   3.355   1.138   5.829 -0.4939 -0.6351  0.1619
 4026SOL     OW23710   0.819   2.750   5.227 -0.2414 -0.5465  0.3820
 4026SOL    HW123711   0.832   2.837   5.265  1.2876 -0.3235 -0.6329
 4026SOL    HW223712   0.745   2.716   5.277  0.5345 -1.1604  1.1312
 4027SOL     OW23713   0.917   0.472   9.747 -0.2256  0.0781 -0.1502
 4027SOL    HW123714   0.843   0.482   9.808  0.0215 -0.0369  0.1689
 4027SOL    HW223715   0.950   0.387   9.775 -0.4409  0.5220  1.4937
 4028SOL     OW23716   0.191   2.383   5.743 -0.1601  0.1664 -0.4538
 4028SOL    HW123717   0.158   2.322   5.676 -0.5780  0.5407 -0.5867
 4028SOL    HW223718   0.186   2.464   5.692 -0.6464  1.1204  1.1162
 4029SOL     OW23719   1.788   3.998   5.788  0.1750 -0.1195 -0.7742
 4029SOL    HW123720   1.748   3.934   5.846 -2.7086  2.0687 -0.3630
 4029SOL    HW223721   1.813   4.064   5.853 -2.7434 -0.2243  0.4396
 4030SOL     OW23722   2.794   0.639   2.046  0.1421  0.1204 -0.4032
 4030SOL    HW123723   2.765   0.549   2.061  1.0257 -0.2767 -1.0546
 4030SOL    HW223724   2.726   0.663   1.983 -1.9738 -0.5453  1.6690
 4031SOL     OW23725   3.357   3.239   7.377  0.1281  0.8773  0.1643
 4031SOL    HW123726   3.269   3.205   7.358 -0.9289  2.0978  2.8255
 4031SOL    HW223727   3.340   3.302   7.448  1.2005  0.9528  0.3479
 4032SOL     OW23728   0.026   4.736  10.458  0.1598  0.2150 -0.2098
 4032SOL    HW123729   0.073   4.659  10.490  0.4082  0.6067  0.3744
 4032SOL    HW223730   0.076   0.062  10.507 -1.9271  1.2891  0.4577
 4033SOL     OW23731   2.599   0.142   2.219 -0.4279  0.0991 -0.2137
 4033SOL    HW123732   2.557   0.093   2.148 -0.1854 -0.2189 -0.1361
 4033SOL    HW223733   2.526   0.133   2.280  0.0264 -0.1390  0.2957
 4034SOL     OW23734   1.577   3.300   2.242  0.4047 -0.5144  0.0142
 4034SOL    HW123735   1.656   3.328   2.288  0.9342 -0.6055 -0.8232
 4034SOL    HW223736   1.569   3.373   2.179 -0.7928  0.1123  0.8942
 4035SOL     OW23737   0.890   2.989   3.350 -0.4675  0.2575  0.4313
 4035SOL    HW123738   0.925   2.948   3.429 -1.5280 -2.2800 -0.3945
 4035SOL    HW223739   0.901   3.083   3.359  1.4731 -0.1426  2.2307
 4036SOL     OW23740   0.376   2.708   3.245  0.1664 -0.1721 -0.5608
 4036SOL    HW123741   0.324   2.678   3.170 -0.7686  0.9873 -0.3834
 4036SOL    HW223742   0.457   2.745   3.209  0.0703  0.8524  0.2792
 4037SOL     OW23743   0.201   1.636  10.284 -0.0800  0.0392  0.3563
 4037SOL    HW123744   0.144   1.575  10.237 -1.9493  1.8780  0.2593
 4037SOL    HW223745   0.141   1.710  10.293 -2.3437 -1.4063 -2.8895
 4038SOL     OW23746   1.077   1.135   7.670  0.2318  0.4806  0.2927
 4038SOL    HW123747   1.134   1.196   7.624 -1.7302  1.4543 -0.8589
 4038SOL    HW223748   1.072   1.187   7.750 -0.0482 -0.0787  0.6451
 4039SOL     OW23749   4.337   3.734   7.315  0.0126 -0.0202  0.2175
 4039SOL    HW123750   4.257   3.712   7.364  0.5537 -3.2286 -0.3246
 4039SOL    HW223751   4.374   3.801   7.373 -0.3968  0.3208  0.0845
 4040SOL     OW23752   1.371   3.526  12.270  0.0917  0.3637  0.0779
 4040SOL    HW123753   1.347   3.549  12.360  1.8272 -0.0845  0.6640
 4040SOL    HW223754   1.401   3.436  12.284 -2.1980 -0.1008  1.9231
 4041SOL     OW23755   1.086   0.774  12.379 -0.5361  0.2570  0.1699
 4041SOL    HW123756   1.129   0.850  12.420 -0.0309  0.1795 -0.2100
 4041SOL    HW223757   1.067   0.815  12.294  3.0344 -0.9246 -1.1968
 4042SOL     OW23758   3.920   2.766   2.339 -0.5418 -0.1755  0.0550
 4042SOL    HW123759   3.922   2.856   2.309 -0.8913 -0.4589 -0.8307
 4042SOL    HW223760   3.872   2.733   2.263 -0.0363 -0.1551 -0.2681
 4043SOL     OW23761   3.196   2.749   7.792  0.5580  0.9800 -0.4604
 4043SOL    HW123762   3.155   2.702   7.719 -0.3437  1.0434 -0.0016
 4043SOL    HW223763   3.275   2.700   7.813 -0.3077  0.0095  0.5693
 4044SOL     OW23764   3.028   4.430   1.189 -0.0903  0.4178 -0.2273
 4044SOL    HW123765   2.988   4.431   1.102 -0.3570  1.8708 -0.0941
 4044SOL    HW223766   2.982   4.354   1.226  0.3517  0.8515  1.2312
 4045SOL     OW23767   1.199   0.712  17.071  0.5343 -0.0396 -0.6189
 4045SOL    HW123768   1.161   0.628  17.094 -2.0372  1.3003  0.1009
 4045SOL    HW223769   1.130   0.772  17.099 -0.2468 -0.1121 -2.4341
 4046SOL     OW23770   1.423   3.828  12.802  0.2083  0.0086 -0.0866
 4046SOL    HW123771   1.462   3.907  12.840 -1.8546  1.4521 -0.9751
 4046SOL    HW223772   1.412   3.850  12.710  0.4893  1.7002  0.2721
 4047SOL     OW23773   1.071   3.035   8.884  0.3006  0.8418 -0.3943
 4047SOL    HW123774   0.985   3.076   8.897 -0.7365 -1.3801 -0.0959
 4047SOL    HW223775   1.125   3.106   8.917  0.6392 -0.0937  1.1119
 4048SOL     OW23776   3.081   3.722  15.644 -0.4941 -0.2029  0.0623
 4048SOL    HW123777   3.135   3.793  15.608 -3.2951  0.6641 -2.4397
 4048SOL    HW223778   3.074   3.746  15.737  0.2591  3.6063 -0.8391
 4049SOL     OW23779   0.290   3.415   6.057  0.4244  0.7932 -1.0065
 4049SOL    HW123780   0.367   3.429   6.002  1.2129 -1.3174 -0.4303
 4049SOL    HW223781   0.311   3.343   6.117  1.5253  1.0666 -1.0505
 4050SOL     OW23782   1.207   1.293  16.761  0.2152 -0.0074 -0.2261
 4050SOL    HW123783   1.174   1.226  16.702 -0.4178  1.3080 -1.3725
 4050SOL    HW223784   1.166   1.267  16.844 -0.2710 -0.0551 -0.4830
 4051SOL     OW23785   4.293   4.402   7.452  0.8474  0.4281 -0.0322
 4051SOL    HW123786   4.317   4.310   7.460 -0.9016 -0.1271 -1.1449
 4051SOL    HW223787   4.255   4.402   7.364  1.8775 -0.3862 -0.4682
 4052SOL     OW23788   3.035   0.713   8.666 -0.2377 -0.2980 -0.1713
 4052SOL    HW123789   2.945   0.740   8.653  0.1805  0.5579 -1.3319
 4052SOL    HW223790   3.020   0.618   8.663  0.5170 -0.3154 -3.8796
 4053SOL     OW23791   0.451   3.876   5.630  0.1762  0.1095  0.4434
 4053SOL    HW123792   0.441   3.957   5.680 -0.7919 -0.0361  0.4931
 4053SOL    HW223793   0.501   3.814   5.682 -1.4213 -1.9282 -0.4331
 4054SOL     OW23794   2.679   1.952   5.590  0.4171 -0.4629  0.2065
 4054SOL    HW123795   2.703   1.971   5.681  1.8979  0.5429 -0.3981
 4054SOL    HW223796   2.652   2.042   5.569 -2.9278 -0.9478  2.4190
 4055SOL     OW23797   2.680   1.138   4.051  0.3116  0.8306 -0.3258
 4055SOL    HW123798   2.694   1.045   4.032 -2.1067  0.1573  1.1909
 4055SOL    HW223799   2.733   1.166   3.977  0.7978 -1.4278 -0.8527
 4056SOL     OW23800   4.477   0.169   3.948 -0.2170 -0.6219  0.2525
 4056SOL    HW123801   4.526   0.188   3.868  1.5599 -1.2331  1.1991
 4056SOL    HW223802   4.499   0.076   3.949  1.1742 -0.3027 -0.5398
 4057SOL     OW23803   2.888   3.966   1.980 -0.6795 -0.4762 -0.3941
 4057SOL    HW123804   2.875   3.881   1.936  0.5493 -0.2681 -1.1945
 4057SOL    HW223805   2.808   3.981   2.030 -3.3134 -1.5451 -4.2627
 4058SOL     OW23806   0.771   0.350   6.759 -0.4194  0.0543  0.3847
 4058SOL    HW123807   0.713   0.279   6.785 -0.8588  1.4700  3.2847
 4058SOL    HW223808   0.725   0.427   6.791  0.7067  0.9871 -0.2146
 4059SOL     OW23809   4.682   1.678   0.194  0.3880 -0.1925 -0.1119
 4059SOL    HW123810   4.678   1.773   0.184  1.3758  0.0603  1.9656
 4059SOL    HW223811   4.603   1.657   0.143 -0.5668  1.4305  0.7212
 4060SOL     OW23812   1.022   2.599   6.219 -0.3167  0.2075  0.1947
 4060SOL    HW123813   1.026   2.687   6.258  1.0267 -0.6421  1.9559
 4060SOL    HW223814   0.978   2.552   6.290 -2.7450 -1.2071 -2.2563
 4061SOL     OW23815   0.323   4.705  13.375  0.1697  0.4226 -1.1217
 4061SOL    HW123816   0.401   4.683  13.425  0.0060  0.0538 -1.0293
 4061SOL    HW223817   0.299   0.048  13.417  0.7490  0.6969 -1.3246
 4062SOL     OW23818   2.780   2.597   4.129  0.5140 -0.0045  0.2577
 4062SOL    HW123819   2.749   2.583   4.039  1.1431  0.5831 -0.0511
 4062SOL    HW223820   2.698   2.617   4.174 -0.1217 -1.0218 -0.4494
 4063SOL     OW23821   1.574   3.576  11.213  0.3558  0.7438  0.3390
 4063SOL    HW123822   1.507   3.602  11.150 -0.8755  0.6268  1.6172
 4063SOL    HW223823   1.526   3.510  11.263 -1.7824  0.3314 -2.2630
 4064SOL     OW23824   2.431   1.825   2.244  0.2732 -0.0410 -0.4635
 4064SOL    HW123825   2.382   1.746   2.220  0.6389 -0.4903  0.2683
 4064SOL    HW223826   2.355   1.881   2.261  0.0304 -0.4809 -0.0898
 4065SOL     OW23827   0.574   0.845   4.908  0.8952  0.2932 -0.6688
 4065SOL    HW123828   0.585   0.802   4.992  2.5233 -0.3560 -1.1978
 4065SOL    HW223829   0.664   0.863   4.878  1.1112 -0.9356 -0.7401
 4066SOL     OW23830   2.489   2.079   8.896 -0.1560  0.1430  0.2417
 4066SOL    HW123831   2.397   2.067   8.918  0.4234  1.7718  3.6084
 4066SOL    HW223832   2.497   2.005   8.836  3.7722 -0.6296  1.6770
 4067SOL     OW23833   0.009   4.268   7.852  0.1287 -1.0213 -0.1326
 4067SOL    HW123834   0.047   4.313   7.777  0.4407  1.7482  1.6817
 4067SOL    HW223835   4.657   4.297   7.854  0.4012 -0.2450  1.0456
 4068SOL     OW23836   1.356   3.541   1.976  0.1622  0.5805 -0.1188
 4068SOL    HW123837   1.371   3.601   1.903  1.4704  0.9771  0.4766
 4068SOL    HW223838   1.448   3.531   2.001  0.0119  1.5839  0.7974
 4069SOL     OW23839   2.808   0.659   6.775  0.1953 -0.1233 -0.5879
 4069SOL    HW123840   2.783   0.571   6.749 -0.3273 -0.8719  2.4740
 4069SOL    HW223841   2.726   0.703   6.755 -0.3042 -0.4788  0.6602
 4070SOL     OW23842   3.494   4.304  12.399  0.0159 -0.0180  0.2756
 4070SOL    HW123843   3.507   4.241  12.328  1.0413  0.7036 -0.1832
 4070SOL    HW223844   3.408   4.334  12.370  1.3766  2.1438 -1.5872
 4071SOL     OW23845   0.767   4.352   7.273  0.1065  0.0217  0.0579
 4071SOL    HW123846   0.849   4.343   7.224  0.1041  0.3409 -0.0088
 4071SOL    HW223847   0.744   4.261   7.287  0.6724  0.0586  1.2627
 4072SOL     OW23848   2.757   3.469   2.502 -0.1179  0.7511  0.8767
 4072SOL    HW123849   2.824   3.502   2.443 -1.8283  1.8464 -0.4685
 4072SOL    HW223850   2.782   3.376   2.500  1.0116  1.0474  2.0037
 4073SOL     OW23851   0.269   3.040   5.368 -0.0422 -0.1420 -0.4082
 4073SOL    HW123852   0.337   3.036   5.301  0.6418  0.9917  0.2106
 4073SOL    HW223853   0.218   3.120   5.353 -1.0793 -0.7731 -0.2931
 4074SOL     OW23854   2.534   3.399  11.237 -0.5746  0.0823 -0.1740
 4074SOL    HW123855   2.611   3.353  11.270 -0.4636 -0.3688 -1.0610
 4074SOL    HW223856   2.572   3.442  11.160  0.3849  0.0840  0.3064
 4075SOL     OW23857   3.697   1.179   5.469  0.1044 -0.3489  0.6408
 4075SOL    HW123858   3.792   1.166   5.470  0.1767  0.0260 -1.3896
 4075SOL    HW223859   3.691   1.250   5.533  0.4996 -0.7211  1.0952
 4076SOL     OW23860   0.221   2.956   7.440 -0.2982  0.2800 -0.2772
 4076SOL    HW123861   0.272   3.029   7.476  1.3477 -2.0628  2.2310
 4076SOL    HW223862   0.268   2.928   7.361  0.6582  2.4127 -0.4731
 4077SOL     OW23863   4.235   2.197   6.430  0.1914  0.3655  0.3852
 4077SOL    HW123864   4.310   2.210   6.371  0.5118 -2.1025  0.2191
 4077SOL    HW223865   4.266   2.241   6.509  1.1611 -0.4773  0.4847
 4078SOL     OW23866   2.977   2.909   6.488 -0.1175  0.5073 -0.3039
 4078SOL    HW123867   2.995   2.817   6.503  0.1463  0.7032  0.5429
 4078SOL    HW223868   3.013   2.948   6.567  0.6275  0.5052 -0.6396
 4079SOL     OW23869   1.553   1.535   2.582  0.2758 -1.0421 -0.4367
 4079SOL    HW123870   1.485   1.588   2.542  0.0480  0.1303  1.5396
 4079SOL    HW223871   1.512   1.449   2.570 -1.1903 -0.3995  0.0708
 4080SOL     OW23872   0.343   1.943   8.101 -0.4121  0.1522  0.3749
 4080SOL    HW123873   0.303   1.904   8.023  0.9122 -1.9420  0.7115
 4080SOL    HW223874   0.268   1.930   8.158 -0.6781 -0.7823 -0.1713
 4081SOL     OW23875   1.800   1.723   8.012 -0.3014 -0.1893 -0.0904
 4081SOL    HW123876   1.817   1.630   8.020  0.3529 -0.0073  0.7253
 4081SOL    HW223877   1.740   1.728   7.938 -1.6538  2.2224  1.1733
 4082SOL     OW23878   1.783   4.245   2.759  0.3781 -0.1554 -0.0410
 4082SOL    HW123879   1.878   4.236   2.751  0.3945  0.4626 -0.5584
 4082SOL    HW223880   1.770   4.339   2.748 -2.4456 -0.5377  0.0835
 4083SOL     OW23881   3.302   3.774   6.576 -0.4062  0.0959  0.1433
 4083SOL    HW123882   3.253   3.821   6.508 -2.4739  0.0980  1.6445
 4083SOL    HW223883   3.247   3.788   6.653  0.2877  2.5421  0.2158
 4084SOL     OW23884   2.438   2.109   5.617  0.4157 -0.5583  0.2407
 4084SOL    HW123885   2.369   2.134   5.555  0.6733 -0.4043  0.0148
 4084SOL    HW223886   2.407   2.024   5.649  2.0133 -1.1665  0.1584
 4085SOL     OW23887   2.099   2.564   4.004  0.3508  0.0883 -0.3577
 4085SOL    HW123888   2.137   2.605   4.081 -0.9741 -0.4690  0.5885
 4085SOL    HW223889   2.170   2.560   3.939  0.3526 -1.3626 -0.2702
 4086SOL     OW23890   2.943   3.511   2.285 -0.2263 -0.1682  0.1741
 4086SOL    HW123891   3.032   3.495   2.317 -0.3797  2.5116  1.9160
 4086SOL    HW223892   2.961   3.580   2.222  2.4152 -0.6844  0.3461
 4087SOL     OW23893   0.531   3.399   8.034 -0.7632 -0.2105 -0.3354
 4087SOL    HW123894   0.483   3.420   7.953  1.6350  0.9082 -1.4609
 4087SOL    HW223895   0.513   3.472   8.093  0.7215 -0.6005  0.6044
 4088SOL     OW23896   1.881   4.687   5.213  0.9313 -0.3310  0.0198
 4088SOL    HW123897   1.820   4.648   5.151  1.6449 -0.6653 -0.4711
 4088SOL    HW223898   1.954   4.709   5.155 -1.6530  2.7809 -2.0927
 4089SOL     OW23899   3.922   0.709   2.066 -0.2358  0.0323  0.1887
 4089SOL    HW123900   3.884   0.646   2.127 -0.0510  0.5321  0.8104
 4089SOL    HW223901   3.851   0.766   2.034 -1.5851 -1.0431  1.2663
 4090SOL     OW23902   2.688   2.423  10.344  0.1086 -0.5657 -0.1433
 4090SOL    HW123903   2.683   2.348  10.403  0.1447 -0.0968  0.4568
 4090SOL    HW223904   2.717   2.382  10.262 -1.9610 -0.4457 -0.9261
 4091SOL     OW23905   2.027   4.204   5.845 -0.1701 -0.5234 -0.0154
 4091SOL    HW123906   1.997   4.188   5.934  0.4173 -0.3902  0.2055
 4091SOL    HW223907   2.016   4.297   5.823 -0.6553 -1.2729 -3.0499
 4092SOL     OW23908   0.699   1.868   7.155 -0.0073  0.2949 -0.4408
 4092SOL    HW123909   0.740   1.834   7.235  0.2365  1.6427  0.0023
 4092SOL    HW223910   0.629   1.803   7.155 -1.3203  1.7211  0.9839
 4093SOL     OW23911   3.348   3.715   5.922  0.0956  0.1733  0.2698
 4093SOL    HW123912   3.351   3.643   5.859  1.3955 -0.3779  0.9596
 4093SOL    HW223913   3.368   3.793   5.870  1.7478  0.9740  2.0932
 4094SOL     OW23914   2.403   1.057   6.134 -0.1956 -0.0219 -0.6226
 4094SOL    HW123915   2.470   1.109   6.179  0.7187 -1.2200 -0.5820
 4094SOL    HW223916   2.355   1.015   6.205  1.6046 -1.3495 -0.1834
 4095SOL     OW23917   0.223   1.098   9.131  0.5356 -0.2488  0.3089
 4095SOL    HW123918   0.155   1.164   9.123 -0.4578 -1.1532  1.2514
 4095SOL    HW223919   0.277   1.110   9.053  0.2358 -0.0988  0.1258
 4096SOL     OW23920   3.132   2.475  16.043  0.0467 -0.1128 -0.4377
 4096SOL    HW123921   3.161   2.513  15.961 -2.2641 -1.1236 -1.7246
 4096SOL    HW223922   3.042   2.449  16.022  0.2568 -1.4257  0.2734
 4097SOL     OW23923   0.229   4.493   8.567 -0.5819  0.1176  0.1530
 4097SOL    HW123924   0.236   4.457   8.479 -0.9485 -1.1756  0.6540
 4097SOL    HW223925   0.194   4.418   8.615  2.6114 -1.1534  0.5201
 4098SOL     OW23926   3.996   2.407   9.629  0.3014  0.2775 -0.2515
 4098SOL    HW123927   3.986   2.467   9.556  1.4102 -0.0130 -0.6411
 4098SOL    HW223928   4.076   2.359   9.606  0.5548  1.7742 -2.4411
 4099SOL     OW23929   3.510   2.304   1.449 -0.2182 -0.1691  0.0917
 4099SOL    HW123930   3.499   2.347   1.533 -1.0035 -1.7396  0.7797
 4099SOL    HW223931   3.496   2.213   1.476  0.9146 -0.8687 -1.6290
 4100SOL     OW23932   1.046   2.395   3.061 -0.1322  0.3644  0.0397
 4100SOL    HW123933   1.020   2.348   3.140 -1.8224 -0.1149 -0.8052
 4100SOL    HW223934   1.140   2.408   3.076 -0.1610  1.8536 -1.0282
 4101SOL     OW23935   3.663   4.577   1.456  0.0991  0.8355  0.3828
 4101SOL    HW123936   3.650   4.580   1.551 -1.4589  0.6237  0.1717
 4101SOL    HW223937   3.578   4.610   1.427 -0.5750 -2.1875 -1.0256
 4102SOL     OW23938   3.081   2.812   0.123  0.2107  0.2458  0.1894
 4102SOL    HW123939   3.056   2.723   0.095 -1.7442  0.6869  0.5109
 4102SOL    HW223940   3.176   2.822   0.126  0.0668  1.6744 -0.1955
 4103SOL     OW23941   0.532   1.832   6.591  0.1354  0.3378 -0.1233
 4103SOL    HW123942   0.562   1.899   6.652 -0.2091 -0.1980  0.6287
 4103SOL    HW223943   0.442   1.818   6.619  0.5853 -0.4247  0.9785
 4104SOL     OW23944   3.050   0.507   6.452  0.3231  0.1010  0.5389
 4104SOL    HW123945   3.022   0.488   6.362  0.6792 -0.0945  0.4667
 4104SOL    HW223946   3.078   0.598   6.447 -0.0069  0.0332 -3.0543
 4105SOL     OW23947   2.096   3.737   8.612  0.3433 -0.0541  0.4201
 4105SOL    HW123948   2.012   3.712   8.650  1.3019 -2.8676  0.7050
 4105SOL    HW223949   2.119   3.816   8.662 -1.5254 -0.2279  1.5785
 4106SOL     OW23950   4.450   1.384  10.991  0.2631 -0.0417  0.1458
 4106SOL    HW123951   4.499   1.458  11.027  0.2785  0.3820 -0.7578
 4106SOL    HW223952   4.358   1.407  11.006  0.7585  2.1799 -0.1467
 4107SOL     OW23953   4.024   4.282   2.872 -0.5504 -0.2224 -0.4275
 4107SOL    HW123954   4.095   4.288   2.937  0.7129  0.2236 -1.8403
 4107SOL    HW223955   4.066   4.211   2.823  0.7457  0.0610  0.2599
 4108SOL     OW23956   3.776   2.091   1.512 -0.2685 -0.5435  0.7831
 4108SOL    HW123957   3.867   2.072   1.532  0.4123  1.8988 -0.0220
 4108SOL    HW223958   3.755   2.162   1.571  0.9015  2.2955 -2.2196
 4109SOL     OW23959   1.881   0.241  16.977 -0.3952 -0.1256 -0.7588
 4109SOL    HW123960   1.972   0.259  16.955 -0.1563  0.1940  0.4660
 4109SOL    HW223961   1.886   0.146  16.984  1.7449  0.0065 -0.6786
 4110SOL     OW23962   1.754   4.119   3.596  0.4258 -0.1949 -0.5267
 4110SOL    HW123963   1.689   4.173   3.551 -0.9210 -0.6294  0.9250
 4110SOL    HW223964   1.770   4.166   3.678  1.0290 -0.7198 -0.3439
 4111SOL     OW23965   3.787   3.530   4.281  0.1542 -0.0072 -0.4316
 4111SOL    HW123966   3.709   3.494   4.238  0.7664 -0.3700 -1.2560
 4111SOL    HW223967   3.826   3.573   4.205 -2.0007 -2.0146 -2.6977
 4112SOL     OW23968   3.779   4.158   4.922 -0.1712 -0.0373  0.7219
 4112SOL    HW123969   3.791   4.066   4.897  2.6259  0.6852 -0.6274
 4112SOL    HW223970   3.703   4.186   4.870  2.3554  1.4104 -2.2220
 4113SOL     OW23971   3.477   0.198   5.201 -0.5388 -0.4018  0.2954
 4113SOL    HW123972   3.453   0.277   5.249 -1.5216 -2.0388  2.4828
 4113SOL    HW223973   3.406   0.192   5.137  0.4959  2.4721 -1.0908
 4114SOL     OW23974   3.846   4.424  12.612 -0.0726 -0.1314  0.4454
 4114SOL    HW123975   3.805   4.349  12.654 -1.2228 -1.9689 -3.9331
 4114SOL    HW223976   3.930   4.386  12.589  1.2296  1.3838  2.6807
 4115SOL     OW23977   3.023   2.369   9.494  0.2220  0.2120  0.3546
 4115SOL    HW123978   3.061   2.440   9.443 -2.0508  0.5239 -0.9080
 4115SOL    HW223979   3.099   2.312   9.510  0.0384 -0.1887 -0.1759
 4116SOL     OW23980   3.546   1.245   4.011  0.1572 -0.1260 -0.5836
 4116SOL    HW123981   3.598   1.196   4.075 -0.5023 -0.7228 -0.4929
 4116SOL    HW223982   3.608   1.316   3.997 -2.7213  2.7887  1.5832
 4117SOL     OW23983   2.198   3.214   8.607  0.2464  0.3298 -0.3483
 4117SOL    HW123984   2.261   3.274   8.647  1.1686 -0.4818 -0.5758
 4117SOL    HW223985   2.161   3.267   8.536 -2.1459  1.5977  1.8885
 4118SOL     OW23986   0.387   4.603   6.245  0.0537 -0.4206 -0.3728
 4118SOL    HW123987   0.296   4.580   6.261 -0.2911  0.3628 -1.1973
 4118SOL    HW223988   0.373   4.693   6.276  0.1678 -0.6232  0.2602
 4119SOL     OW23989   1.269   1.330   9.441  0.6888  0.3807  0.3168
 4119SOL    HW123990   1.187   1.357   9.483  0.1636 -0.9436  0.1583
 4119SOL    HW223991   1.312   1.414   9.426  0.7634  0.4724  1.0655
 4120SOL     OW23992   2.591   0.081   3.853  0.4729 -0.1424 -0.6376
 4120SOL    HW123993   2.594   0.036   3.768 -0.3870 -2.1995  0.4229
 4120SOL    HW223994   2.593   0.006   3.912  0.0715  2.9401  3.2867
 4121SOL     OW23995   1.804   1.025   6.783  0.4772  0.8256 -0.0978
 4121SOL    HW123996   1.748   1.071   6.846 -0.4567 -2.0910  1.2153
 4121SOL    HW223997   1.795   0.937   6.819  0.1929  1.6890  1.9578
 4122SOL     OW23998   1.239   3.749   0.519  0.1212  0.3905 -0.2376
 4122SOL    HW123999   1.278   3.690   0.583 -2.2097  0.6999  1.4542
 4122SOL    HW224000   1.174   3.692   0.477  1.5820 -1.2288 -0.3377
 4123SOL     OW24001   3.342   4.213   3.790  0.3172 -0.1727  0.5280
 4123SOL    HW124002   3.300   4.298   3.781  2.0467  0.5365 -0.8124
 4123SOL    HW224003   3.266   4.156   3.800  0.1492  0.1026  0.7973
 4124SOL     OW24004   1.740   2.028  16.478 -0.1313  0.1115 -0.4772
 4124SOL    HW124005   1.760   2.091  16.547 -1.8316  1.2544 -1.0150
 4124SOL    HW224006   1.659   2.057  16.436 -0.9958 -1.8154 -0.1614
 4125SOL     OW24007   0.585   4.052   7.848 -0.1328 -0.2007  0.5918
 4125SOL    HW124008   0.629   4.125   7.892  0.8900 -1.1905  1.2114
 4125SOL    HW224009   0.639   3.980   7.879  1.4557  0.9706  0.5363
 4126SOL     OW24010   4.348   1.961  13.554 -0.2287 -0.4384  0.0117
 4126SOL    HW124011   4.309   2.025  13.494  0.6794  1.0587  1.0176
 4126SOL    HW224012   4.436   2.000  13.549 -0.7191  0.8081  1.2860
 4127SOL     OW24013   4.652   1.987   3.783 -0.4384  0.5137 -0.3019
 4127SOL    HW124014   4.612   2.064   3.742 -0.3555  0.5154 -0.3794
 4127SOL    HW224015   4.727   2.037   3.813  1.0292 -0.5957 -2.1488
 4128SOL     OW24016   2.443   3.348   5.907  0.1233  0.4351  0.3098
 4128SOL    HW124017   2.425   3.363   6.000 -0.6957 -3.0745  0.7164
 4128SOL    HW224018   2.503   3.274   5.907  0.6432  0.8640  1.0959
 4129SOL     OW24019   1.555   2.060   6.061  0.3242  0.6362  0.5089
 4129SOL    HW124020   1.481   2.044   6.003  1.9139  0.1517 -1.3708
 4129SOL    HW224021   1.506   2.128   6.109 -0.6163  1.1010 -1.1055
 4130SOL     OW24022   2.124   1.597   6.764 -0.7437 -0.1615  0.5198
 4130SOL    HW124023   2.075   1.521   6.733 -2.4541  0.9734  0.4746
 4130SOL    HW224024   2.141   1.575   6.856 -0.3213 -0.4910  0.3639
 4131SOL     OW24025   3.206   3.855   3.631 -0.1978  0.1414 -0.1299
 4131SOL    HW124026   3.288   3.885   3.593  0.1858  0.0545  0.6314
 4131SOL    HW224027   3.221   3.843   3.725 -0.8545 -1.7145 -0.2515
 4132SOL     OW24028   0.937   1.968   8.311 -0.2075  0.1375  0.5150
 4132SOL    HW124029   0.999   1.923   8.369 -0.2634 -1.4708 -0.6549
 4132SOL    HW224030   0.994   2.032   8.269  1.9452 -0.9822  1.7225
 4133SOL     OW24031   0.279   1.807  11.290  0.6955 -0.0678 -0.0202
 4133SOL    HW124032   0.187   1.824  11.311  1.5182  2.3096  1.7556
 4133SOL    HW224033   0.328   1.825  11.371  2.0162  1.2304 -1.0973
 4134SOL     OW24034   4.031   1.446   4.861  0.6536  0.3828 -0.0902
 4134SOL    HW124035   4.044   1.386   4.787  0.7292 -1.0974  1.1257
 4134SOL    HW224036   3.936   1.453   4.867  0.8355  0.4910  2.4874
 4135SOL     OW24037   2.356   1.086   3.434 -0.0151  0.5754 -0.5624
 4135SOL    HW124038   2.345   1.178   3.411 -0.7215  0.9073  1.1499
 4135SOL    HW224039   2.299   1.053   3.364 -0.0502  2.2453 -1.3353
 4136SOL     OW24040   3.221   2.793  14.770  0.1374 -0.0911  0.0325
 4136SOL    HW124041   3.136   2.754  14.748 -0.4620  1.2127  0.0722
 4136SOL    HW224042   3.274   2.776  14.691  1.1270 -0.7251  0.8352
 4137SOL     OW24043   4.571   2.131  13.510  0.0681 -0.4461 -0.0426
 4137SOL    HW124044   4.501   2.177  13.556 -1.2661 -2.0304 -0.4757
 4137SOL    HW224045   4.601   2.200  13.451 -0.3626 -0.5524 -0.3903
 4138SOL     OW24046   3.399   0.088  13.094 -0.4203 -0.0773 -0.0981
 4138SOL    HW124047   3.355   0.144  13.031 -0.5850  0.6163  0.6318
 4138SOL    HW224048   3.485   0.130  13.088  0.1150 -0.9806  1.0585
 4139SOL     OW24049   3.904   0.702   8.374 -0.2989 -0.5993 -0.7220
 4139SOL    HW124050   3.930   0.615   8.407 -0.0451 -0.6967 -1.1804
 4139SOL    HW224051   3.839   0.732   8.438  0.6473 -0.5314  0.2104
 4140SOL     OW24052   3.925   0.891   4.392 -0.1991  0.5110 -0.1340
 4140SOL    HW124053   3.901   0.891   4.299  0.9342 -2.9332 -0.4280
 4140SOL    HW224054   3.865   0.955   4.430 -0.2289  0.5396 -0.2287
 4141SOL     OW24055   0.689   2.621   9.583  0.4186  0.3170 -0.1122
 4141SOL    HW124056   0.724   2.571   9.509  0.6409  1.1442 -0.5643
 4141SOL    HW224057   0.612   2.667   9.548  0.0414  0.5906  1.0707
 4142SOL     OW24058   3.742   1.870  15.687  0.3382 -0.3066  0.5741
 4142SOL    HW124059   3.673   1.874  15.753 -0.6190 -0.8353 -0.4063
 4142SOL    HW224060   3.687   1.874  15.610  0.5902  2.2115  0.5366
 4143SOL     OW24061   1.191   2.769   4.221  0.9107  0.1589  0.3795
 4143SOL    HW124062   1.198   2.676   4.242  1.8406 -0.0439 -0.8396
 4143SOL    HW224063   1.145   2.797   4.299 -0.8353  0.7373 -0.8691
 4144SOL     OW24064   2.347   0.875   8.141 -0.5352 -0.0679 -0.2065
 4144SOL    HW124065   2.436   0.868   8.177 -0.3815 -1.6580 -0.8897
 4144SOL    HW224066   2.374   0.828   8.062  3.0510  1.9309 -0.1715
 4145SOL     OW24067   3.462   0.568   4.748  0.3731 -0.7999 -0.2977
 4145SOL    HW124068   3.528   0.499   4.743 -1.6758 -2.8960  1.6953
 4145SOL    HW224069   3.396   0.537   4.810  1.8790  0.0961  1.7718
 4146SOL     OW24070   1.869   2.619   5.328  0.1061 -0.1904  0.5701
 4146SOL    HW124071   1.898   2.669   5.404  0.4943  0.3815  0.0496
 4146SOL    HW224072   1.779   2.650   5.319 -0.1890 -0.4602  2.5561
 4147SOL     OW24073   0.715   2.509   8.454 -0.0271  1.0117 -0.4579
 4147SOL    HW124074   0.639   2.545   8.501 -1.1158 -4.2933  1.7965
 4147SOL    HW224075   0.746   2.451   8.523  0.2605  0.0386 -1.4171
 4148SOL     OW24076   3.973   3.044   4.021  0.0599 -0.0328 -0.2912
 4148SOL    HW124077   3.966   2.969   4.079 -0.4938 -0.4084 -0.8477
 4148SOL    HW224078   3.881   3.064   4.004  0.0319 -1.3824 -1.6711
 4149SOL     OW24079   3.890   4.378  16.627  0.6531  0.0119 -0.4189
 4149SOL    HW124080   3.984   4.363  16.633  0.1568 -2.7998  0.5186
 4149SOL    HW224081   3.862   4.302  16.679  2.0425 -0.0419  0.2595
 4150SOL     OW24082   0.691   1.939   0.666 -0.4740 -0.2326  0.7906
 4150SOL    HW124083   0.700   1.929   0.761 -0.1231 -0.5725  0.7255
 4150SOL    HW224084   0.739   1.867   0.623  2.2776  2.9555 -1.4388
 4151SOL     OW24085   2.164   0.814   4.469 -0.4702  0.1251  0.2987
 4151SOL    HW124086   2.069   0.815   4.458 -0.7605  0.3625  3.0558
 4151SOL    HW224087   2.175   0.830   4.562 -1.8476  0.0898  0.4678
 4152SOL     OW24088   2.599   4.605   8.084 -0.2521  0.3664  0.0343
 4152SOL    HW124089   2.603   4.597   7.989 -0.5537  0.3475  0.0223
 4152SOL    HW224090   2.511   4.641   8.087 -0.3823 -0.1419  1.9851
 4153SOL     OW24091   1.428   4.372   4.662  0.5981 -0.0768  0.3441
 4153SOL    HW124092   1.471   4.370   4.747  2.2359 -0.8988 -0.5055
 4153SOL    HW224093   1.403   4.285   4.631  1.0635  0.0131 -0.3003
 4154SOL     OW24094   2.973   2.089  16.941 -0.3860  0.5020  0.1447
 4154SOL    HW124095   3.000   1.997  16.948  0.1128  0.6988  0.7332
 4154SOL    HW224096   2.918   2.078  16.863 -1.0399  0.5150  0.6107
 4155SOL     OW24097   3.187   2.309   3.608  0.3877 -0.3925 -0.0216
 4155SOL    HW124098   3.212   2.283   3.697 -0.4163  1.2128  0.6765
 4155SOL    HW224099   3.109   2.362   3.621 -0.0340 -0.5688 -1.8631
 4156SOL     OW24100   3.313   3.117   8.870  0.6498 -0.2884  0.6668
 4156SOL    HW124101   3.367   3.040   8.886  2.1565  0.8045  0.9023
 4156SOL    HW224102   3.297   3.110   8.776 -2.3375  0.2867  1.1376
 4157SOL     OW24103   0.946   0.316  17.292  0.2547 -0.6772  0.0103
 4157SOL    HW124104   1.004   0.347  17.362  0.8418 -1.8046  0.0126
 4157SOL    HW224105   0.981   0.231  17.265 -1.7655 -1.7723  0.8485
 4158SOL     OW24106   4.623   2.657   2.257  0.3814  0.6225 -0.2575
 4158SOL    HW124107   4.709   2.680   2.221  0.7371  0.1291  0.2767
 4158SOL    HW224108   4.568   2.717   2.206 -0.0688  1.3810  1.1178
 4159SOL     OW24109   3.443   1.363   5.235  0.4329 -0.0162  0.1545
 4159SOL    HW124110   3.394   1.369   5.153  1.5487  0.3549 -0.4836
 4159SOL    HW224111   3.490   1.280   5.224 -0.1839 -0.4758  0.9598
 4160SOL     OW24112   1.458   2.283   6.178 -0.0713 -0.5165 -0.0190
 4160SOL    HW124113   1.368   2.277   6.147  0.6012 -0.0747 -2.0312
 4160SOL    HW224114   1.466   2.376   6.198  2.0716 -0.3840 -1.5312
 4161SOL     OW24115   1.519   0.587   7.968  0.0956 -0.0957  0.4979
 4161SOL    HW124116   1.442   0.607   8.021 -1.5677 -1.0142 -1.5795
 4161SOL    HW224117   1.561   0.672   7.981 -0.2288 -0.3266  3.1346
 4162SOL     OW24118   4.437   1.846   2.582  0.0747  0.0530 -0.0492
 4162SOL    HW124119   4.343   1.849   2.567  0.2304 -1.5789 -1.3518
 4162SOL    HW224120   4.446   1.878   2.672  0.7094  1.6072 -0.6754
 4163SOL     OW24121   3.170   2.099  15.323  0.2098 -0.0701 -0.3781
 4163SOL    HW124122   3.091   2.100  15.376  0.2005 -0.5411 -0.3882
 4163SOL    HW224123   3.204   2.186  15.345 -0.0055 -0.2115  0.5153
 4164SOL     OW24124   3.885   0.076  12.254  0.3024  0.2548 -0.8485
 4164SOL    HW124125   3.823   0.047  12.187 -0.0110  2.0121 -1.3264
 4164SOL    HW224126   3.913   4.727  12.278  0.7942  0.7537  0.4165
 4165SOL     OW24127   2.623   2.038   1.802  0.4737  0.5716 -0.1073
 4165SOL    HW124128   2.593   1.964   1.854  0.4991  0.6431  0.0073
 4165SOL    HW224129   2.640   1.990   1.721  0.4868 -1.2474  0.9730
 4166SOL     OW24130   0.155   0.602   4.989 -0.2375  0.0326 -0.1144
 4166SOL    HW124131   0.121   0.692   4.985 -0.8198 -0.1920 -0.1938
 4166SOL    HW224132   0.082   0.545   5.012  0.4363 -0.8898 -0.2525
 4167SOL     OW24133   3.383   2.519  13.554 -0.4523 -0.7694 -0.4131
 4167SOL    HW124134   3.401   2.433  13.592 -0.8211 -0.6927 -0.0615
 4167SOL    HW224135   3.288   2.513  13.547 -0.5683  2.6734 -1.6206
 4168SOL     OW24136   2.909   4.595   6.866  0.1867 -0.0726 -0.0019
 4168SOL    HW124137   2.915   4.678   6.914  0.1754  0.4261 -0.8613
 4168SOL    HW224138   2.826   4.564   6.902 -0.5883  1.7538 -0.1615
 4169SOL     OW24139   3.614   4.602   3.451  0.0100 -0.5814 -0.2495
 4169SOL    HW124140   3.674   4.653   3.507 -0.9968 -1.3354  1.5370
 4169SOL    HW224141   3.610   4.661   3.376  0.9549  2.4538  2.0769
 4170SOL     OW24142   2.393   1.171   5.896  0.4243 -0.2427 -0.0884
 4170SOL    HW124143   2.402   1.097   5.837 -1.0884 -0.9511  0.5781
 4170SOL    HW224144   2.397   1.142   5.987  2.1526  1.9910  0.5593
 4171SOL     OW24145   2.924   1.056   6.587  0.1497  0.3474 -0.1595
 4171SOL    HW124146   2.985   1.062   6.661 -0.4318  1.4660  0.2353
 4171SOL    HW224147   2.961   1.118   6.524  1.0459  1.1394  1.1470
 4172SOL     OW24148   3.541   0.974   6.247 -0.3631 -0.4815 -0.4085
 4172SOL    HW124149   3.453   0.973   6.209 -1.1143  0.7731  1.2938
 4172SOL    HW224150   3.515   0.960   6.338 -0.1410  0.5083 -0.1968
 4173SOL     OW24151   0.020   4.408   1.655 -0.3499  0.3324  0.3095
 4173SOL    HW124152   0.107   4.396   1.691 -0.3714 -0.1468  0.1946
 4173SOL    HW224153   0.005   4.316   1.635  1.3420 -0.7446  3.9883
 4174SOL     OW24154   1.914   3.693  14.063  0.0510  0.2290 -0.3389
 4174SOL    HW124155   1.926   3.761  13.997  1.5135 -0.1148 -0.4413
 4174SOL    HW224156   1.845   3.728  14.118  0.4091  0.3144  0.0610
 4175SOL     OW24157   2.321   2.712   5.724 -0.0991  0.0540  0.4664
 4175SOL    HW124158   2.241   2.686   5.770 -0.3685 -0.4491 -0.2827
 4175SOL    HW224159   2.289   2.686   5.638  1.4497 -0.5865  0.0753
 4176SOL     OW24160   2.582   2.638   7.413 -0.7118 -0.0224  0.8443
 4176SOL    HW124161   2.512   2.634   7.348 -1.4862 -1.0618  1.7530
 4176SOL    HW224162   2.547   2.707   7.469  0.7434  1.4775 -0.0663
 4177SOL     OW24163   2.528   4.272  14.767  0.0091  0.1720 -0.1966
 4177SOL    HW124164   2.465   4.316  14.824 -1.6920 -1.9047 -0.4573
 4177SOL    HW224165   2.580   4.220  14.828 -0.7387  0.5207  0.7237
 4178SOL     OW24166   3.495   2.247   2.653  0.0955 -0.8065  0.2765
 4178SOL    HW124167   3.440   2.170   2.664  1.0189 -1.7686 -1.6895
 4178SOL    HW224168   3.436   2.313   2.619  0.3889  1.0611  3.4218
 4179SOL     OW24169   3.401   0.016   2.691 -0.1565 -0.1298 -0.1982
 4179SOL    HW124170   3.444   4.691   2.636  0.4279  2.0316 -2.2797
 4179SOL    HW224171   3.419   4.720   2.778  1.5773 -1.1607 -0.9695
 4180SOL     OW24172   2.745   4.261   8.903  0.0094 -0.2352 -0.0364
 4180SOL    HW124173   2.800   4.183   8.897  0.1587 -0.2661  1.5627
 4180SOL    HW224174   2.812   4.307   8.954  0.3889  2.7911 -3.3412
 4181SOL     OW24175   0.577   3.119   5.815 -0.4776 -0.0131  0.5713
 4181SOL    HW124176   0.537   3.047   5.864  1.0834 -1.9321 -0.9762
 4181SOL    HW224177   0.528   3.122   5.733 -1.4739  0.4132  1.1761
 4182SOL     OW24178   2.205   2.384   4.247 -0.3227  0.3379  0.3000
 4182SOL    HW124179   2.263   2.441   4.296  2.7782 -1.4910 -1.2587
 4182SOL    HW224180   2.133   2.365   4.307 -1.2560  0.8216 -0.6719
 4183SOL     OW24181   0.833   1.309   6.948 -0.0142  0.3248  0.3526
 4183SOL    HW124182   0.800   1.292   6.859 -1.0168  1.1263  0.5798
 4183SOL    HW224183   0.770   1.264   7.004  2.4658 -2.0889  1.2125
 4184SOL     OW24184   0.832   0.067   7.623 -0.1819  0.1277  0.2541
 4184SOL    HW124185   0.783   4.731   7.591  1.2002  0.4109 -2.5285
 4184SOL    HW224186   0.898   0.086   7.556 -0.0593  2.6354  1.0929
 4185SOL     OW24187   1.002   0.902   0.381  0.1916 -0.0512  0.5965
 4185SOL    HW124188   1.080   0.931   0.334  1.9876 -0.1529  3.5188
 4185SOL    HW224189   0.959   0.983   0.408 -0.6246 -0.1001 -0.5352
 4186SOL     OW24190   3.707   0.016   7.068 -0.1330 -0.2975  0.5671
 4186SOL    HW124191   3.690   0.017   7.163 -1.2464 -3.0753  0.3942
 4186SOL    HW224192   3.702   4.662   7.046  1.8219 -0.1583 -0.5074
 4187SOL     OW24193   2.903   0.219  12.121 -0.3791  0.6814 -0.0205
 4187SOL    HW124194   2.899   0.207  12.026 -0.5259  1.4477 -0.1090
 4187SOL    HW224195   2.885   0.313  12.126  1.1121  1.1070 -2.1807
 4188SOL     OW24196   1.260   2.542   7.306 -0.1264  0.5654 -0.7294
 4188SOL    HW124197   1.258   2.541   7.211 -1.1414 -1.1631 -0.7074
 4188SOL    HW224198   1.330   2.478   7.318 -0.6897  0.0785  0.0037
 4189SOL     OW24199   1.616   3.753   3.121  0.1118 -0.1652  0.4682
 4189SOL    HW124200   1.687   3.692   3.100  0.0014  0.3932 -1.5292
 4189SOL    HW224201   1.604   3.803   3.040  1.6290 -2.6321 -1.2825
 4190SOL     OW24202   3.180   3.970   2.498  0.0828 -0.6858  0.0184
 4190SOL    HW124203   3.119   3.926   2.557  0.9446  0.2952  1.6324
 4190SOL    HW224204   3.128   3.951   2.420 -0.6918  1.8624 -0.0825
 4191SOL     OW24205   4.664   3.824   5.759 -0.3209  0.1323 -0.7055
 4191SOL    HW124206   4.668   3.920   5.766 -0.1583  0.1869 -1.5683
 4191SOL    HW224207   0.018   3.808   5.760 -0.4374 -0.4777  0.1361
 4192SOL     OW24208   0.496   1.566  12.683  0.0514 -0.2135 -0.1563
 4192SOL    HW124209   0.483   1.631  12.752 -1.8673  0.0316 -0.7632
 4192SOL    HW224210   0.431   1.597  12.620 -0.6215 -2.0632 -0.3560
 4193SOL     OW24211   1.106   4.153   5.061 -0.6246 -0.5357 -0.5743
 4193SOL    HW124212   1.192   4.195   5.067  0.2349 -2.4527  0.4147
 4193SOL    HW224213   1.062   4.211   5.122 -1.5600 -0.9730 -0.8333
 4194SOL     OW24214   3.916   1.362  13.340  0.0235 -0.2345  0.4876
 4194SOL    HW124215   3.969   1.285  13.319 -1.2639 -1.4676  1.7853
 4194SOL    HW224216   3.864   1.330  13.414 -0.9143  1.2897  0.4931
 4195SOL     OW24217   4.517   3.242  15.470 -0.0570 -0.7963  0.2527
 4195SOL    HW124218   4.425   3.249  15.494  0.3992  0.6720  1.5327
 4195SOL    HW224219   4.560   3.239  15.555  0.7737 -1.3553 -0.1903
 4196SOL     OW24220   0.726   1.523   7.258 -0.4960 -0.1680 -0.0190
 4196SOL    HW124221   0.747   1.521   7.351 -1.2994 -1.3393  0.1326
 4196SOL    HW224222   0.678   1.443   7.238  1.0518 -0.9901 -0.4983
 4197SOL     OW24223   0.397   3.827   5.229 -0.0414 -0.4064  0.4099
 4197SOL    HW124224   0.408   3.862   5.140  0.4704 -0.7145  0.3499
 4197SOL    HW224225   0.474   3.771   5.235  0.5586  0.3518 -0.2271
 4198SOL     OW24226   4.125   0.997   8.417 -0.4798 -0.1577 -0.4552
 4198SOL    HW124227   4.210   1.035   8.438 -0.2354 -1.6610  1.2392
 4198SOL    HW224228   4.148   0.916   8.371 -2.2938  0.2444 -2.0696
 4199SOL     OW24229   2.594   0.502   1.654 -0.0481 -0.2113 -0.7766
 4199SOL    HW124230   2.568   0.515   1.563 -1.7355  0.3704 -0.1976
 4199SOL    HW224231   2.689   0.491   1.642  0.3722  1.1406  1.3145
 4200SOL     OW24232   0.208   1.598   3.501  0.1266 -0.3353  0.0160
 4200SOL    HW124233   0.134   1.552   3.539 -0.6547  1.6225  0.8481
 4200SOL    HW224234   0.190   1.683   3.540  2.3983  0.3767 -0.4968
 4201SOL     OW24235   2.618   2.272   1.031  0.1278 -0.0956  0.2285
 4201SOL    HW124236   2.602   2.225   1.113 -0.6415 -0.0451  0.1104
 4201SOL    HW224237   2.712   2.262   1.016  0.2793 -0.0816  1.1446
 4202SOL     OW24238   0.555   1.455  14.899 -0.0001  0.3195 -0.4313
 4202SOL    HW124239   0.479   1.493  14.854 -0.1228 -0.8867 -1.2301
 4202SOL    HW224240   0.594   1.534  14.937 -2.4429  1.2626  0.1358
 4203SOL     OW24241   2.857   1.834   9.546 -0.8722 -0.0003  0.6703
 4203SOL    HW124242   2.920   1.774   9.507 -0.2149  0.4092  1.1190
 4203SOL    HW224243   2.844   1.805   9.636  0.1879 -0.0331  0.8103
 4204SOL     OW24244   2.244   3.818   3.857  0.3045  0.3538  0.1992
 4204SOL    HW124245   2.291   3.832   3.775 -1.6981 -1.7083 -1.3190
 4204SOL    HW224246   2.312   3.801   3.922  1.1530 -0.2026 -0.8321
 4205SOL     OW24247   1.666   2.038   4.986 -0.1438  0.2020 -0.1545
 4205SOL    HW124248   1.582   2.019   4.945  0.0199  0.8119 -0.7750
 4205SOL    HW224249   1.664   2.133   4.972 -1.1718  0.3090  0.7384
 4206SOL     OW24250   3.491   1.612   5.612  0.3239  0.3522 -0.1123
 4206SOL    HW124251   3.505   1.703   5.640 -0.7641  0.2479  0.7722
 4206SOL    HW224252   3.432   1.619   5.537 -2.1094 -0.2827  1.7502
 4207SOL     OW24253   1.968   3.611   6.403  0.4361 -0.5431 -0.1634
 4207SOL    HW124254   1.989   3.587   6.313 -0.2661  0.7161 -0.6642
 4207SOL    HW224255   2.053   3.609   6.448 -0.1568 -0.1281  0.9755
 4208SOL     OW24256   1.312   3.704  13.392 -0.5025 -0.3300  0.5060
 4208SOL    HW124257   1.406   3.684  13.401 -0.2215  0.5090 -0.5010
 4208SOL    HW224258   1.290   3.717  13.484  0.4567  0.1910  0.6647
 4209SOL     OW24259   0.853   3.906   6.642  0.0323 -0.6245 -0.3553
 4209SOL    HW124260   0.773   3.871   6.604 -0.5799  2.5757 -2.0486
 4209SOL    HW224261   0.823   3.922   6.732 -0.8612  0.2930 -0.8173
 4210SOL     OW24262   3.033   2.115   7.418  0.2079  0.2797 -0.0971
 4210SOL    HW124263   2.940   2.117   7.442  0.5414 -0.8158  1.3201
 4210SOL    HW224264   3.033   2.039   7.360  3.5181 -2.1994  3.1732
 4211SOL     OW24265   3.463   2.798   8.467 -0.3518 -0.0340 -0.2714
 4211SOL    HW124266   3.463   2.877   8.413  0.4242  0.8441  1.0233
 4211SOL    HW224267   3.379   2.808   8.511 -0.9812 -0.8650 -1.2699
 4212SOL     OW24268   0.287   2.020   6.489 -0.0019 -0.7688 -0.0346
 4212SOL    HW124269   0.216   2.036   6.427  0.8592  1.8603 -0.3359
 4212SOL    HW224270   0.323   1.942   6.446 -1.6008 -1.0225 -0.8941
 4213SOL     OW24271   3.826   4.172   2.161 -0.2106  0.1744  0.2820
 4213SOL    HW124272   3.743   4.127   2.150  0.4045 -0.7917 -0.4845
 4213SOL    HW224273   3.849   4.169   2.068  0.4423 -2.2023  0.4936
 4214SOL     OW24274   1.764   1.838   0.310  0.8220  0.0547 -0.0817
 4214SOL    HW124275   1.788   1.746   0.316  0.9510 -0.0920 -3.0334
 4214SOL    HW224276   1.671   1.843   0.335  0.8206  1.0783 -0.3144
 4215SOL     OW24277   3.232   4.407  15.862 -0.0076 -0.3439 -0.5397
 4215SOL    HW124278   3.145   4.442  15.882  1.1719  3.6155 -2.3057
 4215SOL    HW224279   3.267   4.460  15.790 -0.5365 -1.0491 -1.3155
 4216SOL     OW24280   4.389   1.011  13.629 -0.3044  0.6595  0.9179
 4216SOL    HW124281   4.309   0.959  13.619  0.9388 -0.7765 -1.5073
 4216SOL    HW224282   4.427   0.986  13.545 -2.7291  1.4252 -0.4098
 4217SOL     OW24283   4.502   4.085   5.595  0.2272  0.2304  0.2785
 4217SOL    HW124284   4.589   4.104   5.629  1.2929 -2.0246 -1.1853
 4217SOL    HW224285   4.515   4.066   5.502  1.4827  1.1824  0.2544
 4218SOL     OW24286   0.646   0.202   8.840  0.3144 -0.3860  0.7922
 4218SOL    HW124287   0.729   0.249   8.853 -0.3487  1.0301 -0.0311
 4218SOL    HW224288   0.653   0.169   8.750  1.1981  0.2460  0.6213
 4219SOL     OW24289   1.036   1.427   8.643  0.5362 -0.1094 -0.3369
 4219SOL    HW124290   1.125   1.392   8.641  0.3412 -0.4758 -2.6751
 4219SOL    HW224291   1.020   1.447   8.735 -2.2829 -0.2318 -0.7922
 4220SOL     OW24292   0.267   1.704   5.364 -0.1097  0.1995  0.5921
 4220SOL    HW124293   0.282   1.619   5.323 -0.6628 -0.0284  0.8620
 4220SOL    HW224294   0.176   1.693   5.391  0.2832 -1.2792  1.2579
 4221SOL     OW24295   1.849   2.151   1.188  0.0633 -0.0250  0.1907
 4221SOL    HW124296   1.814   2.096   1.117 -2.3024  0.1859  1.2040
 4221SOL    HW224297   1.837   2.098   1.267 -3.1165 -0.3766 -0.5579
 4222SOL     OW24298   2.000   4.461   1.070  0.5363 -0.2312  0.2293
 4222SOL    HW124299   1.980   4.511   1.149  0.3164  1.0100 -0.6097
 4222SOL    HW224300   1.980   4.369   1.086  1.4197 -0.2830  1.0403
 4223SOL     OW24301   0.154   3.360   8.748  0.3970 -0.8215 -0.1430
 4223SOL    HW124302   0.071   3.408   8.749  1.3764  0.8249  0.5027
 4223SOL    HW224303   0.161   3.324   8.837 -0.5620 -1.3354 -0.2735
 4224SOL     OW24304   2.048   2.672  16.703 -0.3535  0.3061  0.0088
 4224SOL    HW124305   1.974   2.724  16.734 -1.0094 -2.0850  2.3678
 4224SOL    HW224306   2.098   2.740  16.656 -0.9025  0.9981  0.4255
 4225SOL     OW24307   1.380   4.268   6.759  0.2577  0.5655  0.0487
 4225SOL    HW124308   1.417   4.179   6.755  0.3834  0.5709  1.2365
 4225SOL    HW224309   1.288   4.244   6.771  0.2956  1.2962  1.7585
 4226SOL     OW24310   1.953   0.290   3.575  0.7466 -0.3090  0.1710
 4226SOL    HW124311   1.953   0.287   3.479 -0.1347  4.0634  0.0066
 4226SOL    HW224312   1.934   0.383   3.589  0.0370 -0.5089  0.5125
 4227SOL     OW24313   0.543   3.725   7.938  0.1258 -0.7677  0.7844
 4227SOL    HW124314   0.571   3.716   7.847  1.4159  0.2517  1.0850
 4227SOL    HW224315   0.620   3.764   7.978  0.5802 -1.7274  0.8464
 4228SOL     OW24316   4.670   1.645   1.286 -0.1173  0.3258 -0.3727
 4228SOL    HW124317   4.659   1.700   1.363 -2.5650 -2.2610  1.1169
 4228SOL    HW224318   4.641   1.561   1.320 -1.6325  0.1657 -2.0710
 4229SOL     OW24319   0.746   1.683  16.729 -0.3170 -0.1573 -0.7977
 4229SOL    HW124320   0.699   1.696  16.811 -1.0149  0.6228 -1.3129
 4229SOL    HW224321   0.780   1.595  16.741  2.3034  0.9380 -0.1771
 4230SOL     OW24322   1.260   0.936  16.631  0.0429  0.0349  0.2106
 4230SOL    HW124323   1.233   1.019  16.591  1.1350  0.3389  0.1159
 4230SOL    HW224324   1.243   0.968  16.720 -2.1711  2.0456 -0.9534
 4231SOL     OW24325   3.264   2.420   5.826 -0.1840  0.5473  0.4455
 4231SOL    HW124326   3.234   2.510   5.818 -1.5985 -0.1798 -2.3113
 4231SOL    HW224327   3.357   2.433   5.808 -0.4820  1.4828 -0.3978
 4232SOL     OW24328   0.906   4.147   3.959 -0.0469 -0.5363  0.2744
 4232SOL    HW124329   0.866   4.128   3.873  3.9847  0.5199 -1.8273
 4232SOL    HW224330   0.888   4.241   3.962  0.3640 -0.5103  1.9387
 4233SOL     OW24331   2.267   4.038   2.862 -0.2867 -0.6206 -0.2747
 4233SOL    HW124332   2.276   4.021   2.956  1.2640  1.2598 -0.0895
 4233SOL    HW224333   2.185   3.994   2.838 -0.5352 -0.3997  0.1740
 4234SOL     OW24334   0.680   2.474   1.986  0.0250  0.5665 -0.2563
 4234SOL    HW124335   0.725   2.461   1.902  3.1484  1.9890  1.1802
 4234SOL    HW224336   0.606   2.528   1.962 -0.0433  1.6180  2.3804
 4235SOL     OW24337   0.426   4.227   5.109 -0.1461 -0.2791  0.6627
 4235SOL    HW124338   0.407   4.298   5.048 -1.3999 -0.2884  1.0334
 4235SOL    HW224339   0.460   4.278   5.182 -1.9099  0.2238  1.1423
 4236SOL     OW24340   0.579   3.184   3.864  0.0318  0.0729 -0.2206
 4236SOL    HW124341   0.575   3.207   3.771 -2.3127 -2.1336 -0.6466
 4236SOL    HW224342   0.603   3.092   3.851  1.8243  0.6432 -0.9902
 4237SOL     OW24343   2.977   2.497   9.773 -0.4050 -0.1158  1.0918
 4237SOL    HW124344   3.019   2.470   9.691  1.9292  1.5177  1.7500
 4237SOL    HW224345   2.901   2.439   9.775 -1.2864  0.9777 -0.4470
 4238SOL     OW24346   3.787   4.581   1.180 -0.5041  0.3396  0.1426
 4238SOL    HW124347   3.743   4.629   1.250 -1.9509 -0.9057  0.0845
 4238SOL    HW224348   3.874   4.621   1.176 -0.1251 -0.5643 -0.6157
 4239SOL     OW24349   4.045   4.239  10.638 -0.1466  0.1438 -0.4607
 4239SOL    HW124350   4.080   4.199  10.717 -1.4686  1.3597  0.7344
 4239SOL    HW224351   4.070   4.330  10.650  3.0300 -0.9210  0.9161
 4240SOL     OW24352   3.884   1.827   0.165 -0.1182 -0.0266 -0.1207
 4240SOL    HW124353   3.847   1.745   0.198  2.3264 -1.5321 -1.0985
 4240SOL    HW224354   3.831   1.897   0.204  0.5565  1.2928 -1.5737
 4241SOL     OW24355   1.177   4.359   1.870 -0.8193  0.3219 -0.0805
 4241SOL    HW124356   1.208   4.427   1.811 -0.8473  0.0761 -0.3748
 4241SOL    HW224357   1.083   4.368   1.860 -0.8664 -1.1832 -0.9159
 4242SOL     OW24358   1.964   2.833   3.832  0.4958 -0.4765  0.0588
 4242SOL    HW124359   1.912   2.789   3.899 -0.1994  0.6881  0.2711
 4242SOL    HW224360   1.954   2.779   3.754 -1.1875 -0.6626  0.4085
 4243SOL     OW24361   0.963   3.981   4.471  0.1868 -0.2142  0.4537
 4243SOL    HW124362   0.960   4.070   4.505  3.8574 -0.0947  0.4494
 4243SOL    HW224363   0.876   3.983   4.432 -1.4187 -0.7869  3.9575
 4244SOL     OW24364   3.332   0.569  16.551 -0.4623 -0.0340 -0.1533
 4244SOL    HW124365   3.281   0.616  16.486  0.5019 -2.4366 -2.6627
 4244SOL    HW224366   3.391   0.631  16.593  0.1092 -0.5438 -0.2002
 4245SOL     OW24367   0.851   3.545   0.675 -0.4894  0.5651  0.0913
 4245SOL    HW124368   0.792   3.608   0.634  0.5271  1.9515  0.7528
 4245SOL    HW224369   0.918   3.598   0.720 -0.6696 -0.0501  1.0707
 4246SOL     OW24370   4.033   2.728   8.853  0.2632 -0.4041  0.0305
 4246SOL    HW124371   3.980   2.763   8.782  0.6572  0.0202 -0.0510
 4246SOL    HW224372   4.041   2.806   8.908  2.4734  0.6472 -1.7606
 4247SOL     OW24373   3.166   2.846   5.286  0.5805 -0.0871  0.5730
 4247SOL    HW124374   3.141   2.827   5.195  0.8646 -1.5870  0.8005
 4247SOL    HW224375   3.185   2.939   5.291 -0.9870  0.2516  0.2102
 4248SOL     OW24376   0.911   2.303   3.444  0.0147 -0.4341 -0.1781
 4248SOL    HW124377   0.999   2.332   3.422  0.5514 -2.4629 -0.7569
 4248SOL    HW224378   0.861   2.294   3.362  1.5310  1.7860 -1.3167
 4249SOL     OW24379   4.182   1.896   5.232  0.3081 -0.2120 -0.2970
 4249SOL    HW124380   4.232   1.839   5.174 -0.0162 -0.1106 -0.6747
 4249SOL    HW224381   4.180   1.836   5.306  1.7826  0.1603  0.0480
 4250SOL     OW24382   0.701   4.141  10.175  0.2260  0.2847 -0.3216
 4250SOL    HW124383   0.642   4.120  10.103  1.7522  1.3611 -1.8739
 4250SOL    HW224384   0.644   4.194  10.230  0.8435 -0.5281  1.1017
 4251SOL     OW24385   4.018   3.148   5.519 -0.1081 -0.2946 -0.0837
 4251SOL    HW124386   4.026   3.190   5.605 -0.1588  1.1082 -0.7687
 4251SOL    HW224387   4.036   3.060   5.551 -2.3079 -0.1881  1.4864
 4252SOL     OW24388   1.356   2.366   9.046 -0.2861 -0.1639 -0.2972
 4252SOL    HW124389   1.363   2.278   9.008  1.2969 -0.5626  0.9486
 4252SOL    HW224390   1.262   2.383   9.056 -0.2791 -1.1834  1.4399
 4253SOL     OW24391   4.560   4.019  13.193  0.2477  0.5875  0.4556
 4253SOL    HW124392   4.615   4.046  13.267  0.0555 -1.0036  1.1834
 4253SOL    HW224393   4.544   3.927  13.214  0.5821  0.7332  1.3532
 4254SOL     OW24394   0.496   3.987  15.597 -0.4213 -0.8453 -0.7604
 4254SOL    HW124395   0.513   3.894  15.605 -0.6227 -0.8690 -0.5886
 4254SOL    HW224396   0.570   4.019  15.545  2.0009 -0.4420  2.9225
 4255SOL     OW24397   1.940   3.132   6.509  0.3980  0.6782 -0.4052
 4255SOL    HW124398   2.010   3.069   6.522 -1.7649 -1.2446  1.8990
 4255SOL    HW224399   1.862   3.078   6.524  1.7685 -1.7204 -2.0647
 4256SOL     OW24400   2.659   2.899  15.838  0.7112 -0.7477  0.3466
 4256SOL    HW124401   2.698   2.977  15.878  0.1913 -1.1380  1.5871
 4256SOL    HW224402   2.707   2.832  15.886  0.1534 -1.0726  0.4506
 4257SOL     OW24403   3.557   3.531  17.661  0.9599  0.2566 -0.5374
 4257SOL    HW124404   3.488   3.572  17.609 -0.9490 -2.1021  0.1245
 4257SOL    HW224405   3.638   3.575  17.636 -0.0931  1.7520 -1.2609
 4258SOL     OW24406   3.916   1.906   9.214 -0.3496 -0.3079 -0.8554
 4258SOL    HW124407   3.839   1.921   9.160  0.4005 -0.9088 -2.1074
 4258SOL    HW224408   3.971   1.858   9.152 -2.4378 -1.8598 -1.4785
 4259SOL     OW24409   4.577   4.608   6.246  0.0356 -1.0896 -0.8046
 4259SOL    HW124410   4.515   4.536   6.260  0.7477 -0.9886  2.8589
 4259SOL    HW224411   4.611   4.605   6.335  0.3081 -1.2875 -0.9153
 4260SOL     OW24412   4.044   3.770  13.800  0.7492 -0.3018  0.0971
 4260SOL    HW124413   4.071   3.689  13.842 -1.0871 -1.8026 -1.6401
 4260SOL    HW224414   4.000   3.743  13.719 -1.0546 -0.5840  1.1560
 4261SOL     OW24415   2.613   1.728   3.640  0.3927  0.4853  0.1036
 4261SOL    HW124416   2.612   1.644   3.595  1.2657  0.0235  0.9534
 4261SOL    HW224417   2.547   1.780   3.594 -0.4090 -1.2358 -0.6981
 4262SOL     OW24418   1.655   2.723   7.185 -0.0223  0.0928  0.3751
 4262SOL    HW124419   1.692   2.805   7.153 -0.4933  1.5343  3.4697
 4262SOL    HW224420   1.693   2.712   7.272 -0.1259 -1.6290  0.2049
 4263SOL     OW24421   0.975   1.995  11.834 -0.4278  0.2424  0.1354
 4263SOL    HW124422   0.899   2.050  11.852  0.1355  1.7586 -2.1032
 4263SOL    HW224423   0.994   2.013  11.742  0.2826  2.2171  0.6718
 4264SOL     OW24424   0.956   4.247   1.074 -0.7532  0.0964  0.2744
 4264SOL    HW124425   0.991   4.185   1.137 -2.3396 -1.9806 -0.8700
 4264SOL    HW224426   0.970   4.328   1.121 -0.0257 -0.5036  1.0781
 4265SOL     OW24427   3.946   1.137   3.866  0.7949  0.0631  1.0276
 4265SOL    HW124428   3.890   1.183   3.929  0.3473 -3.9615  3.5236
 4265SOL    HW224429   4.015   1.101   3.921  2.3792  0.0920 -0.9166
 4266SOL     OW24430   1.309   2.699   7.773  0.7543  0.0998  0.3131
 4266SOL    HW124431   1.234   2.751   7.799  0.3166 -1.3440  1.9034
 4266SOL    HW224432   1.271   2.614   7.752  0.6618 -0.0917  1.2675
 4267SOL     OW24433   2.324   3.308   6.475  0.0631 -0.4989 -0.8477
 4267SOL    HW124434   2.324   3.215   6.457  0.5841 -0.8865  1.1426
 4267SOL    HW224435   2.371   3.293   6.557  0.4902 -0.1794 -1.0351
 4268SOL     OW24436   1.577   3.358   8.790 -0.4879 -0.2835 -0.8065
 4268SOL    HW124437   1.616   3.432   8.837 -0.8092  0.1610 -1.2433
 4268SOL    HW224438   1.639   3.289   8.815  0.4423  1.1348  0.8015
 4269SOL     OW24439   3.324   1.824   3.488 -0.0493  0.2293  0.0452
 4269SOL    HW124440   3.412   1.803   3.518 -0.9952  0.1834  2.8024
 4269SOL    HW224441   3.320   1.803   3.394 -1.2272 -1.1235  0.3992
 4270SOL     OW24442   1.364   4.194   7.618  0.3184  0.1652  0.5441
 4270SOL    HW124443   1.449   4.150   7.626  2.0223  3.4093  0.3394
 4270SOL    HW224444   1.361   4.253   7.693 -1.2224 -0.3412  0.8913
 4271SOL     OW24445   4.651   0.958   7.753  0.3834  0.3997  0.3087
 4271SOL    HW124446   4.681   0.923   7.837 -0.0852 -0.1911  0.2310
 4271SOL    HW224447   4.722   0.936   7.693 -0.3275  0.3887 -0.5312
 4272SOL     OW24448   2.390   4.487   4.400  0.4994 -0.0441  0.4339
 4272SOL    HW124449   2.413   4.424   4.468 -0.8130  2.4509  3.2322
 4272SOL    HW224450   2.298   4.462   4.387  0.9303 -1.3331 -0.0659
 4273SOL     OW24451   3.812   2.390   8.068 -0.0994 -0.3055 -0.0689
 4273SOL    HW124452   3.897   2.417   8.034  1.2845 -1.9290  2.0192
 4273SOL    HW224453   3.840   2.314   8.120  1.5176 -0.1682 -0.7475
 4274SOL     OW24454   1.980   1.564   4.924 -0.5670 -0.4583  0.2473
 4274SOL    HW124455   1.897   1.520   4.904 -0.4922  0.5610 -2.3116
 4274SOL    HW224456   1.946   1.653   4.919 -0.8457 -0.5952 -0.2716
 4275SOL     OW24457   1.440   4.404   5.435 -0.2715 -0.2532 -0.1161
 4275SOL    HW124458   1.445   4.323   5.385  0.4180 -0.1661 -0.1869
 4275SOL    HW224459   1.530   4.398   5.468  0.5676  0.7609 -2.1953
 4276SOL     OW24460   1.951   3.096   2.411 -0.7561  0.4568  0.5258
 4276SOL    HW124461   1.923   3.163   2.349  0.9201  1.6835  1.1118
 4276SOL    HW224462   1.990   3.039   2.344  0.1719  0.2073  1.2704
 4277SOL     OW24463   2.842   2.257   4.996 -0.2676 -0.3883 -0.4601
 4277SOL    HW124464   2.771   2.193   4.995 -1.6904  1.2035  0.5762
 4277SOL    HW224465   2.803   2.320   5.055 -0.3084  0.5229 -1.4620
 4278SOL     OW24466   0.897   4.242   4.518  0.5336  0.5951 -0.2734
 4278SOL    HW124467   0.832   4.287   4.463 -0.8146  1.0018  1.6429
 4278SOL    HW224468   0.909   4.308   4.586 -0.9070  1.9409 -1.3273
 4279SOL     OW24469   4.096   0.926  17.257  0.0238 -0.6491 -0.3486
 4279SOL    HW124470   4.026   0.991  17.252 -0.8701 -1.7706 -1.9280
 4279SOL    HW224471   4.137   0.946  17.342 -0.0100 -1.7539 -0.0704
 4280SOL     OW24472   0.943   3.400   0.037 -0.8877  0.2186 -0.6100
 4280SOL    HW124473   0.935   3.438  17.706  1.3309  0.7153 -0.6070
 4280SOL    HW224474   0.849   3.404   0.058 -1.0093 -1.7247 -0.8613
 4281SOL     OW24475   1.496   3.106   3.733 -0.2456 -0.1662 -0.3733
 4281SOL    HW124476   1.417   3.123   3.785 -1.2692  0.4559 -2.1257
 4281SOL    HW224477   1.556   3.078   3.802  0.5748  1.9133 -0.2422
 4282SOL     OW24478   2.958   3.569   0.510 -0.0791  0.2838 -0.0240
 4282SOL    HW124479   2.884   3.539   0.456 -0.7325  0.7260  0.6188
 4282SOL    HW224480   3.037   3.558   0.457  0.4013 -3.0483  1.4095
 4283SOL     OW24481   1.997   3.928   6.404 -0.5315 -0.3709 -0.3599
 4283SOL    HW124482   1.969   3.884   6.324  1.6449  0.1828 -1.4294
 4283SOL    HW224483   2.092   3.941   6.398 -0.6367  0.5980  0.0581
 4284SOL     OW24484   0.743   0.535  13.579  0.0421 -0.4443 -0.4481
 4284SOL    HW124485   0.829   0.524  13.539 -0.4859  1.6400 -2.1420
 4284SOL    HW224486   0.765   0.602  13.644 -1.6815 -0.3587  0.0432
 4285SOL     OW24487   2.239   2.631   8.303 -0.2737 -0.2153 -0.3074
 4285SOL    HW124488   2.192   2.581   8.370 -0.5027 -0.1291 -0.4041
 4285SOL    HW224489   2.203   2.720   8.301 -0.8305 -0.3836  2.0341
 4286SOL     OW24490   4.438   4.223   2.905  0.1416  0.5795  0.1943
 4286SOL    HW124491   4.373   4.258   2.845  1.6951  0.6709 -1.4347
 4286SOL    HW224492   4.434   4.296   2.967 -1.5365  1.7292 -1.3123
 4287SOL     OW24493   0.802   0.690   8.743  0.5244 -0.5261  0.1537
 4287SOL    HW124494   0.721   0.660   8.702  0.5104 -2.5884  1.7289
 4287SOL    HW224495   0.865   0.676   8.672  0.2840  2.0021 -0.5652
 4288SOL     OW24496   4.480   4.603   7.438  0.5009  0.1663 -0.6711
 4288SOL    HW124497   4.426   4.655   7.378 -0.2006  1.9316  1.5293
 4288SOL    HW224498   4.443   4.517   7.418 -0.1060  0.0607  0.9182
 4289SOL     OW24499   3.937   4.675   7.929  0.6565 -0.1970  0.4711
 4289SOL    HW124500   3.975   4.657   7.843  1.2121  0.2106  0.6340
 4289SOL    HW224501   4.004   4.642   7.988 -0.1431 -3.8935 -0.6729
 4290SOL     OW24502   1.175   0.581  16.338  0.1288 -0.3509  0.1880
 4290SOL    HW124503   1.089   0.564  16.300 -0.1958 -1.7944  1.5492
 4290SOL    HW224504   1.231   0.614  16.268 -1.8572  1.4292 -0.5545
 4291SOL     OW24505   4.563   2.834  16.052  0.0422 -0.1017 -0.2995
 4291SOL    HW124506   4.622   2.907  16.031  0.3187 -0.5233 -0.9829
 4291SOL    HW224507   4.601   2.814  16.138 -3.7679 -0.9579  1.1490
 4292SOL     OW24508   2.487   2.284   2.093  0.2653 -0.3820 -0.0086
 4292SOL    HW124509   2.513   2.192   2.100  3.2573  0.4833  0.2666
 4292SOL    HW224510   2.392   2.278   2.099 -0.0384  2.7236 -1.5238
 4293SOL     OW24511   4.537   0.825  10.654  0.0978 -0.5589  0.3484
 4293SOL    HW124512   4.483   0.876  10.713  0.8185  1.5644 -0.8245
 4293SOL    HW224513   4.536   0.737  10.691 -2.7842 -0.5351  0.3539
 4294SOL     OW24514   4.122   1.601   6.421 -0.0722  0.2849  0.5266
 4294SOL    HW124515   4.183   1.661   6.379  0.4183  0.2378  1.1660
 4294SOL    HW224516   4.182   1.550   6.476 -0.1030 -0.2301  0.0837
 4295SOL     OW24517   1.455   0.696   5.480  0.3029  0.2602  0.2788
 4295SOL    HW124518   1.422   0.721   5.394 -0.3715  0.4287  0.5840
 4295SOL    HW224519   1.519   0.634   5.447 -0.8493 -0.2172 -1.0588
 4296SOL     OW24520   2.643   1.953  16.776  0.4681  0.0965 -0.5922
 4296SOL    HW124521   2.703   1.894  16.820 -0.6840 -2.1025 -1.9940
 4296SOL    HW224522   2.704   2.022  16.750  1.1245  0.1386  1.0323
 4297SOL     OW24523   3.426   1.118   2.510  0.2060  0.3802 -0.0180
 4297SOL    HW124524   3.500   1.087   2.563  1.4012 -1.4668 -2.7276
 4297SOL    HW224525   3.372   1.167   2.572  0.2186 -0.6844  0.8164
 4298SOL     OW24526   4.286   1.378  17.296 -0.5111 -0.3334 -0.2771
 4298SOL    HW124527   4.224   1.441  17.334  0.6096 -0.6730  2.0816
 4298SOL    HW224528   4.371   1.420  17.310 -0.2351 -1.3420  1.0787
 4299SOL     OW24529   4.542   2.639   4.028 -0.5784 -0.0247  0.0904
 4299SOL    HW124530   4.566   2.716   4.080  1.0670 -1.8779  2.1110
 4299SOL    HW224531   4.452   2.619   4.051 -0.7292 -0.3821 -0.8179
 4300SOL     OW24532   4.480   0.494   7.601  0.5104  0.0795  0.5560
 4300SOL    HW124533   4.436   0.579   7.598 -1.1091 -0.7927 -0.8434
 4300SOL    HW224534   4.406   0.434   7.591  0.4022  0.3868 -0.5349
 4301SOL     OW24535   3.672   2.077  15.172 -0.0173 -0.3228  0.0549
 4301SOL    HW124536   3.735   2.108  15.108 -0.0116 -1.2584 -0.3858
 4301SOL    HW224537   3.635   2.005  15.121  0.2759  0.8337 -1.7656
 4302SOL     OW24538   4.333   2.984  14.919 -0.3223 -0.2831  0.0923
 4302SOL    HW124539   4.328   3.071  14.957  1.5258 -0.3314  0.4452
 4302SOL    HW224540   4.308   2.935  14.997  0.0558 -0.3593  0.1688
 4303SOL     OW24541   1.153   2.262   1.423 -0.0594  0.2464 -0.4151
 4303SOL    HW124542   1.066   2.292   1.397  0.0361  0.0984 -0.8884
 4303SOL    HW224543   1.203   2.338   1.393 -0.2340  1.0954  1.4353
 4304SOL     OW24544   4.451   4.241   1.433  0.0557 -0.2489  0.4670
 4304SOL    HW124545   4.391   4.247   1.360  0.7046 -0.0719 -0.0550
 4304SOL    HW224546   4.499   4.324   1.423 -3.0849  1.4556 -0.4551
 4305SOL     OW24547   2.088   1.189   7.629  0.6548 -0.1651  0.0700
 4305SOL    HW124548   2.106   1.110   7.681  0.1490 -1.0934 -1.1556
 4305SOL    HW224549   2.159   1.248   7.656  1.3481 -0.5377 -0.9426
 4306SOL     OW24550   4.070   1.972   6.442 -0.0968  0.4726  0.6799
 4306SOL    HW124551   4.114   2.056   6.451 -2.3244  1.9865 -2.4432
 4306SOL    HW224552   4.146   1.916   6.456 -0.0511  0.3463 -0.0688
 4307SOL     OW24553   2.849   0.134  16.806 -0.3032 -0.0614 -0.6189
 4307SOL    HW124554   2.797   0.214  16.811 -0.2541 -0.0848  0.2655
 4307SOL    HW224555   2.906   0.163  16.734  0.3169  0.1647 -0.0378
 4308SOL     OW24556   0.545   2.073   6.282 -0.0106  0.3579 -0.9763
 4308SOL    HW124557   0.520   2.119   6.363  2.8764 -0.4214  0.3771
 4308SOL    HW224558   0.639   2.090   6.277  0.0643 -0.2565 -1.6058
 4309SOL     OW24559   1.849   2.626   3.248 -0.4413 -0.0649  0.4569
 4309SOL    HW124560   1.781   2.572   3.208 -1.0085  2.0519 -1.4229
 4309SOL    HW224561   1.824   2.646   3.338  1.3170  1.4737  0.6022
 4310SOL     OW24562   3.854   3.496  10.676 -0.3390  0.2120 -0.1677
 4310SOL    HW124563   3.766   3.469  10.701  0.8611 -2.9207  0.6789
 4310SOL    HW224564   3.845   3.523  10.585  2.5163 -3.1701 -1.4407
 4311SOL     OW24565   0.128   2.718   6.603 -0.1878  0.4315 -0.4929
 4311SOL    HW124566   0.222   2.732   6.597 -0.1049  0.0851  0.0993
 4311SOL    HW224567   0.098   2.798   6.645  0.7979  0.2142  0.6128
 4312SOL     OW24568   1.482   1.593  10.834 -0.4077 -0.1911 -0.0742
 4312SOL    HW124569   1.429   1.557  10.905  1.4348 -1.2689  0.7371
 4312SOL    HW224570   1.411   1.645  10.795 -0.7869  1.2221  2.5225
 4313SOL     OW24571   1.008   1.948   4.959  0.0713 -0.0087 -0.0562
 4313SOL    HW124572   1.049   1.946   5.045 -1.1445  0.7752  0.5421
 4313SOL    HW224573   0.971   2.037   4.963 -0.9001 -0.3605 -1.1321
 4314SOL     OW24574   3.468   2.182   4.866  0.7978  0.2305  0.1770
 4314SOL    HW124575   3.443   2.091   4.886  2.3662 -0.2946 -0.3154
 4314SOL    HW224576   3.424   2.201   4.783 -0.0759 -0.5566  0.4560
 4315SOL     OW24577   1.624   2.795   4.421 -0.5306 -0.0579  0.7133
 4315SOL    HW124578   1.680   2.785   4.344  1.6006 -1.2552  2.4051
 4315SOL    HW224579   1.661   2.733   4.484  2.4982 -0.0672 -1.0902
 4316SOL     OW24580   3.226   0.145  12.090  0.3076  0.0205  0.1218
 4316SOL    HW124581   3.199   0.236  12.098  0.7426  0.4386 -3.1477
 4316SOL    HW224582   3.221   0.138  12.186 -1.8852 -0.9669 -0.0648
 4317SOL     OW24583   3.728   1.186  10.077 -0.3184 -0.5334  0.0901
 4317SOL    HW124584   3.667   1.202  10.004 -0.4051  2.3388  0.7923
 4317SOL    HW224585   3.791   1.126  10.038 -0.9949 -1.9289  1.1706
 4318SOL     OW24586   3.218   2.780  11.715  0.4539  0.0678 -0.4131
 4318SOL    HW124587   3.167   2.778  11.796  0.9138 -1.2840 -0.1436
 4318SOL    HW224588   3.249   2.870  11.717 -1.5927  0.7532  0.0683
 4319SOL     OW24589   4.583   0.570   2.878 -0.1190 -0.5213  0.1293
 4319SOL    HW124590   4.529   0.558   2.956  1.2424  0.1791  1.1700
 4319SOL    HW224591   4.518   0.613   2.823  1.8002  3.2294  0.7928
 4320SOL     OW24592   3.093   0.401   2.845 -0.0692 -0.3429 -0.0579
 4320SOL    HW124593   3.082   0.312   2.810 -1.3417 -0.0519 -0.3964
 4320SOL    HW224594   3.014   0.433   2.802 -0.1586 -1.7638 -0.9630
 4321SOL     OW24595   4.311   1.589  11.341  0.4150 -0.4441  0.4963
 4321SOL    HW124596   4.298   1.581  11.246  1.5053 -1.0426  0.3972
 4321SOL    HW224597   4.225   1.552  11.357 -0.0113  0.4836  0.3486
 4322SOL     OW24598   1.105   0.505  16.821 -0.7422  0.3315 -0.3965
 4322SOL    HW124599   1.139   0.469  16.902  0.8747 -1.1097 -1.7056
 4322SOL    HW224600   1.009   0.502  16.828 -0.5809 -1.4498  0.8288
 4323SOL     OW24601   1.322   1.132   0.444 -0.2055  0.3039 -0.2855
 4323SOL    HW124602   1.331   1.180   0.362 -0.3767 -1.6862 -1.4692
 4323SOL    HW224603   1.402   1.161   0.487  0.4107 -0.9553 -0.5845
 4324SOL     OW24604   3.257   2.664  13.029  0.6468 -0.3067  0.9264
 4324SOL    HW124605   3.234   2.741  13.080 -0.6070 -0.2169  0.2203
 4324SOL    HW224606   3.242   2.594  13.093  1.1615 -0.0525  1.3251
 4325SOL     OW24607   0.358   2.766   2.374 -0.8372  0.0600 -0.0409
 4325SOL    HW124608   0.319   2.679   2.361 -2.2598  0.6964 -0.0437
 4325SOL    HW224609   0.434   2.758   2.317 -0.7892  0.8645 -0.0874
 4326SOL     OW24610   4.091   4.432   8.370  0.3772  0.3536 -0.0745
 4326SOL    HW124611   4.120   4.485   8.295 -0.0048  0.4280 -0.1722
 4326SOL    HW224612   4.030   4.487   8.418  0.8256 -0.1766  1.0978
 4327SOL     OW24613   1.394   1.773   9.064  0.5480  0.4805  0.3185
 4327SOL    HW124614   1.337   1.844   9.095 -1.4916 -0.7790 -0.5352
 4327SOL    HW224615   1.474   1.794   9.112  0.3824  0.9008  0.4170
 4328SOL     OW24616   3.607   2.732  13.552 -0.1600 -0.2358  0.6192
 4328SOL    HW124617   3.524   2.685  13.552  0.4389 -1.3415 -2.2351
 4328SOL    HW224618   3.666   2.662  13.523 -0.4640  0.1545 -0.9419
 4329SOL     OW24619   1.495   1.031   2.226  0.0332  0.3863  0.3581
 4329SOL    HW124620   1.518   1.124   2.219  0.3750  0.3534  1.0925
 4329SOL    HW224621   1.520   0.994   2.141  1.5910  0.6423  0.6969
 4330SOL     OW24622   1.059   0.843   2.463  0.0945 -0.1154  0.2740
 4330SOL    HW124623   1.150   0.866   2.445  0.4740 -0.3100  1.9144
 4330SOL    HW224624   1.073   0.798   2.547 -0.0137 -0.6722 -0.0088
 4331SOL     OW24625   2.118   1.268   6.017 -0.1894 -0.3414  0.4366
 4331SOL    HW124626   2.152   1.193   5.967 -1.1674  0.5142 -1.5269
 4331SOL    HW224627   2.197   1.322   6.015  1.0438 -2.1258  1.1412
 4332SOL     OW24628   3.575   4.190   5.696  0.0599  0.5410  0.0588
 4332SOL    HW124629   3.610   4.207   5.783  2.1490 -1.3651 -0.4222
 4332SOL    HW224630   3.486   4.222   5.711 -0.5204 -1.3912  0.6970
 4333SOL     OW24631   2.725   2.494  11.896  0.2600  0.1718 -1.0905
 4333SOL    HW124632   2.739   2.462  11.985  2.0933  1.0192 -1.0905
 4333SOL    HW224633   2.641   2.453  11.874 -0.8690  0.5280  2.4352
 4334SOL     OW24634   0.249   3.090   5.879  0.2952 -0.0031  0.0941
 4334SOL    HW124635   0.291   3.126   5.958 -1.0365  1.7643  0.0013
 4334SOL    HW224636   0.243   3.172   5.830  0.7147  0.3327  0.6034
 4335SOL     OW24637   3.140   3.835  13.007  0.1868 -0.3255  0.1659
 4335SOL    HW124638   3.150   3.858  13.100  1.5247  0.2131 -0.1087
 4335SOL    HW224639   3.213   3.878  12.962  0.0628 -0.1774  0.1052
 4336SOL     OW24640   2.836   1.436   6.134  0.1628 -0.1923 -0.2411
 4336SOL    HW124641   2.924   1.399   6.124  1.0382  1.3220  1.9299
 4336SOL    HW224642   2.789   1.381   6.071  0.2687 -0.1755 -0.3356
 4337SOL     OW24643   3.239   2.029   6.806  0.0642 -0.6137 -0.5515
 4337SOL    HW124644   3.215   1.968   6.735  0.2753 -1.4523  0.0898
 4337SOL    HW224645   3.182   2.003   6.879 -1.4834  2.3803 -0.7221
 4338SOL     OW24646   0.010   2.216   9.899 -0.3424 -0.1891  0.3649
 4338SOL    HW124647   0.098   2.181   9.885 -1.0586 -2.6308  2.0152
 4338SOL    HW224648   4.717   2.147   9.957 -1.6577 -1.0322 -1.3745
 4339SOL     OW24649   3.932   0.116  16.578 -0.2262 -0.5146  0.4174
 4339SOL    HW124650   3.975   0.057  16.516  1.2636  0.2521  0.7280
 4339SOL    HW224651   3.930   0.058  16.655 -1.8170 -0.7421  0.2110
 4340SOL     OW24652   3.423   2.906   2.724 -0.4711  0.2762  0.2139
 4340SOL    HW124653   3.352   2.846   2.746 -1.0623  1.1409  0.7024
 4340SOL    HW224654   3.372   2.976   2.683  1.2354  1.1229 -0.4812
 4341SOL     OW24655   3.481   3.813   6.848 -0.2122 -0.4846 -0.3628
 4341SOL    HW124656   3.556   3.765   6.883 -0.0846 -0.3454 -0.4479
 4341SOL    HW224657   3.416   3.784   6.912  1.1372  2.2880  2.2406
 4342SOL     OW24658   1.365   2.804   2.688 -0.4253 -0.3097  0.0788
 4342SOL    HW124659   1.415   2.878   2.722  1.8840 -2.0114  0.4417
 4342SOL    HW224660   1.321   2.849   2.617  1.8208  0.8143 -0.6011
 4343SOL     OW24661   1.005   4.521   0.266  0.2423  0.4666  0.2304
 4343SOL    HW124662   1.052   4.602   0.289  1.7011 -0.5280  0.7218
 4343SOL    HW224663   1.063   4.456   0.306  0.6542 -0.2146 -1.4747
 4344SOL     OW24664   1.508   1.211   6.637  0.7153 -0.4046 -0.1999
 4344SOL    HW124665   1.458   1.133   6.658  0.0807  0.4585  1.5278
 4344SOL    HW224666   1.562   1.173   6.568  0.4570 -2.2566  0.6277
 4345SOL     OW24667   3.405   3.574   0.831  0.4273 -0.6031  0.8587
 4345SOL    HW124668   3.313   3.587   0.853  0.4468  0.1289  0.4915
 4345SOL    HW224669   3.415   3.660   0.790  0.4267 -1.3160 -0.6248
 4346SOL     OW24670   3.769   3.340   7.952  0.4802 -0.3230 -0.4861
 4346SOL    HW124671   3.783   3.359   7.859 -0.3950 -1.7983 -0.9064
 4346SOL    HW224672   3.770   3.432   7.980  0.3236 -0.3507 -0.3905
 4347SOL     OW24673   3.836   3.006   9.388  0.1959  0.2414  0.0134
 4347SOL    HW124674   3.848   2.928   9.442  0.9422 -0.1524 -0.7260
 4347SOL    HW224675   3.858   2.976   9.300 -0.4161 -4.0714  1.3524
 4348SOL     OW24676   3.350   4.368  13.462 -0.7277  0.1170  0.7113
 4348SOL    HW124677   3.424   4.355  13.403 -0.9092  1.9601  0.0872
 4348SOL    HW224678   3.322   4.281  13.492  1.8852 -0.2054  2.2562
 4349SOL     OW24679   2.538   4.554   3.912  0.3496 -0.6540 -0.2550
 4349SOL    HW124680   2.523   4.587   4.001  2.3365  1.1646 -0.5834
 4349SOL    HW224681   2.512   4.463   3.925 -0.2516 -0.2458  1.4233
 4350SOL     OW24682   2.551   0.741  15.703 -0.0966 -0.0680  0.1294
 4350SOL    HW124683   2.548   0.779  15.615  1.7912  1.3357  0.6715
 4350SOL    HW224684   2.553   0.646  15.689 -1.1322 -0.1132  0.2608
 4351SOL     OW24685   3.736   2.529  15.587 -0.2575  0.0816  0.2891
 4351SOL    HW124686   3.731   2.624  15.574 -1.0738  0.0400  0.3192
 4351SOL    HW224687   3.672   2.525  15.658  1.0200  0.9457  1.5168
 4352SOL     OW24688   0.526   0.999  14.814 -0.5729  0.3362 -0.3203
 4352SOL    HW124689   0.432   0.998  14.829 -0.8241  0.3040 -1.8919
 4352SOL    HW224690   0.534   0.928  14.750 -2.7939 -1.4857  1.4194
 4353SOL     OW24691   0.714   1.249   6.711 -0.5897 -0.9247 -0.4317
 4353SOL    HW124692   0.641   1.309   6.695 -0.2777 -0.0516  1.3829
 4353SOL    HW224693   0.763   1.254   6.628  0.1117 -1.7074 -0.0572
 4354SOL     OW24694   1.663   3.484  12.181 -0.6401  0.0586 -0.0304
 4354SOL    HW124695   1.586   3.520  12.138 -1.0454 -0.0218  0.6143
 4354SOL    HW224696   1.672   3.545  12.254 -3.1588  0.3444  0.0538
 4355SOL     OW24697   2.030   1.806   3.393  0.4111 -0.0726 -0.1403
 4355SOL    HW124698   2.039   1.728   3.339  0.3962  1.3437 -2.2215
 4355SOL    HW224699   2.082   1.876   3.352  0.0737  0.1194 -0.2497
 4356SOL     OW24700   3.982   3.433   6.400  0.1812 -0.2678  0.4055
 4356SOL    HW124701   3.944   3.352   6.433  0.2822 -0.1335  0.8433
 4356SOL    HW224702   4.053   3.429   6.464  1.5729 -1.0094 -1.1807
 4357SOL     OW24703   3.681   2.590   7.173  0.7240  0.2984 -0.3993
 4357SOL    HW124704   3.717   2.513   7.129  2.0919  1.0546 -0.5965
 4357SOL    HW224705   3.649   2.545   7.252  1.5709 -2.4132 -1.5919
 4358SOL     OW24706   0.639   4.733  15.095 -0.0771  0.4187  0.6962
 4358SOL    HW124707   0.555   0.024  15.061 -2.3456 -2.9755  3.2023
 4358SOL    HW224708   0.696   0.029  15.027 -0.2366 -0.9120 -0.1268
 4359SOL     OW24709   4.000   2.361  15.149 -0.0700 -0.3319  0.3792
 4359SOL    HW124710   3.947   2.439  15.164  1.1056  1.0151 -2.6138
 4359SOL    HW224711   3.948   2.319  15.080 -1.0221  1.2073  0.1652
 4360SOL     OW24712   4.387   3.859  12.118 -0.0588 -0.2899 -0.2625
 4360SOL    HW124713   4.388   3.833  12.210  1.7031 -2.4993 -0.9116
 4360SOL    HW224714   4.309   3.914  12.128  0.5492  0.4863  0.1915
 4361SOL     OW24715   0.784   4.623   8.413 -0.2229  0.1235 -0.0049
 4361SOL    HW124716   0.719   4.553   8.406  0.7928 -0.8108 -0.0734
 4361SOL    HW224717   0.866   4.580   8.391  0.5263  0.2746  2.4678
 4362SOL     OW24718   3.925   2.516   7.028 -0.1819 -0.2088 -0.0341
 4362SOL    HW124719   3.914   2.573   6.952 -1.9102 -3.2725 -2.0786
 4362SOL    HW224720   3.857   2.450   7.016 -0.2074 -0.2669  0.4588
 4363SOL     OW24721   4.506   3.446   7.375 -0.0734  0.2732 -0.4618
 4363SOL    HW124722   4.436   3.428   7.312 -0.4809  1.1367 -0.2709
 4363SOL    HW224723   4.557   3.366   7.366 -1.1010 -0.5308  0.7844
 4364SOL     OW24724   1.907   3.503  12.048 -0.1717 -0.0758 -0.0165
 4364SOL    HW124725   1.945   3.518  12.135  0.7072  0.6303 -0.5217
 4364SOL    HW224726   1.814   3.514  12.070  0.0355  0.7378  0.4747
 4365SOL     OW24727   0.465   1.830   3.172  0.0491  0.0598 -0.0147
 4365SOL    HW124728   0.422   1.747   3.152  0.1617  0.0528 -0.2301
 4365SOL    HW224729   0.500   1.862   3.089 -0.9328  0.0062 -0.4477
 4366SOL     OW24730   3.069   3.579   1.539  0.6258  0.0548 -0.3059
 4366SOL    HW124731   3.111   3.516   1.598  1.8048  1.5798  0.4776
 4366SOL    HW224732   2.997   3.608   1.595  0.5443 -0.4412 -0.1488
 4367SOL     OW24733   1.390   1.382   0.958  0.0042  0.1232 -0.9019
 4367SOL    HW124734   1.465   1.396   1.016 -0.3936 -1.4980  0.0036
 4367SOL    HW224735   1.398   1.288   0.943  0.6592  0.2548 -1.3870
 4368SOL     OW24736   3.242   0.868   5.142  0.0921 -0.0557  0.7527
 4368SOL    HW124737   3.161   0.873   5.193  0.6661 -0.6571  1.7101
 4368SOL    HW224738   3.309   0.843   5.205  3.4868  2.1599 -1.9188
 4369SOL     OW24739   0.853   0.293  15.047 -0.1080  0.2697  0.3051
 4369SOL    HW124740   0.842   0.209  15.001 -4.8695  1.1217 -0.1168
 4369SOL    HW224741   0.903   0.350  14.989  0.7744  0.3851  1.1800
 4370SOL     OW24742   3.451   1.475  14.363  0.0280  0.3546  0.2144
 4370SOL    HW124743   3.393   1.546  14.389 -0.0839 -0.0479  1.0529
 4370SOL    HW224744   3.529   1.518  14.327 -0.4592  0.1049 -1.1261
 4371SOL     OW24745   1.262   0.510   9.459 -0.3719  0.6091 -0.3188
 4371SOL    HW124746   1.245   0.574   9.389 -0.4702 -0.3800 -1.1992
 4371SOL    HW224747   1.226   0.554   9.536 -0.2372  1.1999 -0.5928
 4372SOL     OW24748   0.178   1.105   7.796  0.6119 -0.0539  0.1502
 4372SOL    HW124749   0.220   1.183   7.832 -2.7830  2.7345 -1.9110
 4372SOL    HW224750   0.188   1.051   7.875 -1.1974 -0.6239 -0.0300
 4373SOL     OW24751   3.523   0.852   4.131  0.2115 -0.5559 -0.3493
 4373SOL    HW124752   3.549   0.762   4.113  0.2864 -1.0167  2.0775
 4373SOL    HW224753   3.435   0.847   4.169  0.6963  1.1748  1.0096
 4374SOL     OW24754   3.504   4.494   4.114 -0.1407  0.6152 -0.0004
 4374SOL    HW124755   3.545   4.519   4.031 -0.7665 -2.0506 -1.0947
 4374SOL    HW224756   3.458   4.567   4.156 -1.2534 -1.2754  2.0995
 4375SOL     OW24757   0.558   2.213   4.007 -0.4310  0.4272 -0.3596
 4375SOL    HW124758   0.620   2.147   4.038 -1.3779 -0.2940 -0.0114
 4375SOL    HW224759   0.488   2.208   4.071  0.5579  0.6370  0.7412
 4376SOL     OW24760   3.462   0.255   4.109 -0.0541  0.1951 -0.2556
 4376SOL    HW124761   3.385   0.283   4.059  0.1828  0.6697 -0.3565
 4376SOL    HW224762   3.512   0.215   4.038  2.1197  0.8770  0.8787
 4377SOL     OW24763   1.154   2.379  16.546  0.2149  0.9299  0.1294
 4377SOL    HW124764   1.122   2.328  16.472  2.1237  2.2001 -1.5881
 4377SOL    HW224765   1.145   2.466  16.507 -1.4257  1.6555  2.1193
 4378SOL     OW24766   2.174   0.356  15.049  0.0071 -0.6227 -0.0545
 4378SOL    HW124767   2.204   0.416  15.117 -0.0477  0.6643 -1.1607
 4378SOL    HW224768   2.254   0.330  15.003  0.4403  0.5632  0.0357
 4379SOL     OW24769   1.060   4.508  13.867  0.2884  0.2576 -0.1834
 4379SOL    HW124770   1.128   4.482  13.929  0.0109 -2.3079 -0.9511
 4379SOL    HW224771   1.041   4.597  13.897 -0.5188  0.1116 -0.2749
 4380SOL     OW24772   3.662   3.658   6.288 -0.5064 -0.0059 -0.0130
 4380SOL    HW124773   3.572   3.636   6.261 -0.2625  0.2538 -1.0306
 4380SOL    HW224774   3.658   3.736   6.344 -1.3918  0.0312 -0.1208
 4381SOL     OW24775   3.336   1.119   7.862 -0.1942  0.1696  0.2654
 4381SOL    HW124776   3.274   1.101   7.934 -0.1107 -0.7377  0.1110
 4381SOL    HW224777   3.405   1.156   7.918 -0.3059  1.5062 -0.4864
 4382SOL     OW24778   0.960   1.795   1.137  0.3546  0.5338 -0.6131
 4382SOL    HW124779   0.940   1.877   1.184 -1.4226  0.1863 -0.7733
 4382SOL    HW224780   0.895   1.741   1.182  1.6223 -0.2389  0.3018
 4383SOL     OW24781   2.598   0.932   7.207  0.3996 -0.4604  0.4013
 4383SOL    HW124782   2.610   0.923   7.301 -1.5914 -0.2185  0.6809
 4383SOL    HW224783   2.508   0.901   7.191 -0.3386  1.5129  0.7003
 4384SOL     OW24784   2.829   3.042   6.025  0.5651 -0.2299 -0.0623
 4384SOL    HW124785   2.836   2.992   6.107  0.4343  0.6826  0.5111
 4384SOL    HW224786   2.920   3.066   6.007  1.0532 -2.5002 -0.6736
 4385SOL     OW24787   0.477   3.252   3.624 -0.5107  0.5416  0.1791
 4385SOL    HW124788   0.404   3.200   3.657 -0.6936 -0.8293 -2.3964
 4385SOL    HW224789   0.456   3.269   3.532 -0.2017 -1.0334 -0.1774
 4386SOL     OW24790   3.527   2.109   4.376  0.8844  0.2255  0.4114
 4386SOL    HW124791   3.464   2.175   4.345 -0.2892 -0.0238  2.2750
 4386SOL    HW224792   3.476   2.055   4.436  1.4566  0.5727  1.2135
 4387SOL     OW24793   3.233   1.553   8.993 -0.1502  0.2875  0.2337
 4387SOL    HW124794   3.251   1.536   9.085 -0.1496  0.4586  0.2636
 4387SOL    HW224795   3.143   1.522   9.003  0.5244 -1.4601  0.9241
 4388SOL     OW24796   1.601   0.026  10.563 -0.4847  0.0080  0.0119
 4388SOL    HW124797   1.623   0.064  10.479 -1.9132 -0.1208 -0.4101
 4388SOL    HW224798   1.675   0.058  10.615  0.3440 -0.8134 -0.6411
 4389SOL     OW24799   4.018   2.048   1.604  0.4275  0.2605  0.5186
 4389SOL    HW124800   4.085   2.021   1.541  0.0861  0.2684  0.1542
 4389SOL    HW224801   4.070   2.085   1.675  1.1281  0.4115 -0.0667
 4390SOL     OW24802   4.614   2.481  16.625  0.2538  0.8837 -0.1381
 4390SOL    HW124803   4.670   2.417  16.580 -0.6297  0.9067 -1.2542
 4390SOL    HW224804   4.536   2.426  16.619 -0.0494  1.2801  0.1768
 4391SOL     OW24805   3.966   0.608  14.904 -0.1201  0.6343  0.0096
 4391SOL    HW124806   4.005   0.654  14.829  1.0667 -1.5875 -0.7698
 4391SOL    HW224807   4.042   0.558  14.935 -1.2777 -0.7070  0.6998
 4392SOL     OW24808   0.816   0.881   7.931  0.2738  0.5336  0.3850
 4392SOL    HW124809   0.732   0.849   7.900  1.2004 -1.2422 -0.3296
 4392SOL    HW224810   0.871   0.803   7.926 -1.9145 -1.1295  2.2712
 4393SOL     OW24811   2.913   2.075   1.847  0.1049  0.3358 -0.2219
 4393SOL    HW124812   2.882   1.999   1.895  0.1238  1.6334  1.8627
 4393SOL    HW224813   2.836   2.095   1.793 -0.0221  0.6994  0.0960
 4394SOL     OW24814   3.370   1.936   4.870 -0.1790 -0.4963  0.3054
 4394SOL    HW124815   3.403   1.862   4.921  1.9031 -0.6573 -1.2609
 4394SOL    HW224816   3.328   1.887   4.799 -1.0247  0.3020  0.2544
 4395SOL     OW24817   1.576   4.248  16.981 -0.2124 -0.2622  0.3021
 4395SOL    HW124818   1.544   4.338  16.985 -0.9121 -0.4801 -0.4819
 4395SOL    HW224819   1.514   4.202  16.923  0.6284 -1.7014  0.5311
 4396SOL     OW24820   1.345   3.198  14.666 -0.5038  0.1146  0.4507
 4396SOL    HW124821   1.440   3.193  14.660 -0.4663  1.2066  0.2008
 4396SOL    HW224822   1.329   3.123  14.723  0.2994  0.0424  0.5757
 4397SOL     OW24823   2.256   1.332   3.369 -0.6835 -0.1615  0.7219
 4397SOL    HW124824   2.270   1.414   3.416 -1.8862 -0.8087  2.2129
 4397SOL    HW224825   2.161   1.325   3.360 -0.5887  0.5638 -0.8491
 4398SOL     OW24826   3.415   0.000  11.989  0.1105 -0.4937 -0.1933
 4398SOL    HW124827   3.484   0.029  12.049  0.2618 -0.1089 -0.5485
 4398SOL    HW224828   3.342   0.049  12.028  0.3361  0.3085 -0.7694
 4399SOL     OW24829   3.647   0.503   5.911 -0.1950  0.4604 -0.5754
 4399SOL    HW124830   3.741   0.500   5.894  0.0731 -0.4399  1.0569
 4399SOL    HW224831   3.622   0.445   5.983 -0.4246 -0.4468 -1.3810
 4400SOL     OW24832   3.271   0.269  15.532  0.0745  0.3156 -0.5915
 4400SOL    HW124833   3.288   0.361  15.551 -0.2119  0.6215 -1.8184
 4400SOL    HW224834   3.218   0.290  15.455 -1.2243  2.7618  0.9728
 4401SOL     OW24835   1.874   3.886   7.412 -0.3551 -0.5519  0.4986
 4401SOL    HW124836   1.787   3.891   7.372  0.6244 -2.1809 -1.8443
 4401SOL    HW224837   1.919   3.951   7.359 -0.9437  0.6714  1.4994
 4402SOL     OW24838   1.844   1.300   6.412  0.2058  0.2812 -0.1173
 4402SOL    HW124839   1.834   1.207   6.428  0.1718  0.4422  0.7926
 4402SOL    HW224840   1.754   1.320   6.386 -0.6191 -2.1564  0.9137
 4403SOL     OW24841   3.695   3.831   1.815 -0.3019 -0.0751  0.2034
 4403SOL    HW124842   3.746   3.882   1.752 -0.5797 -0.0318  0.0147
 4403SOL    HW224843   3.622   3.889   1.837  0.8249  0.5981  2.1056
 4404SOL     OW24844   1.283   2.799   5.677 -0.0982 -0.0235 -0.0944
 4404SOL    HW124845   1.251   2.821   5.765  0.5462 -0.0386  0.1407
 4404SOL    HW224846   1.283   2.705   5.692  2.9436 -0.3077 -1.8950
 4405SOL     OW24847   0.956   0.470  14.869 -0.6308  0.5595  0.7732
 4405SOL    HW124848   1.028   0.532  14.858  1.5077 -1.8948  1.1224
 4405SOL    HW224849   0.883   0.527  14.894 -0.3822  1.7506 -1.2653
 4406SOL     OW24850   3.911   4.229   3.865 -0.2290  0.3597 -0.4219
 4406SOL    HW124851   3.847   4.207   3.933  0.8756 -2.0920 -0.1622
 4406SOL    HW224852   3.865   4.199   3.786  2.0748 -0.3502 -1.5178
 4407SOL     OW24853   2.723   2.258  10.588  0.6417  0.0783 -0.5001
 4407SOL    HW124854   2.667   2.299  10.654  0.9375  0.9427 -0.7775
 4407SOL    HW224855   2.807   2.303  10.601  0.8177 -0.1431 -0.8653
 4408SOL     OW24856   0.209   2.828   4.872 -0.2029  0.3071 -0.0498
 4408SOL    HW124857   0.261   2.905   4.847  2.6523 -1.1971  1.2427
 4408SOL    HW224858   0.205   2.798   4.782 -1.2094 -0.4493  0.2556
 4409SOL     OW24859   3.615   3.752   4.394 -0.4138 -0.3047 -0.4407
 4409SOL    HW124860   3.645   3.770   4.305  0.5800  0.4601  0.0502
 4409SOL    HW224861   3.657   3.667   4.405 -0.3141  0.0044  1.5334
 4410SOL     OW24862   3.969   2.425  13.627 -0.2247 -0.1657 -0.2100
 4410SOL    HW124863   3.926   2.392  13.706  0.8783 -0.4674  0.2687
 4410SOL    HW224864   3.894   2.449  13.573 -0.8702 -0.9842  0.3278
 4411SOL     OW24865   3.667   4.363   4.549  0.1585 -0.5762  0.3689
 4411SOL    HW124866   3.679   4.356   4.455 -3.0845  0.3558 -0.1269
 4411SOL    HW224867   3.580   4.323   4.558 -1.6489  2.6114 -3.2307
 4412SOL     OW24868   4.428   1.701   8.675  0.2610 -0.3072  0.1233
 4412SOL    HW124869   4.427   1.676   8.768  1.5001 -0.2181  0.1555
 4412SOL    HW224870   4.513   1.743   8.666 -0.1326 -0.1761 -2.8052
 4413SOL     OW24871   1.514   2.970   7.797 -0.1073 -0.2008 -0.0601
 4413SOL    HW124872   1.547   2.914   7.726  0.6332 -0.2518  0.3249
 4413SOL    HW224873   1.424   2.937   7.796 -1.1178  2.5619  1.3925
 4414SOL     OW24874   0.494   0.948   0.006 -0.3886 -0.6213 -0.0984
 4414SOL    HW124875   0.501   0.938   0.101  0.8757  1.1690 -0.0122
 4414SOL    HW224876   0.428   1.017   0.010 -1.6830 -1.8851  0.4138
 4415SOL     OW24877   3.161   0.671   3.676  0.1593 -0.1290 -0.4208
 4415SOL    HW124878   3.137   0.616   3.602  0.2852  1.1912 -1.4423
 4415SOL    HW224879   3.185   0.603   3.740  0.0852  0.5764  0.3650
 4416SOL     OW24880   3.527   2.235   6.380 -0.3704  0.0002 -0.5182
 4416SOL    HW124881   3.439   2.263   6.355 -1.2770 -1.8971  0.5141
 4416SOL    HW224882   3.498   2.170   6.444  2.4965  0.4431  1.2214
 4417SOL     OW24883   0.514   2.918   8.830  0.1937 -0.0820 -0.0749
 4417SOL    HW124884   0.529   3.012   8.820  1.6119 -0.1213  1.8167
 4417SOL    HW224885   0.608   2.900   8.829  0.4226  1.2269 -2.2959
 4418SOL     OW24886   3.665   1.158   3.393  0.2529  0.6993 -0.0826
 4418SOL    HW124887   3.591   1.116   3.437  1.6190  1.4110  2.8856
 4418SOL    HW224888   3.724   1.182   3.464 -1.6115  0.1967  1.6223
 4419SOL     OW24889   4.182   0.846  13.564 -0.7703  0.1943 -0.1691
 4419SOL    HW124890   4.108   0.874  13.618  1.1454  1.5166  1.7962
 4419SOL    HW224891   4.148   0.763  13.531 -0.4642 -0.5173  1.2970
 4420SOL     OW24892   1.788   2.017   5.238 -0.0703 -0.1843  0.7298
 4420SOL    HW124893   1.737   2.066   5.302  0.1267 -0.6617  1.2512
 4420SOL    HW224894   1.721   2.016   5.171  0.2772  1.7956  0.3420
 4421SOL     OW24895   1.933   2.458  13.432 -0.0921  0.2491  0.0991
 4421SOL    HW124896   1.861   2.397  13.423  1.7678 -1.8125 -0.7929
 4421SOL    HW224897   1.961   2.429  13.519  0.5420 -1.8401 -0.7983
 4422SOL     OW24898   1.582   1.519  16.511  0.0194 -0.2231  0.0888
 4422SOL    HW124899   1.635   1.599  16.511  0.4386 -0.5071 -1.2940
 4422SOL    HW224900   1.508   1.553  16.562 -1.7076 -0.9577 -1.9132
 4423SOL     OW24901   2.838   4.213   1.270  0.5488 -0.2366  0.3989
 4423SOL    HW124902   2.753   4.215   1.315  1.3087 -0.0198  1.8186
 4423SOL    HW224903   2.886   4.140   1.309  0.5313 -1.3715 -1.7199
 4424SOL     OW24904   1.630   2.116   7.246  0.0203  0.8284  0.0174
 4424SOL    HW124905   1.625   2.027   7.211  0.7666  0.7047  0.2378
 4424SOL    HW224906   1.669   2.097   7.332 -0.3090 -1.3250 -0.2920
 4425SOL     OW24907   3.980   0.200   8.016  0.5081  0.2167  0.3152
 4425SOL    HW124908   3.941   0.119   7.983 -0.8637  0.4225  1.4747
 4425SOL    HW224909   4.012   0.173   8.102  1.6136 -2.2262 -0.8292
 4426SOL     OW24910   1.206   1.843   4.791 -0.3211  0.6639  0.4928
 4426SOL    HW124911   1.145   1.873   4.725 -0.8173  0.8927  1.0582
 4426SOL    HW224912   1.160   1.873   4.869 -1.4938  1.0803 -0.3662
 4427SOL     OW24913   3.188   3.854   8.304 -0.2398 -0.0856 -0.0552
 4427SOL    HW124914   3.183   3.950   8.309 -0.4572 -0.1020  0.0261
 4427SOL    HW224915   3.098   3.824   8.314 -0.4554 -0.0644 -1.8718
 4428SOL     OW24916   4.041   3.666  12.291  0.1457  0.0348 -0.0721
 4428SOL    HW124917   4.012   3.724  12.222 -0.5354  1.3767  1.3447
 4428SOL    HW224918   4.104   3.728  12.329  0.1096 -0.7660  1.3219
 4429SOL     OW24919   2.380   1.862   7.787 -0.3976  0.3866 -0.2396
 4429SOL    HW124920   2.458   1.917   7.791 -2.0981  2.6981  0.9890
 4429SOL    HW224921   2.415   1.774   7.802 -1.2276  0.2728  1.0760
 4430SOL     OW24922   3.349   1.342   4.983 -0.1709  0.2696  0.6279
 4430SOL    HW124923   3.335   1.249   4.966  1.7096  0.1370 -0.1388
 4430SOL    HW224924   3.265   1.384   4.962 -0.1069 -0.4827 -1.1540
 4431SOL     OW24925   1.769   1.445   5.213 -0.4750  0.2112  0.1426
 4431SOL    HW124926   1.768   1.539   5.230 -1.9550  0.2536 -0.1737
 4431SOL    HW224927   1.796   1.412   5.298 -1.0106  2.5913  1.2309
 4432SOL     OW24928   0.948   4.216  10.192 -0.4410  0.1857 -0.0508
 4432SOL    HW124929   0.952   4.235  10.286  0.7300 -2.0435  0.3676
 4432SOL    HW224930   0.856   4.192  10.186 -0.2182 -0.3868 -1.1553
 4433SOL     OW24931   3.336   3.753   0.526  0.1584  0.2062 -0.8967
 4433SOL    HW124932   3.305   3.841   0.501  0.7190 -0.3063 -3.3649
 4433SOL    HW224933   3.355   3.776   0.617 -1.1711  1.2850 -0.8828
 4434SOL     OW24934   0.364   3.995  14.891 -0.2126 -0.0430  0.0741
 4434SOL    HW124935   0.275   4.019  14.917 -0.0716 -0.3285  0.8103
 4434SOL    HW224936   0.418   4.071  14.915  0.9673 -0.5462 -1.0126
 4435SOL     OW24937   1.504   4.376  10.082 -0.3195 -0.2290  0.3637
 4435SOL    HW124938   1.469   4.363  10.170  0.2543 -0.4082  0.5658
 4435SOL    HW224939   1.558   4.453  10.097 -0.7067 -0.3785  2.4708
 4436SOL     OW24940   4.536   2.139   0.910 -0.1590 -0.3450 -0.1057
 4436SOL    HW124941   4.580   2.102   0.986  1.0919 -3.4502 -2.3361
 4436SOL    HW224942   4.563   2.081   0.838  1.4554  0.9351 -0.5302
 4437SOL     OW24943   3.841   2.031   5.594 -0.2125 -0.7972 -0.5486
 4437SOL    HW124944   3.897   2.091   5.643 -0.5570 -0.1670 -0.9325
 4437SOL    HW224945   3.824   2.088   5.519 -1.9688 -0.1437  0.3277
 4438SOL     OW24946   0.082   1.521   8.359 -0.7328 -0.0339 -0.4437
 4438SOL    HW124947   0.088   1.513   8.264  2.0516  2.0171 -0.4429
 4438SOL    HW224948   0.162   1.573   8.370 -0.5891 -0.4221  0.2949
 4439SOL     OW24949   1.293   3.602   2.692 -0.0740  0.4388  0.0429
 4439SOL    HW124950   1.279   3.690   2.728  2.0159  1.9002 -2.7186
 4439SOL    HW224951   1.201   3.593   2.667 -0.0675 -0.2512  0.2885
 4440SOL     OW24952   2.708   3.032   5.182  0.7842  0.0599 -0.4439
 4440SOL    HW124953   2.647   2.958   5.177 -0.0294  0.7647 -0.7982
 4440SOL    HW224954   2.739   3.032   5.273  1.3355 -0.5181 -0.6358
 4441SOL     OW24955   4.452   1.631   4.585 -0.8764  0.5956  0.1037
 4441SOL    HW124956   4.525   1.595   4.535 -0.5313  1.4225  0.0081
 4441SOL    HW224957   4.388   1.602   4.520 -3.7333 -1.6148  3.8718
 4442SOL     OW24958   2.598   0.363  12.188 -0.9045  0.1519  0.0523
 4442SOL    HW124959   2.614   0.448  12.146 -2.6190  1.3052  1.7353
 4442SOL    HW224960   2.685   0.323  12.188 -0.7722  0.4148  2.0062
 4443SOL     OW24961   1.990   3.377   7.433  0.6877  0.0369 -0.4332
 4443SOL    HW124962   2.039   3.451   7.468  1.7239  0.0031 -1.8322
 4443SOL    HW224963   1.938   3.350   7.509  1.6623  1.2062  0.6490
 4444SOL     OW24964   4.190   0.462   2.305 -0.7715 -0.5536  0.2472
 4444SOL    HW124965   4.174   0.438   2.396  1.4500  2.6850  1.4924
 4444SOL    HW224966   4.238   0.544   2.318 -1.8234 -0.0899  1.1921
 4445SOL     OW24967   3.994   0.940   4.792 -0.1146 -0.3253 -0.2690
 4445SOL    HW124968   3.952   0.871   4.740  1.0159 -0.8691 -0.4575
 4445SOL    HW224969   3.986   0.905   4.881  1.2979 -1.4813 -0.5927
 4446SOL     OW24970   0.169   3.195   9.458 -0.1324  0.0192 -0.1730
 4446SOL    HW124971   0.203   3.111   9.488  1.0545  0.2498 -0.8782
 4446SOL    HW224972   0.215   3.256   9.517 -1.0024  0.6527 -0.1501
 4447SOL     OW24973   0.406   3.573   0.892 -0.1633 -0.8471 -0.3634
 4447SOL    HW124974   0.415   3.564   0.797  0.8019 -0.2172 -0.3390
 4447SOL    HW224975   0.313   3.595   0.889  0.2013  0.8667  0.4166
 4448SOL     OW24976   4.080   2.157   5.554 -0.1439 -0.2863  0.9643
 4448SOL    HW124977   4.121   2.237   5.585 -3.2765  1.0038  1.8048
 4448SOL    HW224978   4.093   2.178   5.462  0.2149  0.5248  1.2036
 4449SOL     OW24979   1.543   4.050  10.293 -0.3261  0.6356 -0.5550
 4449SOL    HW124980   1.585   4.135  10.306 -1.8945  0.9656  2.4689
 4449SOL    HW224981   1.560   4.002  10.374 -1.8065  0.6727 -0.2120
 4450SOL     OW24982   0.942   0.869   2.909  0.3843  0.3816 -0.4260
 4450SOL    HW124983   0.866   0.911   2.948  1.4553  2.2564 -0.3459
 4450SOL    HW224984   1.010   0.937   2.904  0.1607  0.6651  0.3787
 4451SOL     OW24985   1.210   1.956   5.144 -0.0891 -0.1681 -0.2342
 4451SOL    HW124986   1.278   1.915   5.198 -1.0672 -0.3263  0.8811
 4451SOL    HW224987   1.246   2.045   5.150 -1.1050  0.3109 -1.3765
 4452SOL     OW24988   1.156   4.487  11.336  0.2323 -0.2667 -0.5372
 4452SOL    HW124989   1.120   4.571  11.309  0.1216 -0.8428 -2.1956
 4452SOL    HW224990   1.205   4.501  11.417 -1.0007  1.9458 -0.1836
 4453SOL     OW24991   2.156   3.622  15.685  0.4548 -1.0142  0.1353
 4453SOL    HW124992   2.159   3.657  15.596  0.4380  1.2916  1.0391
 4453SOL    HW224993   2.180   3.532  15.663  1.5919 -1.0563  1.5708
 4454SOL     OW24994   0.306   3.817   4.244  0.3778 -0.5061 -0.0779
 4454SOL    HW124995   0.266   3.891   4.291 -5.0319 -2.1692 -2.1392
 4454SOL    HW224996   0.234   3.794   4.187 -0.8278  1.5790  0.5857
 4455SOL     OW24997   4.141   3.303   8.297 -0.2389 -0.3384 -0.5915
 4455SOL    HW124998   4.098   3.243   8.236 -1.2132  1.0318 -1.2510
 4455SOL    HW224999   4.107   3.390   8.276 -2.8081 -1.5361 -1.4857
 4456SOL     OW25000   4.341   4.401  12.282 -0.1966  0.1192  0.1994
 4456SOL    HW125001   4.299   4.426  12.200 -2.2079 -1.0461  0.8800
 4456SOL    HW225002   4.284   4.453  12.339  1.0068  0.9798  0.6499
 4457SOL     OW25003   0.268   4.704   8.736 -0.3197 -0.5501 -0.6491
 4457SOL    HW125004   0.289   0.049   8.696 -0.8763 -0.6512 -1.1502
 4457SOL    HW225005   0.258   4.647   8.660 -0.1795  0.0440 -1.1096
 4458SOL     OW25006   0.440   1.746   7.732  0.1731 -0.6798 -0.6650
 4458SOL    HW125007   0.471   1.707   7.651 -0.3933  1.0911 -1.7330
 4458SOL    HW225008   0.360   1.791   7.706  1.1652  1.2057 -0.5431
 4459SOL     OW25009   0.691   3.423   2.509 -0.0579 -0.2070  0.2029
 4459SOL    HW125010   0.702   3.487   2.579  0.2002 -0.7121  0.6281
 4459SOL    HW225011   0.602   3.432   2.476 -0.7432 -0.5684  1.9505
 4460SOL     OW25012   4.569   2.858   4.155 -0.2000  0.0066 -0.7948
 4460SOL    HW125013   4.523   2.940   4.173 -1.8517 -1.0000 -0.3131
 4460SOL    HW225014   4.650   2.870   4.203 -1.0815 -1.9747  1.2081
 4461SOL     OW25015   2.860   0.450  10.289  0.1344  0.1388  0.4728
 4461SOL    HW125016   2.935   0.402  10.255 -0.8807 -0.7953 -0.4416
 4461SOL    HW225017   2.837   0.385  10.357 -0.7191  1.3276  1.3350
 4462SOL     OW25018   0.946   2.895   3.613  0.0393 -0.6857 -0.2225
 4462SOL    HW125019   0.941   2.799   3.615 -1.2634 -0.5537  1.7651
 4462SOL    HW225020   1.013   2.918   3.677  0.3139 -1.8373 -0.0912
 4463SOL     OW25021   3.057   3.302   6.930  0.5886 -0.1901 -0.7565
 4463SOL    HW125022   3.015   3.217   6.945 -0.9899  1.0727  2.1075
 4463SOL    HW225023   3.055   3.304   6.835 -2.8043 -1.1236 -0.6947
 4464SOL     OW25024   3.803   0.884   3.884  0.0372 -0.5001  0.2554
 4464SOL    HW125025   3.772   0.799   3.854  1.6667 -1.6622  1.8707
 4464SOL    HW225026   3.892   0.902   3.857  0.4412  1.8969  3.1440
 4465SOL     OW25027   0.479   1.200  15.048  0.4465 -0.4020 -0.0044
 4465SOL    HW125028   0.545   1.239  15.106 -0.3694  0.3133  0.4507
 4465SOL    HW225029   0.462   1.280  14.999 -1.2195 -0.6780  0.1328
 4466SOL     OW25030   0.332   2.116  11.740 -0.4110 -0.2960 -0.7787
 4466SOL    HW125031   0.407   2.147  11.792 -0.2731 -1.0470 -0.5333
 4466SOL    HW225032   0.273   2.186  11.767  0.5575  0.5172 -0.7369
 4467SOL     OW25033   4.190   0.986   4.362 -0.4860 -0.2857 -0.1429
 4467SOL    HW125034   4.237   0.926   4.420  1.3152  1.4971  0.2519
 4467SOL    HW225035   4.099   0.962   4.375 -0.1163 -0.5960  1.9732
 4468SOL     OW25036   2.577   0.186   1.471 -0.1491  0.5239 -0.0972
 4468SOL    HW125037   2.636   0.112   1.457  3.0211  2.6665  1.7757
 4468SOL    HW225038   2.590   0.232   1.388  3.0661  0.5762  0.4312
 4469SOL     OW25039   4.524   3.878   6.333  0.4904  0.2941  0.2345
 4469SOL    HW125040   4.472   3.809   6.376 -0.7333 -0.4137 -2.3581
 4469SOL    HW225041   4.515   3.847   6.243 -1.2068  0.0820  0.4711
 4470SOL     OW25042   0.104   1.931  14.054 -0.0683  0.0302  0.0641
 4470SOL    HW125043   0.110   1.974  13.969 -1.8694 -0.7311 -0.4501
 4470SOL    HW225044   0.043   1.861  14.030  1.1458 -0.9088 -0.2778
 4471SOL     OW25045   4.548   1.504  17.349  0.1797 -0.3031 -0.3791
 4471SOL    HW125046   4.609   1.452  17.298  1.1430 -0.9794  1.4730
 4471SOL    HW225047   4.603   1.582  17.354 -0.5150  0.1118  0.9208
 4472SOL     OW25048   4.293   3.607  16.351 -0.0667 -0.1338 -1.1318
 4472SOL    HW125049   4.364   3.670  16.366 -0.5036 -0.5429  2.5481
 4472SOL    HW225050   4.343   3.527  16.334  0.2833 -0.3698  1.0703
 4473SOL     OW25051   3.357   0.248   2.519  0.2049  0.2379  0.1222
 4473SOL    HW125052   3.319   0.179   2.464  1.0196  0.6590 -0.9891
 4473SOL    HW225053   3.391   0.183   2.580 -2.3205 -2.0115 -0.8867
 4474SOL     OW25054   0.496   0.514   4.711  0.4983 -0.1085  0.6081
 4474SOL    HW125055   0.525   0.444   4.652  0.4258  0.4777 -0.1294
 4474SOL    HW225056   0.561   0.496   4.778  2.0083 -1.5597 -1.2477
 4475SOL     OW25057   3.133   3.807   2.760 -0.1004 -0.4854 -0.1048
 4475SOL    HW125058   3.179   3.748   2.701 -2.7337 -1.4586 -1.1677
 4475SOL    HW225059   3.041   3.782   2.746 -0.2419  0.6568 -1.2249
 4476SOL     OW25060   2.324   1.159   4.973 -0.3301  0.1611  0.0626
 4476SOL    HW125061   2.250   1.123   5.021  1.0543  0.7629  2.6478
 4476SOL    HW225062   2.275   1.232   4.937  0.2711 -0.9596 -3.0658
 4477SOL     OW25063   1.811   0.195   6.123 -0.1689  0.3102 -0.3952
 4477SOL    HW125064   1.823   0.135   6.196 -2.1463  0.1400 -0.2238
 4477SOL    HW225065   1.893   0.244   6.132  1.1194 -2.1246  1.0152
 4478SOL     OW25066   0.915   4.421   1.857 -0.3118  0.0951  0.4877
 4478SOL    HW125067   0.927   4.506   1.899 -1.3303 -0.5993  2.1814
 4478SOL    HW225068   0.897   4.452   1.768 -2.6273 -2.6577 -0.0277
 4479SOL     OW25069   2.236   0.173   7.129 -0.7438 -0.2357 -0.0481
 4479SOL    HW125070   2.324   0.197   7.102 -0.1621 -2.4934 -0.1131
 4479SOL    HW225071   2.180   0.212   7.061 -0.8728 -0.6523 -0.1823
 4480SOL     OW25072   0.285   2.754  12.469 -0.6175 -0.2483 -0.2423
 4480SOL    HW125073   0.220   2.790  12.409 -1.0097  2.8542  2.0412
 4480SOL    HW225074   0.358   2.756  12.408 -0.8151  1.7140 -0.4154
 4481SOL     OW25075   1.917   2.000   2.906  0.1729  0.4043  0.3151
 4481SOL    HW125076   1.822   2.008   2.899 -0.0428 -1.2543  1.4125
 4481SOL    HW225077   1.937   2.023   2.815  0.1344  0.0897  0.2264
 4482SOL     OW25078   3.140   3.805   1.713 -0.2322  0.1939 -0.0185
 4482SOL    HW125079   3.146   3.768   1.624  1.9302 -1.4103  0.7977
 4482SOL    HW225080   3.196   3.753   1.770  0.5910  0.0648 -0.9450
 4483SOL     OW25081   2.123   2.387   6.968 -0.5789 -0.7435 -0.3308
 4483SOL    HW125082   2.190   2.435   7.017  0.9146 -2.9511 -0.1865
 4483SOL    HW225083   2.179   2.315   6.939  0.6813  0.1806 -0.1934
 4484SOL     OW25084   1.185   1.437   5.958  0.5217 -0.2566 -0.3232
 4484SOL    HW125085   1.153   1.527   5.955 -0.6371 -0.6943 -1.1888
 4484SOL    HW225086   1.123   1.392   5.901 -0.3289 -0.0682  0.4535
 4485SOL     OW25087   4.715   0.275   3.377 -0.4300 -0.1016 -0.2818
 4485SOL    HW125088   4.630   0.262   3.419  0.4754 -0.7434  1.3783
 4485SOL    HW225089   4.705   0.345   3.313 -2.2167 -0.3128 -0.2236
 4486SOL     OW25090   2.800   2.466  10.024 -0.6196  0.4474  0.9150
 4486SOL    HW125091   2.772   2.533   9.962 -0.0586  2.8965  3.3367
 4486SOL    HW225092   2.893   2.485  10.012 -0.0378 -2.5266  0.5973
 4487SOL     OW25093   2.691   0.922  17.547  0.1530 -0.1582  0.2652
 4487SOL    HW125094   2.744   0.842  17.538  3.5587  2.0340  0.9988
 4487SOL    HW225095   2.697   0.969  17.464  2.4393  1.1477  1.1857
 4488SOL     OW25096   4.613   1.960   0.156 -0.5639  0.0963  0.3796
 4488SOL    HW125097   4.605   2.013   0.076  0.1671  1.3299  1.1287
 4488SOL    HW225098   4.523   1.950   0.186 -0.1603  0.6187  1.7651
 4489SOL     OW25099   1.737   2.587   9.255 -0.1424  0.5303  0.6800
 4489SOL    HW125100   1.800   2.538   9.309 -0.9685 -0.5023  0.6998
 4489SOL    HW225101   1.806   2.644   9.220  1.3281 -1.6966 -0.0596
 4490SOL     OW25102   0.849   0.617  17.648  0.1561  0.2888  0.2514
 4490SOL    HW125103   0.825   0.547  17.587  0.4142  0.1866  0.2695
 4490SOL    HW225104   0.783   0.686  17.653 -2.4216 -2.0661 -0.9876
 4491SOL     OW25105   3.142   0.974   2.984 -0.2280 -0.0377  0.1472
 4491SOL    HW125106   3.099   1.040   2.930 -0.3170 -1.6493 -1.7395
 4491SOL    HW225107   3.124   1.016   3.068  0.3707 -1.2510  0.8785
 4492SOL     OW25108   3.990   1.101   5.482  0.4140 -0.0682  0.7686
 4492SOL    HW125109   4.034   1.167   5.537 -0.0010 -0.3503  1.4406
 4492SOL    HW225110   4.001   1.151   5.401 -1.5617  1.5148  1.4875
 4493SOL     OW25111   4.289   3.068   4.201 -0.0985 -0.4846 -0.4985
 4493SOL    HW125112   4.365   3.120   4.228 -1.0488  0.4744  0.3610
 4493SOL    HW225113   4.255   3.033   4.284 -1.5563  1.1548 -0.3967
 4494SOL     OW25114   1.073   0.799   9.861  0.1549  0.2118 -0.1017
 4494SOL    HW125115   1.025   0.724   9.898  1.8165 -0.9115 -0.2301
 4494SOL    HW225116   1.099   0.852   9.936  1.2952 -0.1137 -0.2657
 4495SOL     OW25117   0.909   4.701  10.992  0.4288 -0.0757 -0.2689
 4495SOL    HW125118   0.839   4.705  11.057  1.4124 -0.2457  0.8018
 4495SOL    HW225119   0.955   0.042  11.016  1.0992 -0.3756 -0.5483
 4496SOL     OW25120   2.010   3.606   2.600  0.3531 -0.6309 -0.1794
 4496SOL    HW125121   2.022   3.631   2.691 -1.4556  0.5132 -0.2562
 4496SOL    HW225122   1.925   3.648   2.584  0.4502 -0.3767 -0.0068
 4497SOL     OW25123   4.465   1.043   3.294  0.6292 -0.0559 -0.2344
 4497SOL    HW125124   4.420   1.104   3.353  0.4615 -1.7724  1.4245
 4497SOL    HW225125   4.555   1.062   3.320  0.0253 -1.7493  3.1956
 4498SOL     OW25126   2.415   3.306   1.591  0.2736  0.3127 -0.3078
 4498SOL    HW125127   2.340   3.300   1.530 -0.3453 -0.6790  0.5537
 4498SOL    HW225128   2.377   3.375   1.645  1.0883 -0.3929  1.1348
 4499SOL     OW25129   3.324   2.284   3.098  0.0739 -0.5099  0.1966
 4499SOL    HW125130   3.295   2.274   3.189  0.7563 -1.4854  0.3107
 4499SOL    HW225131   3.377   2.205   3.086  0.8901  0.3758 -2.0684
 4500SOL     OW25132   0.812   2.843   1.000 -0.4888  0.0158 -0.2717
 4500SOL    HW125133   0.878   2.782   0.966  0.4585 -0.9260  3.3260
 4500SOL    HW225134   0.734   2.795   0.969 -2.4951  3.9274 -1.3091
 4501SOL     OW25135   0.510   0.738  11.448  0.1352  0.2929 -0.0602
 4501SOL    HW125136   0.491   0.807  11.511 -0.1611 -1.2581  1.5570
 4501SOL    HW225137   0.536   0.802  11.382  0.9686  0.3821  0.3592
 4502SOL     OW25138   4.038   2.171   9.261 -0.0709 -0.5622  0.2804
 4502SOL    HW125139   4.013   2.176   9.353  1.5620  2.7787  0.5476
 4502SOL    HW225140   3.963   2.114   9.244 -0.3584  0.3427 -1.5223
 4503SOL     OW25141   2.417   3.184   0.148  0.2921 -0.2769 -0.0464
 4503SOL    HW125142   2.395   3.114   0.086  2.1479 -1.1424  0.2664
 4503SOL    HW225143   2.508   3.198   0.123 -0.1783  0.1323 -1.5473
 4504SOL     OW25144   1.880   4.376  17.611  0.0473  0.1622  0.3896
 4504SOL    HW125145   1.959   4.393  17.559  0.7802 -2.4286  0.6741
 4504SOL    HW225146   1.853   4.464  17.637  0.3631  0.4877 -0.3438
 4505SOL     OW25147   3.139   0.162   5.294  0.1462  0.1784  0.1852
 4505SOL    HW125148   3.074   0.128   5.356 -0.2753  1.3364  0.3897
 4505SOL    HW225149   3.207   0.095   5.295  0.0166  0.0261 -1.5791
 4506SOL     OW25150   1.683   0.860  13.711 -0.0585  0.0035  0.2411
 4506SOL    HW125151   1.735   0.883  13.635 -1.5209  0.9695 -0.4557
 4506SOL    HW225152   1.595   0.877  13.676 -0.8528 -0.0963  2.1775
 4507SOL     OW25153   3.135   4.351   4.081 -0.8389  0.3211  0.0971
 4507SOL    HW125154   3.052   4.327   4.123  0.9834 -0.6678  3.0822
 4507SOL    HW225155   3.205   4.299   4.118 -2.3117 -2.7301 -1.4053
 4508SOL     OW25156   0.281   2.446   1.794 -0.3485 -0.2425 -0.3780
 4508SOL    HW125157   0.306   2.412   1.879  0.6955  1.0761 -0.1575
 4508SOL    HW225158   0.226   2.518   1.825  0.3108 -0.0464  0.3243
 4509SOL     OW25159   1.215   2.709   9.443 -0.2684 -0.3185 -0.4182
 4509SOL    HW125160   1.194   2.711   9.537 -0.2351 -0.0586 -0.4181
 4509SOL    HW225161   1.143   2.763   9.413 -1.3509 -1.2250  0.5400
 4510SOL     OW25162   1.589   1.377   1.496 -0.1503  0.1797 -0.1280
 4510SOL    HW125163   1.506   1.406   1.534 -0.3929  1.4172 -1.6598
 4510SOL    HW225164   1.619   1.451   1.444 -0.8341  0.4342 -0.1594
 4511SOL     OW25165   3.920   0.404   7.608  0.4028  0.6031  0.4221
 4511SOL    HW125166   3.948   0.486   7.568 -0.1327  2.3874  3.7120
 4511SOL    HW225167   3.868   0.432   7.684  0.4493 -0.1810  0.7463
 4512SOL     OW25168   4.075   1.069   7.657  0.4329 -0.2950  0.2002
 4512SOL    HW125169   4.061   0.981   7.691 -1.0651 -0.8688 -1.9096
 4512SOL    HW225170   4.082   1.115   7.740  0.1611  1.3158 -0.6736
 4513SOL     OW25171   1.433   3.221   4.662  0.6412 -0.2702 -0.5941
 4513SOL    HW125172   1.391   3.164   4.598 -1.9811  0.4968  0.4326
 4513SOL    HW225173   1.462   3.296   4.610  2.2870  0.4342  1.3581
 4514SOL     OW25174   4.386   1.102   8.824 -0.1392 -0.4117  0.6312
 4514SOL    HW125175   4.453   1.060   8.879 -0.1945 -1.2132  0.0889
 4514SOL    HW225176   4.433   1.117   8.742 -0.7188 -4.0080 -0.3729
 4515SOL     OW25177   1.818   4.125   1.080  0.2065 -0.2620 -0.3318
 4515SOL    HW125178   1.862   4.047   1.112  2.5310  1.8215  1.5812
 4515SOL    HW225179   1.871   4.147   1.002 -0.5238 -1.3580 -1.1314
 4516SOL     OW25180   1.240   1.739   8.203  0.0063 -0.8001  0.4461
 4516SOL    HW125181   1.277   1.822   8.173 -1.7795  0.1629  0.9132
 4516SOL    HW225182   1.173   1.792   8.246 -0.6598 -2.1624  1.0699
 4517SOL     OW25183   4.602   4.591  13.127 -0.5829 -0.3417  0.2432
 4517SOL    HW125184   4.551   4.518  13.161 -2.0034 -0.2114 -1.5917
 4517SOL    HW225185   4.683   4.583  13.176  0.9164  0.0460 -2.1917
 4518SOL     OW25186   2.684   2.232   3.946  0.0396 -0.1382  0.1371
 4518SOL    HW125187   2.612   2.269   3.999 -0.3652  0.5219 -0.8662
 4518SOL    HW225188   2.635   2.168   3.895 -0.2690 -1.5849  2.2661
 4519SOL     OW25189   4.201   3.836   8.182 -0.2581 -0.7935  0.2255
 4519SOL    HW125190   4.261   3.835   8.106 -0.1839  0.3484  0.2769
 4519SOL    HW225191   4.215   3.919   8.227  0.6855 -0.5024 -0.6007
 4520SOL     OW25192   1.661   4.196  12.961 -0.3535 -0.3012  0.4095
 4520SOL    HW125193   1.604   4.185  12.885  0.0562 -1.9363  0.3222
 4520SOL    HW225194   1.649   4.104  12.986 -2.1310 -0.4400 -0.9347
 4521SOL     OW25195   3.178   4.008   7.496  0.1693  0.7297 -0.1407
 4521SOL    HW125196   3.271   4.006   7.473  0.5067  0.1690  1.2433
 4521SOL    HW225197   3.171   4.086   7.551 -1.4213  0.7767 -0.4123
 4522SOL     OW25198   4.723   1.981  12.751  0.3973  0.0232 -0.0568
 4522SOL    HW125199   4.659   1.916  12.719  1.2584 -0.0240 -1.6890
 4522SOL    HW225200   0.065   1.960  12.705  1.4769  0.0516  1.8600
 4523SOL     OW25201   3.432   1.754   9.281 -0.2885  0.3995  0.8847
 4523SOL    HW125202   3.464   1.787   9.197 -0.6563 -2.0277 -0.2092
 4523SOL    HW225203   3.504   1.695   9.303  0.0654  0.0980 -1.0619
 4524SOL     OW25204   4.299   2.406   9.349  0.3429  0.4813  0.1874
 4524SOL    HW125205   4.228   2.411   9.284 -0.0150  0.9236  0.6160
 4524SOL    HW225206   4.266   2.341   9.412 -4.2181  2.0262 -0.5924
 4525SOL     OW25207   3.623   2.612   8.855  0.5703  0.4610  0.0804
 4525SOL    HW125208   3.636   2.552   8.781  3.1781  1.2182 -0.0594
 4525SOL    HW225209   3.712   2.625   8.887  1.1660 -2.3053 -0.4299
 4526SOL     OW25210   2.505   0.604  16.797  0.4902 -0.2953  0.2183
 4526SOL    HW125211   2.524   0.694  16.822  0.2230  0.0737 -0.9044
 4526SOL    HW225212   2.443   0.620  16.726  0.3808  0.3824  0.4715
 4527SOL     OW25213   3.748   3.366  13.002 -0.0797  0.3225  0.1427
 4527SOL    HW125214   3.688   3.339  13.071 -0.2222  0.9600  0.2665
 4527SOL    HW225215   3.814   3.424  13.040 -0.4106  1.1294 -0.5041
 4528SOL     OW25216   4.509   3.962  12.920  0.5645  0.1718 -0.2481
 4528SOL    HW125217   4.577   3.993  12.860  1.4899 -0.0282  0.7007
 4528SOL    HW225218   4.570   3.953  12.993  1.3732 -2.7634 -1.2738
 4529SOL     OW25219   3.903   4.383   5.692  0.4219 -0.0555  0.2755
 4529SOL    HW125220   3.935   4.366   5.604  1.9802 -2.1988  1.2658
 4529SOL    HW225221   3.946   4.312   5.740  0.3803 -0.8688 -0.8826
 4530SOL     OW25222   0.983   0.770   4.858 -0.3167 -0.7016 -0.6513
 4530SOL    HW125223   0.918   0.835   4.831 -2.9719 -3.3497 -0.7092
 4530SOL    HW225224   1.012   0.740   4.772  0.4191  1.0262 -0.9936
 4531SOL     OW25225   2.507   3.667   0.061  0.3035  0.1746 -0.0074
 4531SOL    HW125226   2.532   3.742   0.008 -0.4940  1.1648  1.0083
 4531SOL    HW225227   2.584   3.615   0.038  1.2724  0.8687  1.6465
 4532SOL     OW25228   4.553   1.288  14.023  0.6080  0.2877  0.0839
 4532SOL    HW125229   4.487   1.343  14.066 -0.3578 -0.3995 -0.5005
 4532SOL    HW225230   4.493   1.222  13.988  0.0823  0.1063  1.3280
 4533SOL     OW25231   1.342   0.546   2.935 -0.1746  0.0910 -0.1101
 4533SOL    HW125232   1.420   0.589   2.970  0.0178  0.0647 -0.5069
 4533SOL    HW225233   1.316   0.496   3.013 -0.2913 -1.4296 -1.1256
 4534SOL     OW25234   3.711   4.617   8.741 -0.3576  0.1232  0.0608
 4534SOL    HW125235   3.705   4.589   8.832 -0.6347  1.7255  0.5426
 4534SOL    HW225236   3.620   4.601   8.718 -0.9583  1.5425  1.4800
 4535SOL     OW25237   2.311   0.278   8.408  0.0472 -0.0959  0.1713
 4535SOL    HW125238   2.330   0.185   8.405  0.8517  0.0249  1.8371
 4535SOL    HW225239   2.247   0.290   8.337 -0.3329  1.3399  0.7525
 4536SOL     OW25240   1.580   2.566   6.963  1.0347 -0.4374 -0.4365
 4536SOL    HW125241   1.617   2.601   7.044 -2.4252  1.2382  0.4467
 4536SOL    HW225242   1.561   2.648   6.917  0.4176 -1.0682 -1.3032
 4537SOL     OW25243   1.818   2.363   7.821 -0.3104  0.4910 -0.0440
 4537SOL    HW125244   1.850   2.329   7.904  1.5188  0.5846 -0.7106
 4537SOL    HW225245   1.851   2.296   7.761 -0.6838  0.7202 -0.5145
 4538SOL     OW25246   2.622   1.801  15.118 -0.2035  0.0801 -0.5554
 4538SOL    HW125247   2.675   1.848  15.054 -1.0292  0.6459 -0.8200
 4538SOL    HW225248   2.540   1.848  15.104 -0.5858 -0.8335 -1.3679
 4539SOL     OW25249   1.129   2.850  14.556 -0.1982  0.1244 -0.0554
 4539SOL    HW125250   1.062   2.836  14.623 -0.2184  0.8972  0.0928
 4539SOL    HW225251   1.096   2.935  14.526 -0.6232 -0.7674 -2.0742
 4540SOL     OW25252   4.201   4.556  13.839 -0.0853  0.1649 -0.5030
 4540SOL    HW125253   4.251   4.607  13.775  0.9955  0.2991  0.4492
 4540SOL    HW225254   4.231   4.569  13.930  2.1613  0.8230 -1.3269
 4541SOL     OW25255   3.558   1.729   7.894 -0.7653 -0.5086 -0.7289
 4541SOL    HW125256   3.519   1.719   7.807 -0.9782  2.3161 -0.9483
 4541SOL    HW225257   3.498   1.687   7.955  0.6162  0.9388  1.6397
 4542SOL     OW25258   4.676   1.813   8.428 -0.5813 -0.5220 -0.0284
 4542SOL    HW125259   4.706   1.738   8.376 -0.1797 -0.3287 -0.0762
 4542SOL    HW225260   4.618   1.851   8.362 -1.0725 -2.5294 -0.7589
 4543SOL     OW25261   1.321   3.465   7.275 -0.1908  0.4706 -0.1984
 4543SOL    HW125262   1.320   3.495   7.185 -0.2426  1.9227  0.2871
 4543SOL    HW225263   1.257   3.395   7.276  1.8689 -1.4161  1.4920
 4544SOL     OW25264   3.577   0.594   8.686 -0.1184 -0.4653  0.0205
 4544SOL    HW125265   3.666   0.565   8.669 -0.5388 -1.9747  0.4252
 4544SOL    HW225266   3.540   0.521   8.734  2.1410  0.4035  3.0461
 4545SOL     OW25267   3.086   0.282   1.772 -0.4330 -0.4109 -0.7263
 4545SOL    HW125268   3.181   0.297   1.772 -0.3272 -1.0211 -2.8610
 4545SOL    HW225269   3.089   0.252   1.862 -2.5379 -1.7931 -1.1334
 4546SOL     OW25270   1.568   4.601   5.681  0.2344 -0.1053  0.1565
 4546SOL    HW125271   1.617   4.524   5.650  0.8428  1.2123 -2.1828
 4546SOL    HW225272   1.631   4.672   5.668  0.2231  0.0062  0.7494
 4547SOL     OW25273   1.746   1.339  10.890  0.2268 -0.0693 -0.1641
 4547SOL    HW125274   1.824   1.306  10.847 -0.3881 -0.5534 -0.9163
 4547SOL    HW225275   1.692   1.260  10.896  0.8749 -0.4884  0.1323
 4548SOL     OW25276   3.563   1.735   6.152  0.3675 -0.2349  0.5928
 4548SOL    HW125277   3.593   1.770   6.235 -2.5883 -1.2503  2.1076
 4548SOL    HW225278   3.513   1.657   6.179 -0.3171 -0.3442 -0.9960
 4549SOL     OW25279   0.359   1.221  10.888 -0.2560  0.8972 -0.0417
 4549SOL    HW125280   0.320   1.212  10.802 -1.0644  1.3156  0.2808
 4549SOL    HW225281   0.398   1.308  10.880  1.9930 -0.4823 -3.7438
 4550SOL     OW25282   0.826   1.502  15.147  0.4214  0.0734  0.2905
 4550SOL    HW125283   0.806   1.549  15.228 -0.7486 -0.2179  0.1794
 4550SOL    HW225284   0.754   1.441  15.133 -0.8274  1.8449 -0.9886
 4551SOL     OW25285   1.272   4.007   3.044  0.7800 -0.8503 -0.1012
 4551SOL    HW125286   1.365   3.992   3.025  1.7249  0.2321  3.6581
 4551SOL    HW225287   1.260   3.967   3.130 -1.8743  0.3624  0.0938
 4552SOL     OW25288   4.697   2.107   8.302  0.4824  0.1324 -0.2735
 4552SOL    HW125289   0.043   2.066   8.296 -0.5935 -2.0595 -0.6195
 4552SOL    HW225290   4.715   2.195   8.269  1.1796  0.1621  0.1968
 4553SOL     OW25291   1.535   2.101   9.234  0.3292  0.1643  0.3036
 4553SOL    HW125292   1.573   2.034   9.290 -2.4227 -0.0566  1.8806
 4553SOL    HW225293   1.458   2.134   9.279 -1.6328  0.0483 -2.9565
 4554SOL     OW25294   3.350   3.151   3.142  0.4930 -0.0208  0.1647
 4554SOL    HW125295   3.299   3.219   3.186  1.1325  0.8240 -0.3848
 4554SOL    HW225296   3.376   3.197   3.062 -1.1043  0.9479  0.2108
 4555SOL     OW25297   4.517   2.409   6.796  0.5298 -0.1700  0.0035
 4555SOL    HW125298   4.587   2.391   6.734  0.4515  1.1776 -0.4687
 4555SOL    HW225299   4.453   2.340   6.775 -1.4484  1.8325 -0.5030
 4556SOL     OW25300   3.510   0.349   7.741 -0.3056  0.0968  0.2781
 4556SOL    HW125301   3.437   0.386   7.692  2.3722  3.2603 -1.3046
 4556SOL    HW225302   3.527   0.422   7.801  3.5854 -1.4415  1.0304
 4557SOL     OW25303   1.124   4.695   1.933 -0.5903 -0.0010  0.4402
 4557SOL    HW125304   1.219   4.698   1.947 -0.6165  0.0089  0.6129
 4557SOL    HW225305   1.111   0.023   1.867  1.0247 -0.2975 -0.1845
 4558SOL     OW25306   1.620   3.732  16.823 -0.6465 -0.4761 -0.0000
 4558SOL    HW125307   1.616   3.812  16.771 -2.0309 -0.0584  0.7490
 4558SOL    HW225308   1.627   3.773  16.909 -1.4761 -1.4302  0.5269
 4559SOL     OW25309   3.882   2.196   0.551  0.5629 -0.5667  0.4164
 4559SOL    HW125310   3.901   2.103   0.568 -0.0253 -0.8006 -0.2196
 4559SOL    HW225311   3.823   2.219   0.622 -1.1098  1.3710 -1.6103
 4560SOL     OW25312   0.989   0.408   6.971 -0.0247  0.1909 -0.6445
 4560SOL    HW125313   0.910   0.393   6.919  0.0988  1.4009 -1.1840
 4560SOL    HW225314   0.986   0.331   7.029  2.9341  1.7201  1.5438
 4561SOL     OW25315   3.150   2.492  15.771 -0.1424  0.1477  0.2980
 4561SOL    HW125316   3.194   2.442  15.702 -0.5873 -3.9371  2.9089
 4561SOL    HW225317   3.127   2.578  15.737 -0.4559 -0.3433 -0.7127
 4562SOL     OW25318   3.183   4.428   3.825  0.3179 -0.8322  0.6760
 4562SOL    HW125319   3.178   4.413   3.919 -1.2490 -1.0654  0.5524
 4562SOL    HW225320   3.189   4.523   3.810  3.5876 -0.6772  2.8558
 4563SOL     OW25321   4.574   2.692  10.081  0.0013  0.3968 -0.4020
 4563SOL    HW125322   4.617   2.761  10.132 -0.5737 -0.2249  0.9403
 4563SOL    HW225323   4.563   2.742  10.000 -0.1966 -1.4838 -1.5286
 4564SOL     OW25324   0.963   3.111  11.751  0.7575 -0.0458  0.1887
 4564SOL    HW125325   1.032   3.078  11.808 -0.7691 -1.9626  0.9091
 4564SOL    HW225326   0.890   3.071  11.799  0.7915 -0.8914 -0.4829
 4565SOL     OW25327   0.498   4.361   4.150 -0.5748 -0.3953  0.2564
 4565SOL    HW125328   0.446   4.438   4.173 -0.9087 -0.8365  1.0056
 4565SOL    HW225329   0.503   4.374   4.056 -1.8357 -1.7831 -0.0056
 4566SOL     OW25330   0.331   1.567   4.940  0.0228  0.1635  0.0418
 4566SOL    HW125331   0.244   1.582   4.977  0.3427 -1.6037  1.4813
 4566SOL    HW225332   0.372   1.527   5.017  0.4890  3.6192  1.5783
 4567SOL     OW25333   3.935   1.630   4.009  0.1705 -0.0294  0.3482
 4567SOL    HW125334   3.866   1.689   4.039  0.3341  0.0776  0.5103
 4567SOL    HW225335   4.014   1.640   4.061  1.2835  0.8139 -1.5183
 4568SOL     OW25336   4.434   0.653   6.941 -0.2702 -0.5500 -0.1131
 4568SOL    HW125337   4.357   0.615   6.898  0.2223 -0.7407 -0.8399
 4568SOL    HW225338   4.420   0.614   7.027  2.7127 -2.7699 -0.6192
 4569SOL     OW25339   1.450   2.586   9.201 -0.0739  0.0248 -0.0146
 4569SOL    HW125340   1.412   2.512   9.154 -0.5755 -0.3170  0.9144
 4569SOL    HW225341   1.542   2.580   9.177  0.1435 -2.2756  1.3734
 4570SOL     OW25342   1.681   1.692  10.112  0.3110 -0.1118  0.2098
 4570SOL    HW125343   1.751   1.730  10.166  0.1759  2.2418 -1.2724
 4570SOL    HW225344   1.655   1.764  10.054 -0.3343 -0.4491  0.0835
 4571SOL     OW25345   3.827   2.571   1.397  0.1044  0.0651  0.0727
 4571SOL    HW125346   3.848   2.657   1.359  0.3871  1.2781  2.9501
 4571SOL    HW225347   3.736   2.570   1.366  0.6014 -2.2140 -1.3003
 4572SOL     OW25348   0.337   4.448   5.813  0.3096 -0.2045  0.7197
 4572SOL    HW125349   0.387   4.519   5.854  0.4182  0.7743 -1.1163
 4572SOL    HW225350   0.300   4.498   5.740  0.5777 -3.0197 -1.3576
 4573SOL     OW25351   2.325   3.153   6.141  0.1258 -0.0899 -0.7142
 4573SOL    HW125352   2.400   3.115   6.187 -1.3653 -2.6302 -0.4041
 4573SOL    HW225353   2.271   3.181   6.215  2.4238  0.7709  0.6277
 4574SOL     OW25354   1.399   1.614   3.897  0.0151 -0.3530 -0.5023
 4574SOL    HW125355   1.348   1.686   3.860 -1.1260 -1.6309 -1.3851
 4574SOL    HW225356   1.472   1.620   3.835 -0.8039 -0.1650 -1.4414
 4575SOL     OW25357   3.695   0.356   1.839  0.5577  0.3298  0.0821
 4575SOL    HW125358   3.642   0.417   1.889 -0.4177  0.7251 -1.4501
 4575SOL    HW225359   3.706   0.389   1.750 -4.6401  2.1667  0.1206
 4576SOL     OW25360   0.390   0.817   5.811 -0.3976 -0.6240  0.3691
 4576SOL    HW125361   0.486   0.809   5.814 -0.2945  0.7719  0.8375
 4576SOL    HW225362   0.371   0.863   5.892 -0.5727 -0.4470  0.2266
 4577SOL     OW25363   1.786   2.950   3.572  0.4982  0.5181 -0.8029
 4577SOL    HW125364   1.834   2.989   3.500 -0.7513  0.3507 -1.7200
 4577SOL    HW225365   1.779   3.021   3.636  1.8215 -0.1224  0.0627
 4578SOL     OW25366   3.290   0.493   2.425  0.0893  0.0383 -0.4580
 4578SOL    HW125367   3.214   0.448   2.387  0.6785 -0.9853 -0.3999
 4578SOL    HW225368   3.320   0.419   2.477 -3.3792  0.4890  2.1466
 4579SOL     OW25369   0.808   4.636   2.042 -0.5401  0.3749 -0.1434
 4579SOL    HW125370   0.746   4.640   2.116 -1.1220  2.5961 -0.7425
 4579SOL    HW225371   0.840   4.726   2.042 -1.5883  0.7512 -1.3924
 4580SOL     OW25372   0.120   2.215   5.556  0.3934 -0.4897  0.1597
 4580SOL    HW125373   0.162   2.272   5.491  2.5789 -4.3198 -1.8091
 4580SOL    HW225374   0.099   2.138   5.503  0.3315  0.0178 -0.5642
 4581SOL     OW25375   0.691   1.001   5.541  0.2056  0.6002 -0.3607
 4581SOL    HW125376   0.709   0.942   5.468 -1.1737  0.8942 -0.9395
 4581SOL    HW225377   0.656   0.931   5.596 -0.1154  1.8678  1.0498
 4582SOL     OW25378   1.209   0.013   0.357 -0.5005  0.2367 -0.6690
 4582SOL    HW125379   1.171   0.058   0.433  0.8123 -0.3225  0.3327
 4582SOL    HW225380   1.289   4.711   0.390 -0.9050  0.3919  0.5396
 4583SOL     OW25381   0.567   2.397   1.360 -0.0406  0.1143 -0.1064
 4583SOL    HW125382   0.534   2.424   1.446 -1.4761 -0.4068 -0.4899
 4583SOL    HW225383   0.598   2.308   1.376 -1.6381 -0.8288 -2.2698
 4584SOL     OW25384   1.438   2.733   0.655 -0.1393  0.1701  0.1894
 4584SOL    HW125385   1.402   2.708   0.740  1.0684  0.4501  0.7862
 4584SOL    HW225386   1.376   2.805   0.644  0.2779  0.1652 -2.1902
 4585SOL     OW25387   2.889   0.084   3.315  0.2410  0.0724 -0.2974
 4585SOL    HW125388   2.889   0.014   3.381 -0.5179 -1.1242 -1.5577
 4585SOL    HW225389   2.927   0.159   3.359  1.6979 -0.4832 -0.6205
 4586SOL     OW25390   3.543   2.422   5.811 -0.4168  0.4885 -0.1430
 4586SOL    HW125391   3.624   2.417   5.862 -1.1465 -0.1932  0.9582
 4586SOL    HW225392   3.554   2.341   5.761  0.9987  0.1452  0.7071
 4587SOL     OW25393   0.100   3.251   5.341 -0.1439  0.2032  0.1093
 4587SOL    HW125394   0.076   3.319   5.404 -0.2116  0.6200 -0.3570
 4587SOL    HW225395   0.119   3.313   5.270 -2.0729 -0.3995 -0.9316
 4588SOL     OW25396   3.504   4.731   1.706  0.3885  0.9198 -0.3110
 4588SOL    HW125397   3.455   4.703   1.629 -1.1178  1.6069  0.3936
 4588SOL    HW225398   3.429   0.038   1.744  1.2730 -0.0354  2.5958
 4589SOL     OW25399   3.080   4.102   9.168  0.1273 -0.0492 -0.3530
 4589SOL    HW125400   3.055   4.015   9.199  3.1423 -1.1252 -0.9954
 4589SOL    HW225401   3.005   4.126   9.114  0.1126  0.8982  0.0891
 4590SOL     OW25402   0.579   0.948   0.896  0.4353  0.1785  0.1669
 4590SOL    HW125403   0.625   0.987   0.971  0.4672  0.8216 -0.1903
 4590SOL    HW225404   0.654   0.910   0.851  1.5847  0.4857  1.8116
 4591SOL     OW25405   1.136   1.076   2.976 -0.1747 -0.0459 -0.4657
 4591SOL    HW125406   1.202   1.031   3.030 -2.4480 -0.1462  2.2489
 4591SOL    HW225407   1.172   1.165   2.971 -1.1496  0.4180  0.5708
 4592SOL     OW25408   0.501   4.213   3.427 -0.2103 -0.1918 -0.3251
 4592SOL    HW125409   0.473   4.125   3.453  2.7443 -0.7979  0.8236
 4592SOL    HW225410   0.560   4.203   3.353 -0.3800  0.3856 -0.5337
 4593SOL     OW25411   1.829   3.585  11.245 -0.0806 -0.0543 -0.6780
 4593SOL    HW125412   1.847   3.653  11.180 -2.9689 -0.7132 -2.1459
 4593SOL    HW225413   1.733   3.583  11.241 -0.3056  1.4134  3.2698
 4594SOL     OW25414   3.595   0.710   2.944 -0.0189 -0.1245 -0.2520
 4594SOL    HW125415   3.573   0.660   3.022  2.4577  0.3765  0.7518
 4594SOL    HW225416   3.593   0.798   2.980  2.0598  0.4974 -1.7074
 4595SOL     OW25417   4.214   0.066   3.934 -0.0769  0.6339 -0.0556
 4595SOL    HW125418   4.259   0.143   3.901  2.9593 -1.3714 -0.5585
 4595SOL    HW225419   4.228   0.007   3.860  1.3522 -0.4577  1.1028
 4596SOL     OW25420   1.972   1.598   7.536 -0.3497 -0.7727  0.4309
 4596SOL    HW125421   2.043   1.568   7.479 -0.2017 -1.1668  0.8235
 4596SOL    HW225422   1.902   1.550   7.492  0.3508 -0.7850 -0.6912
 4597SOL     OW25423   3.759   1.387  12.294  0.2137 -0.3082 -0.3403
 4597SOL    HW125424   3.793   1.428  12.215 -1.5185 -1.6838 -1.7986
 4597SOL    HW225425   3.786   1.301  12.262 -0.4679  0.4788 -2.9976
 4598SOL     OW25426   2.843   4.402   6.380 -0.5683  0.2571 -0.5477
 4598SOL    HW125427   2.889   4.423   6.299  0.1363  1.3003  0.1197
 4598SOL    HW225428   2.768   4.351   6.350 -2.1781  2.7771 -0.8887
 4599SOL     OW25429   1.958   2.543  15.928  0.4764  0.1262 -0.0589
 4599SOL    HW125430   1.910   2.495  15.861  0.5633 -0.6800  0.4689
 4599SOL    HW225431   2.014   2.590  15.865  0.7047  1.1952  0.9409
 4600SOL     OW25432   2.558   1.833   4.909  0.3464 -0.1824  0.5928
 4600SOL    HW125433   2.552   1.778   4.988  0.9689 -1.4454 -0.2429
 4600SOL    HW225434   2.468   1.824   4.876  0.1592 -2.0036  1.5659
 4601SOL     OW25435   1.526   0.193   3.433  0.5409  0.4078  0.6790
 4601SOL    HW125436   1.599   0.154   3.385  1.3776  1.7456  0.8653
 4601SOL    HW225437   1.539   0.162   3.523 -0.1643 -0.3319  0.5247
 4602SOL     OW25438   4.284   1.220   3.021 -0.6851  0.2664 -0.5930
 4602SOL    HW125439   4.312   1.132   2.995  0.3994  0.4355  0.0355
 4602SOL    HW225440   4.260   1.253   2.934 -0.1049 -0.1494 -0.9091
 4603SOL     OW25441   2.085   1.044   4.294 -0.1726 -0.1141  0.1262
 4603SOL    HW125442   2.035   1.059   4.374  2.1949 -1.1172  1.8153
 4603SOL    HW225443   2.140   0.966   4.308 -2.7425 -2.2655 -1.7932
 4604SOL     OW25444   3.757   2.966   8.587  0.5917  0.3627 -0.1020
 4604SOL    HW125445   3.710   2.960   8.504  1.3950  0.8528 -0.5908
 4604SOL    HW225446   3.830   3.026   8.571  2.4553 -1.2602  2.1152
 4605SOL     OW25447   1.987   0.942   8.546 -0.4928  0.1789  0.0425
 4605SOL    HW125448   2.024   0.914   8.463 -1.2265  0.9821 -0.5537
 4605SOL    HW225449   2.005   0.866   8.602  1.0719  1.0514  0.7226
 4606SOL     OW25450   2.371   3.161  11.518  0.4731 -0.6815  0.5108
 4606SOL    HW125451   2.285   3.122  11.501  0.0973  0.6301 -0.5411
 4606SOL    HW225452   2.349   3.225  11.585 -0.7300  0.6254 -1.1250
 4607SOL     OW25453   3.551   4.166   4.763 -0.1580  0.0332  0.1967
 4607SOL    HW125454   3.510   4.228   4.703  0.8030 -1.4019 -1.9573
 4607SOL    HW225455   3.563   4.089   4.707  0.4339  0.0899  0.2471
 4608SOL     OW25456   3.543   3.269   8.090  0.0444 -0.3264  0.1905
 4608SOL    HW125457   3.599   3.297   8.018  1.3056  0.1644  1.3670
 4608SOL    HW225458   3.608   3.222   8.142  1.4723  1.4290 -0.0482
 4609SOL     OW25459   0.034   0.335   8.234 -0.3710  0.3255 -0.2555
 4609SOL    HW125460   0.006   0.425   8.249  0.0314  0.3908  0.1023
 4609SOL    HW225461   0.037   0.297   8.322 -0.8296  0.5649 -0.1370
 4610SOL     OW25462   0.088   1.956   5.410 -0.1573  0.6105 -0.4697
 4610SOL    HW125463   0.173   1.918   5.436 -0.1246  1.0410  0.0567
 4610SOL    HW225464   0.025   1.887   5.432  1.1944 -0.1993  0.8948
 4611SOL     OW25465   3.041   0.764   4.977  0.1297  0.5336  0.2998
 4611SOL    HW125466   3.070   0.815   5.053  3.1221  0.3275 -0.7094
 4611SOL    HW225467   3.122   0.731   4.938 -1.0815 -0.2510 -1.5287
 4612SOL     OW25468   2.977   3.773  17.544  0.2869  0.7827  0.6487
 4612SOL    HW125469   2.963   3.770  17.449 -1.6003  1.3552  0.8998
 4612SOL    HW225470   2.930   3.700  17.586  0.3482 -0.0998 -0.8265
 4613SOL     OW25471   1.819   1.241   3.225 -0.0965  0.3800  0.3807
 4613SOL    HW125472   1.805   1.233   3.319 -1.3472  1.2182  0.2587
 4613SOL    HW225473   1.791   1.160   3.182  0.6042  1.0531 -1.3355
 4614SOL     OW25474   4.418   0.082   6.698  0.1510  0.4069  0.0158
 4614SOL    HW125475   4.493   0.108   6.645  1.9462 -2.4639  1.1121
 4614SOL    HW225476   4.378   0.024   6.633 -0.8081 -0.3142  1.2416
 4615SOL     OW25477   3.354   0.046   8.821  0.0288 -1.0401  0.2769
 4615SOL    HW125478   3.375   0.117   8.761  1.6469 -1.9623 -0.2565
 4615SOL    HW225479   3.260   0.062   8.830  0.5363  2.0150  0.0156
 4616SOL     OW25480   4.671   0.284   1.662 -0.7031 -0.1268  0.3377
 4616SOL    HW125481   0.003   0.339   1.695  0.5262 -0.8102 -1.1728
 4616SOL    HW225482   4.712   0.198   1.658 -1.8573 -0.6666  0.4677
 4617SOL     OW25483   4.697   4.626   3.454 -0.0829 -0.0673  0.3315
 4617SOL    HW125484   0.015   4.550   3.454 -0.1372 -0.1085  0.6294
 4617SOL    HW225485   0.022   4.690   3.424  1.2881 -1.6446 -0.0192
 4618SOL     OW25486   4.133   0.186   9.436  0.9422  0.0347  0.2645
 4618SOL    HW125487   4.220   0.210   9.468  1.3188  2.1186 -2.3547
 4618SOL    HW225488   4.153   0.121   9.368  1.8627  0.2124  0.3615
 4619SOL     OW25489   1.284   0.243   3.776  0.1333 -0.0011 -0.1764
 4619SOL    HW125490   1.354   0.187   3.743 -2.4421 -1.9460 -2.4015
 4619SOL    HW225491   1.221   0.183   3.814 -0.1171  1.0207  1.0106
 4620SOL     OW25492   1.038   1.705   8.698  0.1475 -0.2774  0.0622
 4620SOL    HW125493   0.953   1.705   8.742 -0.5597 -0.7756 -1.2992
 4620SOL    HW225494   1.028   1.645   8.624  3.5286 -1.2163  0.3434
 4621SOL     OW25495   4.006   3.538   7.831 -0.6627  0.1474 -0.6942
 4621SOL    HW125496   4.093   3.573   7.815 -0.9719  1.5234  0.6987
 4621SOL    HW225497   4.019   3.446   7.806 -1.1106  0.1395 -0.9003
 4622SOL     OW25498   2.031   1.826  16.627  0.2246 -0.2114  0.0295
 4622SOL    HW125499   2.089   1.757  16.658 -2.5405 -3.1602 -1.3456
 4622SOL    HW225500   2.009   1.882  16.702  2.1313 -0.0323  0.4766
 4623SOL     OW25501   0.229   1.411   4.565  1.1496 -0.6930  0.4963
 4623SOL    HW125502   0.164   1.381   4.502 -0.8931  0.6602  1.9393
 4623SOL    HW225503   0.184   1.396   4.648 -0.9061  1.7003 -0.1714
 4624SOL     OW25504   3.283   3.155  15.144 -0.1591 -0.0595  0.9202
 4624SOL    HW125505   3.270   3.062  15.124 -0.1716 -0.3101  2.0459
 4624SOL    HW225506   3.197   3.196  15.146 -0.9779 -1.6282 -2.7276
 4625SOL     OW25507   3.641   1.850   5.649  0.4831  0.8716 -0.1489
 4625SOL    HW125508   3.715   1.909   5.631  0.1311  1.0892 -0.8778
 4625SOL    HW225509   3.680   1.804   5.723 -2.0847 -0.0207  0.6455
 4626SOL     OW25510   3.961   3.973   4.060  0.1234  0.2559 -0.1086
 4626SOL    HW125511   3.915   4.049   4.095 -1.1508 -0.8011  0.4999
 4626SOL    HW225512   4.048   3.987   4.097 -0.7148  0.6048  1.7268
 4627SOL     OW25513   0.659   0.353   3.461 -0.5375  0.4599 -0.0072
 4627SOL    HW125514   0.749   0.324   3.476 -1.2546 -1.7367  0.0282
 4627SOL    HW225515   0.621   0.336   3.548  2.3484 -0.3142  1.0865
 4628SOL     OW25516   2.207   1.253   8.382  0.1443 -0.0199 -0.8305
 4628SOL    HW125517   2.235   1.209   8.462 -0.6492  0.3450 -0.3516
 4628SOL    HW225518   2.285   1.236   8.329  0.1760  1.4557 -1.2612
 4629SOL     OW25519   4.177   0.743   7.346 -0.1373  0.0069  0.3674
 4629SOL    HW125520   4.166   0.712   7.256  0.7870 -1.2653  0.7104
 4629SOL    HW225521   4.090   0.711   7.370 -1.6896  0.6881 -4.3980
 4630SOL     OW25522   3.078   1.041   6.809  0.4373 -0.1131 -0.0186
 4630SOL    HW125523   3.036   1.098   6.874  1.9011 -0.9478  1.6523
 4630SOL    HW225524   3.083   0.955   6.850  0.0995 -1.1519 -2.1576
 4631SOL     OW25525   3.928   0.838   3.484 -0.1866  0.5641  0.1068
 4631SOL    HW125526   3.959   0.881   3.405  0.9424 -3.4808 -1.6492
 4631SOL    HW225527   3.904   0.753   3.446  0.4751 -1.6648  4.7134
 4632SOL     OW25528   1.545   1.263   4.143 -0.2741 -0.1014  0.4243
 4632SOL    HW125529   1.491   1.203   4.195 -1.0169  0.0462 -0.1799
 4632SOL    HW225530   1.563   1.326   4.213 -0.8383  0.3054  0.1955
 4633SOL     OW25531   1.275   1.867   7.455 -0.4476 -0.4704 -0.4243
 4633SOL    HW125532   1.342   1.800   7.439  0.0695  0.1328 -0.7466
 4633SOL    HW225533   1.205   1.838   7.396  0.1472 -1.9939 -0.3933
 4634SOL     OW25534   0.343   1.950   8.756 -0.3356 -0.3009  0.6066
 4634SOL    HW125535   0.321   2.007   8.829  0.8775  0.0485  0.6974
 4634SOL    HW225536   0.267   1.980   8.706 -0.4758  0.6482  1.4142
 4635SOL     OW25537   1.861   1.306   8.779  0.5569  0.3872  0.7478
 4635SOL    HW125538   1.812   1.342   8.853 -0.0270  0.3347  0.3857
 4635SOL    HW225539   1.863   1.377   8.715 -0.9833  0.3953  0.7115
 4636SOL     OW25540   3.030   3.671   2.092  0.1212 -0.3776  0.3614
 4636SOL    HW125541   2.973   3.644   2.021 -1.9907  2.4150  0.9999
 4636SOL    HW225542   3.104   3.697   2.037 -0.1983  0.7800  0.4865
 4637SOL     OW25543   0.589   2.454   8.073 -0.1500  0.2174 -0.4259
 4637SOL    HW125544   0.667   2.460   8.129  0.0512  2.0730 -0.8873
 4637SOL    HW225545   0.575   2.360   8.081  0.1945  0.1645 -0.4426
 4638SOL     OW25546   3.688   0.568   7.479 -0.2461  0.1613  0.0333
 4638SOL    HW125547   3.610   0.600   7.434  0.3400  0.2402 -0.9230
 4638SOL    HW225548   3.686   0.633   7.549 -1.2126  0.9660 -0.7452
 4639SOL     OW25549   3.911   0.460  12.602 -0.2600 -0.1731  0.1395
 4639SOL    HW125550   3.940   0.393  12.664  2.5259  0.7662 -0.1853
 4639SOL    HW225551   3.868   0.410  12.533 -2.2870  0.2964  1.0405
 4640SOL     OW25552   2.018   2.706   1.503  1.1944  0.1332  0.4065
 4640SOL    HW125553   2.106   2.669   1.507  0.5290 -1.4433  0.3935
 4640SOL    HW225554   2.023   2.755   1.421  1.5837  0.9146  0.9009
 4641SOL     OW25555   2.537   2.699   1.077  0.2677 -0.7732 -0.6291
 4641SOL    HW125556   2.488   2.738   1.149 -0.2386 -1.9486 -0.3258
 4641SOL    HW225557   2.563   2.779   1.032 -1.5956  0.7187  0.9120
 4642SOL     OW25558   3.545   4.414   5.419  0.6506  0.0195  0.0940
 4642SOL    HW125559   3.450   4.406   5.423  1.0495 -3.7871  1.1722
 4642SOL    HW225560   3.569   4.322   5.415 -1.9109 -0.5963 -1.0757
 4643SOL     OW25561   1.067   3.319   7.058 -0.9740  0.2398  0.7178
 4643SOL    HW125562   1.049   3.228   7.080 -3.2803  0.1658 -1.5527
 4643SOL    HW225563   1.145   3.308   7.003 -0.4128 -0.5711  1.6839
 4644SOL     OW25564   1.655   0.861   5.616 -0.1113 -0.2739  0.0104
 4644SOL    HW125565   1.568   0.854   5.577 -0.0948 -0.7411  0.0628
 4644SOL    HW225566   1.702   0.915   5.553 -0.9530 -0.8062 -1.0721
 4645SOL     OW25567   0.953   3.354   2.430  0.2818  0.7038 -0.0367
 4645SOL    HW125568   0.993   3.322   2.349  0.3143 -1.0355  0.6698
 4645SOL    HW225569   0.879   3.404   2.397  1.2284  1.7959 -0.5031
 4646SOL     OW25570   0.732   0.789  16.897 -0.2579  0.5281 -0.8171
 4646SOL    HW125571   0.686   0.870  16.873 -2.6538 -1.0071 -1.4583
 4646SOL    HW225572   0.663   0.728  16.922  0.6774  0.2978  1.1859
 4647SOL     OW25573   1.437   1.799   5.267 -0.0058 -0.3119 -0.4788
 4647SOL    HW125574   1.471   1.782   5.180 -1.9463  1.7415 -1.6294
 4647SOL    HW225575   1.453   1.713   5.307 -1.7097 -0.6362 -0.5055
 4648SOL     OW25576   0.807   1.569  10.534 -0.4223 -0.3915 -0.0539
 4648SOL    HW125577   0.772   1.631  10.598 -1.4529 -0.4067 -0.5968
 4648SOL    HW225578   0.775   1.488  10.574 -2.6673  0.8183  0.6037
 4649SOL     OW25579   0.669   1.959  16.654 -0.6297  0.7986 -0.1424
 4649SOL    HW125580   0.707   2.012  16.723  0.8639 -1.0452  0.4641
 4649SOL    HW225581   0.713   1.877  16.678  1.0901  1.5042 -0.9238
 4650SOL     OW25582   2.020   4.611   2.550  0.1409  0.8695 -0.1062
 4650SOL    HW125583   2.101   4.638   2.593 -0.3543 -0.7266  1.8050
 4650SOL    HW225584   2.052   4.523   2.528  0.0727  0.7147  0.4236
 4651SOL     OW25585   2.588   3.485  15.268 -0.0509 -0.3606  0.0366
 4651SOL    HW125586   2.517   3.500  15.331  1.3537  1.6545  1.1303
 4651SOL    HW225587   2.662   3.482  15.328 -2.5858  1.3143  3.2489
 4652SOL     OW25588   0.057   0.189   5.984  0.1714  0.1913  0.1243
 4652SOL    HW125589   0.147   0.188   5.950  1.0276 -0.0972  2.3574
 4652SOL    HW225590   0.034   0.281   5.973 -0.2197  0.1780  0.8554
 4653SOL     OW25591   3.402   1.614  12.870 -0.2076 -0.0411  0.2966
 4653SOL    HW125592   3.314   1.600  12.834  0.2934 -2.9888  0.2302
 4653SOL    HW225593   3.451   1.617  12.788 -2.3226  1.2326 -0.9194
 4654SOL     OW25594   3.745   1.623   3.180 -0.0054 -0.3997  0.2395
 4654SOL    HW125595   3.682   1.691   3.155  1.2486  0.2414 -1.1822
 4654SOL    HW225596   3.801   1.611   3.103 -1.6159 -2.2551 -0.6155
 4655SOL     OW25597   3.625   2.423   7.385 -0.2699  0.2075 -0.1879
 4655SOL    HW125598   3.555   2.429   7.450  1.2582  0.2498  1.4307
 4655SOL    HW225599   3.660   2.337   7.408  1.6026  0.8155 -0.8113
 4656SOL     OW25600   0.498   1.264   0.166  0.0205 -0.6770  0.4591
 4656SOL    HW125601   0.518   1.179   0.204 -0.2554 -0.4685  1.0723
 4656SOL    HW225602   0.443   1.300   0.236 -0.5368 -2.1719  0.7931
 4657SOL     OW25603   1.161   2.355   4.865  0.3215 -0.2712 -0.4542
 4657SOL    HW125604   1.079   2.317   4.895 -0.1016  1.5419  0.7438
 4657SOL    HW225605   1.203   2.387   4.946 -2.3965 -0.5750  1.0739
 4658SOL     OW25606   1.951   4.551   3.389 -1.0154  0.6128 -0.3133
 4658SOL    HW125607   1.898   4.516   3.460 -1.0405  0.4872 -0.3933
 4658SOL    HW225608   2.031   4.573   3.437 -1.7319  0.9423  0.7225
 4659SOL     OW25609   1.173   2.786   8.824 -0.2028  0.1434 -0.2164
 4659SOL    HW125610   1.255   2.787   8.874 -0.6835  0.3619  0.5629
 4659SOL    HW225611   1.137   2.874   8.834 -0.3960  0.0416 -0.0360
 4660SOL     OW25612   4.501   0.247  14.380  0.1135  0.0935 -0.0106
 4660SOL    HW125613   4.549   0.262  14.462  2.5350 -0.0158 -1.4136
 4660SOL    HW225614   4.530   0.305  14.310  1.3470 -1.2491 -0.6049
 4661SOL     OW25615   3.924   3.826   7.600  0.4388 -0.3630  0.2920
 4661SOL    HW125616   3.939   3.921   7.592 -0.6266 -0.3711 -1.6629
 4661SOL    HW225617   3.829   3.836   7.596  0.5769  1.3777  1.2828
 4662SOL     OW25618   2.654   4.321   1.101 -0.5419 -0.4126 -0.0429
 4662SOL    HW125619   2.723   4.278   1.153  0.2954 -1.3445 -1.9295
 4662SOL    HW225620   2.655   4.271   1.020  0.1562 -0.3243 -0.0966
 4663SOL     OW25621   2.917   1.112   1.124 -0.5218  0.2500 -0.5704
 4663SOL    HW125622   2.962   1.184   1.167 -0.0711 -0.0768 -0.4929
 4663SOL    HW225623   2.952   1.036   1.170  0.3906  0.7797 -0.4035
 4664SOL     OW25624   3.580   4.248   9.000  0.4160 -0.1538  0.5624
 4664SOL    HW125625   3.604   4.277   9.088  1.2011  0.0159  0.2957
 4664SOL    HW225626   3.548   4.160   9.018  1.1246 -0.2873  1.1684
 4665SOL     OW25627   3.506   2.696   9.290  0.0410 -0.1738 -0.2072
 4665SOL    HW125628   3.541   2.742   9.214 -2.5148  0.3045 -1.0871
 4665SOL    HW225629   3.498   2.755   9.365 -1.1552  0.3282 -0.7223
 4666SOL     OW25630   3.343   0.413   5.327  0.0263 -0.4187 -0.7779
 4666SOL    HW125631   3.270   0.413   5.265 -0.6491 -3.4726  0.0010
 4666SOL    HW225632   3.335   0.504   5.355  1.7516 -0.4045 -0.3483
 4667SOL     OW25633   4.239   0.790   4.566  0.2369 -0.0599  0.0537
 4667SOL    HW125634   4.157   0.743   4.581 -0.3083 -0.0358 -2.8680
 4667SOL    HW225635   4.279   0.735   4.499  0.6376  1.6631 -1.1301
 4668SOL     OW25636   3.636   2.525   3.894  0.4295  0.1509  0.1189
 4668SOL    HW125637   3.663   2.469   3.820 -1.2828  1.6392 -1.6127
 4668SOL    HW225638   3.545   2.506   3.916 -0.3154 -0.0058 -3.0721
 4669SOL     OW25639   0.977   3.820   4.891  0.0060  0.4082 -0.0855
 4669SOL    HW125640   1.067   3.787   4.894 -0.4884 -0.9280 -0.1288
 4669SOL    HW225641   0.948   3.788   4.977 -0.3276 -1.4558 -0.9013
 4670SOL     OW25642   3.264   4.181   8.864  0.1598  0.2790  0.4530
 4670SOL    HW125643   3.284   4.101   8.912  1.4364  0.3320  0.0189
 4670SOL    HW225644   3.345   4.199   8.815  1.2600  0.1760  2.2522
 4671SOL     OW25645   1.569   3.730  17.541  0.3367 -0.9209  0.4933
 4671SOL    HW125646   1.558   3.814  17.497 -0.5263 -0.7828  0.9701
 4671SOL    HW225647   1.603   3.683  17.465  1.8868  0.0525  0.5901
 4672SOL     OW25648   3.729   4.006   9.230  0.1493  0.0966  0.0984
 4672SOL    HW125649   3.746   3.915   9.206 -3.1574 -0.8481  1.3779
 4672SOL    HW225650   3.637   4.017   9.207 -0.2327  1.5389  2.3534
 4673SOL     OW25651   3.689   4.465   7.075  0.2067  0.1604  0.6571
 4673SOL    HW125652   3.604   4.480   7.033 -0.0174  1.7999  1.6703
 4673SOL    HW225653   3.676   4.383   7.122 -0.1965 -0.8039 -1.1112
 4674SOL     OW25654   1.552   2.983   2.215 -0.4807 -0.1139 -0.2686
 4674SOL    HW125655   1.460   3.008   2.207 -0.4388  0.4098  0.7515
 4674SOL    HW225656   1.592   3.047   2.155  0.3824  0.7954  1.2690
 4675SOL     OW25657   3.592   0.248   3.395 -0.2692 -0.8196 -0.2148
 4675SOL    HW125658   3.681   0.276   3.414 -1.4705  0.7944  3.0742
 4675SOL    HW225659   3.542   0.324   3.426 -0.5229 -0.7345 -0.8283
 4676SOL     OW25660   2.610   4.112  16.701 -0.4836 -0.5071  0.4604
 4676SOL    HW125661   2.612   4.138  16.793  1.1917  1.6868 -0.1940
 4676SOL    HW225662   2.516   4.094  16.694 -0.9308  1.7424  0.6334
 4677SOL     OW25663   2.468   0.515   2.078  0.0179  0.7203  0.1212
 4677SOL    HW125664   2.550   0.467   2.090  1.6300  3.1392 -1.3503
 4677SOL    HW225665   2.491   0.577   2.009  1.6948  2.9456  2.6851
 4678SOL     OW25666   4.577   1.113   3.040 -0.0678  0.7798 -0.5824
 4678SOL    HW125667   4.503   1.085   3.093 -0.2111 -0.2212 -1.3122
 4678SOL    HW225668   4.627   1.031   3.032 -2.3838 -0.5105 -1.8010
 4679SOL     OW25669   3.507   0.618   1.654 -0.4089 -0.1955  0.0203
 4679SOL    HW125670   3.600   0.640   1.660 -0.2526 -1.3252  1.6013
 4679SOL    HW225671   3.477   0.706   1.630  2.1114  0.7079  0.0903
 4680SOL     OW25672   2.808   0.782   3.745 -0.1388 -0.1829  0.8973
 4680SOL    HW125673   2.894   0.806   3.708 -0.6029  1.4053  0.8984
 4680SOL    HW225674   2.748   0.802   3.673 -1.6453 -1.5726  1.7853
 4681SOL     OW25675   3.058   3.157   1.200 -0.3461 -0.2760  0.1717
 4681SOL    HW125676   2.965   3.136   1.213 -0.7010  0.0901 -1.6904
 4681SOL    HW225677   3.065   3.113   1.115  0.6294 -0.3744  0.3093
 4682SOL     OW25678   3.818   4.601  15.643  0.1396  0.1915  0.6989
 4682SOL    HW125679   3.903   4.624  15.604 -1.0033  1.5330 -1.0010
 4682SOL    HW225680   3.816   4.667  15.712  0.0435 -0.9101  1.7395
 4683SOL     OW25681   0.951   0.946  16.627 -0.0560 -0.0731  0.5207
 4683SOL    HW125682   0.880   0.986  16.677  0.0010  0.1607  0.4116
 4683SOL    HW225683   0.986   0.882  16.689  1.2833  1.2243  1.0927
 4684SOL     OW25684   0.621   4.407   9.558 -0.0677 -0.1604 -0.4854
 4684SOL    HW125685   0.554   4.413   9.490 -0.0851 -0.6930 -0.5170
 4684SOL    HW225686   0.622   4.317   9.590 -1.2648  0.3070  0.8921
 4685SOL     OW25687   2.409   4.559   2.401 -0.1343 -0.4154  0.1857
 4685SOL    HW125688   2.414   4.471   2.364 -2.6007 -0.2015 -0.6464
 4685SOL    HW225689   2.496   4.578   2.437 -0.2980  0.9337 -0.1100
 4686SOL     OW25690   2.738   2.178   8.840 -0.1857  0.2473  0.2558
 4686SOL    HW125691   2.791   2.102   8.863  0.7353  0.8823  0.2573
 4686SOL    HW225692   2.666   2.162   8.901 -0.1202 -0.2539  0.2030
 4687SOL     OW25693   2.173   3.823  16.860  0.3275  0.0257  0.0310
 4687SOL    HW125694   2.195   3.852  16.772  2.2398 -1.2428  0.0913
 4687SOL    HW225695   2.252   3.777  16.887  0.8890  0.1276 -1.4314
 4688SOL     OW25696   0.498   4.183   6.768  0.1135 -0.6656  0.1077
 4688SOL    HW125697   0.425   4.153   6.715 -0.2814  3.3093 -1.6248
 4688SOL    HW225698   0.492   4.126   6.845  0.6911 -1.6241 -0.5768
 4689SOL     OW25699   3.530   0.339   7.157 -0.0614 -0.7490 -0.5308
 4689SOL    HW125700   3.536   0.307   7.247  1.7658 -1.8301 -1.0371
 4689SOL    HW225701   3.593   0.411   7.162 -1.2918  0.1312  2.2479
 4690SOL     OW25702   0.278   3.765   6.629 -0.2844  0.2888 -0.5266
 4690SOL    HW125703   0.189   3.738   6.607  0.1637 -0.7111 -1.1254
 4690SOL    HW225704   0.265   3.859   6.639 -1.0609  0.1025  0.2500
 4691SOL     OW25705   3.977   3.755   9.681 -0.0273 -0.1832  0.7094
 4691SOL    HW125706   3.953   3.826   9.740 -0.8155  1.0961 -1.1582
 4691SOL    HW225707   3.972   3.803   9.598  0.2587 -0.0719  0.7584
 4692SOL     OW25708   3.145   2.431   5.145  0.1413 -0.7910  0.3346
 4692SOL    HW125709   3.093   2.483   5.206  1.3220 -0.3173  0.9465
 4692SOL    HW225710   3.093   2.352   5.155  0.2665 -1.0281 -0.8177
 4693SOL     OW25711   1.520   3.811   3.862 -0.4992  0.4476  0.0271
 4693SOL    HW125712   1.435   3.771   3.844 -1.7343  2.6766  0.9196
 4693SOL    HW225713   1.505   3.892   3.814  1.4721  1.5554  1.2974
 4694SOL     OW25714   1.620   2.160   5.397 -0.0282  0.1646 -0.5454
 4694SOL    HW125715   1.542   2.181   5.448  0.8169  0.5472  0.5731
 4694SOL    HW225716   1.683   2.207   5.450  0.9316 -1.7164 -0.0285
 4695SOL     OW25717   0.223   4.614  11.481 -0.5428 -0.3479  0.4881
 4695SOL    HW125718   0.205   4.523  11.457 -0.0117 -0.3533  0.1182
 4695SOL    HW225719   0.288   4.600  11.549  1.6609  1.8223 -1.1661
 4696SOL     OW25720   3.703   1.831   7.277 -0.0919  0.2341 -0.0775
 4696SOL    HW125721   3.719   1.831   7.371 -2.6149 -0.6808  0.3706
 4696SOL    HW225722   3.746   1.748   7.255 -2.5256 -1.1749  0.5085
 4697SOL     OW25723   4.182   4.526   6.670 -0.0022  0.2773  0.1834
 4697SOL    HW125724   4.091   4.508   6.646 -0.2608  1.5135  0.2592
 4697SOL    HW225725   4.176   4.472   6.748  1.1397  0.3946  0.3492
 4698SOL     OW25726   1.927   4.383   7.640 -0.2211  0.0159  0.0386
 4698SOL    HW125727   1.879   4.307   7.670  2.6170 -1.8701 -0.2060
 4698SOL    HW225728   2.009   4.340   7.617 -0.0853  0.2836  0.0223
 4699SOL     OW25729   1.958   3.736   6.697  1.1007  0.5685 -0.4799
 4699SOL    HW125730   1.874   3.780   6.714  1.8726  2.3329 -1.2093
 4699SOL    HW225731   1.942   3.722   6.604  0.5003  1.3374 -0.4946
 4700SOL     OW25732   4.585   3.153   2.324  0.2142 -0.2834 -0.0018
 4700SOL    HW125733   4.493   3.178   2.317 -0.0927 -1.5694 -0.5090
 4700SOL    HW225734   4.568   3.068   2.364  1.4179 -0.4399  0.1820
 4701SOL     OW25735   3.640   3.246   6.768 -0.7347  0.3093 -0.0992
 4701SOL    HW125736   3.613   3.321   6.820  3.1999  0.9332  1.0366
 4701SOL    HW225737   3.606   3.185   6.833  3.1632 -1.4640  0.3263
 4702SOL     OW25738   4.566   3.013   3.703  0.3914 -0.3903  0.9675
 4702SOL    HW125739   4.481   3.057   3.706  0.2090 -0.8231  2.0114
 4702SOL    HW225740   4.625   3.086   3.723  0.2366  0.1780 -0.5982
 4703SOL     OW25741   3.152   0.092   2.774 -0.7846 -0.4851 -0.3064
 4703SOL    HW125742   3.227   0.099   2.715  0.5197 -1.3633  1.2323
 4703SOL    HW225743   3.110   0.011   2.744 -0.3071 -0.5501 -0.8096
 4704SOL     OW25744   3.679   2.457   4.712  0.0465  0.7098 -0.0373
 4704SOL    HW125745   3.696   2.397   4.640 -1.5089  0.9303 -0.5976
 4704SOL    HW225746   3.756   2.456   4.769  0.0559  1.6540 -0.0431
 4705SOL     OW25747   1.942   0.395  14.917 -0.3431 -0.0334 -0.4070
 4705SOL    HW125748   1.970   0.338  14.845  1.0438 -0.4437  0.4497
 4705SOL    HW225749   2.012   0.385  14.981  0.8420  0.8558 -1.5675
 4706SOL     OW25750   2.812   4.021   5.911 -0.0166 -0.1029 -0.1982
 4706SOL    HW125751   2.878   4.056   5.851  0.6649 -1.4780 -0.2652
 4706SOL    HW225752   2.860   3.971   5.978  1.7204  2.0063  0.1324
 4707SOL     OW25753   1.532   3.572  17.754 -0.1461 -0.4581 -0.3302
 4707SOL    HW125754   1.562   3.630  17.684 -1.0992 -0.3352 -0.6359
 4707SOL    HW225755   1.615   3.560   0.044 -0.0513  1.7983  0.0999
 4708SOL     OW25756   0.491   0.129   7.705 -0.5148 -0.3782 -0.0292
 4708SOL    HW125757   0.480   0.074   7.628  0.6663  1.8987 -1.8452
 4708SOL    HW225758   0.445   0.077   7.770  0.8539 -0.2731  1.0271
 4709SOL     OW25759   4.518   0.010  12.414  0.4921 -0.5341  0.1941
 4709SOL    HW125760   4.490   4.713  12.498  3.7814 -1.2862  0.9501
 4709SOL    HW225761   4.548   4.672  12.367 -0.5908 -0.8030 -0.0654
 4710SOL     OW25762   1.649   1.366  13.710 -0.2050  0.1936  0.1554
 4710SOL    HW125763   1.554   1.371  13.706 -0.2364  0.8930  1.6331
 4710SOL    HW225764   1.671   1.439  13.653  1.7140  0.2662  0.9679
 4711SOL     OW25765   3.841   0.461   8.713  0.1404 -0.2264  0.1903
 4711SOL    HW125766   3.818   0.418   8.796  0.0542  3.3568  2.0319
 4711SOL    HW225767   3.884   0.541   8.743 -0.8585  0.9749 -1.5886
 4712SOL     OW25768   4.135   3.936   4.856  1.0539  0.4028 -0.1435
 4712SOL    HW125769   4.043   3.956   4.842  0.8910 -0.0842  0.2159
 4712SOL    HW225770   4.154   3.874   4.785 -0.4462 -3.2660  2.6462
 4713SOL     OW25771   3.248   3.097   1.409  0.4126  0.5700 -0.3339
 4713SOL    HW125772   3.187   3.117   1.339  0.5316  1.3794 -0.2070
 4713SOL    HW225773   3.336   3.096   1.372 -0.0467  0.2797 -1.3885
 4714SOL     OW25774   3.132   4.488   8.444 -0.3156  0.0825  0.4261
 4714SOL    HW125775   3.098   4.466   8.531 -1.5786  1.8996  0.4046
 4714SOL    HW225776   3.054   4.452   8.401 -1.1333  2.4441 -0.0879
 4715SOL     OW25777   0.863   2.224   7.088 -0.2853  0.4204 -0.2294
 4715SOL    HW125778   0.838   2.209   7.179 -0.8707 -3.1650 -0.9757
 4715SOL    HW225779   0.959   2.221   7.095 -0.2680  2.1387  0.1964
 4716SOL     OW25780   2.043   4.312   3.626  0.2671 -0.2163 -0.3151
 4716SOL    HW125781   1.992   4.367   3.685  2.1117  0.9658  0.1553
 4716SOL    HW225782   2.093   4.251   3.680  0.2939 -0.8450 -1.0368
 4717SOL     OW25783   2.000   0.690  17.375 -0.0876 -0.1939 -0.1096
 4717SOL    HW125784   1.916   0.677  17.419 -1.1435  1.3528 -1.6688
 4717SOL    HW225785   2.007   0.781  17.346 -3.0448 -0.1575 -0.6884
 4718SOL     OW25786   2.239   0.629   8.001  0.4192 -0.3348 -0.4534
 4718SOL    HW125787   2.188   0.601   8.076 -0.0566  0.2851 -0.5516
 4718SOL    HW225788   2.316   0.574   8.020  0.6121  0.8303  2.1082
 4719SOL     OW25789   4.104   0.344  11.547 -0.5133 -0.0137 -0.1902
 4719SOL    HW125790   4.059   0.378  11.624 -0.0752  0.0199  0.0495
 4719SOL    HW225791   4.030   0.301  11.504  0.5034 -2.5594  0.6249
 4720SOL     OW25792   2.899   3.166   3.755 -0.1268  0.4209  0.1952
 4720SOL    HW125793   2.805   3.154   3.769  0.0192 -1.2858 -0.3036
 4720SOL    HW225794   2.904   3.182   3.660 -1.0881  0.1754  0.1032
 4721SOL     OW25795   1.227   1.064  14.374 -0.2045  1.0010 -0.4797
 4721SOL    HW125796   1.171   1.140  14.388  0.6955  1.8632 -1.5643
 4721SOL    HW225797   1.312   1.101  14.401  1.4739 -0.8762 -3.1910
 4722SOL     OW25798   4.535   3.060   2.021  0.4399 -0.3644  0.1366
 4722SOL    HW125799   4.509   3.150   2.039 -0.7889 -0.6124 -0.3884
 4722SOL    HW225800   4.448   3.021   2.014  0.7951 -0.7688 -2.0116
 4723SOL     OW25801   3.938   2.285   7.365 -0.1318 -0.1791  0.2359
 4723SOL    HW125802   3.963   2.378   7.366  0.0421 -0.2139 -0.9369
 4723SOL    HW225803   3.907   2.281   7.456  0.3670 -1.0034  0.3586
 4724SOL     OW25804   1.898   1.537  13.309 -0.8198 -0.0147 -0.5102
 4724SOL    HW125805   1.854   1.453  13.294 -0.8530 -0.2175  0.7529
 4724SOL    HW225806   1.871   1.553  13.399 -0.5258  0.1846 -0.4585
 4725SOL     OW25807   4.202   0.498   3.550  0.1756 -0.6107  0.0004
 4725SOL    HW125808   4.269   0.565   3.543  0.5925 -0.7378  2.8155
 4725SOL    HW225809   4.202   0.482   3.455 -3.2442  2.7547 -0.5747
 4726SOL     OW25810   1.984   3.334   1.263  0.1747  0.1782 -0.2652
 4726SOL    HW125811   1.933   3.255   1.242  0.9534 -0.4681  0.2610
 4726SOL    HW225812   1.949   3.411   1.219 -1.5447 -0.1922  0.4330
 4727SOL     OW25813   2.838   0.227   1.897  0.2797 -0.0059  0.1314
 4727SOL    HW125814   2.873   0.259   1.815  0.4588 -0.7317 -0.0810
 4727SOL    HW225815   2.811   0.139   1.871  1.6193 -0.1977 -0.6072
 4728SOL     OW25816   2.981   2.607  14.738  0.4767  0.2709  0.1560
 4728SOL    HW125817   2.908   2.644  14.788 -1.1192 -0.7468 -1.4410
 4728SOL    HW225818   2.976   2.655  14.655  0.2633 -0.0502 -0.0177
 4729SOL     OW25819   3.927   3.288   2.153  0.4683  0.0631 -0.9446
 4729SOL    HW125820   3.938   3.317   2.243  2.1103  1.1710 -1.5192
 4729SOL    HW225821   3.958   3.366   2.108  1.1055 -1.1657 -2.6126
 4730SOL     OW25822   2.474   0.612   7.541  0.7008 -0.3537 -0.6840
 4730SOL    HW125823   2.392   0.626   7.589  1.9584  2.9869  0.4797
 4730SOL    HW225824   2.538   0.599   7.612 -0.1406 -0.5711  0.0422
 4731SOL     OW25825   2.823   2.606  15.775  0.5047  0.0850  0.2579
 4731SOL    HW125826   2.822   2.655  15.857  1.9847  0.2922  0.1365
 4731SOL    HW225827   2.906   2.637  15.739 -0.2984  1.8225 -0.1444
 4732SOL     OW25828   1.999   0.895   4.757 -0.0898 -0.1626  0.3929
 4732SOL    HW125829   1.972   0.805   4.740 -2.1165  0.8542 -1.8044
 4732SOL    HW225830   2.086   0.874   4.791  1.0775  1.3547 -1.6821
 4733SOL     OW25831   0.704   4.632   9.308 -0.4624  0.2783  0.2592
 4733SOL    HW125832   0.735   4.619   9.219  1.1373 -3.6284  1.4166
 4733SOL    HW225833   0.687   4.726   9.298 -0.8773  0.2983  1.1080
 4734SOL     OW25834   3.539   1.387  16.609 -0.3985  0.0890 -0.2848
 4734SOL    HW125835   3.495   1.394  16.525 -1.4117 -0.1388  0.2192
 4734SOL    HW225836   3.580   1.473  16.618 -1.6678  0.0957  5.9010
 4735SOL     OW25837   0.686   1.669   5.125 -0.0248  0.0355  0.1892
 4735SOL    HW125838   0.655   1.584   5.095  0.1277 -0.6959  2.1279
 4735SOL    HW225839   0.743   1.640   5.196  0.1853 -1.0410 -0.4187
 4736SOL     OW25840   0.827   2.864  14.609 -0.8145 -0.9490 -0.6017
 4736SOL    HW125841   0.862   2.776  14.598  1.4510 -0.0285 -0.8178
 4736SOL    HW225842   0.742   2.858  14.565 -1.7255 -3.0758  1.4303
 4737SOL     OW25843   2.935   3.965   1.349  0.6873  0.3172  0.4517
 4737SOL    HW125844   3.026   3.939   1.337  0.7194  0.0626  1.2885
 4737SOL    HW225845   2.909   3.903   1.418 -2.9213 -1.3708 -2.4162
 4738SOL     OW25846   0.610   2.891   7.855  0.1925  0.0670 -0.1307
 4738SOL    HW125847   0.581   2.973   7.813 -3.2074  0.7037  3.5273
 4738SOL    HW225848   0.649   2.843   7.782 -1.5772 -0.1472 -0.9360
 4739SOL     OW25849   2.664   3.555  12.186  0.1161  0.6466 -0.0718
 4739SOL    HW125850   2.638   3.494  12.255 -1.3818  1.1985 -0.1652
 4739SOL    HW225851   2.580   3.569  12.143 -0.9590  1.5926  2.3645
 4740SOL     OW25852   4.510   3.794   2.543 -0.2181 -0.3561 -0.4165
 4740SOL    HW125853   4.527   3.701   2.560  0.9089 -0.1756 -0.5480
 4740SOL    HW225854   4.421   3.810   2.575  0.1124 -0.6164  0.6372
 4741SOL     OW25855   4.261   0.111   4.446 -0.2618  0.2023  0.4551
 4741SOL    HW125856   4.347   0.138   4.415 -0.8988  2.4447  0.6215
 4741SOL    HW225857   4.225   0.200   4.452 -1.0028 -0.0414 -0.2579
 4742SOL     OW25858   1.416   4.429   2.988 -0.0967 -0.0112  0.8452
 4742SOL    HW125859   1.345   4.375   3.022 -0.1110 -2.1841 -2.6757
 4742SOL    HW225860   1.371   4.513   2.979 -0.0544 -0.1769 -0.7777
 4743SOL     OW25861   4.495   4.336  17.702  0.0889  0.1392  0.1103
 4743SOL    HW125862   4.404   4.318  17.727 -0.3532  0.4052 -1.3105
 4743SOL    HW225863   4.546   4.268  17.746 -0.1277 -1.1133 -1.5679
 4744SOL     OW25864   0.967   0.472  13.421  0.0306 -0.4804  0.0620
 4744SOL    HW125865   1.039   0.429  13.468  0.7077 -0.5954 -1.0701
 4744SOL    HW225866   0.998   0.457  13.332 -1.6076 -0.4167 -0.5033
 4745SOL     OW25867   0.725   0.937   6.954  0.0460 -0.0993 -0.7802
 4745SOL    HW125868   0.733   0.966   6.863  0.1877  2.8715  0.1928
 4745SOL    HW225869   0.637   0.898   6.953  0.0858 -0.1936 -0.1985
 4746SOL     OW25870   1.681   3.602  17.299 -0.0735  0.1483 -0.3417
 4746SOL    HW125871   1.700   3.510  17.317  1.4592  0.1173 -2.1009
 4746SOL    HW225872   1.762   3.629  17.256  1.7698 -1.6190  2.0725
 4747SOL     OW25873   1.533   2.870  16.713  0.1999  0.1557 -0.2344
 4747SOL    HW125874   1.490   2.841  16.793 -0.5002  1.7725 -0.0122
 4747SOL    HW225875   1.495   2.958  16.700 -1.1163 -0.2943  0.5108
 4748SOL     OW25876   2.579   2.056   7.186 -0.0675 -0.1663 -0.5179
 4748SOL    HW125877   2.485   2.039   7.192 -0.1474 -0.5165 -2.7493
 4748SOL    HW225878   2.589   2.089   7.097 -1.9870  0.6596 -0.4329
 4749SOL     OW25879   4.126   0.409   9.015 -0.1464  0.6060 -0.6105
 4749SOL    HW125880   4.186   0.416   9.089  0.4027 -1.6146 -0.8349
 4749SOL    HW225881   4.153   0.475   8.952  0.9162  1.9895  1.2833
 4750SOL     OW25882   1.064   3.255  10.413 -0.1651  0.0493 -0.2342
 4750SOL    HW125883   1.104   3.341  10.408  1.8932 -0.8879  0.2842
 4750SOL    HW225884   1.114   3.205  10.349  1.7638 -1.5976  2.5332
 4751SOL     OW25885   4.427   1.992  12.804  0.2093 -0.4587 -0.5301
 4751SOL    HW125886   4.370   1.986  12.881  1.2695  0.0864  0.2886
 4751SOL    HW225887   4.429   2.086  12.791 -2.9198 -0.3644 -0.3300
 4752SOL     OW25888   2.604   0.256   1.200 -0.0520  0.6608 -0.1694
 4752SOL    HW125889   2.534   0.191   1.201  2.0925 -1.6299  1.1592
 4752SOL    HW225890   2.629   0.267   1.108  0.3621 -4.5701 -0.7140
 4753SOL     OW25891   2.670   4.376   2.298  0.1897  0.1809  0.1153
 4753SOL    HW125892   2.751   4.326   2.290 -0.7964 -1.4830  0.6052
 4753SOL    HW225893   2.673   4.425   2.380  0.8929 -0.7147  0.6183
 4754SOL     OW25894   0.987   3.931  15.083  0.4451  0.2928 -0.3121
 4754SOL    HW125895   1.043   3.945  15.159  1.5583 -1.3777 -0.8255
 4754SOL    HW225896   1.018   3.849  15.045 -2.5127 -1.9612  2.1617
 4755SOL     OW25897   0.611   0.547   2.065 -0.1810  0.7195 -0.0359
 4755SOL    HW125898   0.580   0.619   2.119 -0.8193  1.1280 -0.9389
 4755SOL    HW225899   0.625   0.595   1.983 -0.4244 -0.3336 -0.6980
 4756SOL     OW25900   3.261   2.857  15.750 -0.3577  0.5901 -0.5301
 4756SOL    HW125901   3.337   2.803  15.773 -0.9535 -1.0736 -2.3865
 4756SOL    HW225902   3.302   2.937  15.719 -1.1254  1.0453 -0.3784
 4757SOL     OW25903   0.165   4.080   4.325  0.7170  0.2811  0.2044
 4757SOL    HW125904   0.126   4.126   4.251  0.1743 -1.4819 -0.5905
 4757SOL    HW225905   0.133   4.128   4.402 -0.4143 -2.4038  1.3849
 4758SOL     OW25906   2.406   0.010   8.413 -0.2474  0.2915 -0.9171
 4758SOL    HW125907   2.354   4.726   8.337 -1.8109  2.0546 -0.4169
 4758SOL    HW225908   2.494   4.726   8.386  1.0969  2.6562  1.4002
 4759SOL     OW25909   4.032   0.058  12.518 -0.0787  0.2877  0.3310
 4759SOL    HW125910   3.989   0.095  12.441 -0.2501  3.0027  1.7506
 4759SOL    HW225911   4.050   0.132  12.576 -2.4552  0.7822  0.4289
 4760SOL     OW25912   3.714   3.448   1.495  0.4180  0.1184 -0.0839
 4760SOL    HW125913   3.629   3.455   1.450  0.9420  0.7651 -0.9686
 4760SOL    HW225914   3.761   3.523   1.460  0.0252  0.0098 -0.8483
 4761SOL     OW25915   2.346   0.101  14.965 -0.1034 -0.0788 -0.0622
 4761SOL    HW125916   2.436   0.077  14.990 -0.1985 -1.0829 -0.6630
 4761SOL    HW225917   2.369   0.189  14.937  2.8611 -0.8210  0.0041
 4762SOL     OW25918   1.876   0.899   7.813  0.2770  0.1795 -0.1955
 4762SOL    HW125919   1.946   0.961   7.791 -0.8230  1.5267  0.1354
 4762SOL    HW225920   1.795   0.947   7.827  0.9216  1.4568 -0.8788
 4763SOL     OW25921   4.485   3.337   2.077  0.2687  0.2252 -1.3441
 4763SOL    HW125922   4.536   3.409   2.113 -1.5625  0.6271  0.5038
 4763SOL    HW225923   4.444   3.318   2.162 -0.5892  2.8935 -1.1822
 4764SOL     OW25924   0.633   2.457   9.330 -0.2723 -0.1229  0.0166
 4764SOL    HW125925   0.703   2.401   9.296 -1.2997 -1.5347  0.2601
 4764SOL    HW225926   0.582   2.404   9.391  0.7966  0.4559  1.4160
 4765SOL     OW25927   4.281   0.985   2.142  0.4016 -0.1195 -0.8120
 4765SOL    HW125928   4.293   0.892   2.157 -1.5324 -0.2542 -0.1357
 4765SOL    HW225929   4.365   1.011   2.104 -0.1600  2.6212 -0.2008
 4766SOL     OW25930   0.731   0.097   8.572 -0.0841  0.1359 -0.0923
 4766SOL    HW125931   0.765   0.013   8.542 -0.1024  0.2591 -0.4580
 4766SOL    HW225932   0.678   0.128   8.499  0.2736  1.6881  0.3093
 4767SOL     OW25933   1.494   4.443   4.100  0.1440  0.6270 -0.0892
 4767SOL    HW125934   1.461   4.425   4.012 -0.0425  0.6067 -0.0161
 4767SOL    HW225935   1.447   4.389   4.164 -0.1439 -2.1366 -2.6689
 4768SOL     OW25936   3.903   4.459   9.230  0.2636  0.3717 -0.4690
 4768SOL    HW125937   3.893   4.542   9.278 -0.5402  0.2766 -0.4834
 4768SOL    HW225938   3.832   4.404   9.261  0.2934  1.7971  2.1758
 4769SOL     OW25939   0.569   1.202   2.742 -0.4126 -0.2339  0.5150
 4769SOL    HW125940   0.645   1.183   2.797  0.0633  2.3262  0.7144
 4769SOL    HW225941   0.515   1.241   2.811 -0.0998  0.7844  0.1782
 4770SOL     OW25942   1.787   2.719   5.594  0.3815  0.6753  0.5414
 4770SOL    HW125943   1.712   2.773   5.570  0.6399  0.5179 -0.6243
 4770SOL    HW225944   1.747   2.635   5.616  2.4322 -0.4235  0.0425
 4771SOL     OW25945   2.120   0.885   7.080  0.1539 -0.2935  0.3821
 4771SOL    HW125946   2.040   0.929   7.109  0.5293  0.9550 -0.4587
 4771SOL    HW225947   2.093   0.803   7.039  0.2542 -0.5561  0.8522
 4772SOL     OW25948   3.518   4.065   8.454  0.6988 -0.1149 -0.4986
 4772SOL    HW125949   3.568   4.045   8.533  0.0693  0.9800  0.1618
 4772SOL    HW225950   3.583   4.042   8.388 -0.1786 -0.7928 -1.1435
 4773SOL     OW25951   2.537   4.160  16.971  0.2718 -0.0438  0.0679
 4773SOL    HW125952   2.447   4.181  16.997  0.4595 -1.7470  2.0360
 4773SOL    HW225953   2.580   4.138  17.053  1.1344  2.7932  0.4079
 4774SOL     OW25954   0.651   4.177  16.994  0.1383 -1.0097  0.1154
 4774SOL    HW125955   0.646   4.224  17.078  2.4642 -1.4785  0.5037
 4774SOL    HW225956   0.724   4.118  17.013  0.1779 -1.2292 -0.7246
 4775SOL     OW25957   3.306   2.788   6.528  0.2019  0.0597  0.1841
 4775SOL    HW125958   3.356   2.802   6.448 -1.4755  2.2225 -0.4840
 4775SOL    HW225959   3.284   2.695   6.518  2.6260 -0.1657 -2.9049
 4776SOL     OW25960   3.287   3.495   3.696 -0.6799 -0.2527 -0.0264
 4776SOL    HW125961   3.328   3.418   3.656  0.1336  0.6786 -0.9721
 4776SOL    HW225962   3.205   3.454   3.724 -0.4957  0.4347  1.5030
 4777SOL     OW25963   4.169   2.326   4.618 -0.1325 -0.1557  0.0541
 4777SOL    HW125964   4.133   2.256   4.673 -0.2366 -0.4863 -0.4312
 4777SOL    HW225965   4.094   2.384   4.612  1.0024  1.1631 -1.4270
 4778SOL     OW25966   2.097   2.034   8.777  0.1409 -0.2790  0.1938
 4778SOL    HW125967   2.026   2.098   8.782  1.8377  1.5519  0.9870
 4778SOL    HW225968   2.137   2.065   8.858 -1.3604  2.6256 -0.1699
 4779SOL     OW25969   4.654   2.082   2.906  0.2831  0.0534 -0.3189
 4779SOL    HW125970   4.726   2.106   2.848 -1.3071  0.4922 -2.1342
 4779SOL    HW225971   4.692   2.099   2.992  0.1913 -1.2230 -0.0249
 4780SOL     OW25972   3.430   0.753   8.446 -0.5054 -0.1245  0.3550
 4780SOL    HW125973   3.477   0.677   8.483 -2.1607 -1.6547 -0.6971
 4780SOL    HW225974   3.475   0.826   8.488  0.4388 -1.9114  2.5201
 4781SOL     OW25975   3.487   2.787  16.435 -0.4204  0.1368 -0.1216
 4781SOL    HW125976   3.402   2.815  16.467 -0.1915 -1.9193  2.3128
 4781SOL    HW225977   3.541   2.861  16.461  2.0175 -1.2911 -1.0444
 4782SOL     OW25978   4.263   1.765  13.190  0.6336 -0.7661  0.0185
 4782SOL    HW125979   4.252   1.735  13.280 -1.8929  1.6162  0.5296
 4782SOL    HW225980   4.314   1.700  13.143  0.1846 -1.6264  0.7222
 4783SOL     OW25981   2.960   3.489   5.780  0.1291 -0.3780 -0.8195
 4783SOL    HW125982   3.041   3.454   5.816  0.8142  1.2654 -0.7840
 4783SOL    HW225983   2.927   3.538   5.856  0.1216 -1.5632 -0.0593
 4784SOL     OW25984   2.647   2.146   9.097 -0.5280 -0.1635  0.2871
 4784SOL    HW125985   2.585   2.129   9.027  0.4664  2.6282 -1.2703
 4784SOL    HW225986   2.602   2.101   9.169  0.7192 -2.4526 -0.3747
 4785SOL     OW25987   1.855   3.259   2.610 -0.0621  0.0409  0.2137
 4785SOL    HW125988   1.944   3.280   2.638 -0.1369  2.2050 -1.1846
 4785SOL    HW225989   1.874   3.202   2.536 -0.5304  1.9129 -1.3451
 4786SOL     OW25990   3.072   3.427  17.066  0.2461 -0.1437 -0.0949
 4786SOL    HW125991   3.125   3.483  17.010 -0.1007  2.7485  2.5083
 4786SOL    HW225992   3.017   3.386  16.999  0.2130  0.2364 -0.2994
 4787SOL     OW25993   2.981   3.879   3.365 -0.1079 -0.6208 -0.4784
 4787SOL    HW125994   3.050   3.911   3.307  0.1964  2.7499  1.7220
 4787SOL    HW225995   2.911   3.903   3.305 -0.6392 -0.9281  0.0247
 4788SOL     OW25996   2.613   3.295   7.374  0.1331  0.2105  0.0374
 4788SOL    HW125997   2.549   3.354   7.333 -1.1286 -0.7644  0.6131
 4788SOL    HW225998   2.569   3.296   7.460  0.3655  2.6308  0.1269
 4789SOL     OW25999   4.458   2.382   8.927 -0.0589 -0.4495  0.6528
 4789SOL    HW126000   4.369   2.346   8.929 -0.3621  0.3574  1.8452
 4789SOL    HW226001   4.497   2.359   9.011 -1.4823 -1.1804  1.0989
 4790SOL     OW26002   4.451   2.936  15.275 -0.3953  0.1982  0.2543
 4790SOL    HW126003   4.431   2.850  15.313 -1.3886  1.2538  2.1217
 4790SOL    HW226004   4.363   2.940  15.238  0.2573  2.2835 -1.1028
 4791SOL     OW26005   4.059   4.152  11.924 -0.0258 -0.5020 -0.0456
 4791SOL    HW126006   3.975   4.187  11.893  0.2566 -0.0402 -0.2915
 4791SOL    HW226007   4.093   4.110  11.845  0.0700  1.7896 -1.2253
 4792SOL     OW26008   2.950   0.264   2.630 -0.6437  0.5151 -0.4505
 4792SOL    HW126009   2.861   0.269   2.595 -1.0464 -2.5514  0.1595
 4792SOL    HW226010   2.983   0.188   2.582 -1.1405  1.1588 -1.8164
 4793SOL     OW26011   0.536   4.326   5.349 -0.4184 -0.1273  0.4006
 4793SOL    HW126012   0.606   4.384   5.380 -0.4763  1.7809 -3.0705
 4793SOL    HW226013   0.461   4.349   5.405  0.0873  0.3938  0.8680
 4794SOL     OW26014   3.279   4.341   5.383 -0.1459  0.2990 -0.2949
 4794SOL    HW126015   3.274   4.376   5.294 -0.1762 -1.9735 -1.1858
 4794SOL    HW226016   3.230   4.259   5.389 -1.6157  1.2134  0.2527
 4795SOL     OW26017   4.306   0.135   5.625 -0.1297 -0.2556 -0.1651
 4795SOL    HW126018   4.375   0.151   5.562  0.8749  0.8440  1.2157
 4795SOL    HW226019   4.346   0.171   5.704  1.1890  1.9786 -1.8549
 4796SOL     OW26020   3.292   3.050   6.581  0.4684 -0.1443  0.4276
 4796SOL    HW126021   3.305   2.955   6.577 -0.8495 -0.4227  2.7115
 4796SOL    HW226022   3.327   3.084   6.663  1.3540  3.0199 -1.2607
 4797SOL     OW26023   2.725   2.090   5.853  0.4101  0.0413  0.0565
 4797SOL    HW126024   2.669   2.115   5.927  1.9076  0.1839  1.1216
 4797SOL    HW226025   2.811   2.079   5.893 -0.1153 -2.6763  0.4035
 4798SOL     OW26026   4.739   3.999  14.224  0.3637 -0.1360  0.1057
 4798SOL    HW126027   0.067   4.024  14.162  0.6720  0.5527  0.7190
 4798SOL    HW226028   4.686   4.079  14.228  0.5853  0.0773 -1.1752
 4799SOL     OW26029   2.973   4.634   7.511 -0.3931  0.0528  0.4488
 4799SOL    HW126030   2.929   4.555   7.479 -1.5141  1.0274 -0.4158
 4799SOL    HW226031   2.948   4.693   7.439 -1.1873 -0.0071  0.6810
 4800SOL     OW26032   2.871   4.728  17.055  0.4503  0.1249 -0.1116
 4800SOL    HW126033   2.836   0.021  16.972  1.9156 -1.2332 -1.2877
 4800SOL    HW226034   2.959   0.027  17.051 -0.1975  1.3834 -2.5484
 4801SOL     OW26035   4.338   2.196   5.773  0.3778  1.0773 -0.1868
 4801SOL    HW126036   4.321   2.279   5.727 -0.2774 -1.2577 -4.1557
 4801SOL    HW226037   4.428   2.166   5.755  0.0585 -0.1732  0.3165
 4802SOL     OW26038   2.124   0.938   6.201 -0.2123 -0.1161 -0.1717
 4802SOL    HW126039   2.101   0.935   6.294  1.6902 -1.8798  0.2197
 4802SOL    HW226040   2.057   0.999   6.170 -0.0632  0.2276  0.1904
 4803SOL     OW26041   1.561   0.352   8.627  0.3439 -0.2491  0.7176
 4803SOL    HW126042   1.469   0.357   8.651  0.5664  0.0540  1.5069
 4803SOL    HW226043   1.559   0.341   8.532 -0.7664  0.7641  0.6201
 4804SOL     OW26044   0.606   3.608  12.020  0.4868  0.1022 -0.3770
 4804SOL    HW126045   0.650   3.665  11.956 -0.2456  0.6692 -0.3739
 4804SOL    HW226046   0.685   3.569  12.058  1.7469  2.6797 -0.3289
 4805SOL     OW26047   0.610   0.492  12.364 -0.8593 -0.1240 -0.0741
 4805SOL    HW126048   0.550   0.567  12.366  1.1207  1.4684 -0.0375
 4805SOL    HW226049   0.550   0.420  12.350 -0.0297 -1.0973  1.4373
 4806SOL     OW26050   2.123   1.952  15.996  0.1605 -0.1763 -0.1771
 4806SOL    HW126051   2.141   1.860  15.974  0.1276  0.5438 -3.2024
 4806SOL    HW226052   2.209   1.992  16.009 -0.1569  0.9458 -1.5401
 4807SOL     OW26053   3.111   0.036  15.547  0.4393  0.4359 -0.4004
 4807SOL    HW126054   3.186   0.096  15.538  1.3652 -0.5921  0.4372
 4807SOL    HW226055   3.046   0.085  15.598  1.5236  0.6828  0.7653
 4808SOL     OW26056   1.930   0.457   8.105  0.1766  0.1791 -0.4910
 4808SOL    HW126057   1.955   0.548   8.093  2.7523 -0.3846  0.3678
 4808SOL    HW226058   1.886   0.438   8.022  1.3436  2.5819 -1.6624
 4809SOL     OW26059   3.725   3.800   4.135  0.4414  0.3219  0.0931
 4809SOL    HW126060   3.682   3.782   4.052 -0.8607  0.3797  0.7528
 4809SOL    HW226061   3.810   3.836   4.109 -0.4665  0.9978 -1.8753
 4810SOL     OW26062   2.503   2.679   4.621  0.2784  0.2605  0.0335
 4810SOL    HW126063   2.574   2.663   4.559  0.7459  0.6173  0.4806
 4810SOL    HW226064   2.544   2.655   4.704 -0.0184 -3.3973 -0.8950
 4811SOL     OW26065   0.378   2.198   4.219  0.0735  0.0793  0.3239
 4811SOL    HW126066   0.310   2.177   4.283  2.7463 -1.1747  2.7143
 4811SOL    HW226067   0.440   2.255   4.264 -0.1488 -0.1214  0.8793
 4812SOL     OW26068   0.698   2.814  11.251 -0.1275 -0.4503 -0.7252
 4812SOL    HW126069   0.660   2.867  11.181 -1.6393  1.2145  1.3572
 4812SOL    HW226070   0.787   2.848  11.259  0.0031 -1.1151  0.6391
 4813SOL     OW26071   1.179   1.214   6.655  0.2137  0.3634  0.0573
 4813SOL    HW126072   1.203   1.288   6.711  0.2165  0.4521 -0.0631
 4813SOL    HW226073   1.242   1.222   6.584 -0.4582  1.1829 -0.4448
 4814SOL     OW26074   3.627   3.612   8.660  0.4072  0.1059  0.0345
 4814SOL    HW126075   3.696   3.581   8.719  1.1957  0.4669 -0.7008
 4814SOL    HW226076   3.661   3.700   8.643  2.3219 -0.8183 -0.8909
 4815SOL     OW26077   4.610   3.666   7.476 -0.0291 -0.7236  0.1957
 4815SOL    HW126078   4.698   3.628   7.469  0.4779  0.3669  0.5488
 4815SOL    HW226079   4.553   3.600   7.437  1.1295 -0.9143 -1.1390
 4816SOL     OW26080   0.201   0.748   4.345 -0.1630  0.0558  0.2916
 4816SOL    HW126081   0.181   0.655   4.333 -1.8074  0.7429 -2.2526
 4816SOL    HW226082   0.191   0.748   4.440 -1.1782 -2.8063  0.2029
 4817SOL     OW26083   0.546   1.506  10.458 -0.0043  0.1132  0.1663
 4817SOL    HW126084   0.543   1.439  10.526  1.1682  0.2059  0.2969
 4817SOL    HW226085   0.637   1.514  10.431 -0.1474 -0.1792 -0.3951
 4818SOL     OW26086   0.295   1.086   8.844  0.2832  0.2540 -0.4304
 4818SOL    HW126087   0.343   1.145   8.786  2.0548  0.1547  0.9399
 4818SOL    HW226088   0.207   1.124   8.842  0.3453  0.4310  0.0724
 4819SOL     OW26089   4.393   0.260   5.866  0.1166 -0.8413 -0.3940
 4819SOL    HW126090   4.456   0.191   5.846  3.5514  2.4647 -0.9710
 4819SOL    HW226091   4.397   0.256   5.962 -0.4411  0.0166 -0.3336
 4820SOL     OW26092   1.931   4.016  13.000 -0.3489 -0.1020 -0.5428
 4820SOL    HW126093   1.910   3.973  12.917 -0.4770 -0.7604 -0.1714
 4820SOL    HW226094   1.850   4.063  13.019 -0.7029 -0.8404 -0.2203
 4821SOL     OW26095   3.051   1.115  16.507 -0.7989 -0.0210 -0.2453
 4821SOL    HW126096   3.090   1.166  16.578  0.8026 -2.5905  0.7303
 4821SOL    HW226097   3.130   1.063  16.491  0.3018  1.2737  0.9582
 4822SOL     OW26098   4.564   1.741  16.009  0.2929 -0.6858  0.5243
 4822SOL    HW126099   4.617   1.813  15.977 -0.3593 -1.8986 -3.3198
 4822SOL    HW226100   4.486   1.777  16.050 -0.6568 -2.5072  0.3309
 4823SOL     OW26101   0.681   0.041  13.742 -0.5103 -0.1248  0.2099
 4823SOL    HW126102   0.709   0.127  13.773  2.0931 -0.6089 -0.8064
 4823SOL    HW226103   0.615   0.073  13.680  0.1171 -0.4072 -0.6072
 4824SOL     OW26104   0.620   3.534   3.578  0.1986  0.0610  0.1006
 4824SOL    HW126105   0.563   3.501   3.508 -0.8456 -0.4772  1.2154
 4824SOL    HW226106   0.704   3.534   3.532  0.2969 -0.0087  0.2825
 4825SOL     OW26107   2.069   4.065  15.027 -0.0007  0.1914  0.2071
 4825SOL    HW126108   2.007   4.000  15.060 -0.4303 -0.0938 -1.1495
 4825SOL    HW226109   2.018   4.101  14.955  1.7787  1.8651 -0.2011
 4826SOL     OW26110   1.778   4.200  15.585 -0.8702 -0.2643  0.4329
 4826SOL    HW126111   1.719   4.128  15.563 -1.5930  0.7809 -1.0295
 4826SOL    HW226112   1.780   4.243  15.500 -0.6380 -0.8454  0.1444
 4827SOL     OW26113   1.791   3.901   6.846  0.2122 -0.6249  0.1968
 4827SOL    HW126114   1.759   3.820   6.886 -0.6118 -0.3715  0.0522
 4827SOL    HW226115   1.853   3.934   6.911 -1.5705  3.4480 -0.1775
 4828SOL     OW26116   3.417   1.851   7.287  0.0092 -0.5996  0.1547
 4828SOL    HW126117   3.510   1.857   7.268  0.2942 -1.5591  1.3090
 4828SOL    HW226118   3.415   1.891   7.374 -1.0324 -1.7924  0.6659
 4829SOL     OW26119   0.998   2.904   5.490 -0.4918 -0.1960 -0.2113
 4829SOL    HW126120   1.086   2.943   5.501 -0.6533 -0.3389  1.7169
 4829SOL    HW226121   0.949   2.968   5.543  1.1936  1.5307 -0.7145
 4830SOL     OW26122   4.607   2.467   5.251  0.0416 -0.4539 -0.2178
 4830SOL    HW126123   4.535   2.479   5.188 -1.5004 -2.4392  1.1466
 4830SOL    HW226124   4.623   2.559   5.271  1.7148 -0.9237  0.5208
 4831SOL     OW26125   4.001   0.355   9.246 -0.0966 -0.3776  0.3291
 4831SOL    HW126126   4.035   0.321   9.164  1.9668  2.9373 -0.1960
 4831SOL    HW226127   4.020   0.291   9.314 -0.3530 -1.4765 -0.6345
 4832SOL     OW26128   1.183   4.297   1.519  0.1789 -0.0088 -0.0764
 4832SOL    HW126129   1.222   4.229   1.574 -1.1124 -0.8050 -0.1226
 4832SOL    HW226130   1.211   4.378   1.560 -0.9632  0.8991 -1.0777
 4833SOL     OW26131   0.422   0.099   7.076 -0.0226 -0.4571 -0.2886
 4833SOL    HW126132   0.401   0.190   7.098  0.3940 -0.3680 -0.2483
 4833SOL    HW226133   0.411   0.051   7.158  0.3068  1.3688  0.8145
 4834SOL     OW26134   2.578   4.393   8.762 -0.2051  0.1940 -0.5807
 4834SOL    HW126135   2.626   4.331   8.817 -0.9693  0.6631  0.6258
 4834SOL    HW226136   2.632   4.472   8.765  0.5366 -0.3255 -0.3617
 4835SOL     OW26137   1.414   1.658   6.416  0.0171  0.1550  0.2810
 4835SOL    HW126138   1.413   1.597   6.342  2.0553  3.9873 -2.9342
 4835SOL    HW226139   1.488   1.626   6.467 -1.2471 -1.3841  1.1486
 4836SOL     OW26140   2.330   0.350   4.504 -0.0275 -0.0219  0.2582
 4836SOL    HW126141   2.242   0.388   4.502 -0.0784 -0.0796  1.1174
 4836SOL    HW226142   2.348   0.336   4.411 -3.0303  1.4356 -0.5244
 4837SOL     OW26143   2.497   4.297  10.534 -0.0931  0.3668 -0.9393
 4837SOL    HW126144   2.510   4.203  10.547  0.5068  0.2704 -2.3663
 4837SOL    HW226145   2.589   4.322  10.527  0.4277 -0.6751  1.9932
 4838SOL     OW26146   0.218   4.523   1.066  0.3694 -0.2217 -0.6638
 4838SOL    HW126147   0.213   4.530   1.161  0.5906 -1.2087 -0.5746
 4838SOL    HW226148   0.223   4.428   1.055 -0.6363 -0.5519  1.5809
 4839SOL     OW26149   4.632   4.499   2.166  0.0726 -0.2610  0.4820
 4839SOL    HW126150   4.555   4.508   2.223 -0.1724  1.4617 -0.1347
 4839SOL    HW226151   4.669   4.586   2.174 -0.7285  0.0845  0.3897
 4840SOL     OW26152   4.732   2.420   7.148  0.2330 -0.4331  0.5156
 4840SOL    HW126153   4.729   2.515   7.157 -0.0045 -0.5008  1.1113
 4840SOL    HW226154   0.087   2.404   7.147  0.6809  2.1932  0.7522
 4841SOL     OW26155   0.225   2.377   4.864 -0.1231 -0.3241  0.2185
 4841SOL    HW126156   0.136   2.343   4.857 -0.4678  0.6924 -0.3228
 4841SOL    HW226157   0.251   2.405   4.777 -2.0439 -1.8342 -0.8458
 4842SOL     OW26158   2.724   0.205  14.749  0.1462  0.0683 -0.2995
 4842SOL    HW126159   2.682   0.219  14.664  0.3370  0.3489 -0.3505
 4842SOL    HW226160   2.692   0.273  14.809 -3.8275 -2.4115  0.3958
 4843SOL     OW26161   4.586   0.942   2.747  0.2431  0.5420  0.7617
 4843SOL    HW126162   4.566   0.921   2.656 -0.0004  0.8994  0.7365
 4843SOL    HW226163   4.681   0.955   2.749  0.2632  0.4961  0.0675
 4844SOL     OW26164   1.673   3.996   8.470 -0.5843 -0.3202  0.6374
 4844SOL    HW126165   1.743   4.003   8.405 -1.6944 -0.9098 -0.6337
 4844SOL    HW226166   1.724   4.038   8.538 -0.1884 -2.5507  1.7030
 4845SOL     OW26167   3.929   1.328   3.389 -0.1457  0.4686 -0.7506
 4845SOL    HW126168   3.989   1.306   3.460 -2.1153  0.9280  1.0556
 4845SOL    HW226169   3.994   1.339   3.319  1.6994 -0.1408  0.8846
 4846SOL     OW26170   0.392   4.210  11.389  0.1551  0.2890 -0.3675
 4846SOL    HW126171   0.408   4.116  11.397 -1.7762 -0.0323 -0.2163
 4846SOL    HW226172   0.421   4.223  11.299  1.0415  0.6274 -0.0322
 4847SOL     OW26173   0.359   0.825   7.443 -0.1416  0.5183 -0.8552
 4847SOL    HW126174   0.323   0.736   7.435  1.3223  0.0187 -1.8662
 4847SOL    HW226175   0.407   0.815   7.361  0.0730 -0.9824 -0.5526
 4848SOL     OW26176   2.363   1.952   5.134 -0.1017 -0.2596  0.3785
 4848SOL    HW126177   2.427   1.934   5.203  0.1113  1.6835  0.6890
 4848SOL    HW226178   2.348   2.045   5.150 -1.6804  0.0773 -3.2045
 4849SOL     OW26179   2.046   2.309  11.552  0.1016  0.2401  0.3865
 4849SOL    HW126180   2.045   2.368  11.476  1.3352  0.0144  0.1895
 4849SOL    HW226181   2.098   2.238  11.514 -2.0300 -1.5441  0.8440
 4850SOL     OW26182   2.869   2.697   0.816  0.2799  0.2011 -0.3243
 4850SOL    HW126183   2.958   2.666   0.801 -0.6835 -2.4228 -0.6155
 4850SOL    HW226184   2.830   2.648   0.890  0.3283 -0.9651 -1.0669
 4851SOL     OW26185   2.832   3.446   5.032 -0.2945  0.1008 -0.0981
 4851SOL    HW126186   2.882   3.452   5.113 -1.1364  2.2056  0.2742
 4851SOL    HW226187   2.748   3.406   5.057 -0.6011  1.2576  0.7327
 4852SOL     OW26188   4.103   4.224   9.191 -0.4248  0.1507  0.2247
 4852SOL    HW126189   4.030   4.287   9.188 -0.3164  0.2311 -0.7334
 4852SOL    HW226190   4.060   4.148   9.230 -0.5546 -0.9444 -2.0538
 4853SOL     OW26191   3.431   3.229  12.150 -0.0599 -0.2447 -0.6597
 4853SOL    HW126192   3.429   3.324  12.153 -0.8578 -0.3449  1.5276
 4853SOL    HW226193   3.346   3.201  12.184  1.1301 -0.3436  2.1420
 4854SOL     OW26194   4.055   2.319   8.643  0.3829  0.0015  0.7176
 4854SOL    HW126195   4.036   2.226   8.633  0.0187 -0.1602  2.9471
 4854SOL    HW226196   4.093   2.355   8.563  0.5372  0.5494  1.0380
 4855SOL     OW26197   3.514   0.172  15.349 -0.1831  0.1609  0.4272
 4855SOL    HW126198   3.581   0.188  15.416  0.1634  0.2639  0.0533
 4855SOL    HW226199   3.445   0.232  15.379 -1.7287  0.1222 -3.1149
 4856SOL     OW26200   4.217   2.832   4.032  0.0055  0.0428 -0.0988
 4856SOL    HW126201   4.124   2.854   4.031 -0.1164 -0.4239  3.5082
 4856SOL    HW226202   4.243   2.905   4.089 -0.2790  1.5149 -1.8347
 4857SOL     OW26203   3.693   2.936   3.635 -0.0469 -0.1636  0.4061
 4857SOL    HW126204   3.681   2.874   3.563  0.2554 -1.0118  1.0799
 4857SOL    HW226205   3.643   2.903   3.710  0.0819 -0.2583  0.4513
 4858SOL     OW26206   3.506   1.425  11.703 -0.3301 -0.0260 -0.2164
 4858SOL    HW126207   3.512   1.466  11.789 -2.4370 -2.1219  0.9324
 4858SOL    HW226208   3.569   1.485  11.662 -1.1506  1.6081  0.9558
 4859SOL     OW26209   4.316   2.478  13.456  0.1850 -0.1192 -0.7606
 4859SOL    HW126210   4.296   2.391  13.490  1.2994 -0.7177 -1.6177
 4859SOL    HW226211   4.278   2.534  13.523  1.0689 -0.0793 -0.2895
 4860SOL     OW26212   0.086   0.822   3.514 -1.2805 -1.1047  0.0566
 4860SOL    HW126213   0.006   0.776   3.488 -0.3271 -1.7947 -1.6685
 4860SOL    HW226214   0.061   0.853   3.601 -1.3614 -3.5511  0.9003
 4861SOL     OW26215   3.617   1.016   2.727 -0.5431  0.4758 -0.1805
 4861SOL    HW126216   3.571   1.058   2.799 -1.5953  1.0206 -1.1664
 4861SOL    HW226217   3.582   0.928   2.737  2.1844 -0.5234  0.5700
 4862SOL     OW26218   3.112   2.675  11.501  0.0922  0.3962  0.0462
 4862SOL    HW126219   3.068   2.756  11.474 -0.8821 -0.8575 -2.0887
 4862SOL    HW226220   3.163   2.709  11.575  0.2020 -0.9932  0.6009
 4863SOL     OW26221   0.882   0.210   3.532  0.4026  0.0504  0.2397
 4863SOL    HW126222   0.831   0.140   3.492 -0.2386  1.0315 -0.6617
 4863SOL    HW226223   0.972   0.201   3.502  0.1975  2.6568 -1.1482
 4864SOL     OW26224   3.030   3.518   9.259  0.2697 -0.4782  0.1635
 4864SOL    HW126225   2.953   3.572   9.241 -0.4750 -1.1194  1.4319
 4864SOL    HW226226   3.001   3.439   9.213 -1.0611  2.1753 -3.6136
 4865SOL     OW26227   2.116   1.821   2.455  0.0825  0.2216 -0.7175
 4865SOL    HW126228   2.074   1.765   2.520  1.6045  0.3435  0.3742
 4865SOL    HW226229   2.085   1.775   2.376 -2.3304  1.0697 -0.2558
 4866SOL     OW26230   1.445   0.917   9.974 -0.0727  0.5191  0.0169
 4866SOL    HW126231   1.486   0.973  10.039 -0.7324  0.4964  0.4530
 4866SOL    HW226232   1.407   0.852  10.033  0.6366 -1.1870 -1.4066
 4867SOL     OW26233   3.065   3.526   6.713 -0.0225  0.0127 -0.3881
 4867SOL    HW126234   3.017   3.599   6.752 -0.9581 -1.7968  1.8345
 4867SOL    HW226235   3.063   3.560   6.623 -0.2549  1.0299  0.0051
 4868SOL     OW26236   0.838   0.903   6.358 -0.2297 -0.5980 -0.4588
 4868SOL    HW126237   0.898   0.952   6.414 -0.8889  0.7428 -0.9312
 4868SOL    HW226238   0.890   0.823   6.346  2.3763  1.1579 -0.8375
 4869SOL     OW26239   2.772   3.146   2.664  0.5432  0.3084 -0.1487
 4869SOL    HW126240   2.850   3.201   2.671  1.5992 -1.6003  2.8531
 4869SOL    HW226241   2.791   3.100   2.582 -2.4288 -0.4904 -0.3913
 4870SOL     OW26242   1.528   0.041  13.896  0.4918 -0.3801 -0.3062
 4870SOL    HW126243   1.459   0.023  13.960  0.0241  1.3329 -0.3073
 4870SOL    HW226244   1.490   0.120  13.856 -0.1373 -0.7810 -0.4906
 4871SOL     OW26245   0.594   2.133   5.682 -0.6056 -0.3310  0.1074
 4871SOL    HW126246   0.521   2.112   5.739 -0.8574 -1.1605 -0.5196
 4871SOL    HW226247   0.545   2.130   5.600  0.8609 -1.9355 -0.7147
 4872SOL     OW26248   0.529   2.912   6.927  0.0458 -0.5012 -0.5268
 4872SOL    HW126249   0.477   2.961   6.862 -0.2988 -0.3282 -0.1202
 4872SOL    HW226250   0.454   2.863   6.961  0.8848 -1.2076  0.2805
 4873SOL     OW26251   1.783   2.365   4.214  0.2541 -0.2774 -0.6323
 4873SOL    HW126252   1.779   2.279   4.256  0.1281 -0.8320 -1.7886
 4873SOL    HW226253   1.756   2.351   4.123  0.0614 -2.1956 -0.2885
 4874SOL     OW26254   0.959   3.585  14.460  0.1141 -0.0098  0.3843
 4874SOL    HW126255   0.901   3.653  14.496 -1.6768 -1.1825 -0.3077
 4874SOL    HW226256   1.015   3.560  14.533  1.3240 -1.5593 -1.0722
 4875SOL     OW26257   3.349   2.558   8.691 -1.2154  1.0780  0.4266
 4875SOL    HW126258   3.327   2.554   8.598  5.3526  0.2457 -1.0803
 4875SOL    HW226259   3.444   2.559   8.691 -1.2082  0.3463 -0.5108
 4876SOL     OW26260   2.128   2.293   9.051  0.0261 -0.5654 -0.2101
 4876SOL    HW126261   2.189   2.345   9.103 -0.3557 -1.8378  1.4663
 4876SOL    HW226262   2.187   2.275   8.978  1.0697 -0.4888  0.6189
 4877SOL     OW26263   3.319   2.025  14.670 -0.4362  0.0750 -0.2395
 4877SOL    HW126264   3.238   2.038  14.720 -0.9717 -2.2377 -0.4862
 4877SOL    HW226265   3.290   1.973  14.595 -3.7389 -1.3317  1.9954
 4878SOL     OW26266   2.953   2.321   3.824  0.3465 -0.8043  0.0559
 4878SOL    HW126267   2.890   2.275   3.880 -0.8401  0.1408 -0.5031
 4878SOL    HW226268   3.028   2.262   3.830 -0.2923 -1.3769  2.4655
 4879SOL     OW26269   1.877   1.825  10.233  0.2951  0.4245  0.3990
 4879SOL    HW126270   1.966   1.789  10.232 -0.7082 -2.0006 -0.8700
 4879SOL    HW226271   1.881   1.881  10.310 -1.2714  0.1148  0.7118
 4880SOL     OW26272   4.627   2.996   6.375 -0.6795 -0.1033  0.2285
 4880SOL    HW126273   4.685   2.951   6.314 -1.1191  1.1014 -1.0868
 4880SOL    HW226274   4.598   2.926   6.434 -0.8528 -0.3778 -0.1772
 4881SOL     OW26275   3.391   2.816   8.831 -0.2121 -0.1435 -0.2391
 4881SOL    HW126276   3.376   2.735   8.781  2.0809 -1.5154  1.2899
 4881SOL    HW226277   3.303   2.852   8.820  0.4239  0.8611 -1.9374
 4882SOL     OW26278   2.686   3.280  12.696  0.2202  0.0408  0.0013
 4882SOL    HW126279   2.715   3.354  12.749  2.0454 -1.2077  0.7797
 4882SOL    HW226280   2.726   3.306  12.613  0.2796  0.5732  0.1962
 4883SOL     OW26281   1.729   4.363   7.923 -0.4786 -0.4841 -0.4445
 4883SOL    HW126282   1.670   4.336   7.994  0.9621 -2.3001  0.0484
 4883SOL    HW226283   1.729   4.282   7.873  2.1746  0.6738 -2.3395
 4884SOL     OW26284   1.084   1.568   4.102  0.7959  0.2850 -0.3329
 4884SOL    HW126285   1.030   1.645   4.117 -0.0484 -0.3026 -0.3227
 4884SOL    HW226286   1.093   1.572   4.007  2.7748 -0.9222 -0.1896
 4885SOL     OW26287   4.653   2.471   9.765  0.4235 -0.2851 -0.0358
 4885SOL    HW126288   4.674   2.383   9.797 -1.2134 -0.0541  1.7012
 4885SOL    HW226289   4.653   2.524   9.845  0.3787 -0.4330  0.0631
 4886SOL     OW26290   2.461   4.428   6.982  0.1191  0.0045 -0.1127
 4886SOL    HW126291   2.521   4.499   7.007  0.5331 -0.7532  1.0528
 4886SOL    HW226292   2.444   4.442   6.889 -1.0694 -1.7850 -0.1564
 4887SOL     OW26293   4.673   1.013   7.007  0.1568 -0.1064  0.0599
 4887SOL    HW126294   4.686   0.939   7.067  0.6353  0.1359  0.2557
 4887SOL    HW226295   4.671   1.086   7.070 -1.9742 -1.4350  1.5242
 4888SOL     OW26296   3.198   0.793   7.270 -0.0608  0.3601  0.1877
 4888SOL    HW126297   3.265   0.742   7.315 -0.6510  0.6102  1.3414
 4888SOL    HW226298   3.195   0.878   7.315 -0.6105  0.3476  0.1681
 4889SOL     OW26299   2.419   3.557   7.690 -0.0609 -0.0152  0.5015
 4889SOL    HW126300   2.491   3.617   7.707  0.5299  0.2689 -2.8755
 4889SOL    HW226301   2.380   3.552   7.777  1.6834 -5.0734  0.9806
 4890SOL     OW26302   2.972   0.687  11.808 -0.1509 -0.1760  0.5390
 4890SOL    HW126303   3.038   0.695  11.877 -0.3558  1.4102  0.5637
 4890SOL    HW226304   2.947   0.595  11.804 -0.8018  0.0893 -1.6277
 4891SOL     OW26305   1.431   2.339   6.799  0.3286 -0.3438  0.0208
 4891SOL    HW126306   1.351   2.350   6.748  1.7508  1.2802 -1.8617
 4891SOL    HW226307   1.429   2.419   6.851  2.8378  0.8660 -1.6956
 4892SOL     OW26308   4.262   0.310   4.862  0.2253 -0.1148  0.0563
 4892SOL    HW126309   4.357   0.302   4.856  0.1438  1.0618 -3.1077
 4892SOL    HW226310   4.251   0.382   4.799 -2.1205  0.0462  0.6470
 4893SOL     OW26311   0.061   2.876   0.798  0.6757 -0.5755  0.1842
 4893SOL    HW126312   0.073   2.942   0.866 -2.2058  0.1632 -0.0120
 4893SOL    HW226313   0.148   2.851   0.768  0.7954  0.5867 -0.4145
 4894SOL     OW26314   3.868   1.516  12.103 -0.0296 -0.4300  0.2425
 4894SOL    HW126315   3.960   1.527  12.127  0.2393 -1.0118 -0.5418
 4894SOL    HW226316   3.847   1.600  12.062 -1.1715  0.5342  2.7902
 4895SOL     OW26317   0.588   2.914   2.024  0.0079 -0.2438  0.3452
 4895SOL    HW126318   0.511   2.955   2.063  1.9152  3.6515  0.0474
 4895SOL    HW226319   0.595   2.971   1.948  0.4615  0.0785  0.6275
 4896SOL     OW26320   1.567   3.750   8.461 -0.2205 -0.3518  0.5636
 4896SOL    HW126321   1.644   3.737   8.517 -0.8818 -2.1762  1.0501
 4896SOL    HW226322   1.578   3.842   8.438 -1.0992 -0.3969 -0.0474
 4897SOL     OW26323   1.278   1.243   4.720  0.3613  0.1403  0.7097
 4897SOL    HW126324   1.210   1.310   4.711  0.1165 -0.0783  0.9229
 4897SOL    HW226325   1.271   1.196   4.637  0.1034  1.5690 -0.0830
 4898SOL     OW26326   0.376   0.494   8.545  0.4793 -0.3333 -0.6204
 4898SOL    HW126327   0.360   0.480   8.452  0.3721  1.1921 -0.8293
 4898SOL    HW226328   0.467   0.524   8.542 -0.2306  1.8146 -0.5192
 4899SOL     OW26329   2.321   4.030  10.746  0.3868  0.1384  0.1471
 4899SOL    HW126330   2.275   4.101  10.791 -3.1270 -0.2832 -2.6983
 4899SOL    HW226331   2.255   3.962  10.758 -0.0691  0.9058  2.0266
 4900SOL     OW26332   3.055   1.162   6.350  0.2991  0.8620 -0.4437
 4900SOL    HW126333   3.145   1.157   6.317 -0.6129  1.4153 -3.0519
 4900SOL    HW226334   3.014   1.098   6.290  2.7498  0.1533 -1.3512
 4901SOL     OW26335   2.486   2.607  10.017  0.3749  0.2538 -0.3151
 4901SOL    HW126336   2.506   2.620  10.110 -0.1908 -0.4338 -0.1001
 4901SOL    HW226337   2.570   2.635   9.979  2.5317 -1.8664  2.8550
 4902SOL     OW26338   1.231   3.133   7.915  0.0096  0.1105  0.0978
 4902SOL    HW126339   1.184   3.177   7.986 -0.3830  0.8991 -0.6490
 4902SOL    HW226340   1.322   3.162   7.929 -0.1040  1.8926 -2.8172
 4903SOL     OW26341   4.577   0.021  11.475  0.3039 -0.1157  0.3744
 4903SOL    HW126342   4.599   0.020  11.568 -1.4435  2.7063  0.8127
 4903SOL    HW226343   4.506   0.085  11.480  0.1116 -0.1728 -1.6468
 4904SOL     OW26344   3.406   1.200   2.781 -0.0449  0.3578  0.5887
 4904SOL    HW126345   3.382   1.292   2.770 -0.0796 -0.0178 -2.4386
 4904SOL    HW226346   3.363   1.180   2.864 -0.7474 -2.0483 -0.3685
 4905SOL     OW26347   3.861   0.103  11.194  0.2404 -0.0021  0.2243
 4905SOL    HW126348   3.821   0.073  11.112 -0.5618  0.8255  0.3132
 4905SOL    HW226349   3.954   0.095  11.173  0.6000  1.0394  1.4163
 4906SOL     OW26350   1.600   4.652   7.967 -0.1556 -0.0536 -0.6250
 4906SOL    HW126351   1.585   4.699   7.885 -0.7006 -0.6281 -0.8597
 4906SOL    HW226352   1.632   4.573   7.924  0.6201  0.1110 -0.3566
 4907SOL     OW26353   3.873   3.671   1.364  0.4127  0.5838 -0.6576
 4907SOL    HW126354   3.957   3.641   1.399 -0.5064  0.4923  1.4364
 4907SOL    HW226355   3.875   3.661   1.269  3.1143  2.5231 -0.7958
 4908SOL     OW26356   3.454   1.339   7.583  0.3099  0.2902 -0.3221
 4908SOL    HW126357   3.485   1.367   7.668 -1.0184 -2.7202  1.1798
 4908SOL    HW226358   3.429   1.247   7.593  1.0438  0.1501  0.1899
 4909SOL     OW26359   0.351   0.898   9.282 -0.6551  0.6669 -0.1052
 4909SOL    HW126360   0.288   0.961   9.247  0.4531  1.4660 -0.6789
 4909SOL    HW226361   0.316   0.834   9.220 -2.5979  1.7258 -0.0943
 4910SOL     OW26362   1.333   0.184   4.183  0.6206 -0.2091 -0.4047
 4910SOL    HW126363   1.338   0.099   4.140  0.7569 -0.8704  0.9086
 4910SOL    HW226364   1.426   0.206   4.178  0.5566 -0.2171 -1.6434
 4911SOL     OW26365   2.725   3.467   1.281 -0.5092 -0.5302 -0.7203
 4911SOL    HW126366   2.718   3.394   1.220 -0.9199 -0.7686 -0.3927
 4911SOL    HW226367   2.676   3.536   1.235  0.9231  0.4352 -0.8028
 4912SOL     OW26368   2.285   4.033  10.458 -0.3868 -0.6359  0.3049
 4912SOL    HW126369   2.243   4.108  10.499 -0.5937 -1.8779  2.3633
 4912SOL    HW226370   2.346   4.014  10.529  0.0798  0.0060  0.0778
 4913SOL     OW26371   2.247   1.631   7.369  0.0287  0.0542 -0.0280
 4913SOL    HW126372   2.331   1.644   7.325 -0.5332  0.1529 -1.0700
 4913SOL    HW226373   2.252   1.719   7.407 -2.1290 -0.3189  1.1080
 4914SOL     OW26374   4.505   4.347   3.243 -0.1976  0.1314  0.2017
 4914SOL    HW126375   4.455   4.419   3.203 -0.4258  0.2132  0.6336
 4914SOL    HW226376   4.594   4.375   3.221 -0.6151 -0.7454 -2.5605
 4915SOL     OW26377   2.078   1.335   2.174 -0.2712  0.1739  0.4517
 4915SOL    HW126378   2.064   1.382   2.256  0.0531  1.5387 -0.2671
 4915SOL    HW226379   2.041   1.251   2.202  0.0197 -0.5873 -1.4514
 4916SOL     OW26380   1.284   3.856   0.175 -0.5309  0.7425  0.1509
 4916SOL    HW126381   1.345   3.867   0.103 -0.0777 -0.6464  0.3215
 4916SOL    HW226382   1.218   3.798   0.137 -0.6385  0.6686  0.4505
 4917SOL     OW26383   2.709   2.056  15.458  0.3885  0.1091  0.1219
 4917SOL    HW126384   2.723   2.082  15.367  0.1029 -2.1824 -0.5736
 4917SOL    HW226385   2.614   2.063  15.469  0.2199 -1.8571 -0.1291
 4918SOL     OW26386   4.184   1.293   6.920 -0.2050 -0.3774  0.1831
 4918SOL    HW126387   4.181   1.354   6.846  1.7601 -0.1140  0.3067
 4918SOL    HW226388   4.124   1.225   6.891 -1.8412 -0.1434  3.0836
 4919SOL     OW26389   1.204   3.985   7.374  0.2737  0.2667  0.4891
 4919SOL    HW126390   1.228   4.004   7.465 -1.5486  0.3776  0.9426
 4919SOL    HW226391   1.140   3.917   7.394  0.1614 -0.2998 -1.8034
 4920SOL     OW26392   3.021   4.366   6.176 -0.4042  0.3440  0.6410
 4920SOL    HW126393   2.954   4.309   6.139 -1.6651 -0.1999  3.7436
 4920SOL    HW226394   3.101   4.328   6.139  0.3582  1.8802  0.7036
 4921SOL     OW26395   3.256   1.312   3.813  0.2337  0.2775  0.2033
 4921SOL    HW126396   3.177   1.297   3.864 -0.8004 -0.0051 -1.4572
 4921SOL    HW226397   3.329   1.270   3.858  0.3683 -0.1766 -0.4394
 4922SOL     OW26398   2.961   4.171  16.194  0.5358 -0.1431  0.0611
 4922SOL    HW126399   3.049   4.209  16.191  0.5402  0.0311  2.2061
 4922SOL    HW226400   2.924   4.241  16.247 -1.5358 -0.5504 -0.8538
 4923SOL     OW26401   4.249   4.156  15.503 -0.3983  0.0648 -0.4450
 4923SOL    HW126402   4.162   4.194  15.500  0.7976  2.8036 -0.7829
 4923SOL    HW226403   4.291   4.222  15.560 -0.1827  0.8600 -1.5218
 4924SOL     OW26404   1.915   4.371   6.718  0.0975  0.1820 -0.3226
 4924SOL    HW126405   1.893   4.356   6.810 -2.9963  0.0749 -1.0913
 4924SOL    HW226406   1.881   4.458   6.700 -0.6841 -0.2349 -0.8632
 4925SOL     OW26407   3.297   2.985   1.816 -0.1089 -0.1657 -0.1429
 4925SOL    HW126408   3.225   2.937   1.857  0.6450 -1.6563 -0.5791
 4925SOL    HW226409   3.340   3.005   1.899  0.7792 -1.6449 -0.2548
 4926SOL     OW26410   4.213   0.845   5.704 -0.5720 -0.1660 -0.2051
 4926SOL    HW126411   4.286   0.815   5.759 -0.1803 -0.5920 -0.9681
 4926SOL    HW226412   4.171   0.898   5.772 -2.2574 -1.7723  0.0084
 4927SOL     OW26413   2.539   3.104   2.322 -0.1815  0.1867 -0.1601
 4927SOL    HW126414   2.624   3.080   2.359 -0.3396 -0.8382 -0.4502
 4927SOL    HW226415   2.481   3.057   2.383  0.5158 -2.1412 -1.2662
 4928SOL     OW26416   3.477   4.553   2.955 -0.6461 -0.0417 -0.3930
 4928SOL    HW126417   3.564   4.582   2.927 -0.9087  2.0043  0.9126
 4928SOL    HW226418   3.497   4.483   3.018 -0.6115 -0.4597 -0.8667
 4929SOL     OW26419   1.630   0.737   3.945 -0.0855 -0.3545 -0.1435
 4929SOL    HW126420   1.665   0.782   3.868 -1.5125  2.0881  0.6243
 4929SOL    HW226421   1.561   0.797   3.973  2.1289  1.8507  0.5956
 4930SOL     OW26422   1.066   1.876   4.574  0.3796  0.6817  0.0117
 4930SOL    HW126423   1.126   1.848   4.505 -0.2635  2.5172 -1.3268
 4930SOL    HW226424   1.076   1.972   4.571 -1.2247  0.8201 -0.8340
 4931SOL     OW26425   0.316   1.339   0.339  0.0607 -0.5185 -0.1391
 4931SOL    HW126426   0.239   1.392   0.318  1.3497  2.3381  2.3114
 4931SOL    HW226427   0.279   1.266   0.389 -0.5751 -0.7135 -0.8943
 4932SOL     OW26428   4.048   1.381  14.740  0.5385  0.1063 -0.8210
 4932SOL    HW126429   4.034   1.331  14.659 -0.3311 -2.3111  0.8103
 4932SOL    HW226430   4.097   1.453  14.701 -1.3366  1.7563 -0.1033
 4933SOL     OW26431   0.325   0.400   3.142 -0.6027 -0.0333  0.1742
 4933SOL    HW126432   0.364   0.313   3.135 -2.4051 -0.8300 -0.1340
 4933SOL    HW226433   0.389   0.436   3.203  0.6211 -0.7723 -0.6750
 4934SOL     OW26434   0.523   4.089  10.863  0.2432 -0.0709  0.3853
 4934SOL    HW126435   0.524   4.069  10.769 -1.7533 -0.2188  0.4097
 4934SOL    HW226436   0.596   4.149  10.879  2.0549 -1.3230 -3.0697
 4935SOL     OW26437   1.506   2.040   5.666  0.1612 -0.3654 -0.1786
 4935SOL    HW126438   1.436   2.043   5.732 -0.3339 -2.8948 -0.5828
 4935SOL    HW226439   1.451   2.078   5.598 -0.1716 -0.4561  0.0381
 4936SOL     OW26440   3.938   4.052   6.579 -0.0337 -0.2616 -0.2104
 4936SOL    HW126441   3.926   4.061   6.484 -0.6191 -0.3705 -0.1429
 4936SOL    HW226442   3.970   3.962   6.579  3.9846  1.1322  1.9049
 4937SOL     OW26443   4.574   0.654   6.071  0.0515 -0.8864 -0.0096
 4937SOL    HW126444   4.647   0.607   6.030  1.9437  0.1856  2.1830
 4937SOL    HW226445   4.508   0.585   6.078 -2.3323  1.2951 -1.0930
 4938SOL     OW26446   1.812   3.790   2.656 -0.2348  0.1722 -0.5650
 4938SOL    HW126447   1.774   3.876   2.673 -1.5265 -0.5552  0.2566
 4938SOL    HW226448   1.738   3.740   2.692 -0.6866 -0.2806 -2.0918
 4939SOL     OW26449   3.554   0.902   6.849 -0.0149  0.1477  0.2885
 4939SOL    HW126450   3.593   0.984   6.879  1.5308  0.2261 -1.8996
 4939SOL    HW226451   3.465   0.938   6.840 -1.2198 -2.3675  2.0196
 4940SOL     OW26452   4.575   4.599   5.550 -0.0184 -0.4640 -0.1037
 4940SOL    HW126453   4.542   4.674   5.499 -0.9124 -0.8176 -0.0506
 4940SOL    HW226454   4.505   4.534   5.548 -1.6121  1.1690  1.9211
 4941SOL     OW26455   0.030   3.168   9.209  0.0311  0.0994  0.3791
 4941SOL    HW126456   0.064   3.119   9.284 -0.7866  0.3760  0.9259
 4941SOL    HW226457   4.690   3.198   9.252 -0.4467 -3.5741  2.0670
 4942SOL     OW26458   0.575   3.781  17.262  0.2186  0.7231  0.1420
 4942SOL    HW126459   0.573   3.699  17.311 -0.7365  1.1714  0.8459
 4942SOL    HW226460   0.495   3.822  17.295  0.3709  3.4732 -2.8863
 4943SOL     OW26461   0.056   3.710   2.488  0.8007 -0.3829 -0.2100
 4943SOL    HW126462   0.078   3.651   2.417  2.6008  0.3198 -0.2275
 4943SOL    HW226463   0.052   3.796   2.446 -2.5529  0.9666  2.7908
 4944SOL     OW26464   1.260   3.256   4.872 -0.7326  0.1725  0.8575
 4944SOL    HW126465   1.287   3.347   4.877 -0.5885  0.2255 -0.8338
 4944SOL    HW226466   1.320   3.222   4.806 -1.3016 -1.8972  1.3936
 4945SOL     OW26467   2.336   1.417   0.999  0.0922 -0.9881  0.0095
 4945SOL    HW126468   2.254   1.373   0.975  0.1207 -1.2229  0.3418
 4945SOL    HW226469   2.385   1.377   0.928 -0.5210 -2.4124  0.3864
 4946SOL     OW26470   4.007   2.294   9.956 -0.6540 -0.1799  0.3428
 4946SOL    HW126471   4.101   2.313   9.950 -0.6117  0.2945  2.4924
 4946SOL    HW226472   3.986   2.337  10.039  2.0803 -0.7753  1.3353
 4947SOL     OW26473   1.612   0.165   3.083  0.1168 -0.4014 -0.4116
 4947SOL    HW126474   1.663   0.086   3.097  0.7568 -0.2260 -1.7222
 4947SOL    HW226475   1.591   0.154   2.991  0.2636  1.3269 -0.6639
 4948SOL     OW26476   1.510   0.374   8.333 -0.6814  0.1022  0.2412
 4948SOL    HW126477   1.440   0.435   8.355 -0.1224  0.8062  0.0408
 4948SOL    HW226478   1.589   0.425   8.347  1.0994 -1.8927 -2.5868
 4949SOL     OW26479   4.390   1.092  13.959  0.3115  0.3706  0.5798
 4949SOL    HW126480   4.417   1.003  13.939 -0.9362 -0.2875  1.8487
 4949SOL    HW226481   4.306   1.092  14.004 -0.8313  0.3790 -1.5237
 4950SOL     OW26482   1.652   3.246   7.066  0.0389  0.3085  0.3039
 4950SOL    HW126483   1.575   3.291   7.032 -1.7881 -1.4262  2.1972
 4950SOL    HW226484   1.669   3.191   6.990  0.5027  1.2484 -0.2695
 4951SOL     OW26485   1.646   2.567   1.978 -0.4881  0.2516 -0.0851
 4951SOL    HW126486   1.598   2.487   1.999 -0.2458 -0.0544 -0.7041
 4951SOL    HW226487   1.574   2.625   1.953  0.0385  1.5443  1.3475
 4952SOL     OW26488   4.027   4.221   7.292 -0.5236  1.0805 -0.1143
 4952SOL    HW126489   4.075   4.143   7.321 -1.7545 -0.5891 -2.5940
 4952SOL    HW226490   3.969   4.188   7.223 -0.0149 -1.9204  0.9195
 4953SOL     OW26491   1.350   2.006   8.172 -0.3724 -0.0029  0.3646
 4953SOL    HW126492   1.398   2.041   8.097  0.2857 -0.5940  0.5152
 4953SOL    HW226493   1.421   1.995   8.236 -1.4952 -0.6842  1.4872
 4954SOL     OW26494   1.630   4.384   4.392  0.0173  0.4030  0.5764
 4954SOL    HW126495   1.574   4.441   4.443  0.1624  0.4921  0.6337
 4954SOL    HW226496   1.563   4.336   4.343 -0.8154  2.1724  0.0108
 4955SOL     OW26497   2.891   0.354   6.607  0.1647 -0.0992 -0.3081
 4955SOL    HW126498   2.922   0.264   6.619 -0.8294 -0.2993  0.7848
 4955SOL    HW226499   2.963   0.394   6.559  0.4164  0.5037  0.5770
 4956SOL     OW26500   0.305   2.757   6.934 -0.5174  0.2635 -0.1480
 4956SOL    HW126501   0.285   2.714   6.851 -1.5008  2.1139 -0.8989
 4956SOL    HW226502   0.219   2.756   6.976  0.6073 -1.4061  2.1205
 4957SOL     OW26503   4.686   2.949   6.705  0.0731 -0.1924  0.4121
 4957SOL    HW126504   4.621   2.904   6.652  0.1657 -2.0326  1.8710
 4957SOL    HW226505   4.628   2.987   6.770 -0.0529 -2.4059  1.5819
 4958SOL     OW26506   4.109   3.344   0.674 -0.5189 -0.1349 -0.1267
 4958SOL    HW126507   4.156   3.278   0.726 -1.3456 -1.4207 -1.0204
 4958SOL    HW226508   4.083   3.291   0.598 -1.9003 -0.6046  0.6737
 4959SOL     OW26509   1.512   4.462   1.705  0.0789 -0.6028 -0.2613
 4959SOL    HW126510   1.557   4.395   1.654  0.4972 -0.4072 -0.1489
 4959SOL    HW226511   1.585   4.509   1.746  0.5265  1.5818 -3.5552
 4960SOL     OW26512   1.603   3.125   9.766  0.0094  0.0529  0.1109
 4960SOL    HW126513   1.674   3.139   9.829  1.2599  0.4122 -1.3917
 4960SOL    HW226514   1.638   3.172   9.690  0.5480  2.4753  1.8548
 4961SOL     OW26515   4.590   0.728   3.378 -0.5320  0.7577 -0.0419
 4961SOL    HW126516   4.562   0.750   3.289 -0.7723 -1.4742 -0.5320
 4961SOL    HW226517   4.508   0.736   3.426  0.4567  0.2449  1.7261
 4962SOL     OW26518   4.579   1.337   5.821 -0.0097 -0.2351 -0.2564
 4962SOL    HW126519   4.666   1.338   5.862 -0.8844  0.6048  1.5388
 4962SOL    HW226520   4.562   1.247   5.791  1.4423 -1.1784  1.7043
 4963SOL     OW26521   3.403   0.054   7.744 -0.3887  0.1796  0.7351
 4963SOL    HW126522   3.369   0.072   7.657 -0.1284 -0.6209  0.4649
 4963SOL    HW226523   3.429   0.144   7.764  1.2370  0.2244 -1.5474
 4964SOL     OW26524   4.379   3.876   4.489  0.0425 -0.0184 -0.7718
 4964SOL    HW126525   4.326   3.850   4.413 -2.0297 -0.7391  0.8999
 4964SOL    HW226526   4.340   3.834   4.565  2.0997  3.0827  1.9841
 4965SOL     OW26527   0.479   1.257  10.598 -0.0670  0.1934  0.0995
 4965SOL    HW126528   0.449   1.258  10.507 -2.5454  0.9880  0.9276
 4965SOL    HW226529   0.455   1.170  10.629  1.7907 -0.7714 -1.1934
 4966SOL     OW26530   4.317   3.673  17.490 -0.4152  0.1851 -0.0796
 4966SOL    HW126531   4.297   3.581  17.508  1.2246  0.0151  0.8405
 4966SOL    HW226532   4.267   3.718  17.558  0.7382  1.5156 -0.1026
 4967SOL     OW26533   1.211   0.725   9.286 -0.0605  0.2064 -0.1426
 4967SOL    HW126534   1.180   0.708   9.196 -2.5780 -0.9677  0.9381
 4967SOL    HW226535   1.163   0.803   9.313 -1.2321 -1.1407  1.7177
 4968SOL     OW26536   0.753   1.231  10.136  0.2693 -0.4064 -0.4602
 4968SOL    HW126537   0.714   1.184  10.210  1.8070 -0.2692  0.4453
 4968SOL    HW226538   0.738   1.319  10.171 -0.5476 -0.4248 -0.7671
 4969SOL     OW26539   0.874   1.184   3.545  0.1818 -0.2697  0.5300
 4969SOL    HW126540   0.942   1.135   3.592 -0.4508  0.2483  1.9735
 4969SOL    HW226541   0.825   1.225   3.616 -0.7894 -0.0769 -0.2612
 4970SOL     OW26542   0.777   0.707   3.911  0.1950  0.0084 -0.4885
 4970SOL    HW126543   0.863   0.695   3.871  0.7981 -1.8805  1.4186
 4970SOL    HW226544   0.711   0.682   3.846  0.5739 -3.1501  0.3501
 4971SOL     OW26545   4.545   3.518  15.633  0.0513  0.3754 -0.3602
 4971SOL    HW126546   4.599   3.499  15.556  1.6829  3.4385  0.0253
 4971SOL    HW226547   4.540   3.429  15.667  2.9763  0.3418 -0.0851
 4972SOL     OW26548   1.669   4.568  10.316  0.0350 -0.0935  0.3257
 4972SOL    HW126549   1.703   4.607  10.235 -1.6880 -1.7656 -1.1982
 4972SOL    HW226550   1.619   4.645  10.343  0.5983 -0.4002  2.2798
 4973SOL     OW26551   2.761   3.611   9.153  0.1491  0.8216  0.5834
 4973SOL    HW126552   2.667   3.613   9.132 -0.4575  0.9857  3.3562
 4973SOL    HW226553   2.795   3.611   9.063 -1.1748  1.6366  0.0696
 4974SOL     OW26554   4.162   4.172   5.027 -0.3989  0.1358 -0.1347
 4974SOL    HW126555   4.223   4.242   5.005  0.3447 -0.5751 -0.3245
 4974SOL    HW226556   4.203   4.091   4.995 -0.1067  1.1691 -2.3349
 4975SOL     OW26557   0.936   1.504   1.999  0.0792  0.7398  0.2930
 4975SOL    HW126558   1.011   1.536   1.949  1.0670  0.5529  1.6486
 4975SOL    HW226559   0.961   1.540   2.084 -0.4157 -0.6162  1.0039
 4976SOL     OW26560   0.983   1.524   0.161 -0.2677 -0.6739  0.1850
 4976SOL    HW126561   0.991   1.611   0.200  0.7714 -1.1012  0.9255
 4976SOL    HW226562   0.919   1.484   0.221 -2.0456  0.7140 -0.7828
 4977SOL     OW26563   4.538   3.568   0.646 -0.1413 -0.3393  0.4460
 4977SOL    HW126564   4.588   3.529   0.575 -0.4875 -0.8741  0.4957
 4977SOL    HW226565   4.580   3.651   0.668 -0.8285 -0.6967  3.1960
 4978SOL     OW26566   0.317   2.428   3.215  0.0527 -0.4744 -0.2181
 4978SOL    HW126567   0.347   2.502   3.162 -0.6296 -1.1333 -1.5074
 4978SOL    HW226568   0.247   2.401   3.157  0.2354 -0.4266 -0.4600
 4979SOL     OW26569   4.270   3.754   5.692  0.0430  0.4080  0.4444
 4979SOL    HW126570   4.250   3.845   5.713  1.6297  0.4834  1.6789
 4979SOL    HW226571   4.316   3.736   5.774 -0.2835  0.3214  0.6124
 4980SOL     OW26572   0.408   0.378   7.655 -0.3383  0.4327  0.0902
 4980SOL    HW126573   0.429   0.427   7.735  2.2135 -2.6172  1.2891
 4980SOL    HW226574   0.452   0.295   7.672 -0.6183  0.1115 -0.7613
 4981SOL     OW26575   3.547   2.004   6.030 -0.2052  0.0962  0.3175
 4981SOL    HW126576   3.460   1.973   6.008  0.5798 -1.4552 -0.5834
 4981SOL    HW226577   3.569   1.947   6.103  0.8555  1.6943  1.2618
 4982SOL     OW26578   2.214   1.597   3.211  0.2423 -0.0028 -0.1704
 4982SOL    HW126579   2.295   1.550   3.229 -0.0474 -0.7321 -0.7861
 4982SOL    HW226580   2.149   1.549   3.263 -0.8275  0.0951 -1.4219
 4983SOL     OW26581   1.076   3.393   0.689 -0.4510  0.1126 -0.2328
 4983SOL    HW126582   1.105   3.462   0.630 -1.4712 -0.1484 -1.0504
 4983SOL    HW226583   0.982   3.409   0.695 -0.9314 -2.5698 -0.4601
 4984SOL     OW26584   3.747   0.058   9.110 -0.3682 -0.4025  0.2009
 4984SOL    HW126585   3.686   4.724   9.106  1.3119 -1.6517 -2.3460
 4984SOL    HW226586   3.774   0.071   9.019  0.2883  0.5375  0.5292
 4985SOL     OW26587   3.467   3.956   4.941 -0.0570 -0.6324  0.3120
 4985SOL    HW126588   3.519   4.024   4.898  0.2318 -1.1994 -0.2465
 4985SOL    HW226589   3.390   4.002   4.974  0.3696  1.6550 -1.8601
 4986SOL     OW26590   4.045   0.771  16.575  0.3750 -0.2866  0.5666
 4986SOL    HW126591   4.003   0.826  16.642  0.3487 -1.2420  1.3417
 4986SOL    HW226592   4.106   0.727  16.634 -0.1414  0.7740  1.8875
 4987SOL     OW26593   0.430   1.733   4.750 -0.9002  0.4770  0.1449
 4987SOL    HW126594   0.435   1.678   4.671 -3.7410  1.2895 -0.5970
 4987SOL    HW226595   0.397   1.663   4.807  0.4574 -0.5787 -0.3581
 4988SOL     OW26596   0.575   0.590   3.016  0.3894 -0.1169  0.6545
 4988SOL    HW126597   0.564   0.500   2.985 -1.2558  0.3756 -0.1766
 4988SOL    HW226598   0.610   0.573   3.104  2.4014 -1.5374 -0.4180
 4989SOL     OW26599   2.410   1.108   5.399  0.4552  0.6115 -0.2353
 4989SOL    HW126600   2.342   1.049   5.430  0.3826  0.3108 -0.9708
 4989SOL    HW226601   2.357   1.163   5.342 -0.6890 -1.0449 -0.7642
 4990SOL     OW26602   2.236   3.836   5.582 -0.0966  0.7641  0.5659
 4990SOL    HW126603   2.194   3.826   5.497  1.4717 -0.8359 -0.0236
 4990SOL    HW226604   2.158   3.832   5.639 -0.3228  1.6463  0.3113
 4991SOL     OW26605   2.179   3.471   2.412 -0.3247 -0.0817 -0.1113
 4991SOL    HW126606   2.116   3.506   2.475  0.0365  1.0623 -0.3736
 4991SOL    HW226607   2.206   3.389   2.452  0.7202 -0.3490 -1.3786
 4992SOL     OW26608   1.908   1.102   8.949 -0.2843  0.7178 -0.2017
 4992SOL    HW126609   1.848   1.035   8.917 -0.4653 -0.2747  2.2084
 4992SOL    HW226610   1.912   1.160   8.873 -1.0650  2.3578  0.9925
 4993SOL     OW26611   2.888   1.058  14.176 -0.7003  0.0894  0.8749
 4993SOL    HW126612   2.960   1.121  14.182 -1.5795  1.4935 -3.5780
 4993SOL    HW226613   2.857   1.053  14.266 -0.0162  0.6964  1.1494
 4994SOL     OW26614   0.131   2.128   5.950  0.2034 -0.5198  0.2087
 4994SOL    HW126615   0.225   2.135   5.964  0.1673  2.9511 -1.2849
 4994SOL    HW226616   0.129   2.075   5.870  0.2048 -0.2451  0.0280
 4995SOL     OW26617   4.059   4.735   2.072 -0.0564  0.0527 -0.3115
 4995SOL    HW126618   4.091   0.079   2.037  2.3797 -0.7332  0.0059
 4995SOL    HW226619   4.063   4.675   1.997  0.2876  0.0415 -0.2845
 4996SOL     OW26620   4.682   2.507   4.758  0.0492 -0.5002  0.2188
 4996SOL    HW126621   4.597   2.479   4.724 -0.2162  0.6177 -0.0402
 4996SOL    HW226622   4.636   2.565   4.819  0.2823  1.7962 -1.7738
 4997SOL     OW26623   2.584   4.610   1.265  0.0872 -0.0705 -0.2734
 4997SOL    HW126624   2.523   4.549   1.222 -0.7383  1.4643 -1.2889
 4997SOL    HW226625   2.552   4.687   1.216 -1.5014  0.3994  1.5088
 4998SOL     OW26626   3.281   2.576   9.875  0.0814 -0.4799 -0.1518
 4998SOL    HW126627   3.186   2.570   9.887  0.3246 -4.2650 -0.0916
 4998SOL    HW226628   3.311   2.627   9.950  1.4204  2.0981 -2.4469
 4999SOL     OW26629   3.158   2.961   4.868 -0.1208  0.5816  0.1028
 4999SOL    HW126630   3.111   2.950   4.951 -0.6752  1.7957 -0.0551
 4999SOL    HW226631   3.190   3.051   4.872  1.6621  0.1161 -3.8803
 5000SOL     OW26632   2.438   3.814  10.614 -0.1624 -0.7226 -0.1183
 5000SOL    HW126633   2.380   3.741  10.637  0.3732 -0.7093  1.2919
 5000SOL    HW226634   2.429   3.877  10.686  0.7219 -0.5901 -0.1272
 5001SOL     OW26635   4.531   4.546  11.270 -0.0196 -0.0616 -0.1368
 5001SOL    HW126636   4.623   4.550  11.242  0.2225  1.5306  0.9031
 5001SOL    HW226637   4.530   4.611  11.341  0.7766  1.2627 -1.3345
 5002SOL     OW26638   0.476   0.850   7.160  0.2193  0.4025 -0.1405
 5002SOL    HW126639   0.450   0.940   7.178  1.5284  0.4110  1.6993
 5002SOL    HW226640   0.562   0.844   7.201 -0.1430 -1.3599  0.3660
 5003SOL     OW26641   0.771   4.533   6.903 -0.1411  0.3139  0.4325
 5003SOL    HW126642   0.826   4.465   6.864 -0.0301 -0.4769  1.9845
 5003SOL    HW226643   0.765   4.589   6.825  2.0121 -0.3674 -0.2375
 5004SOL     OW26644   2.226   3.464   2.878  0.1015  0.2354  0.2464
 5004SOL    HW126645   2.228   3.368   2.878  0.8907  0.2437  2.5403
 5004SOL    HW226646   2.320   3.480   2.880  0.4892 -2.0336  0.2939
 5005SOL     OW26647   2.646   0.315   4.960  0.4066  0.1855 -0.3960
 5005SOL    HW126648   2.633   0.289   5.051  1.1324 -0.0914 -0.3738
 5005SOL    HW226649   2.618   0.242   4.904 -0.0783 -1.8952  2.5464
 5006SOL     OW26650   1.967   2.054   2.164  0.2730  0.3143  0.3179
 5006SOL    HW126651   1.945   2.115   2.234 -0.9767  0.9916 -0.6640
 5006SOL    HW226652   2.035   2.107   2.121 -1.2448  0.1998 -2.2327
 5007SOL     OW26653   2.558   1.834   8.259 -0.1631  0.2559 -0.2214
 5007SOL    HW126654   2.611   1.881   8.194  0.4428 -0.9991 -0.6275
 5007SOL    HW226655   2.615   1.853   8.333  1.1458 -0.2630 -1.1130
 5008SOL     OW26656   1.387   0.587   0.504 -0.5904  0.0506 -0.5248
 5008SOL    HW126657   1.320   0.649   0.473 -1.5106 -0.6729  0.0119
 5008SOL    HW226658   1.470   0.633   0.490 -1.1091  1.3045  0.4957
 5009SOL     OW26659   0.612   3.363  16.396  0.0662  0.3311  0.6511
 5009SOL    HW126660   0.517   3.362  16.386  0.3001 -0.8892 -1.3072
 5009SOL    HW226661   0.631   3.457  16.403 -1.6580  0.6842  0.5719
 5010SOL     OW26662   2.886   1.147  10.493  0.1697 -0.5961 -1.0588
 5010SOL    HW126663   2.798   1.143  10.529  0.5772  2.4563  0.2027
 5010SOL    HW226664   2.919   1.057  10.490  1.0751 -0.2894 -0.1027
 5011SOL     OW26665   2.882   2.715  13.991  0.1511  0.4789 -0.4057
 5011SOL    HW126666   2.889   2.621  14.004  0.4655  0.8614  2.2441
 5011SOL    HW226667   2.829   2.728  13.912  0.5849 -1.8788 -1.0582
 5012SOL     OW26668   0.468   2.368   2.820 -0.6926  0.3868  0.0260
 5012SOL    HW126669   0.515   2.436   2.867 -1.1439  1.2301 -0.7497
 5012SOL    HW226670   0.509   2.290   2.859 -2.3097 -0.3949  0.1769
 5013SOL     OW26671   0.739   3.784  11.864  0.2804 -0.4223 -0.0801
 5013SOL    HW126672   0.779   3.836  11.794  2.6171 -0.6624  1.0759
 5013SOL    HW226673   0.818   3.770  11.916 -0.5070 -1.6597  0.7755
 5014SOL     OW26674   1.931   4.349  15.964  0.1528  0.7907 -0.7455
 5014SOL    HW126675   1.859   4.413  15.970  0.2930  0.6001  2.9240
 5014SOL    HW226676   1.982   4.376  15.888 -0.2891  0.2849 -1.2211
 5015SOL     OW26677   3.369   4.320  14.895  0.1810 -0.8238 -0.3638
 5015SOL    HW126678   3.456   4.358  14.878 -0.5793  0.5635 -1.0920
 5015SOL    HW226679   3.406   4.238  14.862  0.1932 -0.9744  0.0181
 5016SOL     OW26680   2.410   1.085   8.583  0.5323  0.6298  0.0444
 5016SOL    HW126681   2.487   1.028   8.572  0.2168  0.5631 -1.7103
 5016SOL    HW226682   2.415   1.078   8.679 -0.2813 -0.3858  0.0090
 5017SOL     OW26683   3.329   3.214   6.359 -0.0583  0.0667  0.5329
 5017SOL    HW126684   3.326   3.157   6.436 -1.6631 -2.5452 -1.4514
 5017SOL    HW226685   3.402   3.273   6.378 -0.6486  1.3795 -1.2246
 5018SOL     OW26686   4.570   2.929   4.867  0.0012 -0.3605 -0.3850
 5018SOL    HW126687   4.623   3.007   4.885 -1.1997  0.3065  0.2997
 5018SOL    HW226688   4.612   2.858   4.915 -2.2464 -0.5022  1.4003
 5019SOL     OW26689   3.753   4.570   2.367  0.2233  0.4223 -0.2762
 5019SOL    HW126690   3.733   4.598   2.278 -2.4049 -1.0604 -0.1689
 5019SOL    HW226691   3.846   4.590   2.368  0.3148 -0.0037 -0.2275
 5020SOL     OW26692   1.876   1.095  16.943  0.2912 -0.0628  0.1277
 5020SOL    HW126693   1.819   1.039  16.995  2.9055 -0.3293  2.7164
 5020SOL    HW226694   1.825   1.169  16.911  0.7396 -0.0457 -0.5484
 5021SOL     OW26695   3.620   2.498   2.758 -0.0495 -0.2921 -0.5489
 5021SOL    HW126696   3.613   2.419   2.812 -0.9831 -0.9836 -1.6603
 5021SOL    HW226697   3.530   2.496   2.723 -0.4247  0.0226  0.3973
 5022SOL     OW26698   4.613   2.668   7.229  0.1359  0.3345 -0.3680
 5022SOL    HW126699   4.532   2.686   7.180 -0.3882 -0.0712  0.3564
 5022SOL    HW226700   4.622   2.727   7.304  3.9392 -0.6481 -0.0756
 5023SOL     OW26701   4.537   1.431   9.849  0.3983  0.1163  0.3023
 5023SOL    HW126702   4.507   1.388   9.930 -0.3664  1.0564  0.5152
 5023SOL    HW226703   4.534   1.356   9.789  0.8768  0.9523 -0.7533
 5024SOL     OW26704   0.403   2.583   4.431 -0.4340 -0.0845  0.1883
 5024SOL    HW126705   0.367   2.613   4.348 -0.1977  0.9694  0.4671
 5024SOL    HW226706   0.439   2.500   4.400 -0.1044  0.3472 -0.5670
 5025SOL     OW26707   1.729   1.105   7.973 -0.1314  0.4294 -0.1573
 5025SOL    HW126708   1.697   1.189   8.006 -0.9702 -0.6323  1.7498
 5025SOL    HW226709   1.648   1.069   7.937  0.7249  0.2439 -1.8985
 5026SOL     OW26710   0.199   4.631   2.394  0.2145 -0.6497  0.1152
 5026SOL    HW126711   0.184   4.654   2.303  0.8704 -2.3414 -0.4247
 5026SOL    HW226712   0.260   4.702   2.413  1.5183 -1.1961 -2.0305
 5027SOL     OW26713   4.161   2.036  10.192 -0.6162  0.6057  0.2186
 5027SOL    HW126714   4.163   2.016  10.286 -2.0848  1.4337  0.4289
 5027SOL    HW226715   4.090   1.982  10.159  1.0187 -2.1585  1.2256
 5028SOL     OW26716   2.904   4.509  17.208 -0.1439  0.4463  0.2431
 5028SOL    HW126717   2.883   4.585  17.154  0.0550 -0.5053 -1.1855
 5028SOL    HW226718   2.875   4.448  17.139 -1.6274  1.4223 -0.0019
 5029SOL     OW26719   4.095   2.766   1.350 -0.2417  0.3184  0.3466
 5029SOL    HW126720   4.054   2.853   1.347 -0.0837  0.3960  0.4478
 5029SOL    HW226721   4.068   2.729   1.266  0.7859  0.2939  0.0264
 5030SOL     OW26722   3.744   1.873   7.734 -0.1721  0.4811  0.2553
 5030SOL    HW126723   3.770   1.811   7.665  0.2385  2.2118 -1.1473
 5030SOL    HW226724   3.682   1.819   7.782 -1.9966  0.7758 -1.7766
 5031SOL     OW26725   4.236   0.024  11.448  0.0745 -0.2908 -0.3003
 5031SOL    HW126726   4.268   0.110  11.423 -0.4401 -0.4027 -1.3283
 5031SOL    HW226727   4.154   0.048  11.490  0.5526  0.0934  0.4157
 5032SOL     OW26728   3.797   3.227  15.718 -0.2937 -0.3781 -0.6252
 5032SOL    HW126729   3.724   3.261  15.770 -0.4420  0.3484 -1.2992
 5032SOL    HW226730   3.813   3.305  15.665 -1.5125 -0.7967 -1.6058
 5033SOL     OW26731   2.222   2.908  11.003  0.7851  0.4813 -0.1626
 5033SOL    HW126732   2.252   2.821  10.975 -1.8871 -0.1876 -0.9825
 5033SOL    HW226733   2.289   2.928  11.068  0.9894  1.9070 -0.8264
 5034SOL     OW26734   1.863   3.988   4.434  0.6930  0.0614  0.5418
 5034SOL    HW126735   1.957   4.000   4.449  0.7553  1.9525 -1.2445
 5034SOL    HW226736   1.819   4.046   4.496  0.9611 -1.3014  1.9730
 5035SOL     OW26737   4.053   0.929   6.391 -0.0628  0.2362  0.3430
 5035SOL    HW126738   3.985   0.992   6.369  0.5500  1.0174  0.6879
 5035SOL    HW226739   4.122   0.944   6.326 -0.8988 -0.3851 -0.7063
 5036SOL     OW26740   2.881   2.879   2.076  0.3959 -0.0249  0.3211
 5036SOL    HW126741   2.858   2.897   1.985 -1.2867 -0.9177  0.5744
 5036SOL    HW226742   2.796   2.846   2.103  0.6571  1.0849  2.4503
 5037SOL     OW26743   2.910   3.505   9.526  0.0146 -0.2933  0.0486
 5037SOL    HW126744   2.988   3.549   9.493 -0.5155  0.8004  0.2541
 5037SOL    HW226745   2.940   3.417   9.548 -0.3780 -1.1060 -2.6758
 5038SOL     OW26746   2.354   3.586   4.297 -0.2522 -0.3853 -0.9613
 5038SOL    HW126747   2.414   3.542   4.357 -2.2255 -0.6946  0.7935
 5038SOL    HW226748   2.289   3.623   4.356  0.7270  0.2918 -0.3159
 5039SOL     OW26749   3.906   1.042  15.916 -0.0033 -0.1038  0.2721
 5039SOL    HW126750   3.946   0.956  15.927 -0.2203 -0.4083 -1.2818
 5039SOL    HW226751   3.922   1.087  15.999  0.9951 -0.8460  0.4752
 5040SOL     OW26752   3.939   3.475  12.469 -0.2001  0.5188 -0.1425
 5040SOL    HW126753   3.956   3.554  12.417 -1.0501 -1.5042 -3.4536
 5040SOL    HW226754   3.843   3.473  12.472 -0.1868  0.8105  0.4086
 5041SOL     OW26755   2.346   3.626   1.293  0.0561  0.2877  0.2206
 5041SOL    HW126756   2.375   3.635   1.384  0.1204  0.3453  0.1944
 5041SOL    HW226757   2.261   3.671   1.292 -0.6722 -1.0122  3.0191
 5042SOL     OW26758   2.594   2.906   3.455 -0.8842 -0.1111  0.2078
 5042SOL    HW126759   2.664   2.910   3.520 -2.2757  1.2710  1.6167
 5042SOL    HW226760   2.561   2.819   3.479 -0.0729 -0.8481 -1.3571
 5043SOL     OW26761   2.346   0.719   2.701 -0.2427 -0.1221 -0.8022
 5043SOL    HW126762   2.437   0.705   2.727 -0.0080  1.0772 -0.9789
 5043SOL    HW226763   2.314   0.637   2.739  0.5351  0.4162  0.9753
 5044SOL     OW26764   2.554   1.822   1.956  0.4035 -0.2506 -0.1285
 5044SOL    HW126765   2.593   1.735   1.971  1.1453  0.1161  0.1010
 5044SOL    HW226766   2.464   1.799   1.935 -0.6113  0.6731  3.2511
 5045SOL     OW26767   2.465   3.513   3.505  0.0452  0.3596  0.1957
 5045SOL    HW126768   2.408   3.462   3.563  0.1772  0.4444  0.4004
 5045SOL    HW226769   2.441   3.469   3.423  1.4379  1.9616 -1.0878
 5046SOL     OW26770   1.097   2.577  11.811 -0.4845  0.1664 -0.2137
 5046SOL    HW126771   1.191   2.595  11.803 -0.8028  1.4464 -1.0932
 5046SOL    HW226772   1.053   2.636  11.750 -0.3583  0.9162  0.4235
 5047SOL     OW26773   0.260   0.850  16.680  0.0139  0.6654  0.0522
 5047SOL    HW126774   0.179   0.809  16.712  0.7535  0.5678  1.8367
 5047SOL    HW226775   0.236   0.942  16.674 -0.4237  0.6660  1.7286
 5048SOL     OW26776   4.418   0.316  10.970 -0.6374 -0.2915  0.2369
 5048SOL    HW126777   4.415   0.249  10.903  2.8731  0.1900 -0.3969
 5048SOL    HW226778   4.441   0.397  10.925 -1.8251 -0.6080 -0.9031
 5049SOL     OW26779   0.304   2.504   2.326  0.3723  0.2866 -0.3343
 5049SOL    HW126780   0.275   2.416   2.302 -0.4576  0.3371  0.4714
 5049SOL    HW226781   0.399   2.501   2.335  0.0810 -2.0188  2.0632
 5050SOL     OW26782   3.217   3.145   7.751 -0.2382 -0.6563  0.4214
 5050SOL    HW126783   3.169   3.071   7.789  1.4462 -1.3572  1.1690
 5050SOL    HW226784   3.189   3.139   7.660 -1.5347 -1.6384  0.8865
 5051SOL     OW26785   3.212   2.124   7.176 -0.3781  0.2076 -0.3003
 5051SOL    HW126786   3.275   2.052   7.166  0.1856  0.7243 -0.4910
 5051SOL    HW226787   3.212   2.148   7.268 -0.4005  0.6337 -0.4147
 5052SOL     OW26788   2.273   1.408   1.299  0.3731  0.4410 -0.0126
 5052SOL    HW126789   2.225   1.473   1.350 -2.7461 -1.3132 -0.6907
 5052SOL    HW226790   2.230   1.413   1.213  1.0942  0.5432 -0.3627
 5053SOL     OW26791   2.412   0.279   6.557 -0.1012 -0.1100 -0.2103
 5053SOL    HW126792   2.364   0.232   6.489  0.9852 -1.0449 -0.3151
 5053SOL    HW226793   2.420   0.215   6.627  0.3983  1.0655  0.8067
 5054SOL     OW26794   2.916   1.785  11.998  0.0492 -0.1512 -0.5552
 5054SOL    HW126795   2.935   1.834  12.079 -0.6084 -0.8922  0.0488
 5054SOL    HW226796   3.004   1.772  11.963  0.1552  1.2303 -0.7937
 5055SOL     OW26797   3.011   0.444   8.643  0.4238  0.1987 -0.0753
 5055SOL    HW126798   3.041   0.369   8.592 -1.9752 -0.9592  0.2357
 5055SOL    HW226799   2.961   0.402   8.713 -0.4732 -0.4156 -1.0911
 5056SOL     OW26800   3.206   2.877  14.289  0.0681  0.7426  0.5487
 5056SOL    HW126801   3.115   2.863  14.264  0.4036 -0.6836  0.1401
 5056SOL    HW226802   3.185   2.951  14.346  1.7970 -0.4051  2.6721
 5057SOL     OW26803   0.015   0.471   5.924  0.0627 -0.1193 -0.1748
 5057SOL    HW126804   0.101   0.495   5.887 -0.0788 -0.3783 -0.6756
 5057SOL    HW226805   4.702   0.454   5.845 -0.6737  0.5013  0.1901
 5058SOL     OW26806   0.781   4.036  10.524  0.1888  0.0678 -0.0011
 5058SOL    HW126807   0.777   4.050  10.618 -1.5993 -0.1288 -0.0419
 5058SOL    HW226808   0.846   3.966  10.515 -1.3424 -1.6113  1.9928
 5059SOL     OW26809   4.353   3.325   2.567 -0.2457  0.6017  0.0923
 5059SOL    HW126810   4.330   3.335   2.475  1.5830 -0.0224 -0.4349
 5059SOL    HW226811   4.365   3.230   2.559 -1.0580  0.3216  2.2057
 5060SOL     OW26812   0.660   3.774   8.827 -0.6507  0.6359  0.3812
 5060SOL    HW126813   0.630   3.757   8.738 -2.4826  0.3392  1.0693
 5060SOL    HW226814   0.580   3.819   8.854 -0.5945 -1.3376  3.9055
 5061SOL     OW26815   2.712   4.476   2.822 -0.5821 -0.1455  0.4003
 5061SOL    HW126816   2.795   4.450   2.863  1.4116  0.1217 -3.4544
 5061SOL    HW226817   2.659   4.497   2.898 -1.0718 -1.8393  0.5440
 5062SOL     OW26818   2.300   3.892   9.178  0.1461  0.0751 -0.3916
 5062SOL    HW126819   2.255   3.938   9.248 -0.0893  1.6222 -1.5514
 5062SOL    HW226820   2.353   3.962   9.139  1.6938 -0.2157  1.1825
 5063SOL     OW26821   0.882   3.048   7.489  0.3206  0.1117 -0.0606
 5063SOL    HW126822   0.809   3.109   7.500  1.8730  2.0603 -0.6412
 5063SOL    HW226823   0.950   3.087   7.543  0.3977 -0.4498  0.2474
 5064SOL     OW26824   2.166   4.301  14.178 -0.2086  0.3109 -0.1481
 5064SOL    HW126825   2.107   4.346  14.117  0.0742  0.8794 -0.0043
 5064SOL    HW226826   2.211   4.242  14.118  0.5195 -0.1043  0.8158
 5065SOL     OW26827   3.982   3.807   3.283 -0.1006  0.2732 -0.0767
 5065SOL    HW126828   4.068   3.775   3.312  0.3279  0.4719 -1.1586
 5065SOL    HW226829   3.939   3.722   3.268  1.6709 -0.4458 -1.0821
 5066SOL     OW26830   1.391   2.101   8.723  0.2423 -0.6218  0.2456
 5066SOL    HW126831   1.480   2.099   8.688 -0.1529 -0.9394 -0.7661
 5066SOL    HW226832   1.400   2.103   8.818  0.3942 -0.4602  0.2279
 5067SOL     OW26833   2.965   1.172   7.007 -0.0533  0.6398  0.1704
 5067SOL    HW126834   2.884   1.120   7.008 -0.3356  1.0258 -1.9353
 5067SOL    HW226835   2.923   1.257   7.021 -2.9969 -0.5891 -1.1317
 5068SOL     OW26836   1.112   2.438   4.584 -0.4509 -0.4139  0.0394
 5068SOL    HW126837   1.122   2.351   4.621  2.0023  0.0363  0.4363
 5068SOL    HW226838   1.101   2.482   4.669  0.5868  0.4368 -0.2630
 5069SOL     OW26839   2.821   0.905  16.522  0.1317 -0.1242  0.2015
 5069SOL    HW126840   2.830   0.965  16.597  0.1436 -1.1389  1.0043
 5069SOL    HW226841   2.881   0.944  16.458 -1.6484  1.1369 -0.6787
 5070SOL     OW26842   3.973   4.705  13.708  0.2555  0.2011 -0.4464
 5070SOL    HW126843   4.065   4.691  13.688  0.6932  0.5025  1.2950
 5070SOL    HW226844   3.942   4.616  13.696  1.7778 -0.5165  0.8928
 5071SOL     OW26845   0.166   1.869   2.849 -1.2442  0.7319 -0.3446
 5071SOL    HW126846   0.154   1.954   2.805 -0.0526  2.2462  2.2444
 5071SOL    HW226847   0.261   1.870   2.852 -1.2842 -1.3847  1.0185
 5072SOL     OW26848   4.428   4.681   6.949 -0.4719 -0.4202 -0.0769
 5072SOL    HW126849   4.436   4.738   6.873 -0.6449 -0.1792  0.0852
 5072SOL    HW226850   4.337   4.699   6.971 -1.0439 -0.7539 -2.2168
 5073SOL     OW26851   0.163   3.911  17.729 -0.4947  0.0758  0.3381
 5073SOL    HW126852   0.199   3.978  17.670  1.4813 -1.0536  0.2523
 5073SOL    HW226853   0.073   3.942  17.737 -1.4244 -2.7789  0.8429
 5074SOL     OW26854   2.684   1.242   6.619  0.0127 -0.3932  0.3837
 5074SOL    HW126855   2.726   1.296   6.552 -0.8411 -0.4232 -0.1684
 5074SOL    HW226856   2.757   1.219   6.676 -0.3083  2.0925  1.8146
 5075SOL     OW26857   4.677   2.949   8.087 -0.7677  0.8168  0.2771
 5075SOL    HW126858   4.714   2.898   8.159  0.3418  1.0764 -0.1201
 5075SOL    HW226859   4.674   3.034   8.130  1.7448  0.7443  0.5829
 5076SOL     OW26860   0.384   3.775   7.463  0.6052 -0.0248  0.0566
 5076SOL    HW126861   0.448   3.846   7.465  1.7260 -1.0273 -0.2987
 5076SOL    HW226862   0.440   3.708   7.423  0.1300  1.2152 -2.6984
 5077SOL     OW26863   1.424   0.391   4.896  0.5811 -0.1607  0.2010
 5077SOL    HW126864   1.349   0.380   4.837  0.2818  0.2329  0.5066
 5077SOL    HW226865   1.389   0.337   4.967  1.4420  0.0811  0.8153
 5078SOL     OW26866   4.397   2.502  11.877 -0.3667  0.2406 -0.2030
 5078SOL    HW126867   4.362   2.591  11.875  0.6258  0.6444  0.4325
 5078SOL    HW226868   4.415   2.480  11.785 -2.8324  0.4644 -0.7462
 5079SOL     OW26869   4.038   1.483   5.825 -0.2507 -0.1156 -0.7221
 5079SOL    HW126870   4.046   1.575   5.852  1.3214 -0.2770 -0.6132
 5079SOL    HW226871   3.978   1.459   5.895  0.1768  0.1478 -0.2642
 5080SOL     OW26872   4.689   4.257  16.416 -0.3911  0.5805 -0.1477
 5080SOL    HW126873   4.736   4.289  16.338 -1.8303 -1.4324 -1.8250
 5080SOL    HW226874   4.643   4.337  16.440  0.6328  0.4840  2.1195
 5081SOL     OW26875   1.955   2.283  16.026  0.0598 -0.0856  0.2688
 5081SOL    HW126876   1.963   2.371  15.988  1.3833 -0.0655  0.5986
 5081SOL    HW226877   1.916   2.303  16.111 -2.0027  0.9974 -0.9406
 5082SOL     OW26878   4.219   1.014   4.104 -0.3676  0.1034  0.4691
 5082SOL    HW126879   4.250   1.104   4.113  2.4404 -0.7035 -1.1247
 5082SOL    HW226880   4.212   0.991   4.197  0.7061  2.4599  1.1188
 5083SOL     OW26881   2.899   3.322  16.530  0.2975 -0.1516 -0.3021
 5083SOL    HW126882   2.958   3.349  16.600 -0.8843  0.8536  0.3203
 5083SOL    HW226883   2.898   3.399  16.473  0.5917  0.7786  0.9515
 5084SOL     OW26884   1.701   2.925   6.064  0.0353 -0.1698 -0.2844
 5084SOL    HW126885   1.787   2.897   6.032  0.0280  0.0763 -0.5180
 5084SOL    HW226886   1.636   2.867   6.023 -1.9449  0.2916  2.2173
 5085SOL     OW26887   4.018   3.350   5.114 -0.1396 -0.1915 -0.0813
 5085SOL    HW126888   4.087   3.386   5.059  0.9398 -0.4263  1.1468
 5085SOL    HW226889   3.938   3.361   5.062 -2.1965 -3.4608  2.3411
 5086SOL     OW26890   1.416   3.213  15.139  0.0918  0.4460 -0.5623
 5086SOL    HW126891   1.380   3.200  15.227  1.5379  1.0354  0.1094
 5086SOL    HW226892   1.459   3.132  15.112  1.7083  1.0934  0.0532
 5087SOL     OW26893   1.611   4.442   2.582 -0.1217  0.3354 -0.4283
 5087SOL    HW126894   1.629   4.398   2.499 -1.7473 -2.0572  0.5028
 5087SOL    HW226895   1.546   4.504   2.549 -1.3434 -0.6316  0.1408
 5088SOL     OW26896   1.640   1.709   7.802 -0.0848  0.2179 -0.0998
 5088SOL    HW126897   1.659   1.742   7.714  0.1974  1.4055  0.4066
 5088SOL    HW226898   1.621   1.618   7.780 -2.0898  0.5883  0.1316
 5089SOL     OW26899   0.326   3.465   2.574 -0.0662  0.2305  0.4906
 5089SOL    HW126900   0.365   3.548   2.547 -0.7328  1.0723  2.1269
 5089SOL    HW226901   0.232   3.479   2.563 -0.3897 -2.7085 -0.4191
 5090SOL     OW26902   2.190   3.842   3.372 -0.3723  0.3647 -0.3570
 5090SOL    HW126903   2.213   3.752   3.350  0.0073  0.3818 -0.0133
 5090SOL    HW226904   2.216   3.852   3.463 -1.8984  0.0847  0.1084
 5091SOL     OW26905   3.560   0.082   4.724 -0.2762  0.5821 -0.3382
 5091SOL    HW126906   3.590   4.731   4.717 -1.5831  0.0880  0.4693
 5091SOL    HW226907   3.474   0.075   4.683 -0.4452 -1.6252  0.4317
 5092SOL     OW26908   0.471   0.736   4.218  0.2015 -0.3111  0.7855
 5092SOL    HW126909   0.449   0.805   4.155  0.8498 -0.0353  0.8685
 5092SOL    HW226910   0.379   0.710   4.223 -0.0144  0.3078  0.1043
 5093SOL     OW26911   2.898   4.271   3.846 -0.1929 -0.1566 -0.9734
 5093SOL    HW126912   2.979   4.315   3.819 -0.4017  0.1485 -1.0941
 5093SOL    HW226913   2.925   4.216   3.919 -1.6983  0.6722  0.1958
 5094SOL     OW26914   4.476   3.679   5.914  0.3271 -0.1369 -0.0005
 5094SOL    HW126915   4.482   3.710   6.004  2.0348  1.2662 -0.6128
 5094SOL    HW226916   4.557   3.707   5.873 -0.9601  0.4513 -2.1193
 5095SOL     OW26917   3.969   1.159   4.174 -0.4417  0.1053 -0.3739
 5095SOL    HW126918   3.876   1.138   4.162 -0.2684 -1.1779  0.6593
 5095SOL    HW226919   3.966   1.161   4.269 -2.9055 -0.5602 -0.4410
 5096SOL     OW26920   4.554   1.758   4.288 -0.1867 -0.1621  0.3275
 5096SOL    HW126921   4.503   1.703   4.228 -1.0977  0.8151  0.2182
 5096SOL    HW226922   4.555   1.836   4.232 -1.1328  0.8139  1.6741
 5097SOL     OW26923   4.302   3.109   7.884  0.0163 -0.2856 -0.6968
 5097SOL    HW126924   4.395   3.087   7.896 -0.5793 -1.7212  1.3599
 5097SOL    HW226925   4.291   3.126   7.791  1.5550  3.1760 -0.2643
 5098SOL     OW26926   0.438   2.412   0.193 -0.1348  0.0133  0.4225
 5098SOL    HW126927   0.524   2.452   0.203  1.1909 -2.0092 -2.7145
 5098SOL    HW226928   0.395   2.479   0.140  0.6276  1.0140  1.0817
 5099SOL     OW26929   0.904   2.649   5.629  0.3165  0.0654 -0.2584
 5099SOL    HW126930   0.863   2.691   5.705 -2.9185 -2.0263 -0.8317
 5099SOL    HW226931   0.919   2.720   5.567 -1.0102 -0.8986 -1.6976
 5100SOL     OW26932   2.306   3.246  11.143  0.7674  0.6730 -0.1103
 5100SOL    HW126933   2.330   3.202  11.224  1.1092 -0.6893 -0.9580
 5100SOL    HW226934   2.339   3.336  11.144  0.8025  0.6832 -1.9510
 5101SOL     OW26935   3.904   4.657  12.751  0.0395 -0.4380 -0.1530
 5101SOL    HW126936   3.861   4.578  12.719  1.5453 -0.8676 -1.1210
 5101SOL    HW226937   3.940   4.694  12.671 -2.1205 -0.7836 -1.2781
 5102SOL     OW26938   0.341   0.509   2.762  0.1351  0.1554  0.0053
 5102SOL    HW126939   0.345   0.504   2.666 -0.6251  1.2660 -0.0846
 5102SOL    HW226940   0.269   0.560   2.799  0.5941 -1.3527  3.0172
 5103SOL     OW26941   1.266   2.645   3.359  0.1606  0.0529  0.8566
 5103SOL    HW126942   1.238   2.628   3.449  0.8578  0.2782  1.1133
 5103SOL    HW226943   1.239   2.737   3.356 -2.1015 -0.6120 -0.0586
 5104SOL     OW26944   4.506   3.800   3.300  0.2378  0.2121 -0.3418
 5104SOL    HW126945   4.566   3.872   3.279  0.4606  0.4352  1.0704
 5104SOL    HW226946   4.448   3.808   3.224  0.5130 -0.0941 -0.5903
 5105SOL     OW26947   3.552   2.552   1.332  0.5250  0.1090  0.6380
 5105SOL    HW126948   3.550   2.461   1.363  1.2761 -0.6275 -1.4523
 5105SOL    HW226949   3.507   2.588   1.408  0.1992 -0.2250  0.6069
 5106SOL     OW26950   2.114   2.363   1.917  0.6925 -0.0655 -0.2247
 5106SOL    HW126951   2.166   2.344   1.995 -0.4401  2.4609  1.1238
 5106SOL    HW226952   2.038   2.306   1.930  0.3025  0.6328  0.5215
 5107SOL     OW26953   2.350   0.276   4.824 -0.0724 -0.7304  0.2902
 5107SOL    HW126954   2.375   0.333   4.751  1.1867 -0.1943  1.1470
 5107SOL    HW226955   2.418   0.210   4.814  0.1835 -0.2618 -1.1845
 5108SOL     OW26956   1.395   0.421   2.414 -0.1587 -0.1086  0.0102
 5108SOL    HW126957   1.357   0.373   2.488  0.0314  0.7885  0.6890
 5108SOL    HW226958   1.481   0.380   2.425 -0.2773 -0.1208  0.9127
 5109SOL     OW26959   1.163   1.397   3.369 -0.4453 -0.0084 -0.4435
 5109SOL    HW126960   1.164   1.368   3.278 -1.0670  3.0152 -1.4390
 5109SOL    HW226961   1.070   1.395   3.393 -0.9622 -1.8090 -2.5933
 5110SOL     OW26962   3.841   4.144   6.842 -0.0661 -0.1283 -0.3080
 5110SOL    HW126963   3.746   4.139   6.851 -0.0627 -2.1200 -1.2583
 5110SOL    HW226964   3.854   4.130   6.748  0.6394  0.8553 -0.3486
 5111SOL     OW26965   1.623   0.440   3.140 -0.2408  0.2239  0.5450
 5111SOL    HW126966   1.628   0.344   3.133  1.6005  0.2711  1.2925
 5111SOL    HW226967   1.560   0.454   3.210 -0.9610  0.7612 -0.2179
 5112SOL     OW26968   4.116   4.101  16.847  0.4479  0.4876  0.1765
 5112SOL    HW126969   4.026   4.078  16.827  0.2125  0.7284  0.9942
 5112SOL    HW226970   4.134   4.162  16.776  2.0150 -0.7596 -0.5170
 5113SOL     OW26971   4.605   2.147  13.908 -0.0619 -0.1965  0.0078
 5113SOL    HW126972   4.577   2.211  13.974  0.0021  1.1107 -1.2118
 5113SOL    HW226973   4.691   2.184  13.888  1.2377 -2.1769  2.0200
 5114SOL     OW26974   0.402   0.219  15.936 -0.1577 -0.1234  0.0646
 5114SOL    HW126975   0.387   0.178  16.021 -1.1205  2.0619  0.9513
 5114SOL    HW226976   0.356   0.301  15.951  1.3514  0.5840  0.7565
 5115SOL     OW26977   1.579   1.297   4.437 -0.4571  0.0797 -0.5855
 5115SOL    HW126978   1.599   1.365   4.502  3.5222 -0.0360 -1.6510
 5115SOL    HW226979   1.486   1.309   4.420 -0.5215 -2.8397 -2.3174
 5116SOL     OW26980   1.339   2.852   9.234 -0.2017  0.1528  0.1058
 5116SOL    HW126981   1.343   2.759   9.258 -1.0394 -0.1480 -0.9307
 5116SOL    HW226982   1.352   2.843   9.139 -0.1349  1.0378  0.0352
 5117SOL     OW26983   1.463   3.036   9.401 -0.9295  0.1288  0.2569
 5117SOL    HW126984   1.396   2.976   9.368  0.9391 -1.6373 -0.3213
 5117SOL    HW226985   1.440   3.117   9.357  1.0614  0.8152  0.4705
 5118SOL     OW26986   4.001   2.929   3.362 -0.5296  0.3608 -0.1297
 5118SOL    HW126987   3.932   2.995   3.358 -0.5947  0.2557 -0.8392
 5118SOL    HW226988   3.969   2.859   3.419 -1.8367  1.8253  0.9515
 5119SOL     OW26989   2.886   1.613   6.788  0.1685  0.2834  0.3329
 5119SOL    HW126990   2.858   1.534   6.834  2.1640 -1.1066 -0.8710
 5119SOL    HW226991   2.888   1.584   6.697 -1.6653 -0.8315  0.6423
 5120SOL     OW26992   3.132   1.539   5.357  0.9014 -0.0788 -0.3497
 5120SOL    HW126993   3.060   1.508   5.303  0.0609  1.5843 -0.1948
 5120SOL    HW226994   3.148   1.627   5.321  1.6922  0.1548  0.5594
 5121SOL     OW26995   0.840   1.159   7.513 -0.1009  0.2230 -0.0862
 5121SOL    HW126996   0.929   1.138   7.540  0.1189  1.4224  0.1518
 5121SOL    HW226997   0.807   1.221   7.578 -0.6205 -0.5468  0.3766
 5122SOL     OW26998   1.815   1.194   3.497  0.0328 -0.3221  0.0642
 5122SOL    HW126999   1.832   1.213   3.589  1.0708  0.3231 -0.2599
 5122SOL    HW227000   1.841   1.102   3.490 -0.1507 -0.2700 -1.1886
 5123SOL     OW27001   1.066   3.549   2.582  0.1319 -0.1835  0.2264
 5123SOL    HW127002   1.020   3.473   2.548 -2.7107  1.6608 -0.0515
 5123SOL    HW227003   1.007   3.562   2.656 -0.5271 -0.9970 -0.1627
 5124SOL     OW27004   2.179   3.139   5.551  0.3503  0.2123 -0.1952
 5124SOL    HW127005   2.248   3.074   5.541  1.4365  1.4371 -0.7200
 5124SOL    HW227006   2.123   3.076   5.595 -0.5141  1.6354  0.7560
 5125SOL     OW27007   0.707   2.014   0.218 -0.0099 -0.3870 -0.7618
 5125SOL    HW127008   0.740   2.091   0.265 -2.2052 -0.1392  0.3522
 5125SOL    HW227009   0.662   1.970   0.290  0.7687 -1.2630 -0.8039
 5126SOL     OW27010   3.399   1.521   3.804 -0.4924  0.2704  0.1318
 5126SOL    HW127011   3.456   1.475   3.743 -1.1999  0.0990 -0.3984
 5126SOL    HW227012   3.324   1.462   3.811  0.3805 -0.9537 -0.8057
 5127SOL     OW27013   4.222   1.232   6.549  0.4402  0.4853 -0.4035
 5127SOL    HW127014   4.300   1.281   6.577  1.2218 -0.5967 -0.6995
 5127SOL    HW227015   4.249   1.199   6.463 -0.8973  0.8577 -0.9576
 5128SOL     OW27016   0.597   4.560   7.133  0.5231 -0.1947 -0.3971
 5128SOL    HW127017   0.677   4.510   7.152 -0.6242 -1.2452  1.6333
 5128SOL    HW227018   0.617   4.579   7.041  0.4352  0.2632 -0.3213
 5129SOL     OW27019   0.914   0.823  16.133 -0.0837  0.0382  0.5945
 5129SOL    HW127020   0.913   0.735  16.171  0.1372 -0.5871 -0.8487
 5129SOL    HW227021   0.905   0.880  16.210  0.5975  2.8436 -1.4301
 5130SOL     OW27022   3.928   4.110   7.664 -0.4128 -0.0394 -0.1695
 5130SOL    HW127023   4.002   4.072   7.711  0.5663 -0.9443 -2.4909
 5130SOL    HW227024   3.961   4.200   7.660  0.9093 -0.4751  0.6793
 5131SOL     OW27025   2.887   0.199   4.343  0.8706 -0.2102  0.6391
 5131SOL    HW127026   2.862   0.284   4.305  4.9320  1.7185  2.2576
 5131SOL    HW227027   2.968   0.233   4.381  1.7554 -0.8645 -0.6518
 5132SOL     OW27028   2.677   0.555   5.879 -0.0986  0.0272 -0.9998
 5132SOL    HW127029   2.725   0.608   5.942  2.1202 -0.9288 -1.9007
 5132SOL    HW227030   2.735   0.566   5.804 -1.8128  1.0895 -2.1714
 5133SOL     OW27031   1.405   3.893  17.677  0.1339  0.4618  0.0160
 5133SOL    HW127032   1.453   3.974  17.692 -1.4876  1.4104  0.0681
 5133SOL    HW227033   1.478   3.838  17.649 -0.8931 -0.9054  0.0087
 5134SOL     OW27034   1.431   0.869  15.832 -0.3211  0.1868  0.1250
 5134SOL    HW127035   1.452   0.779  15.805 -1.3194  0.2463 -0.8359
 5134SOL    HW227036   1.518   0.901  15.856  0.9897 -2.6347 -0.8890
 5135SOL     OW27037   4.037   1.183  12.786 -0.3957  0.1584 -0.4488
 5135SOL    HW127038   3.961   1.232  12.818 -0.9913 -0.7824 -0.4187
 5135SOL    HW227039   4.044   1.124  12.861  0.5796 -0.0939 -0.7435
 5136SOL     OW27040   4.119   4.640   4.344  0.0739  0.2965 -0.7617
 5136SOL    HW127041   4.035   4.668   4.381  0.0803 -1.0487  0.3119
 5136SOL    HW227042   4.180   4.707   4.374 -1.7204  2.6422 -2.3777
 5137SOL     OW27043   0.081   1.472   0.331 -0.3480 -0.3245 -0.4232
 5137SOL    HW127044   0.053   1.546   0.276 -2.7617 -1.0789 -0.2323
 5137SOL    HW227045   4.732   1.442   0.350  0.9267 -1.8254  3.1652
 5138SOL     OW27046   1.230   1.943   2.452 -0.5894 -0.1457  0.2705
 5138SOL    HW127047   1.230   1.876   2.384  4.6882 -1.3200  1.4290
 5138SOL    HW227048   1.292   2.005   2.413 -0.5980  0.2759  0.9347
 5139SOL     OW27049   1.754   3.413   4.218  0.0432  0.2463  0.0991
 5139SOL    HW127050   1.665   3.380   4.227 -0.3913  0.6864 -2.3899
 5139SOL    HW227051   1.749   3.486   4.280 -0.8764  1.7845 -1.7562
 5140SOL     OW27052   4.441   4.656   3.521 -0.3034  0.0204  0.3928
 5140SOL    HW127053   4.528   4.673   3.484 -0.9166  2.7034  0.2377
 5140SOL    HW227054   4.423   4.568   3.486 -1.8554  0.3449  0.3890
 5141SOL     OW27055   4.438   1.926  11.194  0.2525  0.0267 -0.1263
 5141SOL    HW127056   4.363   1.870  11.173 -0.7075  0.6424  1.6206
 5141SOL    HW227057   4.419   2.005  11.144  1.2644 -1.2395 -2.4897
 5142SOL     OW27058   3.211   0.108   0.856 -0.1067 -0.0153 -0.0508
 5142SOL    HW127059   3.298   0.128   0.821 -0.6437  1.2438 -0.6363
 5142SOL    HW227060   3.239   0.051   0.928 -1.1474  1.4006  1.4665
 5143SOL     OW27061   0.701   2.953   2.432 -0.1249  0.1520  0.0925
 5143SOL    HW127062   0.781   2.900   2.433  0.1820  0.6415  0.8666
 5143SOL    HW227063   0.720   3.003   2.511 -0.5532 -0.9050  0.8648
 5144SOL     OW27064   0.701   1.146   1.060  0.1265 -0.2192  0.2086
 5144SOL    HW127065   0.714   1.186   0.974 -0.3408  0.1936  0.3287
 5144SOL    HW227066   0.788   1.152   1.100  0.6061 -1.6809 -0.6255
 5145SOL     OW27067   4.599   1.510   7.527 -0.6015  0.3709 -0.3612
 5145SOL    HW127068   4.673   1.449   7.529 -1.7731 -1.0215  0.9379
 5145SOL    HW227069   4.615   1.569   7.601 -1.6621  0.6902 -0.3985
 5146SOL     OW27070   2.867   1.495   7.279  0.4944  0.2035 -0.1323
 5146SOL    HW127071   2.815   1.512   7.358  1.6394 -0.0355  0.6686
 5146SOL    HW227072   2.810   1.546   7.222 -2.1910 -1.1831  1.3286
 5147SOL     OW27073   0.049   3.734  12.657 -0.2085  0.5420 -0.0329
 5147SOL    HW127074   0.065   3.641  12.644  0.6141  0.1179  3.8467
 5147SOL    HW227075   0.063   3.762  12.567 -0.2416 -0.5030 -0.3640
 5148SOL     OW27076   3.682   0.099  11.410  0.2410 -0.9273  0.3765
 5148SOL    HW127077   3.729   0.085  11.328 -0.6556  3.4895 -0.8832
 5148SOL    HW227078   3.595   0.115  11.372  1.0607  2.0461 -0.2395
 5149SOL     OW27079   3.717   3.239   7.063 -0.0022 -0.0727 -0.1605
 5149SOL    HW127080   3.696   3.232   7.157  0.3940 -0.1972 -0.0812
 5149SOL    HW227081   3.649   3.301   7.038  1.0422  1.9188  1.9143
 5150SOL     OW27082   4.093   0.769   9.066 -0.4356  0.0454  0.5691
 5150SOL    HW127083   4.182   0.756   9.100  0.0883  0.9999 -0.3980
 5150SOL    HW227084   4.098   0.864   9.053  1.4996 -0.2587 -0.8802
 5151SOL     OW27085   2.253   3.095   9.305  0.8029  0.2478  0.6492
 5151SOL    HW127086   2.301   3.065   9.228 -1.1121  2.1994 -1.3173
 5151SOL    HW227087   2.223   3.179   9.271 -0.2565  1.2554  4.0618
 5152SOL     OW27088   2.898   2.864  14.275 -0.0493 -0.0731 -0.0473
 5152SOL    HW127089   2.884   2.801  14.204 -1.1907 -0.2515  0.3360
 5152SOL    HW227090   2.826   2.923  14.257 -1.0480 -0.6578  2.0152
 5153SOL     OW27091   0.366   3.811   1.383  0.4564  0.2102  0.0484
 5153SOL    HW127092   0.290   3.782   1.332 -0.2183  2.8776 -0.4697
 5153SOL    HW227093   0.412   3.727   1.394  1.1770  0.8659  1.8982
 5154SOL     OW27094   4.489   0.388   7.255 -0.3271  0.2649  0.0769
 5154SOL    HW127095   4.436   0.390   7.175  1.4332 -0.8064 -1.1153
 5154SOL    HW227096   4.425   0.336   7.302  2.2103 -2.0725  0.9048
 5155SOL     OW27097   4.727   0.133  11.241  0.4237 -0.0424  0.1554
 5155SOL    HW127098   0.075   0.135  11.278  0.1084 -1.8995  1.0221
 5155SOL    HW227099   4.668   0.102  11.310 -1.1055  0.7165 -0.8105
 5156SOL     OW27100   3.512   3.507   1.338 -0.0258  0.4412 -0.1077
 5156SOL    HW127101   3.562   3.483   1.260  2.1969  0.6786  1.2675
 5156SOL    HW227102   3.437   3.551   1.298 -0.6234  1.8991  2.6046
 5157SOL     OW27103   0.723   3.291   7.853  0.5622 -0.2811 -0.5075
 5157SOL    HW127104   0.663   3.314   7.924 -0.4111 -1.0554 -1.0817
 5157SOL    HW227105   0.725   3.199   7.879 -0.6757  0.1870  1.2840
 5158SOL     OW27106   1.613   3.016  15.066 -0.1048 -0.2874 -0.2168
 5158SOL    HW127107   1.678   3.070  15.022 -0.5451  0.3664 -0.0672
 5158SOL    HW227108   1.667   2.974  15.133 -1.4773 -1.1439  0.3651
 5159SOL     OW27109   2.832   0.499   2.754  0.3103 -0.7626 -0.0259
 5159SOL    HW127110   2.847   0.587   2.718 -0.6466 -0.4673  0.3041
 5159SOL    HW227111   2.808   0.442   2.681 -1.6162 -0.1547  0.1336
 5160SOL     OW27112   1.908   0.243   3.289  0.7285  0.3192 -1.1143
 5160SOL    HW127113   1.841   0.297   3.247  0.2410  0.3114 -0.3568
 5160SOL    HW227114   1.987   0.294   3.279  0.3301  1.0907 -0.3371
 5161SOL     OW27115   4.538   4.158   4.718 -0.1992  0.2932 -0.0424
 5161SOL    HW127116   4.486   4.134   4.794 -0.3486  0.5320 -0.0680
 5161SOL    HW227117   4.575   4.075   4.689  1.9158  1.0903  0.3827
 5162SOL     OW27118   3.366   0.163  15.766  0.1814  0.5292  0.1073
 5162SOL    HW127119   3.303   0.213  15.818  0.0575  0.8873 -0.3795
 5162SOL    HW227120   3.349   0.195  15.677 -2.2237  0.6847  0.6250
 5163SOL     OW27121   2.119   3.981   8.756  0.1360 -0.4918  0.3541
 5163SOL    HW127122   2.077   4.062   8.726  2.8906  1.3605  1.4848
 5163SOL    HW227123   2.207   4.002   8.727 -0.7723  2.5608 -0.2575
 5164SOL     OW27124   0.307   2.802   4.270  0.1965  0.6382 -0.5233
 5164SOL    HW127125   0.382   2.796   4.211  0.0061 -1.4129 -0.5511
 5164SOL    HW227126   0.340   2.850   4.346  0.3707 -0.8745  0.3573
 5165SOL     OW27127   2.196   3.493   5.913 -0.6922  0.7562  0.1612
 5165SOL    HW127128   2.246   3.574   5.927 -1.0668  0.9750  0.2460
 5165SOL    HW227129   2.260   3.442   5.864  0.7828  0.2760  2.5618
 5166SOL     OW27130   2.157   1.285  11.697  0.3207  0.2014 -0.2319
 5166SOL    HW127131   2.166   1.260  11.789 -0.5111  0.1228 -0.1741
 5166SOL    HW227132   2.098   1.360  11.696  0.4832  0.3352  0.1558
 5167SOL     OW27133   2.625   3.124   3.774 -0.6760  0.0677 -0.0342
 5167SOL    HW127134   2.575   3.132   3.855  0.0409 -0.4821  0.4523
 5167SOL    HW227135   2.577   3.058   3.723  0.4204  1.1870 -2.5511
 5168SOL     OW27136   0.344   3.696  12.145 -0.1910  0.2039 -0.1569
 5168SOL    HW127137   0.400   3.738  12.211  1.1939  1.2595 -1.9944
 5168SOL    HW227138   0.418   3.668  12.091 -1.5573 -1.7180 -1.0005
 5169SOL     OW27139   4.436   1.785   4.809 -0.0940  0.1560  0.1232
 5169SOL    HW127140   4.531   1.792   4.815 -0.3454  2.9292  0.5670
 5169SOL    HW227141   4.431   1.770   4.714  0.4046  1.2894 -0.0784
 5170SOL     OW27142   3.119   3.259   3.882  0.1669  0.5528  0.4762
 5170SOL    HW127143   3.165   3.175   3.877  0.0913  0.5540 -0.2696
 5170SOL    HW227144   3.036   3.232   3.842  0.1698 -0.6424  1.2738
 5171SOL     OW27145   2.013   4.271  16.219  0.0862 -0.8969 -0.0348
 5171SOL    HW127146   1.971   4.309  16.141  0.9864  0.2742  0.0495
 5171SOL    HW227147   2.095   4.228  16.196  0.1599  0.0868 -1.6194
 5172SOL     OW27148   2.761   3.450   4.602  0.4288 -0.8383 -0.0027
 5172SOL    HW127149   2.779   3.379   4.663  2.3721 -0.7758 -0.4844
 5172SOL    HW227150   2.846   3.458   4.558  1.0568 -1.5885  1.0617
 5173SOL     OW27151   2.063   4.495   3.137  0.1441  0.2923  0.0247
 5173SOL    HW127152   2.019   4.410   3.145  2.2197 -0.7494  0.4698
 5173SOL    HW227153   2.018   4.545   3.205  0.6266 -0.0437  0.5955
 5174SOL     OW27154   4.589   1.361  16.060 -0.2518  0.6161  0.3572
 5174SOL    HW127155   4.540   1.443  16.064  1.4875  1.5551  2.3064
 5174SOL    HW227156   4.665   1.389  16.010  1.0429 -0.8197  1.5287
 5175SOL     OW27157   1.170   1.962  16.039 -0.2774  0.1716 -0.0696
 5175SOL    HW127158   1.098   1.901  16.020 -0.2121  0.9305 -2.8325
 5175SOL    HW227159   1.223   1.956  15.959 -1.2362 -0.3576 -0.6741
 5176SOL     OW27160   0.216   4.482   4.350 -0.2882 -0.5675  0.0692
 5176SOL    HW127161   0.264   4.411   4.392  3.5706  0.7664 -2.1081
 5176SOL    HW227162   0.124   4.455   4.350  0.1693 -2.1067 -2.4131
 5177SOL     OW27163   1.623   1.324   2.826 -0.2080 -0.2462  0.1891
 5177SOL    HW127164   1.699   1.307   2.770 -0.6459  2.3556 -1.2010
 5177SOL    HW227165   1.619   1.241   2.873  1.0589 -1.4247 -1.8013
 5178SOL     OW27166   2.782   3.172  17.254  0.3581  0.4313 -0.0386
 5178SOL    HW127167   2.769   3.214  17.339  2.2005  0.0595  0.4204
 5178SOL    HW227168   2.723   3.096  17.253 -1.4076  1.8213 -1.2801
 5179SOL     OW27169   1.658   1.743   2.168  0.4824 -0.1711  0.3128
 5179SOL    HW127170   1.683   1.831   2.140 -4.5817  0.1153 -3.3803
 5179SOL    HW227171   1.677   1.749   2.261  0.4339  2.0924  0.1767
 5180SOL     OW27172   1.259   3.254   4.196  0.1722  1.0346  0.2102
 5180SOL    HW127173   1.200   3.329   4.192  0.8351  1.4455 -1.9270
 5180SOL    HW227174   1.197   3.198   4.242 -0.4735  0.3724 -1.4831
 5181SOL     OW27175   2.848   3.567  15.671 -0.1010  0.5012  0.5278
 5181SOL    HW127176   2.935   3.607  15.675  1.1775 -2.2855  1.0099
 5181SOL    HW227177   2.830   3.556  15.765  0.9984 -1.0882  0.5586
 5182SOL     OW27178   2.042   0.338   2.287  0.8247 -0.2078 -0.2222
 5182SOL    HW127179   2.114   0.354   2.226  0.8536 -0.1829 -0.1818
 5182SOL    HW227180   2.091   0.355   2.368  1.9570 -1.1633 -0.7084
 5183SOL     OW27181   2.442   1.428  16.403  0.0776  0.0464  0.6537
 5183SOL    HW127182   2.390   1.351  16.427  0.7313 -0.6165 -0.0727
 5183SOL    HW227183   2.391   1.506  16.425  1.3446  1.4274 -1.3636
 5184SOL     OW27184   1.688   2.787   4.923  0.1002 -0.4106 -0.6359
 5184SOL    HW127185   1.731   2.820   5.002  0.4503  0.5273 -1.2124
 5184SOL    HW227186   1.765   2.799   4.868  1.4344  0.5596  1.4329
 5185SOL     OW27187   2.898   3.776  17.302  0.6440  0.1981 -0.1407
 5185SOL    HW127188   2.954   3.813  17.234  1.4094  1.5304  1.2155
 5185SOL    HW227189   2.899   3.682  17.282  2.7183  0.1838  0.0563
 5186SOL     OW27190   3.544   3.484   9.026  0.0250 -0.5710  0.1866
 5186SOL    HW127191   3.620   3.432   9.000 -0.7469 -2.0011  0.7929
 5186SOL    HW227192   3.497   3.421   9.080  1.6781 -1.6028  0.4076
 5187SOL     OW27193   2.182   1.988   3.249  0.0611  0.1094  0.1548
 5187SOL    HW127194   2.146   2.075   3.231  0.6616 -0.3358 -3.2531
 5187SOL    HW227195   2.212   1.967   3.161 -0.0349  0.6297 -0.0067
 5188SOL     OW27196   2.606   2.953   0.177 -0.1315  0.2230  0.8384
 5188SOL    HW127197   2.617   2.986   0.266  0.2983 -1.1318  1.2996
 5188SOL    HW227198   2.623   2.860   0.196 -1.4062 -0.2326 -0.3080
 5189SOL     OW27199   0.775   2.696   4.427  0.2550  0.3769 -0.6967
 5189SOL    HW127200   0.863   2.699   4.390 -0.5713 -3.4591 -3.0433
 5189SOL    HW227201   0.776   2.786   4.458 -0.0642 -0.3742  1.4993
 5190SOL     OW27202   3.612   1.475   7.420 -0.2601 -0.3614 -0.0934
 5190SOL    HW127203   3.683   1.412   7.413 -0.1900 -0.3824  0.8094
 5190SOL    HW227204   3.546   1.422   7.464 -0.6315 -0.4575 -0.7626
 5191SOL     OW27205   0.980   0.042   5.403  0.2466  0.0734 -0.3443
 5191SOL    HW127206   1.031   4.703   5.385  1.0748  0.5454 -0.0132
 5191SOL    HW227207   0.893   0.005   5.383 -0.4988  1.4198  0.3868
 5192SOL     OW27208   2.355   2.759   1.802  0.1457 -0.5990 -0.1827
 5192SOL    HW127209   2.401   2.828   1.755 -2.2089  0.9873 -0.1821
 5192SOL    HW227210   2.390   2.676   1.769  1.1940 -1.0842  2.2016
 5193SOL     OW27211   1.104   3.102   5.056 -0.0949  0.0713 -0.2146
 5193SOL    HW127212   1.160   3.153   4.998 -0.3064  1.3527  0.7007
 5193SOL    HW227213   1.155   3.021   5.064 -1.7093 -0.8722  0.5689
 5194SOL     OW27214   0.582   1.502   8.674  0.4950 -0.0725 -0.7269
 5194SOL    HW127215   0.527   1.425   8.656  0.1879  0.4118 -1.8784
 5194SOL    HW227216   0.518   1.560   8.713 -0.4737 -1.4711 -0.2403
 5195SOL     OW27217   1.936   2.477  16.551  0.2893  0.0772  0.0420
 5195SOL    HW127218   2.027   2.481  16.521  0.1211 -0.3657 -0.5190
 5195SOL    HW227219   1.929   2.544  16.619  1.9176  0.8014 -0.4884
 5196SOL     OW27220   1.600   1.355   3.737  0.4506  0.1618  0.9013
 5196SOL    HW127221   1.531   1.394   3.790 -0.1729 -0.0889  0.2743
 5196SOL    HW227222   1.605   1.273   3.786 -0.1531  0.3317  1.2462
 5197SOL     OW27223   3.619   3.963  13.930 -0.2983  0.5131  0.0551
 5197SOL    HW127224   3.681   3.902  13.889 -1.4680 -0.4453 -0.2759
 5197SOL    HW227225   3.591   3.999  13.846 -1.4122 -1.3531 -0.3729
 5198SOL     OW27226   3.470   4.497   7.788 -0.1994  0.6945  0.6772
 5198SOL    HW127227   3.536   4.524   7.852  0.6416  0.9777 -0.3035
 5198SOL    HW227228   3.447   4.579   7.743  2.6033  1.1484  0.0845
 5199SOL     OW27229   2.539   0.061   4.850 -0.2582 -0.1461  0.3495
 5199SOL    HW127230   2.539   4.729   4.913  0.5501 -0.7932 -0.3713
 5199SOL    HW227231   2.521   0.013   4.769 -1.1246  1.5403 -0.4480
 5200SOL     OW27232   3.889   4.217   4.170 -0.1624  0.2641 -0.5000
 5200SOL    HW127233   3.936   4.272   4.233 -0.9432 -0.9802  1.1838
 5200SOL    HW227234   3.801   4.210   4.207  0.3599 -4.2411 -0.0338
 5201SOL     OW27235   2.927   3.519   8.638  0.0120  0.3797  0.5284
 5201SOL    HW127236   2.958   3.441   8.684 -2.5967 -0.7426  0.3992
 5201SOL    HW227237   2.989   3.525   8.565  0.5978 -1.0465  0.9303
 5202SOL     OW27238   0.326   2.155  12.560  0.1438 -0.3569 -0.4154
 5202SOL    HW127239   0.374   2.087  12.513  2.0873  0.3535  0.5211
 5202SOL    HW227240   0.383   2.225  12.593  0.2966 -1.7097  2.2029
 5203SOL     OW27241   3.915   1.888  13.440 -0.0087 -0.0344 -0.4408
 5203SOL    HW127242   3.874   1.867  13.524 -0.2952 -0.1004 -0.5983
 5203SOL    HW227243   4.003   1.853  13.453 -0.5239 -1.5503 -1.0408
 5204SOL     OW27244   4.415   1.591  13.046  0.4693  0.3596  0.0807
 5204SOL    HW127245   4.509   1.603  13.061  0.3397  0.0737  1.1558
 5204SOL    HW227246   4.428   1.579  12.952 -2.6574  0.9608 -0.4368
 5205SOL     OW27247   1.314   3.070   1.483  0.1477  0.3960  0.2452
 5205SOL    HW127248   1.265   3.078   1.401  1.3874  3.8951 -0.1078
 5205SOL    HW227249   1.324   2.974   1.482  0.7143  0.4591 -0.1885
 5206SOL     OW27250   0.837   3.326  10.001 -0.1114 -0.2204 -0.2826
 5206SOL    HW127251   0.924   3.333  10.040  1.0071 -1.3226 -2.6063
 5206SOL    HW227252   0.795   3.403  10.038 -2.5788 -1.7096  0.0357
 5207SOL     OW27253   2.223   2.653   6.485 -0.4771 -0.4887  0.3424
 5207SOL    HW127254   2.187   2.731   6.527  0.5530  0.6454 -0.8880
 5207SOL    HW227255   2.295   2.702   6.445  1.0856 -2.0021  1.2925
 5208SOL     OW27256   2.503   4.594   1.891 -0.1574  0.4679  0.1272
 5208SOL    HW127257   2.544   4.591   1.804 -1.1430 -0.6000 -0.3007
 5208SOL    HW227258   2.568   4.543   1.940  0.3051  1.1819  0.2492
 5209SOL     OW27259   3.554   2.500   2.300  0.2388 -0.0710  0.3413
 5209SOL    HW127260   3.534   2.418   2.255  2.0147 -0.4914  0.3328
 5209SOL    HW227261   3.648   2.507   2.284  0.2467  0.5109  0.6497
 5210SOL     OW27262   2.643   3.106  11.473  0.3293 -0.1602 -0.5065
 5210SOL    HW127263   2.631   3.020  11.433  1.2215 -0.0790 -0.9397
 5210SOL    HW227264   2.552   3.124  11.498  0.3545 -0.4672 -0.1875
 5211SOL     OW27265   3.195   3.738  15.058  0.6517  0.2484 -0.4808
 5211SOL    HW127266   3.270   3.797  15.069  0.7380  0.0195  0.1521
 5211SOL    HW227267   3.185   3.708  15.148  2.8978 -0.2187 -0.4038
 5212SOL     OW27268   2.445   2.156  15.025 -0.1859 -0.2510  0.5347
 5212SOL    HW127269   2.448   2.134  14.932 -0.0982 -3.9387  1.3831
 5212SOL    HW227270   2.385   2.092  15.064 -0.6267  0.0826  0.3942
 5213SOL     OW27271   4.547   2.706  16.795  0.0816 -0.2206  0.1111
 5213SOL    HW127272   4.521   2.638  16.732  0.6980  1.6700 -2.1570
 5213SOL    HW227273   4.535   2.656  16.876 -0.3042 -0.8647 -0.3356
 5214SOL     OW27274   3.189   3.210  10.906 -0.5138  0.2833  0.0492
 5214SOL    HW127275   3.100   3.190  10.877  0.2283 -1.0345 -1.3568
 5214SOL    HW227276   3.165   3.274  10.973  0.2652 -1.2163  1.7518
 5215SOL     OW27277   0.920   0.512  16.245 -0.0778 -0.2007  0.0758
 5215SOL    HW127278   0.918   0.465  16.161  0.9480  0.3751 -0.2598
 5215SOL    HW227279   0.831   0.492  16.275  0.2730 -0.8564  0.6949
 5216SOL     OW27280   1.799   1.165   2.604  0.2673 -0.6445  0.3364
 5216SOL    HW127281   1.843   1.110   2.669  2.7489  0.8255 -0.0996
 5216SOL    HW227282   1.809   1.110   2.526  0.5172  1.7522 -1.3089
 5217SOL     OW27283   3.701   3.732   3.021  0.4018 -0.0090  0.0400
 5217SOL    HW127284   3.764   3.803   3.010 -1.0819  1.3332  0.2668
 5217SOL    HW227285   3.707   3.723   3.116 -0.1172 -1.0545 -0.0219
 5218SOL     OW27286   0.630   0.697  13.374 -0.5297 -0.1524  0.5413
 5218SOL    HW127287   0.637   0.631  13.443 -2.2202  2.0905  2.8507
 5218SOL    HW227288   0.662   0.767  13.431 -1.3835  0.4748  0.2497
 5219SOL     OW27289   4.505   3.508   5.356 -0.3787  0.1298 -0.1135
 5219SOL    HW127290   4.488   3.569   5.428 -0.4898  0.9195 -0.8166
 5219SOL    HW227291   4.421   3.462   5.355 -0.0270 -0.4561 -2.0180
 5220SOL     OW27292   4.539   4.617   3.907  0.1496 -0.1589  0.2104
 5220SOL    HW127293   4.599   4.624   3.833 -0.4161  0.0075 -0.2334
 5220SOL    HW227294   4.504   4.530   3.889 -0.5902  0.2191 -0.1931
 5221SOL     OW27295   3.658   3.191   4.764  0.3962  0.0062  0.3607
 5221SOL    HW127296   3.727   3.126   4.780 -0.5876 -0.8564  1.0750
 5221SOL    HW227297   3.583   3.133   4.778  1.6133 -2.0188 -1.3988
 5222SOL     OW27298   4.064   3.482   0.921 -0.2757 -0.1356 -0.1699
 5222SOL    HW127299   4.044   3.410   0.861  2.7382 -0.4414 -0.8405
 5222SOL    HW227300   4.142   3.506   0.871 -1.1557  2.6512 -0.1738
 5223SOL     OW27301   3.455   1.741  10.452  0.1459 -0.5321 -0.1052
 5223SOL    HW127302   3.545   1.714  10.432  0.3997  0.8617 -0.8259
 5223SOL    HW227303   3.449   1.688  10.531 -1.4502  0.4106  0.4163
 5224SOL     OW27304   4.721   2.603  12.119 -0.6583 -0.1586 -0.2288
 5224SOL    HW127305   4.737   2.566  12.032  2.1674  1.3399 -0.3509
 5224SOL    HW227306   4.673   2.682  12.094 -2.1215 -1.3906 -1.3171
 5225SOL     OW27307   2.343   3.065   4.430 -0.3024  0.0136 -0.0253
 5225SOL    HW127308   2.353   3.143   4.376  3.2235  0.0508  0.6480
 5225SOL    HW227309   2.424   3.021   4.406 -1.3720 -1.3889 -1.0339
 5226SOL     OW27310   2.625   3.289   1.798  0.1189 -0.1106 -0.8469
 5226SOL    HW127311   2.641   3.230   1.871  1.1367 -0.8107 -1.6410
 5226SOL    HW227312   2.559   3.250   1.740  0.8084  0.2881 -1.9080
 5227SOL     OW27313   0.575   1.233   9.040  0.4752  0.1299  0.2928
 5227SOL    HW127314   0.589   1.139   9.036  2.8933  0.5667 -1.2536
 5227SOL    HW227315   0.588   1.256   8.948 -2.0618 -2.0061 -0.6031
 5228SOL     OW27316   4.304   2.231   7.258  0.1995 -0.2404 -0.4348
 5228SOL    HW127317   4.248   2.223   7.181 -0.6800 -2.1784  0.3914
 5228SOL    HW227318   4.390   2.260   7.229  0.6615 -2.4155 -1.3045
 5229SOL     OW27319   1.762   1.427   8.998  0.0226  0.3651  0.4132
 5229SOL    HW127320   1.721   1.419   9.084 -0.2758 -1.0830  0.1406
 5229SOL    HW227321   1.777   1.521   8.987  1.4443  0.1155  0.1940
 5230SOL     OW27322   1.133   1.153   3.628 -0.7198 -0.5749 -0.5519
 5230SOL    HW127323   1.123   1.215   3.700  1.1550 -0.3768 -0.4671
 5230SOL    HW227324   1.109   1.215   3.559  1.3454  2.3166  1.2911
 5231SOL     OW27325   2.565   1.931   2.632  0.4898 -0.0679 -0.2050
 5231SOL    HW127326   2.561   2.003   2.569  1.3069 -1.0815 -1.3977
 5231SOL    HW227327   2.658   1.913   2.627  0.2355 -1.6242  0.7134
 5232SOL     OW27328   3.667   2.755   4.836 -0.6843  0.0854 -0.1483
 5232SOL    HW127329   3.592   2.750   4.896 -1.1526  2.5571 -0.5010
 5232SOL    HW227330   3.625   2.710   4.763  1.1659 -0.4975 -0.8290
 5233SOL     OW27331   0.491   4.167   9.628 -0.4415  0.2022 -0.8562
 5233SOL    HW127332   0.528   4.097   9.573  0.3669  0.9483 -1.2709
 5233SOL    HW227333   0.446   4.204   9.552 -1.7312 -0.5526 -0.4520
 5234SOL     OW27334   3.324   4.273   5.729 -0.5541  0.0865  0.2980
 5234SOL    HW127335   3.295   4.364   5.729  2.7078  1.1350  0.2384
 5234SOL    HW227336   3.244   4.223   5.742 -0.8146  0.3224 -0.3899
 5235SOL     OW27337   4.596   3.290   5.144 -0.0365 -1.2243 -0.1428
 5235SOL    HW127338   4.516   3.237   5.138 -1.8803  1.7782 -1.8276
 5235SOL    HW227339   4.567   3.341   5.220  0.5200  2.5546 -2.5065
 5236SOL     OW27340   4.300   4.171   9.012  0.0191  0.3131  0.0986
 5236SOL    HW127341   4.240   4.207   9.078 -0.2082  0.9935 -0.4721
 5236SOL    HW227342   4.381   4.163   9.061 -0.2408  1.1840  0.6673
 5237SOL     OW27343   3.201   1.617   3.649  0.1850 -0.0554  0.1212
 5237SOL    HW127344   3.251   1.667   3.584  1.2833 -1.1097  0.1601
 5237SOL    HW227345   3.270   1.594   3.710 -1.0541 -0.0935  1.4952
 5238SOL     OW27346   3.464   0.726   0.152  0.2481  0.0362  0.6269
 5238SOL    HW127347   3.501   0.645   0.187 -0.9264 -0.8472 -0.1726
 5238SOL    HW227348   3.414   0.690   0.078  2.2329  0.1103 -0.7459
 5239SOL     OW27349   0.960   3.221   3.491  0.0172 -0.2333  0.5376
 5239SOL    HW127350   1.045   3.213   3.534  0.8928 -0.4811 -1.2414
 5239SOL    HW227351   0.901   3.157   3.531 -0.3285  0.7115  1.5230
 5240SOL     OW27352   0.365   1.671   8.828  1.0211  0.2715 -0.5153
 5240SOL    HW127353   0.403   1.696   8.912 -0.0485  1.3934 -0.3692
 5240SOL    HW227354   0.322   1.750   8.796 -0.5096 -0.8937 -1.3643
 5241SOL     OW27355   2.297   0.382   5.089  0.2433  0.2021  0.0991
 5241SOL    HW127356   2.310   0.328   5.010 -2.7701  1.2200 -1.0788
 5241SOL    HW227357   2.306   0.474   5.064 -1.6144  0.4583  0.4095
 5242SOL     OW27358   1.255   2.048   1.569 -0.0628 -0.0140 -0.3754
 5242SOL    HW127359   1.188   2.038   1.637 -0.1149  1.6708 -0.1767
 5242SOL    HW227360   1.239   2.133   1.529  1.1421 -0.1998 -1.2665
 5243SOL     OW27361   0.121   4.525  10.559 -0.2814 -0.1464  0.3627
 5243SOL    HW127362   0.033   4.497  10.533 -0.6737  0.9132  0.5462
 5243SOL    HW227363   0.177   4.480  10.496  0.5765  1.5671 -0.0926
 5244SOL     OW27364   1.099   1.329   1.730  0.1647  0.2678  0.2694
 5244SOL    HW127365   1.074   1.380   1.807  1.5691  0.9453  0.2747
 5244SOL    HW227366   1.018   1.280   1.711  0.1694  0.3920 -0.0718
 5245SOL     OW27367   0.804   4.529   7.506 -0.0754  1.5402 -0.4059
 5245SOL    HW127368   0.878   4.481   7.544 -1.5344 -1.5323 -1.3641
 5245SOL    HW227369   0.784   4.480   7.426 -1.3634  1.5180 -0.0720
 5246SOL     OW27370   1.118   3.753   4.376  0.4108  0.3968  0.8003
 5246SOL    HW127371   1.075   3.809   4.440  0.5565  2.0424 -0.5276
 5246SOL    HW227372   1.161   3.817   4.319 -1.4003  0.4441 -0.5126
 5247SOL     OW27373   1.036   3.446  17.071 -0.0839 -0.4006  0.5432
 5247SOL    HW127374   1.034   3.361  17.028 -1.9466 -0.4525  0.7430
 5247SOL    HW227375   1.125   3.462  17.101  0.5161  0.9707 -1.9503
 5248SOL     OW27376   3.837   4.069   6.258 -0.1725 -0.2655 -0.0008
 5248SOL    HW127377   3.865   4.040   6.171 -2.2957 -0.0163 -0.7735
 5248SOL    HW227378   3.744   4.050   6.267  0.1913 -2.7250 -1.4188
 5249SOL     OW27379   2.642   3.980   8.731  0.3760 -0.0956 -0.0792
 5249SOL    HW127380   2.698   3.912   8.696 -0.3001 -0.5616 -0.2652
 5249SOL    HW227381   2.675   4.057   8.684 -0.8953  1.3087  1.3119
 5250SOL     OW27382   0.509   1.407   6.634  0.4442 -0.3728 -0.1600
 5250SOL    HW127383   0.444   1.405   6.704 -2.5232  0.6128 -2.8919
 5250SOL    HW227384   0.481   1.328   6.588 -1.3565  0.0667  0.2092
 5251SOL     OW27385   4.079   4.355   3.685  0.0956 -0.3262  0.0023
 5251SOL    HW127386   4.157   4.301   3.688  1.5876  1.8745  1.0731
 5251SOL    HW227387   4.029   4.301   3.746  0.9691 -1.1422 -0.0154
 5252SOL     OW27388   0.017   0.349   7.166 -0.1040  0.0273  0.0906
 5252SOL    HW127389   4.717   0.341   7.079  0.0178  4.9387 -0.3828
 5252SOL    HW227390   4.682   0.371   7.221  0.7500  2.2305  0.3628
 5253SOL     OW27391   4.432   1.155   1.450  0.2482  0.0316 -0.3988
 5253SOL    HW127392   4.338   1.174   1.456 -0.0194 -0.8770 -1.5969
 5253SOL    HW227393   4.457   1.178   1.539 -0.8295 -1.5375  0.2912
 5254SOL     OW27394   2.056   0.312  10.709 -0.5438  1.2414 -0.1126
 5254SOL    HW127395   2.151   0.326  10.709 -0.2072 -1.0154 -0.4494
 5254SOL    HW227396   2.036   0.336  10.799 -0.2007  0.2471  0.2282
 5255SOL     OW27397   3.750   4.675  17.208 -0.4807 -0.1918  0.1392
 5255SOL    HW127398   3.753   0.023  17.171  0.1498 -0.7866 -1.1942
 5255SOL    HW227399   3.698   4.638  17.137  1.6759 -1.8219 -0.5715
 5256SOL     OW27400   2.722   4.443   1.472  0.3943  0.3465 -0.1818
 5256SOL    HW127401   2.693   4.352   1.466 -0.0005  0.3846  1.0579
 5256SOL    HW227402   2.708   4.466   1.380 -0.3922  1.0878  0.1109
 5257SOL     OW27403   1.071   3.655   5.612  0.3559 -0.3003  0.5496
 5257SOL    HW127404   1.000   3.624   5.668 -0.3537 -0.1458 -0.2652
 5257SOL    HW227405   1.076   3.750   5.628  0.1840 -0.6493  2.5997
 5258SOL     OW27406   2.855   4.066  16.594 -0.5178  0.1690 -0.3135
 5258SOL    HW127407   2.886   4.156  16.594  0.9826 -0.3390 -1.7348
 5258SOL    HW227408   2.774   4.076  16.645  0.4084 -0.3776  1.2585
 5259SOL     OW27409   3.874   2.711   8.629  0.7220  0.1037 -0.2633
 5259SOL    HW127410   3.924   2.733   8.551 -0.1598  0.4254 -0.7439
 5259SOL    HW227411   3.821   2.790   8.641 -0.2146 -0.5631  0.0201
 5260SOL     OW27412   3.953   2.774   3.733 -0.4822 -0.2459 -0.0015
 5260SOL    HW127413   3.888   2.747   3.798 -0.0941  1.3515  1.0410
 5260SOL    HW227414   3.909   2.852   3.699 -1.3863 -0.5457  0.4739
 5261SOL     OW27415   4.251   0.566   3.264 -0.4539 -0.6036 -0.1752
 5261SOL    HW127416   4.271   0.658   3.245 -2.6060  0.0324  0.6089
 5261SOL    HW227417   4.290   0.535   3.182  0.1725  2.5869 -1.0825
 5262SOL     OW27418   4.259   4.401   4.585  0.8429 -0.3292 -0.0283
 5262SOL    HW127419   4.199   4.468   4.552  0.5502 -0.8614 -0.5786
 5262SOL    HW227420   4.216   4.367   4.664 -0.6604 -0.1141 -0.7670
 5263SOL     OW27421   0.821   1.830   6.549 -0.2537  0.4840  0.3421
 5263SOL    HW127422   0.832   1.829   6.454 -0.8219 -3.5693  0.3545
 5263SOL    HW227423   0.726   1.821   6.552 -0.2574  0.6844  0.8211
 5264SOL     OW27424   2.391   3.353   3.272 -0.3932 -0.3794 -0.8052
 5264SOL    HW127425   2.416   3.337   3.181 -0.5162 -0.0208 -0.9022
 5264SOL    HW227426   2.406   3.264   3.304 -1.3760  0.6823  2.5881
 5265SOL     OW27427   0.119   0.308   4.568  0.0310 -0.4721  0.3063
 5265SOL    HW127428   0.132   0.223   4.610 -1.3726 -1.3461 -1.0314
 5265SOL    HW227429   0.142   0.365   4.642  1.4937 -1.3915  0.5499
 5266SOL     OW27430   3.232   0.951   4.371 -0.2391  0.4328 -0.1632
 5266SOL    HW127431   3.162   0.891   4.344 -1.8385  2.0366  0.4635
 5266SOL    HW227432   3.187   0.992   4.445 -1.1078 -0.7183 -0.0406
 5267SOL     OW27433   3.296   1.431   5.886 -0.0217 -0.0587  0.0379
 5267SOL    HW127434   3.300   1.355   5.827  2.9403 -1.7190  2.3358
 5267SOL    HW227435   3.265   1.489   5.816  2.7698 -1.7171 -2.5933
 5268SOL     OW27436   0.765   4.615   3.090 -0.1838  0.4673 -0.0169
 5268SOL    HW127437   0.677   4.631   3.125  0.2224 -0.3889  1.4265
 5268SOL    HW227438   0.781   4.699   3.048  0.9505 -0.6294 -1.7730
 5269SOL     OW27439   1.962   0.187  16.288 -0.3532 -0.9205  0.4018
 5269SOL    HW127440   1.951   0.098  16.323  0.1253 -0.8821  0.6454
 5269SOL    HW227441   2.015   0.168  16.210 -1.0523  0.9064 -0.5160
 5270SOL     OW27442   2.328   0.558  12.347  0.0777 -0.3654 -0.0343
 5270SOL    HW127443   2.297   0.486  12.401  2.3485  0.3499  2.2204
 5270SOL    HW227444   2.371   0.514  12.273 -1.1960 -1.9526  0.1648
 5271SOL     OW27445   3.584   0.343   6.531 -0.2414 -0.6097  0.3659
 5271SOL    HW127446   3.618   0.432   6.541  3.3365 -1.9468  0.1054
 5271SOL    HW227447   3.492   0.362   6.550 -0.0982  0.7982 -0.3948
 5272SOL     OW27448   1.359   2.087   6.680  0.2130  0.1753 -0.0477
 5272SOL    HW127449   1.428   2.141   6.718  0.9124  0.5075 -1.7627
 5272SOL    HW227450   1.380   2.086   6.586 -1.1209  3.6544 -0.3714
 5273SOL     OW27451   3.380   2.038   2.038  0.2591  0.0314  0.0755
 5273SOL    HW127452   3.320   1.993   2.097  0.9018 -1.7118 -0.6059
 5273SOL    HW227453   3.336   2.122   2.028  0.3375 -0.1991 -2.2080
 5274SOL     OW27454   1.898   1.352   4.576  0.8074  0.3999 -0.2690
 5274SOL    HW127455   1.940   1.267   4.572 -0.3559 -0.1601 -0.7761
 5274SOL    HW227456   1.932   1.389   4.494 -1.9620  2.2389 -0.5944
 5275SOL     OW27457   2.616   2.317   7.978  0.0440  0.4207  0.1583
 5275SOL    HW127458   2.558   2.273   7.916  0.8803  0.0140 -0.3473
 5275SOL    HW227459   2.699   2.321   7.929 -1.0332  1.0197 -1.5969
 5276SOL     OW27460   2.445   1.488   7.527 -0.3999  0.1085  0.0470
 5276SOL    HW127461   2.405   1.556   7.580  1.0252  0.1522  1.0871
 5276SOL    HW227462   2.428   1.534   7.445  0.8888  0.9171  0.2183
 5277SOL     OW27463   4.263   2.763   3.746  0.2329 -0.2784  0.1724
 5277SOL    HW127464   4.283   2.781   3.838  2.4300  2.8388 -0.9095
 5277SOL    HW227465   4.169   2.744   3.754  0.4766 -1.3310  0.4581
 5278SOL     OW27466   1.796   2.661  12.387  0.1229 -0.0927  0.9207
 5278SOL    HW127467   1.868   2.664  12.324 -0.7076 -0.1095 -0.0270
 5278SOL    HW227468   1.843   2.688  12.466 -1.2528  1.6440  1.1485
 5279SOL     OW27469   0.358   0.699   9.628  0.5616 -0.4997 -0.1037
 5279SOL    HW127470   0.415   0.642   9.576 -2.8148 -1.2214 -2.9246
 5279SOL    HW227471   0.350   0.652   9.711  3.1110  0.4453  0.6986
 5280SOL     OW27472   4.318   1.732   5.049 -0.2522 -0.2718 -0.1175
 5280SOL    HW127473   4.364   1.738   4.966  4.7900 -1.0708  2.5894
 5280SOL    HW227474   4.334   1.642   5.078  1.6351  1.3140  3.8596
 5281SOL     OW27475   2.288   3.265   4.253 -0.0292  0.1866  0.2728
 5281SOL    HW127476   2.345   3.316   4.195 -0.8615 -0.7680 -1.4068
 5281SOL    HW227477   2.212   3.324   4.253 -0.2158 -0.0669  1.7350
 5282SOL     OW27478   2.668   1.737   3.344  0.2848 -0.5992  0.1610
 5282SOL    HW127479   2.696   1.825   3.368 -0.5984 -0.9699  2.5126
 5282SOL    HW227480   2.612   1.761   3.270 -0.5822  0.4954  1.1780
 5283SOL     OW27481   3.500   3.581   7.429 -0.5520  0.1412  0.5980
 5283SOL    HW127482   3.457   3.600   7.346  0.6830 -0.4190 -0.1608
 5283SOL    HW227483   3.436   3.528   7.479 -1.6887  2.3521  1.5100
 5284SOL     OW27484   2.857   1.924  15.247  0.1525 -0.2158  0.0890
 5284SOL    HW127485   2.803   2.003  15.248  0.9075  0.3020  0.3598
 5284SOL    HW227486   2.791   1.857  15.258 -0.5076  0.6133  1.1934
 5285SOL     OW27487   2.695   3.666   7.661 -0.1559  0.0690 -0.0291
 5285SOL    HW127488   2.774   3.719   7.666  1.7421 -2.8399  0.1733
 5285SOL    HW227489   2.646   3.710   7.591  2.0892  0.5242 -1.2825
 5286SOL     OW27490   4.530   2.002   8.717  0.3410 -0.8267  0.1560
 5286SOL    HW127491   4.453   1.964   8.675 -1.5554  1.7822  1.2384
 5286SOL    HW227492   4.509   2.094   8.703  0.7698 -0.7826 -0.1804
 5287SOL     OW27493   1.703   2.044   6.748 -0.5104  0.1255 -0.1316
 5287SOL    HW127494   1.746   2.025   6.665 -2.3152 -2.3450 -0.4971
 5287SOL    HW227495   1.763   2.115   6.772 -1.8187  1.0074  0.5321
 5288SOL     OW27496   1.730   0.123  16.036  0.4300  0.3332 -0.2697
 5288SOL    HW127497   1.774   0.038  16.030  1.6894  0.9860 -0.3831
 5288SOL    HW227498   1.799   0.173  15.991  0.6700  1.3941  1.2607
 5289SOL     OW27499   0.728   1.675  15.346 -0.8347 -0.3735  0.4031
 5289SOL    HW127500   0.682   1.733  15.407 -0.4039  0.5721 -0.1574
 5289SOL    HW227501   0.815   1.664  15.385 -1.1699  0.9911  1.5229
 5290SOL     OW27502   2.227   4.050   6.119 -0.3121 -0.0133 -0.4397
 5290SOL    HW127503   2.297   4.111   6.141  0.8301 -0.4563 -2.8179
 5290SOL    HW227504   2.273   3.968   6.137  1.6729  0.5510 -2.8493
 5291SOL     OW27505   1.198   2.953  13.307  0.1514  0.1679 -0.3063
 5291SOL    HW127506   1.121   2.992  13.348 -1.8327 -3.0964 -0.8508
 5291SOL    HW227507   1.215   2.887  13.375  1.4215  1.2210  0.4075
 5292SOL     OW27508   2.945   4.729   8.542 -0.6594 -0.3013  0.4846
 5292SOL    HW127509   2.969   4.660   8.604 -1.0174 -0.0887  0.8603
 5292SOL    HW227510   2.908   4.679   8.469 -1.8086 -1.2775  1.7338
 5293SOL     OW27511   4.039   0.822   2.413  0.2002 -0.0714 -0.9059
 5293SOL    HW127512   3.969   0.832   2.478  1.9288 -1.1970  1.1263
 5293SOL    HW227513   4.029   0.900   2.359 -0.0322 -0.3837 -1.3135
 5294SOL     OW27514   0.906   1.737  13.716 -0.2895 -0.2389 -0.0270
 5294SOL    HW127515   0.952   1.797  13.775 -1.3655  0.8537 -0.2714
 5294SOL    HW227516   0.949   1.762  13.634  1.5523 -2.5913  0.2247
 5295SOL     OW27517   2.288   4.393   8.957  0.3730 -0.1132 -0.0149
 5295SOL    HW127518   2.221   4.459   8.940 -1.8393 -2.3841 -0.1792
 5295SOL    HW227519   2.364   4.449   8.973  2.6869 -2.8293 -1.5186
 5296SOL     OW27520   1.689   2.323   9.176  0.1017 -0.2170 -0.1941
 5296SOL    HW127521   1.614   2.284   9.220  0.8321 -0.9622  0.3836
 5296SOL    HW227522   1.707   2.399   9.231 -0.3449  0.1310 -0.5307
 5297SOL     OW27523   0.889   2.313   7.613  0.1148 -0.6842 -0.4249
 5297SOL    HW127524   0.874   2.311   7.707  0.8883  0.4348 -0.2649
 5297SOL    HW227525   0.984   2.300   7.607  0.0954 -0.5197 -1.1349
 5298SOL     OW27526   1.708   2.484  16.430  0.2561  0.3864 -0.0821
 5298SOL    HW127527   1.778   2.486  16.495 -0.6670 -0.3167  0.9260
 5298SOL    HW227528   1.649   2.555  16.454 -0.8462 -0.8777  0.9310
 5299SOL     OW27529   4.577   3.996  14.631  0.1413 -0.2590 -0.1552
 5299SOL    HW127530   4.553   3.903  14.631 -1.1576  0.0682  0.7317
 5299SOL    HW227531   4.581   4.012  14.725  3.0389  1.4104 -0.5681
 5300SOL     OW27532   2.660   2.601   8.982 -0.7147 -0.1624 -0.2563
 5300SOL    HW127533   2.702   2.522   9.016 -0.2992 -0.1702 -0.7832
 5300SOL    HW227534   2.636   2.566   8.896 -0.1503  1.9207 -1.2757
 5301SOL     OW27535   3.820   1.465   2.794  0.7770  0.1231  0.3570
 5301SOL    HW127536   3.897   1.501   2.750  0.5211  1.1350  0.7205
 5301SOL    HW227537   3.864   1.431   2.872  4.0315  1.8183 -0.7515
 5302SOL     OW27538   0.301   2.433   8.140 -0.2478 -0.2219  0.3911
 5302SOL    HW127539   0.359   2.358   8.128 -1.5604 -0.9975 -1.0034
 5302SOL    HW227540   0.372   2.495   8.124 -0.2403 -1.1076 -3.0174
 5303SOL     OW27541   0.526   3.130   8.035  0.0011 -0.0303 -0.4595
 5303SOL    HW127542   0.520   3.222   8.063 -0.3246  0.3073 -1.6309
 5303SOL    HW227543   0.435   3.107   8.017 -0.1303 -0.2413  0.4678
 5304SOL     OW27544   3.094   0.748   4.663 -0.1394 -0.3624  0.3147
 5304SOL    HW127545   3.018   0.781   4.711  1.5279  0.5618  2.2639
 5304SOL    HW227546   3.063   0.658   4.653 -1.3055  0.1702 -0.9611
 5305SOL     OW27547   2.960   1.507   3.921 -0.1172  0.0521  0.6289
 5305SOL    HW127548   3.042   1.534   3.963 -0.2226  0.2517  0.7046
 5305SOL    HW227549   2.943   1.589   3.875 -2.8219 -0.3912  0.8115
 5306SOL     OW27550   1.368   0.557   8.437  0.1252  0.3076  0.0087
 5306SOL    HW127551   1.303   0.496   8.402  0.5700 -0.1673  0.0333
 5306SOL    HW227552   1.326   0.624   8.491  0.2664 -0.5534  1.1708
 5307SOL     OW27553   0.123   1.657   1.077  0.1268  0.0460  0.0585
 5307SOL    HW127554   0.130   1.626   1.168 -0.0558 -1.8925 -0.6034
 5307SOL    HW227555   0.028   1.666   1.071  0.2128  1.0233  0.1797
 5308SOL     OW27556   0.495   3.867   9.878 -0.0076 -0.3210 -0.3169
 5308SOL    HW127557   0.568   3.863   9.940  0.1587  2.6510 -0.3106
 5308SOL    HW227558   0.529   3.795   9.827 -1.0282 -0.4531 -0.8059
 5309SOL     OW27559   4.203   3.473  12.472 -1.0076  0.0014 -0.1363
 5309SOL    HW127560   4.198   3.568  12.467 -2.4361 -0.0996 -0.4865
 5309SOL    HW227561   4.110   3.450  12.469 -0.6146 -1.3234 -2.3480
 5310SOL     OW27562   0.251   2.683  13.877 -0.5007  0.0053 -0.2991
 5310SOL    HW127563   0.302   2.754  13.838  2.1576 -0.7168  1.8322
 5310SOL    HW227564   0.181   2.718  13.932 -0.6826  1.1789 -1.2961
 5311SOL     OW27565   1.541   4.293   3.524 -0.2698 -0.0224  0.4800
 5311SOL    HW127566   1.460   4.262   3.564  0.2840 -1.6242  0.3730
 5311SOL    HW227567   1.515   4.280   3.433 -0.0996 -0.1055  0.4417
 5312SOL     OW27568   1.933   4.355   1.452  0.1940  0.2051  0.9377
 5312SOL    HW127569   1.878   4.361   1.530 -0.5277 -2.0828  0.6034
 5312SOL    HW227570   1.987   4.432   1.467  0.4301  0.1087  0.5762
 5313SOL     OW27571   1.688   1.637   7.298 -0.1010  0.2807 -0.4750
 5313SOL    HW127572   1.744   1.565   7.327 -0.2389  0.8155  1.1001
 5313SOL    HW227573   1.606   1.588   7.290 -0.4560  0.8346 -0.2520
 5314SOL     OW27574   2.754   2.481   5.681 -0.2068  0.1777  0.2267
 5314SOL    HW127575   2.711   2.493   5.766  0.1311 -0.3644  0.4750
 5314SOL    HW227576   2.737   2.391   5.653  3.6922 -0.6644  0.5315
 5315SOL     OW27577   2.441   0.385  15.180 -0.1151  0.3321  0.0694
 5315SOL    HW127578   2.437   0.481  15.179  0.6452  0.3900  1.5585
 5315SOL    HW227579   2.432   0.365  15.087  1.4532  0.9787 -0.2356
 5316SOL     OW27580   2.557   2.311   1.822 -0.8331  0.0023 -0.1002
 5316SOL    HW127581   2.547   2.304   1.917 -1.0215 -1.5920 -0.2494
 5316SOL    HW227582   2.584   2.222   1.798 -2.8814 -0.4368 -0.7752
 5317SOL     OW27583   4.297   4.297  17.317  0.1377 -0.0088 -0.3561
 5317SOL    HW127584   4.274   4.230  17.252  1.8826 -0.7910 -0.1930
 5317SOL    HW227585   4.245   4.259  17.388  0.8149  1.2216  0.7912
 5318SOL     OW27586   1.371   3.471   3.952  0.5928  0.0625  0.3199
 5318SOL    HW127587   1.347   3.413   4.024  0.5167  1.2235  1.2354
 5318SOL    HW227588   1.452   3.436   3.914  0.1911  0.4562 -0.8872
 5319SOL     OW27589   2.875   1.595   7.868 -0.4748  0.1457  0.5895
 5319SOL    HW127590   2.867   1.675   7.816  1.2569 -0.2854 -0.3313
 5319SOL    HW227591   2.960   1.557   7.847 -0.4888  0.2547  0.3379
 5320SOL     OW27592   1.552   2.690   6.007 -0.1198  0.5129  0.5425
 5320SOL    HW127593   1.485   2.630   6.040  0.0106  0.0716 -0.0008
 5320SOL    HW227594   1.626   2.637   5.977 -0.9715  0.0555 -0.7257
 5321SOL     OW27595   1.147   3.032   4.379 -0.4578 -0.5217  0.7125
 5321SOL    HW127596   1.223   2.977   4.399  1.1183  1.2741 -0.4016
 5321SOL    HW227597   1.133   3.087   4.456  0.3713  1.1573 -0.3601
 5322SOL     OW27598   3.604   0.555  10.598  0.1693  0.2253  0.1476
 5322SOL    HW127599   3.596   0.472  10.551  0.2998  0.1858  0.1930
 5322SOL    HW227600   3.579   0.620  10.532 -1.7074  1.5322  2.1365
 5323SOL     OW27601   4.364   0.739   7.573  0.0849  0.4149  0.3013
 5323SOL    HW127602   4.280   0.754   7.530 -0.8050  0.4989  2.0417
 5323SOL    HW227603   4.397   0.829   7.577  2.0994 -0.2336 -1.3953
 5324SOL     OW27604   1.406   2.471   9.466  1.1207  0.3680 -0.1560
 5324SOL    HW127605   1.430   2.508   9.382 -0.4331  1.3238 -0.1792
 5324SOL    HW227606   1.312   2.487   9.454  0.4132 -3.2365  0.4865
 5325SOL     OW27607   1.737   0.037   3.312  0.2912 -0.2877  0.0868
 5325SOL    HW127608   1.778   4.715   3.252 -4.7436 -1.3021 -2.3318
 5325SOL    HW227609   1.813   0.090   3.335  0.1210  1.4988 -3.4495
 5326SOL     OW27610   3.873   2.149  12.687  0.3090 -0.1039 -0.0562
 5326SOL    HW127611   3.890   2.177  12.778  0.6497 -2.3906  0.5729
 5326SOL    HW227612   3.950   2.097  12.665  1.0497  1.2690 -0.7165
 5327SOL     OW27613   1.818   0.199   2.837 -0.0831  0.1366  0.2944
 5327SOL    HW127614   1.913   0.205   2.821 -0.9501 -1.6824 -5.2521
 5327SOL    HW227615   1.815   0.130   2.902 -0.5928  0.4709  0.6256
 5328SOL     OW27616   3.985   4.192   8.028  0.2084 -0.0371  0.5422
 5328SOL    HW127617   4.060   4.185   7.968  0.6163  0.5680  0.9904
 5328SOL    HW227618   4.011   4.273   8.071 -2.0159  1.2225 -0.5181
 5329SOL     OW27619   2.462   0.458  15.782 -0.3445  0.8249  0.0762
 5329SOL    HW127620   2.399   0.444  15.853  0.3186 -0.6867  0.3524
 5329SOL    HW227621   2.410   0.465  15.703 -3.2484  1.1007  2.0126
 5330SOL     OW27622   2.865   3.317  16.122 -0.0981 -0.0920  0.1341
 5330SOL    HW127623   2.946   3.363  16.144 -0.6858  3.2533 -4.5290
 5330SOL    HW227624   2.843   3.286  16.209  1.4447 -1.6740 -0.0411
 5331SOL     OW27625   3.473   1.499   7.035  0.2039  0.3781 -0.0329
 5331SOL    HW127626   3.558   1.466   7.063  0.3510 -0.3510 -1.3563
 5331SOL    HW227627   3.424   1.417   7.034  1.6410 -0.4669 -0.5775
 5332SOL     OW27628   1.904   1.882   5.748  0.4699  0.3291 -0.9490
 5332SOL    HW127629   1.848   1.914   5.677 -0.4577  0.5388 -0.1189
 5332SOL    HW227630   1.946   1.806   5.706 -0.3699 -0.5951 -0.1274
 5333SOL     OW27631   2.653   3.189  15.384 -0.3059  0.4692  0.5280
 5333SOL    HW127632   2.648   3.284  15.398 -0.9839  0.7756 -1.9286
 5333SOL    HW227633   2.616   3.147  15.462  2.5863  0.2212  1.7717
 5334SOL     OW27634   4.646   3.644   0.119  0.6999 -0.0435  0.4327
 5334SOL    HW127635   4.668   3.552   0.103  1.0858 -0.2535  2.1615
 5334SOL    HW227636   4.609   3.678   0.037  2.7749 -0.9863 -0.9003
 5335SOL     OW27637   3.073   0.334   2.257 -0.1103 -0.1830 -0.2810
 5335SOL    HW127638   3.141   0.292   2.206  0.4010  0.3631 -0.0453
 5335SOL    HW227639   3.010   0.262   2.249  1.6714 -1.8600  0.7138
 5336SOL     OW27640   2.424   3.443   8.351 -0.0808  0.0100 -0.0058
 5336SOL    HW127641   2.351   3.503   8.333 -1.1877 -1.4162 -0.2759
 5336SOL    HW227642   2.407   3.419   8.442 -1.1079 -2.4925 -0.8687
 5337SOL     OW27643   1.398   0.961   6.652  0.2150  0.1364 -0.2311
 5337SOL    HW127644   1.378   0.918   6.569 -0.2797  0.8485 -0.4852
 5337SOL    HW227645   1.316   0.944   6.698 -0.2985  0.2894 -1.0889
 5338SOL     OW27646   2.274   3.992   3.145  0.1521  0.0472  0.3872
 5338SOL    HW127647   2.259   3.968   3.237  0.1279  0.0223  0.3767
 5338SOL    HW227648   2.330   3.919   3.119 -0.3488  0.7425 -2.6324
 5339SOL     OW27649   1.497   3.987   1.136  0.2608 -0.0672  0.7823
 5339SOL    HW127650   1.486   4.049   1.208  1.8584  0.7926  0.3003
 5339SOL    HW227651   1.410   3.994   1.098  1.1508 -0.0923 -1.3016
 5340SOL     OW27652   1.849   4.036  16.929 -0.1496 -0.3118  0.5768
 5340SOL    HW127653   1.759   4.034  16.896  0.0048  0.0596  0.1360
 5340SOL    HW227654   1.886   4.106  16.875 -2.0121 -0.3925 -0.8093
 5341SOL     OW27655   1.781   2.525   8.548  0.0390 -0.3877  0.9437
 5341SOL    HW127656   1.870   2.492   8.562 -0.2676 -0.3085  3.0985
 5341SOL    HW227657   1.796   2.616   8.524  0.4906 -0.8950 -0.6951
 5342SOL     OW27658   1.061   0.003   6.352 -0.4926  0.6029 -0.6085
 5342SOL    HW127659   1.070   0.097   6.371  0.6782  0.6095 -1.1956
 5342SOL    HW227660   0.967   4.736   6.337 -0.4276 -1.0152 -0.3380
 5343SOL     OW27661   1.544   3.322   6.633  0.2232  0.2643  0.5992
 5343SOL    HW127662   1.451   3.340   6.624  0.0715 -0.9283 -0.1672
 5343SOL    HW227663   1.566   3.324   6.540  0.5162 -0.3002  0.6611
 5344SOL     OW27664   3.808   3.028   7.500  0.2996 -0.2690 -0.4151
 5344SOL    HW127665   3.749   3.069   7.436 -0.2087 -1.7747 -0.9005
 5344SOL    HW227666   3.820   2.945   7.455 -2.8617 -0.4161 -0.9890
 5345SOL     OW27667   4.274   1.390  10.615  0.1608  0.0533 -0.0518
 5345SOL    HW127668   4.365   1.385  10.644  0.4208  2.0488 -0.5255
 5345SOL    HW227669   4.254   1.307  10.571  0.2924  0.3652 -0.7077
 5346SOL     OW27670   1.294   4.377   7.811  0.1259 -0.7038 -0.4651
 5346SOL    HW127671   1.339   4.399   7.892 -1.9510  1.4113  0.1181
 5346SOL    HW227672   1.263   4.459   7.773  1.9622  1.2450  2.3125
 5347SOL     OW27673   0.861   1.420   2.617 -0.1555 -0.1363 -0.3324
 5347SOL    HW127674   0.775   1.450   2.647  1.3191  3.0479  0.7931
 5347SOL    HW227675   0.856   1.431   2.522  0.9904  5.3954  0.2364
 5348SOL     OW27676   2.484   1.959  10.469  0.0455  0.2859  0.2327
 5348SOL    HW127677   2.519   2.046  10.488  3.1150 -0.7664 -0.6830
 5348SOL    HW227678   2.564   1.914  10.441  1.5536  1.9364  1.9187
 5349SOL     OW27679   2.299   1.726   2.988  0.3361  0.3239  0.2703
 5349SOL    HW127680   2.256   1.803   2.951  3.6233  1.6213 -0.9377
 5349SOL    HW227681   2.240   1.693   3.055  0.2097 -0.5605 -0.2691
 5350SOL     OW27682   1.696   2.805  10.876  0.4849  0.3307 -0.0646
 5350SOL    HW127683   1.758   2.825  10.947  0.0017  1.7615 -0.0487
 5350SOL    HW227684   1.755   2.820  10.802 -0.5351  1.9568 -0.5230
 5351SOL     OW27685   0.165   0.756   2.451 -0.0161  0.0708  0.6822
 5351SOL    HW127686   0.208   0.831   2.409 -0.0597 -0.6439 -0.6559
 5351SOL    HW227687   0.072   0.775   2.445  0.0191  0.1874  0.4906
 5352SOL     OW27688   2.729   1.261   3.087 -0.5620 -0.2146  0.1953
 5352SOL    HW127689   2.823   1.272   3.102 -0.5995  0.0118  0.2676
 5352SOL    HW227690   2.693   1.345   3.115  1.9511  0.7120  0.6539
 5353SOL     OW27691   0.256   1.090  13.931 -0.0547 -0.4700  0.9883
 5353SOL    HW127692   0.178   1.142  13.949 -1.1100 -1.6261 -0.1789
 5353SOL    HW227693   0.295   1.135  13.857 -0.8732 -2.9699 -0.9763
 5354SOL     OW27694   3.563   1.414   2.465 -0.8301 -0.1300 -0.0135
 5354SOL    HW127695   3.473   1.400   2.493 -1.5720  0.1512 -2.2756
 5354SOL    HW227696   3.606   1.367   2.537  0.5044  0.4471 -0.4417
 5355SOL     OW27697   0.498   2.708   2.638 -0.0456  0.6814 -0.1984
 5355SOL    HW127698   0.488   2.717   2.543  0.9075  0.1947 -0.3550
 5355SOL    HW227699   0.589   2.678   2.650 -0.0869  0.7913  0.3754
 5356SOL     OW27700   4.594   0.979   8.974  0.0680 -0.0576 -0.4463
 5356SOL    HW127701   4.649   0.927   8.915  0.6135 -0.8563  0.7521
 5356SOL    HW227702   4.659   1.045   8.997  1.0289 -1.1729  0.0350
 5357SOL     OW27703   1.192   3.524   4.461 -0.4537 -0.0061  0.0541
 5357SOL    HW127704   1.103   3.487   4.461 -0.3201 -0.2893 -2.0043
 5357SOL    HW227705   1.178   3.612   4.427 -1.3294  0.4947  1.6760
 5358SOL     OW27706   1.392   0.583  15.521 -0.3377  0.1379 -0.0198
 5358SOL    HW127707   1.404   0.514  15.587  0.4533  0.0332 -0.2761
 5358SOL    HW227708   1.333   0.546  15.456 -0.9716  0.4829  0.3570
 5359SOL     OW27709   3.772   2.353   5.917  0.3526  0.0220  0.5368
 5359SOL    HW127710   3.848   2.295   5.921 -0.1890 -0.6303  1.4449
 5359SOL    HW227711   3.719   2.320   5.989 -3.0232  0.5284 -1.7250
 5360SOL     OW27712   0.791   2.560   8.880  0.5379  1.0684  0.1985
 5360SOL    HW127713   0.854   2.579   8.810 -0.1914  1.9220 -0.2156
 5360SOL    HW227714   0.845   2.603   8.947 -1.1852 -0.6455  2.6871
 5361SOL     OW27715   3.097   2.989  11.377 -0.2651  0.1108  0.3638
 5361SOL    HW127716   3.147   2.994  11.458  1.9110 -0.7339 -0.9068
 5361SOL    HW227717   3.150   2.928  11.324  0.8542 -1.5512  3.4056
 5362SOL     OW27718   3.156   1.531   5.669 -0.5460  0.0376  0.4468
 5362SOL    HW127719   3.203   1.538   5.586  0.5372 -0.0477  1.0496
 5362SOL    HW227720   3.069   1.503   5.640 -1.3258  1.2524  1.6490
 5363SOL     OW27721   1.791   1.047   6.517 -0.7196 -0.5130  0.2959
 5363SOL    HW127722   1.782   1.023   6.610  2.2985 -0.7933  0.5117
 5363SOL    HW227723   1.734   0.987   6.469  1.0630 -3.2636  1.6199
 5364SOL     OW27724   3.193   1.048  15.264  0.7031 -0.2523 -0.0429
 5364SOL    HW127725   3.174   1.100  15.186 -1.9573 -1.1610 -0.0204
 5364SOL    HW227726   3.215   1.123  15.318 -0.5419  0.0982 -0.0356
 5365SOL     OW27727   4.071   2.137  13.635 -0.1431 -0.1962 -0.3540
 5365SOL    HW127728   4.157   2.179  13.650 -0.3743  1.0020 -2.4043
 5365SOL    HW227729   4.089   2.076  13.564 -0.4988  0.9383 -1.4246
 5366SOL     OW27730   0.846   3.402   0.378 -0.1485  0.0295 -0.3247
 5366SOL    HW127731   0.779   3.424   0.312  0.3020 -0.5529 -0.9763
 5366SOL    HW227732   0.786   3.405   0.453 -1.2224  0.1888 -1.1771
 5367SOL     OW27733   4.252   1.619   2.123  0.5018  0.0545  0.1727
 5367SOL    HW127734   4.183   1.677   2.091  0.3956 -1.4131 -2.3626
 5367SOL    HW227735   4.235   1.552   2.056  1.8262  0.4945 -0.6208
 5368SOL     OW27736   2.799   2.184   2.289  0.4436 -0.2722 -0.5004
 5368SOL    HW127737   2.874   2.130   2.265  0.2577 -0.0025 -1.6638
 5368SOL    HW227738   2.723   2.151   2.240 -0.2595  0.0932  0.3456
 5369SOL     OW27739   4.085   4.324   5.491  0.2187  0.0391 -0.2298
 5369SOL    HW127740   4.120   4.413   5.497  0.0436  0.0150  1.3098
 5369SOL    HW227741   4.033   4.324   5.411 -0.2074  0.6476  0.0454
 5370SOL     OW27742   2.043   4.161   2.672 -0.4472  0.6024 -0.1091
 5370SOL    HW127743   2.008   4.075   2.695 -2.9511  1.0840 -2.0897
 5370SOL    HW227744   2.134   4.167   2.702 -0.3388  0.1636 -0.3604
 5371SOL     OW27745   3.830   1.530   2.180  0.0750 -0.0079  0.5707
 5371SOL    HW127746   3.851   1.450   2.132  0.9364 -0.8875  2.4258
 5371SOL    HW227747   3.860   1.594   2.115 -1.9343 -0.4897 -0.8196
 5372SOL     OW27748   3.306   0.369   6.585 -0.5766  0.0054  0.1984
 5372SOL    HW127749   3.291   0.460   6.609  1.0708  0.7927 -1.7515
 5372SOL    HW227750   3.225   0.353   6.536 -0.3174  3.0032 -1.1743
 5373SOL     OW27751   4.586   1.357   0.317 -0.0204  0.0405 -0.4453
 5373SOL    HW127752   4.541   1.401   0.390  0.3829 -0.1344 -0.0895
 5373SOL    HW227753   4.530   1.379   0.243 -0.6379  1.2613  0.3820
 5374SOL     OW27754   3.708   2.583  11.082 -0.2832 -0.4515 -0.2811
 5374SOL    HW127755   3.746   2.497  11.101 -1.4258 -0.5116  1.7659
 5374SOL    HW227756   3.779   2.638  11.114 -0.0630 -0.2311 -1.1630
 5375SOL     OW27757   2.849   0.841   8.074  0.3211 -0.2391  1.2749
 5375SOL    HW127758   2.809   0.780   8.136  0.9807 -2.4084 -0.4047
 5375SOL    HW227759   2.939   0.834   8.106  0.0989 -1.6107  1.5938
 5376SOL     OW27760   4.656   3.350   3.929  0.5186  0.2575  0.6467
 5376SOL    HW127761   4.573   3.398   3.925 -0.3574 -1.3911 -0.7837
 5376SOL    HW227762   4.672   3.337   3.836  0.2271  1.1276  0.4735
 5377SOL     OW27763   0.922   1.350   4.189 -0.1018 -0.0827  0.5494
 5377SOL    HW127764   0.835   1.389   4.201 -1.6142 -3.0374 -0.8147
 5377SOL    HW227765   0.969   1.432   4.171  2.1858 -1.1821  1.6388
 5378SOL     OW27766   4.127   3.026  16.287 -0.2545  0.5142 -0.2364
 5378SOL    HW127767   4.040   3.030  16.327 -0.1854  0.7122 -0.1072
 5378SOL    HW227768   4.136   2.939  16.247 -2.5823  0.9716 -1.7670
 5379SOL     OW27769   1.526   2.546   4.243  0.0816 -0.0373 -0.1446
 5379SOL    HW127770   1.619   2.524   4.233  0.8902  2.2293  2.2254
 5379SOL    HW227771   1.496   2.483   4.308 -0.5242  0.9241  0.5148
 5380SOL     OW27772   3.095   4.658  11.959  0.4548  0.2815  1.0326
 5380SOL    HW127773   3.034   4.701  11.898  0.7340  0.5576  0.9492
 5380SOL    HW227774   3.143   4.736  11.988  1.5695  0.7211 -2.0310
 5381SOL     OW27775   3.085   1.398   7.754  0.4763 -0.1375 -0.0923
 5381SOL    HW127776   2.998   1.375   7.723 -0.3876  2.1301  0.6746
 5381SOL    HW227777   3.113   1.313   7.790  0.7615  0.0744  0.1891
 5382SOL     OW27778   3.111   1.847  16.893 -0.0496  0.6970 -0.9039
 5382SOL    HW127779   3.189   1.869  16.842  1.7513 -0.5025  1.3461
 5382SOL    HW227780   3.142   1.867  16.981  0.4064 -0.1142 -0.8784
 5383SOL     OW27781   3.871   3.147   3.200  0.4749 -0.3781  0.4567
 5383SOL    HW127782   3.951   3.186   3.164  0.3895  0.3098  0.9975
 5383SOL    HW227783   3.822   3.123   3.122  0.5474 -0.9521  0.5868
 5384SOL     OW27784   0.619   0.478   5.474 -0.0894 -0.0990 -0.3739
 5384SOL    HW127785   0.617   0.423   5.396  2.5135 -0.9741  0.1803
 5384SOL    HW227786   0.705   0.446   5.502  0.8074  0.4893 -2.3970
 5385SOL     OW27787   1.373   1.921   6.442 -0.0536  0.3938 -0.0455
 5385SOL    HW127788   1.287   1.930   6.483 -0.1149 -0.8499  0.0809
 5385SOL    HW227789   1.385   1.832   6.411  0.7109  0.3531  0.3799
 5386SOL     OW27790   1.387   0.944   4.754  0.3037  0.1217 -0.2684
 5386SOL    HW127791   1.317   0.974   4.697  0.1484 -0.5168 -0.4169
 5386SOL    HW227792   1.398   0.853   4.726 -0.2844 -0.0008 -0.1064
 5387SOL     OW27793   1.541   4.542   8.907 -0.3374 -0.1782  0.7961
 5387SOL    HW127794   1.554   4.450   8.883  1.8305 -0.4021  2.8162
 5387SOL    HW227795   1.611   4.560   8.970  0.0950  0.1110  0.2349
 5388SOL     OW27796   0.478   0.355   9.029 -0.3102 -0.1923 -0.7558
 5388SOL    HW127797   0.540   0.299   8.982 -0.2826 -1.3877  0.7094
 5388SOL    HW227798   0.467   0.421   8.960 -1.1765 -1.2787 -1.6727
 5389SOL     OW27799   1.178   1.223   5.009  0.0654 -0.0796 -0.1804
 5389SOL    HW127800   1.145   1.208   4.920  0.5680  0.1795 -0.4102
 5389SOL    HW227801   1.194   1.316   4.994  0.9270 -0.4284 -1.4650
 5390SOL     OW27802   1.546   1.238   9.459 -0.4222 -0.3082 -0.3226
 5390SOL    HW127803   1.574   1.172   9.395 -2.6233 -0.9186 -0.6704
 5390SOL    HW227804   1.453   1.224   9.475  0.0242 -0.3002  2.2608
 5391SOL     OW27805   0.646   2.144   7.897 -0.1395  0.2379 -0.5769
 5391SOL    HW127806   0.615   2.178   7.981  1.9503 -0.4025  0.4519
 5391SOL    HW227807   0.714   2.207   7.873  1.3114 -0.7269  1.0287
 5392SOL     OW27808   1.018   1.589   4.667  0.5810 -0.3707  0.3563
 5392SOL    HW127809   0.978   1.598   4.581 -1.8547 -0.4540  1.4723
 5392SOL    HW227810   1.093   1.649   4.662 -0.5422  0.9520 -0.3965
 5393SOL     OW27811   4.127   4.652   7.441 -0.0241  0.0160  0.3387
 5393SOL    HW127812   4.148   4.699   7.361 -1.0101 -2.0845 -1.1606
 5393SOL    HW227813   4.193   4.582   7.449 -2.1442 -2.0733 -0.4776
 5394SOL     OW27814   4.258   3.890  14.083  0.0296 -0.6084  0.8235
 5394SOL    HW127815   4.230   3.960  14.143  1.7867  1.4037 -0.6837
 5394SOL    HW227816   4.197   3.818  14.100 -0.0950 -0.1296  2.3971
 5395SOL     OW27817   3.317   4.480  13.077 -0.0863  0.2319 -1.0233
 5395SOL    HW127818   3.309   4.487  12.982 -2.2350 -3.4330 -1.0869
 5395SOL    HW227819   3.411   4.499  13.072  0.3882 -1.1900  2.8422
 5396SOL     OW27820   0.361   0.092   2.459  0.3692  0.1119 -0.0009
 5396SOL    HW127821   0.362   0.158   2.528 -1.1839  1.7897 -1.6016
 5396SOL    HW227822   0.448   0.105   2.422  0.7046  1.3709  1.2184
 5397SOL     OW27823   4.718   3.349   0.039  0.4057 -0.1782 -0.2411
 5397SOL    HW127824   4.668   3.272   0.068  1.7072  0.0274  2.5349
 5397SOL    HW227825   0.051   3.338   0.100  0.6244  1.2996 -0.2382
 5398SOL     OW27826   2.481   3.310  13.294  0.1618 -0.0084  0.2608
 5398SOL    HW127827   2.451   3.324  13.204 -1.1916 -0.0756  0.6989
 5398SOL    HW227828   2.535   3.232  13.280 -0.3027 -0.6996  2.3225
 5399SOL     OW27829   1.086   3.537   0.407  0.0409 -0.2893 -0.1418
 5399SOL    HW127830   1.120   3.464   0.355 -2.7273 -0.4478 -1.7039
 5399SOL    HW227831   0.994   3.512   0.402  0.3040 -1.4030  0.6485
 5400SOL     OW27832   1.016   4.111   3.040 -0.3538  0.8045 -0.1829
 5400SOL    HW127833   0.950   4.044   3.026  1.7968 -1.3613 -0.0194
 5400SOL    HW227834   1.096   4.058   3.041 -0.2334  1.0096  1.2342
 5401SOL     OW27835   1.552   2.111   0.905  0.1193  0.1875  0.1647
 5401SOL    HW127836   1.460   2.085   0.915  0.2136 -0.9565 -2.0146
 5401SOL    HW227837   1.601   2.032   0.927  0.0433  0.5510  1.6423
 5402SOL     OW27838   2.288   4.380   7.802 -0.0512  0.3648 -0.1044
 5402SOL    HW127839   2.326   4.311   7.856  1.4251  1.7845  0.6423
 5402SOL    HW227840   2.242   4.329   7.735 -0.6488  0.7120  0.0341
 5403SOL     OW27841   2.660   4.079   6.329  0.6929  0.8818 -0.1539
 5403SOL    HW127842   2.658   3.988   6.302 -0.0908  0.2326  2.1126
 5403SOL    HW227843   2.687   4.072   6.420  0.9476  2.7488 -0.0809
 5404SOL     OW27844   2.107   2.606   4.468  0.1142  0.8960  0.3004
 5404SOL    HW127845   2.138   2.639   4.552 -0.1315  1.1272  0.3004
 5404SOL    HW227846   2.166   2.531   4.454 -0.1888  0.3978  1.7080
 5405SOL     OW27847   0.261   1.075  14.970 -0.0387 -0.2146 -0.0700
 5405SOL    HW127848   0.336   1.097  15.026 -1.4546 -1.4579  2.3266
 5405SOL    HW227849   0.274   1.135  14.897 -0.5248  0.5460  0.4672
 5406SOL     OW27850   0.970   2.678   1.287 -0.1014 -0.0156 -0.7310
 5406SOL    HW127851   0.897   2.732   1.317  0.4327  2.0946 -3.2490
 5406SOL    HW227852   1.021   2.741   1.236  0.3782  0.0901 -0.1117
 5407SOL     OW27853   3.203   1.872  14.480  0.0853  0.0218  0.2816
 5407SOL    HW127854   3.110   1.894  14.484 -0.3280 -1.1571 -2.9320
 5407SOL    HW227855   3.187   1.778  14.471  1.0750 -0.3721  2.4677
 5408SOL     OW27856   3.953   3.718  14.098  0.4635  0.1255 -0.6416
 5408SOL    HW127857   4.006   3.703  14.177 -0.5488  0.8005  0.1715
 5408SOL    HW227858   3.935   3.624  14.089  2.5031 -0.4105  0.8275
 5409SOL     OW27859   3.957   3.064   0.203  0.6485 -0.6459  0.3072
 5409SOL    HW127860   3.976   3.149   0.165  0.1577 -0.5866  0.1891
 5409SOL    HW227861   4.016   3.055   0.278  0.6006  1.5669  0.5931
 5410SOL     OW27862   4.123   0.704  15.857  0.6231 -0.1145 -0.0902
 5410SOL    HW127863   4.201   0.752  15.829  0.6011 -1.7730 -2.8995
 5410SOL    HW227864   4.076   0.774  15.904 -0.8585  0.2166 -2.0799
 5411SOL     OW27865   0.599   3.742   5.809  0.2730  0.1914 -0.6717
 5411SOL    HW127866   0.652   3.792   5.871  0.6529  1.0189 -1.6563
 5411SOL    HW227867   0.539   3.697   5.869 -0.1318 -0.1719 -1.3540
 5412SOL     OW27868   0.421   1.287  16.738 -0.0208  0.1176 -0.3360
 5412SOL    HW127869   0.491   1.301  16.802 -0.2248  0.8920 -0.2792
 5412SOL    HW227870   0.411   1.379  16.712  0.7172 -0.3246 -2.1585
 5413SOL     OW27871   0.309   4.381   5.493  0.3045 -0.6720 -0.1249
 5413SOL    HW127872   0.275   4.451   5.548  0.9633 -1.8657  1.8084
 5413SOL    HW227873   0.227   4.385   5.445  0.7264 -0.5885 -0.8363
 5414SOL     OW27874   2.708   3.453   3.334  0.0381  0.6087  0.0400
 5414SOL    HW127875   2.686   3.516   3.402 -0.7549  0.8522 -0.4363
 5414SOL    HW227876   2.631   3.402   3.307  2.0363 -2.3553 -0.0669
 5415SOL     OW27877   1.096   3.066   8.541  0.3480  0.1496 -0.5592
 5415SOL    HW127878   1.141   2.993   8.584 -0.1416 -0.0824 -0.4397
 5415SOL    HW227879   1.100   3.127   8.615 -1.3962 -0.7765  0.2917
 5416SOL     OW27880   2.438   0.524  13.286  0.1998 -0.4155 -0.0374
 5416SOL    HW127881   2.472   0.609  13.256  1.2343 -0.3360  1.3523
 5416SOL    HW227882   2.407   0.558  13.369 -0.3728 -0.3183 -0.2914
 5417SOL     OW27883   2.529   2.425  14.963  0.6960  0.1902 -0.3504
 5417SOL    HW127884   2.533   2.463  15.050 -1.7767  0.4875 -0.3753
 5417SOL    HW227885   2.513   2.332  14.983 -2.9270  1.0437  0.7222
 5418SOL     OW27886   0.053   2.082   9.461  0.1963  0.0174 -0.6538
 5418SOL    HW127887   0.039   2.000   9.507  1.3070 -0.3465 -0.9721
 5418SOL    HW227888   4.709   2.128   9.465  0.4731  0.6389 -2.0902
 5419SOL     OW27889   4.328   4.531   5.770  0.1010  0.3327 -0.3403
 5419SOL    HW127890   4.342   4.479   5.691  2.1348 -2.6059  1.9311
 5419SOL    HW227891   4.336   4.459   5.833 -0.2484 -0.0224 -0.7027
 5420SOL     OW27892   0.991   1.767   5.680  0.3228  0.3881  0.1570
 5420SOL    HW127893   0.905   1.776   5.721 -1.0814 -0.8485 -2.5681
 5420SOL    HW227894   0.969   1.760   5.587 -0.1663 -0.0657  0.3121
 5421SOL     OW27895   2.464   2.960  11.091  0.0992  0.1934  0.9388
 5421SOL    HW127896   2.542   2.905  11.093  0.3119  0.3049 -2.9568
 5421SOL    HW227897   2.454   2.981  11.184 -0.4110  1.6604  0.5545
 5422SOL     OW27898   3.496   3.967   4.234 -0.2743 -0.3515  0.6780
 5422SOL    HW127899   3.445   3.887   4.231  0.0647 -0.5242 -0.8555
 5422SOL    HW227900   3.583   3.941   4.202 -0.8389  0.6242 -1.7192
 5423SOL     OW27901   0.988   1.910  13.531  0.1511 -0.0727  0.2325
 5423SOL    HW127902   0.956   1.998  13.548 -0.9721 -0.3718 -0.3049
 5423SOL    HW227903   0.959   1.900  13.440 -0.4825  1.2282  0.3039
 5424SOL     OW27904   2.569   4.478   7.390 -0.3263  0.1869 -0.7104
 5424SOL    HW127905   2.530   4.463   7.477  1.4687 -1.5841 -0.2027
 5424SOL    HW227906   2.503   4.544   7.366 -1.5380 -0.0169  1.9495
 5425SOL     OW27907   2.587   4.218   7.108 -0.0521 -0.2987 -0.6211
 5425SOL    HW127908   2.519   4.284   7.093 -1.9394 -2.1583 -0.2801
 5425SOL    HW227909   2.660   4.272   7.078  1.0710 -1.3852  0.1707
 5426SOL     OW27910   0.846   4.456  10.116 -0.2932 -0.2253  0.2673
 5426SOL    HW127911   0.884   4.372  10.143  0.6067 -0.0020 -0.3139
 5426SOL    HW227912   0.889   4.469  10.031 -0.8771 -0.6603 -0.0898
 5427SOL     OW27913   1.675   0.997   1.430  0.2071 -0.2774 -0.2182
 5427SOL    HW127914   1.604   0.994   1.365 -0.4304  1.8477  0.3779
 5427SOL    HW227915   1.736   1.043   1.372  0.0163  0.0769 -0.1395
 5428SOL     OW27916   4.585   3.757  17.596 -0.3132 -0.1178 -0.1669
 5428SOL    HW127917   4.497   3.732  17.571 -1.1055  1.7226  0.7912
 5428SOL    HW227918   4.589   3.851  17.579 -1.7556 -0.2660 -1.2415
 5429SOL     OW27919   0.409   3.047   6.723  0.5185  0.0192 -0.2161
 5429SOL    HW127920   0.314   3.059   6.716  0.8000  1.6321 -1.1227
 5429SOL    HW227921   0.430   3.134   6.756  1.2023 -0.8873  1.7561
 5430SOL     OW27922   0.323   4.121  16.586  0.5673  0.5862  0.2250
 5430SOL    HW127923   0.332   4.059  16.513 -0.9834 -0.4531  0.9087
 5430SOL    HW227924   0.416   4.119  16.609  0.1365 -3.2510  1.7028
 5431SOL     OW27925   0.104   0.685   2.082  0.3313 -0.1486 -0.1138
 5431SOL    HW127926   0.033   0.717   2.027  0.9596  0.1902 -0.7253
 5431SOL    HW227927   0.074   0.599   2.113  0.0035 -0.5606 -1.5599
 5432SOL     OW27928   1.394   2.843  14.559 -0.1729 -0.0176 -0.1581
 5432SOL    HW127929   1.304   2.873  14.571  0.1707  1.0085 -0.1125
 5432SOL    HW227930   1.400   2.853  14.464  0.8014  1.8020  0.0957
 5433SOL     OW27931   1.948   1.019   5.970 -0.1272 -0.1782 -0.2801
 5433SOL    HW127932   1.934   1.094   5.913 -0.0118  0.3211  0.3537
 5433SOL    HW227933   1.875   0.961   5.948  0.8800 -1.5143 -0.1271
 5434SOL     OW27934   1.745   0.833   8.277  0.7003  0.0122 -0.1741
 5434SOL    HW127935   1.787   0.757   8.317 -1.2812  0.4756  2.7287
 5434SOL    HW227936   1.692   0.865   8.350 -1.3843 -1.9368 -0.8393
 5435SOL     OW27937   4.231   4.511   3.261 -0.3457 -0.3353 -0.0255
 5435SOL    HW127938   4.232   4.607   3.263 -0.3643 -0.3833  2.1955
 5435SOL    HW227939   4.273   4.497   3.346  1.2994 -1.3193 -0.9974
 5436SOL     OW27940   3.853   3.705   5.893  0.1905  0.2731  0.5413
 5436SOL    HW127941   3.905   3.661   5.825  0.9233  0.7668  0.7789
 5436SOL    HW227942   3.772   3.734   5.851  1.3602 -0.3638 -2.1963
 5437SOL     OW27943   0.613   1.238   7.089  0.4968  0.8246  0.0354
 5437SOL    HW127944   0.649   1.173   7.149  1.4567  1.0708 -0.2792
 5437SOL    HW227945   0.523   1.228   7.120 -0.3281  2.6808 -1.7279
 5438SOL     OW27946   0.174   3.898   6.297  0.4653 -0.0998 -0.0275
 5438SOL    HW127947   0.141   3.901   6.207 -1.8692 -0.2837  0.8338
 5438SOL    HW227948   0.239   3.827   6.302 -2.0106 -2.2973  0.6823
 5439SOL     OW27949   2.049   3.308  11.905  0.1405  0.6066  0.6733
 5439SOL    HW127950   2.117   3.322  11.971  0.7780  0.2004  0.0967
 5439SOL    HW227951   1.988   3.376  11.933  0.0474  0.8108 -0.0230
 5440SOL     OW27952   0.464   3.922  15.311  0.3941  0.3095 -0.0283
 5440SOL    HW127953   0.532   3.990  15.311  1.5436 -0.8214 -1.2244
 5440SOL    HW227954   0.508   3.840  15.290 -2.4236 -1.7306  2.0346
 5441SOL     OW27955   0.763   1.106   5.824  0.2576 -0.2978  0.0367
 5441SOL    HW127956   0.692   1.170   5.816  1.4568  0.7952 -1.8529
 5441SOL    HW227957   0.727   1.064   5.746  1.5749 -0.0709 -0.6884
 5442SOL     OW27958   3.959   4.202   9.446 -0.0247  0.2631 -0.6518
 5442SOL    HW127959   4.023   4.268   9.473  0.9744 -0.7615 -0.5207
 5442SOL    HW227960   3.889   4.254   9.406 -0.6110 -0.1980 -0.2238
 5443SOL     OW27961   0.086   2.401   2.083 -0.1356  0.1259 -0.2955
 5443SOL    HW127962   0.165   2.421   2.134  0.8542 -0.5911 -1.5344
 5443SOL    HW227963   0.049   2.488   2.069  0.0147  0.2220 -0.0938
 5444SOL     OW27964   1.668   0.975  15.932 -0.3901 -0.1986 -0.9767
 5444SOL    HW127965   1.704   0.922  15.861  1.2969  0.4917 -0.6303
 5444SOL    HW227966   1.748   1.000  15.977 -1.6981  2.2365 -0.0247
 5445SOL     OW27967   1.521   1.157   6.132  0.1919 -0.1323  0.4355
 5445SOL    HW127968   1.507   1.119   6.045 -1.7006 -0.0429  0.7073
 5445SOL    HW227969   1.600   1.207   6.110 -0.6047  0.2222 -1.6422
 5446SOL     OW27970   3.108   1.970   4.007 -0.4214  0.4205 -0.1187
 5446SOL    HW127971   3.181   1.949   4.066 -1.6704  0.2525  1.3559
 5446SOL    HW227972   3.119   1.909   3.934  1.0023  1.7367 -1.0149
 5447SOL     OW27973   1.007   1.939   2.614 -0.2711 -0.3735 -0.8119
 5447SOL    HW127974   1.045   1.997   2.680 -1.3858  1.5505 -1.9035
 5447SOL    HW227975   1.068   1.953   2.541 -0.2746  4.2771  0.1058
 5448SOL     OW27976   4.444   0.383   5.145  0.0387  0.3680  0.2332
 5448SOL    HW127977   4.375   0.415   5.204  1.1846  2.4145  0.4544
 5448SOL    HW227978   4.415   0.293   5.129 -1.0614  1.1216 -1.9691
 5449SOL     OW27979   1.980   3.192  15.598  0.3734 -0.0467 -0.2823
 5449SOL    HW127980   1.931   3.156  15.524  0.4565 -0.2624 -0.2311
 5449SOL    HW227981   1.917   3.260  15.622 -0.2546 -1.1196  1.0521
 5450SOL     OW27982   0.744   2.179   9.282  0.2759  0.3058  0.3431
 5450SOL    HW127983   0.660   2.135   9.291  1.0343 -1.4913 -1.3709
 5450SOL    HW227984   0.739   2.216   9.193  0.7493  3.0126  1.4273
 5451SOL     OW27985   2.424   2.948   8.400 -0.7644 -0.6354 -0.4909
 5451SOL    HW127986   2.385   2.900   8.473 -0.4953  0.2613  0.2399
 5451SOL    HW227987   2.515   2.920   8.386 -1.5001 -2.9233 -0.6007
 5452SOL     OW27988   1.242   3.433   0.966 -0.2330 -0.4920 -0.0436
 5452SOL    HW127989   1.269   3.522   0.991  0.1132 -0.7335  0.4385
 5452SOL    HW227990   1.190   3.455   0.889  0.7348 -1.0662 -0.8526
 5453SOL     OW27991   1.953   2.386   5.853  0.3611 -0.3440 -0.0062
 5453SOL    HW127992   1.941   2.306   5.905  1.3858  0.6486  1.7444
 5453SOL    HW227993   1.963   2.343   5.768  1.5994 -0.3211  0.1347
 5454SOL     OW27994   3.866   3.976   9.820 -0.1973  0.0152 -0.4722
 5454SOL    HW127995   3.819   3.969   9.903 -0.1374 -1.0036 -0.5153
 5454SOL    HW227996   3.805   4.036   9.779  0.0556 -0.8322 -2.0885
 5455SOL     OW27997   4.711   1.289   2.542  0.0557 -0.0621  0.5436
 5455SOL    HW127998   0.020   1.365   2.574 -0.0118  0.2137 -0.0134
 5455SOL    HW227999   4.631   1.297   2.594 -0.2220 -1.6308  0.3813
 5456SOL     OW28000   0.739   1.420   4.693 -0.3887 -0.2021  0.2537
 5456SOL    HW128001   0.651   1.385   4.707 -0.9341  0.9656 -0.2473
 5456SOL    HW228002   0.732   1.503   4.646 -0.1259 -0.4348 -0.1925
 5457SOL     OW28003   0.267   3.653   9.649 -0.0085  0.4207  0.1647
 5457SOL    HW128004   0.361   3.667   9.657  0.1584  0.1261 -1.3110
 5457SOL    HW228005   0.269   3.558   9.658  4.3460  0.4444 -0.8710
 5458SOL     OW28006   2.667   1.653  11.208  0.3624 -0.0096  0.1895
 5458SOL    HW128007   2.621   1.610  11.280  2.3166  1.5893  2.3987
 5458SOL    HW228008   2.754   1.673  11.242  0.0524  0.5325  0.6728
 5459SOL     OW28009   4.714   0.447   7.502 -0.4977 -0.1415  0.4233
 5459SOL    HW128010   4.683   0.363   7.536 -0.6718  0.0567  0.7598
 5459SOL    HW228011   4.638   0.488   7.542 -0.5429 -0.4872  0.6902
 5460SOL     OW28012   0.756   1.888   8.132  0.0373  0.4869 -0.0883
 5460SOL    HW128013   0.814   1.947   8.179  1.0087  0.4838 -1.2832
 5460SOL    HW228014   0.791   1.907   8.045  0.8620 -0.7884 -0.0297
 5461SOL     OW28015   4.290   2.864   5.802  0.1715  0.5804 -0.0695
 5461SOL    HW128016   4.299   2.849   5.708  0.8498 -2.0724  0.4296
 5461SOL    HW228017   4.256   2.777   5.823 -2.1092  1.1728 -1.3008
 5462SOL     OW28018   0.147   4.479   0.142  0.5419  0.0183  0.2094
 5462SOL    HW128019   0.053   4.493   0.127  0.1606 -1.0732  1.6039
 5462SOL    HW228020   0.174   4.544   0.077 -0.4915 -0.1479 -0.3975
 5463SOL     OW28021   4.183   1.920   7.429 -0.9050  0.1299  0.5931
 5463SOL    HW128022   4.188   1.906   7.334 -1.2402  0.9737  0.4455
 5463SOL    HW228023   4.218   1.839   7.466  3.1871  2.8159  2.4988
 5464SOL     OW28024   3.109   3.672   4.134 -0.0719 -0.0903 -0.3537
 5464SOL    HW128025   3.027   3.659   4.182  0.0414  1.0757  0.1457
 5464SOL    HW228026   3.173   3.657   4.203 -1.4897  0.3254  1.0442
 5465SOL     OW28027   2.074   0.165   6.258 -0.4657 -0.4256 -0.0983
 5465SOL    HW128028   2.112   0.133   6.340  0.8255  0.0346 -0.5125
 5465SOL    HW228029   2.146   0.211   6.215 -1.6822  1.5496 -0.0223
 5466SOL     OW28030   1.647   1.615   6.539  0.5341 -0.0748  0.2713
 5466SOL    HW128031   1.598   1.663   6.606  0.6448 -0.5564  0.6981
 5466SOL    HW228032   1.654   1.536   6.592 -1.0386  0.1819  0.8473
 5467SOL     OW28033   1.275   1.949   5.463  0.0410 -0.3182  0.0065
 5467SOL    HW128034   1.341   1.923   5.399  0.1064  0.4604 -0.2441
 5467SOL    HW228035   1.286   1.870   5.516 -3.2695 -0.3908  0.6220
 5468SOL     OW28036   0.290   4.001   7.103 -0.5109  0.1971  0.4145
 5468SOL    HW128037   0.215   4.008   7.044  0.3607  1.6289 -0.5286
 5468SOL    HW228038   0.259   3.941   7.170 -0.7900 -1.1957 -0.9430
 5469SOL     OW28039   0.098   4.411   0.726  0.3592  0.0918 -0.2195
 5469SOL    HW128040   0.194   4.415   0.730  0.3692  0.2766 -0.7031
 5469SOL    HW228041   0.071   4.494   0.764 -3.0455 -0.6816 -0.9396
 5470SOL     OW28042   0.942   1.956   2.128  0.0741  0.2295  0.3390
 5470SOL    HW128043   0.913   1.914   2.209 -1.2269  1.2596  0.3848
 5470SOL    HW228044   0.915   2.047   2.129 -0.8296 -0.0362 -0.0912
 5471SOL     OW28045   4.668   3.166   6.077 -0.0779 -0.1310 -0.0548
 5471SOL    HW128046   4.574   3.151   6.087 -0.5075  2.3677 -0.3239
 5471SOL    HW228047   4.707   3.080   6.089  0.5114  0.0417 -0.7446
 5472SOL     OW28048   4.138   3.417   3.535 -0.5095 -0.3117 -0.1800
 5472SOL    HW128049   4.177   3.387   3.617 -0.6756  0.6678  0.2627
 5472SOL    HW228050   4.059   3.460   3.567 -0.6036 -0.5744 -0.0667
 5473SOL     OW28051   1.153   0.386   0.273  0.3093 -0.2135 -0.2652
 5473SOL    HW128052   1.096   0.453   0.311 -0.2772 -1.1133  0.4562
 5473SOL    HW228053   1.230   0.395   0.328 -0.4688  2.0732  0.4586
 5474SOL     OW28054   3.440   4.365   7.561  0.1133 -0.0951  0.3117
 5474SOL    HW128055   3.467   4.447   7.519  1.2355  0.4854  2.1498
 5474SOL    HW228056   3.431   4.389   7.653 -1.9787 -1.4891  0.4757
 5475SOL     OW28057   4.228   1.325   8.320  0.6436  0.3613  0.0030
 5475SOL    HW128058   4.161   1.261   8.343 -0.4212  1.2412 -0.6557
 5475SOL    HW228059   4.263   1.346   8.407  2.1031 -0.0039 -0.5093
 5476SOL     OW28060   1.695   1.929   5.536 -0.7829 -0.1626  0.0417
 5476SOL    HW128061   1.625   1.945   5.598 -0.4530  0.7528  0.1770
 5476SOL    HW228062   1.691   2.004   5.476 -2.8128  2.4095  3.4347
 5477SOL     OW28063   0.929   0.183   6.619 -0.4182  0.2802 -0.2638
 5477SOL    HW128064   0.885   0.254   6.666  0.1933 -0.0556  0.8077
 5477SOL    HW228065   0.952   0.123   6.690  0.1245  0.4223 -0.3175
 5478SOL     OW28066   3.271   0.532   3.074  0.2977  0.3705 -0.0092
 5478SOL    HW128067   3.233   0.461   3.023 -0.1014 -1.0239  2.2463
 5478SOL    HW228068   3.295   0.594   3.006  0.3326  0.8282  0.4153
 5479SOL     OW28069   4.536   1.649  12.077 -0.2334  0.4844  0.0652
 5479SOL    HW128070   4.495   1.611  12.000  0.5968 -1.4160  0.5768
 5479SOL    HW228071   4.600   1.582  12.097 -1.9296 -0.9717  0.6150
 5480SOL     OW28072   0.764   3.159   6.101  0.5989  0.4210  0.4781
 5480SOL    HW128073   0.735   3.250   6.113  2.1987  1.3467 -2.7552
 5480SOL    HW228074   0.833   3.161   6.035 -0.6341 -0.6561 -0.8430
 5481SOL     OW28075   1.872   4.162   1.777 -0.0660  0.3587  0.2693
 5481SOL    HW128076   1.942   4.199   1.832  1.1442  1.2367 -1.8304
 5481SOL    HW228077   1.807   4.154   1.847 -0.6886  2.7166 -0.0449
 5482SOL     OW28078   0.660   3.189   6.580 -0.4574 -0.2635 -0.0206
 5482SOL    HW128079   0.597   3.160   6.514 -0.6684 -1.3043  0.6378
 5482SOL    HW228080   0.681   3.108   6.627 -2.8929 -1.5907 -1.2680
 5483SOL     OW28081   3.452   3.966   1.783  0.1106 -0.0945 -0.4129
 5483SOL    HW128082   3.474   4.059   1.785  1.0045 -0.2685 -2.1032
 5483SOL    HW228083   3.443   3.946   1.690 -3.2403 -0.2536 -0.0573
 5484SOL     OW28084   0.335   1.193  13.176  0.1271 -0.7872  0.2338
 5484SOL    HW128085   0.293   1.142  13.107  0.5943 -0.9820  0.0944
 5484SOL    HW228086   0.252   1.215  13.219 -0.2722 -0.1923 -0.8299
 5485SOL     OW28087   1.266   2.879  10.623  0.0331  0.3966  0.3391
 5485SOL    HW128088   1.360   2.886  10.608 -0.2810 -0.3874 -2.0353
 5485SOL    HW228089   1.243   2.966  10.653  1.2827  1.1174 -0.8169
 5486SOL     OW28090   0.405   0.199   4.109 -0.1308 -0.4262 -0.1737
 5486SOL    HW128091   0.496   0.228   4.102  0.4272 -2.2200 -0.4680
 5486SOL    HW228092   0.384   0.196   4.016  0.3290  1.2494 -0.3314
 5487SOL     OW28093   3.194   2.177  11.997  0.4639  0.2583  0.1424
 5487SOL    HW128094   3.216   2.253  11.944  1.7894  1.9119  3.0641
 5487SOL    HW228095   3.261   2.121  11.957  1.2530  1.5055 -0.2869
 5488SOL     OW28096   3.765   4.233   9.969  0.2000  0.2455  0.0083
 5488SOL    HW128097   3.723   4.188   9.896  0.5842 -0.0569 -0.0291
 5488SOL    HW228098   3.849   4.249   9.926 -0.2830 -0.1106 -1.0703
 5489SOL     OW28099   3.025   3.399  12.267  0.0903 -0.1660  0.4616
 5489SOL    HW128100   2.984   3.391  12.181 -0.8666 -0.7019  0.9647
 5489SOL    HW228101   3.033   3.493  12.251 -3.0047  0.0062 -0.1231
 5490SOL     OW28102   3.440   3.838   1.519  0.8071  0.4299  0.1773
 5490SOL    HW128103   3.521   3.884   1.498  1.3033 -0.1190  0.8634
 5490SOL    HW228104   3.468   3.747   1.532 -0.8496 -0.4876 -2.7869
 5491SOL     OW28105   4.413   1.694  16.736  0.8786 -0.1886 -0.5198
 5491SOL    HW128106   4.456   1.608  16.735  0.1545 -0.5585  0.5569
 5491SOL    HW228107   4.458   1.739  16.664 -0.8394  0.4078 -1.2153
 5492SOL     OW28108   3.081   3.704   5.964 -0.3078  0.6632  0.0828
 5492SOL    HW128109   3.063   3.773   5.900  0.5442 -0.8388 -1.8065
 5492SOL    HW228110   3.176   3.691   5.967 -1.0190 -4.0389  2.0907
 5493SOL     OW28111   0.565   4.090   2.625  0.3118  0.1110 -0.5808
 5493SOL    HW128112   0.551   3.996   2.638 -0.0411  0.2539  0.0875
 5493SOL    HW228113   0.480   4.107   2.583 -1.2814  0.1797  2.6441
 5494SOL     OW28114   3.825   2.480  16.424  0.4516  0.3939 -0.1414
 5494SOL    HW128115   3.844   2.532  16.502 -1.5318  1.7099 -0.5502
 5494SOL    HW228116   3.909   2.501  16.382  1.0725  0.4010  1.1044
 5495SOL     OW28117   2.074   2.097   9.890 -0.2915  0.1974  0.8322
 5495SOL    HW128118   2.072   2.144   9.807  2.4525  0.8049  1.1292
 5495SOL    HW228119   2.103   2.172   9.943  0.1896  0.9381 -0.4869
 5496SOL     OW28120   3.429   0.601   8.150 -0.0132 -0.3292 -0.0716
 5496SOL    HW128121   3.407   0.663   8.219 -1.1770  0.3753 -1.0710
 5496SOL    HW228122   3.343   0.576   8.115  0.6998  1.6359 -3.2758
 5497SOL     OW28123   0.072   3.789   3.714  0.1920 -0.0585  0.5468
 5497SOL    HW128124   0.140   3.721   3.712 -0.8553 -1.0893 -0.3411
 5497SOL    HW228125   0.085   3.837   3.796  0.3657 -0.2250  0.6173
 5498SOL     OW28126   0.737   2.414  13.901 -0.3284  0.5663  0.0377
 5498SOL    HW128127   0.676   2.379  13.836 -1.5026  2.3208  0.1995
 5498SOL    HW228128   0.820   2.413  13.853 -0.4284  1.1217 -0.1419
 5499SOL     OW28129   3.514   4.474  10.209 -0.2066  0.0404 -0.4572
 5499SOL    HW128130   3.438   4.419  10.226 -0.0205 -0.2862 -0.6806
 5499SOL    HW228131   3.569   4.463  10.286 -0.8778 -1.1226 -0.1470
 5500SOL     OW28132   2.230   2.616   5.478 -0.7117  0.2043  0.2359
 5500SOL    HW128133   2.180   2.557   5.421 -0.9189  1.3086 -0.7389
 5500SOL    HW228134   2.237   2.696   5.425  2.7153 -0.2276 -0.0054
 5501SOL     OW28135   2.598   3.926   1.480 -0.3367 -0.5606 -0.1230
 5501SOL    HW128136   2.670   3.889   1.531 -0.5793 -0.3841  0.3484
 5501SOL    HW228137   2.528   3.924   1.546  0.2901 -1.6220  0.5042
 5502SOL     OW28138   1.622   0.917   6.341 -0.4827 -0.1113 -0.0198
 5502SOL    HW128139   1.546   0.872   6.377 -0.5516 -1.7111 -2.2025
 5502SOL    HW228140   1.583   1.000   6.312 -1.0502  0.9297  3.6715
 5503SOL     OW28141   4.513   0.655  14.267  0.4747  0.2563 -0.0237
 5503SOL    HW128142   4.432   0.650  14.217  1.1519  0.6241 -1.1504
 5503SOL    HW228143   4.553   0.578  14.226 -0.7648 -1.2659  1.6434
 5504SOL     OW28144   4.019   2.025   8.885 -0.1845 -0.2098 -0.3558
 5504SOL    HW128145   4.055   1.946   8.926 -2.9502 -0.8381  0.8808
 5504SOL    HW228146   3.956   1.979   8.829  1.2612 -2.0814 -0.4575
 5505SOL     OW28147   1.252   3.633   1.287 -0.2272 -0.0041  0.1240
 5505SOL    HW128148   1.217   3.647   1.199 -2.7157 -0.9528  0.9592
 5505SOL    HW228149   1.195   3.698   1.328  1.7510  2.4003 -0.9018
 5506SOL     OW28150   1.195   4.369   3.812 -0.0139  1.0310 -0.0559
 5506SOL    HW128151   1.256   4.313   3.860  1.3439  2.1380 -0.5030
 5506SOL    HW228152   1.196   4.327   3.726 -0.9107 -0.1357  0.4994
 5507SOL     OW28153   1.210   2.364   4.329  0.2710 -0.0459  0.2572
 5507SOL    HW128154   1.289   2.331   4.372 -0.4514 -2.8827 -0.5830
 5507SOL    HW228155   1.164   2.411   4.399 -0.0239 -0.4576  0.3421
 5508SOL     OW28156   3.208   1.402  11.038  0.4104  0.1700  0.0889
 5508SOL    HW128157   3.201   1.359  10.953  0.0950 -1.7098  1.0694
 5508SOL    HW228158   3.223   1.328  11.096  0.1352 -0.9103 -1.2349
 5509SOL     OW28159   0.014   4.028   6.475 -0.3936  0.5080 -0.1340
 5509SOL    HW128160   0.057   3.972   6.411  0.1348  2.5065 -1.5254
 5509SOL    HW228161   4.674   3.975   6.483  1.0013 -1.5066  0.3934
 5510SOL     OW28162   0.095   3.637   4.605  0.3065 -0.3256  0.2202
 5510SOL    HW128163   0.152   3.616   4.532 -0.4157  1.6873 -0.9437
 5510SOL    HW228164   0.013   3.620   4.559 -0.1670  0.3317  0.8116
 5511SOL     OW28165   4.580   2.390  13.433  0.2760 -0.2429  0.0515
 5511SOL    HW128166   4.591   2.482  13.410 -0.0404  0.4568  2.6753
 5511SOL    HW228167   4.484   2.390  13.437  0.2431  2.1745 -1.2262
 5512SOL     OW28168   0.928   3.217   5.441  0.1815  0.2175 -0.4529
 5512SOL    HW128169   0.981   3.226   5.362  0.9014 -3.4488 -0.3871
 5512SOL    HW228170   1.003   3.205   5.499 -1.2542  0.7558  1.5315
 5513SOL     OW28171   1.837   2.891   5.130  0.2763 -0.0330  0.3449
 5513SOL    HW128172   1.767   2.957   5.140 -0.8686 -1.1035 -0.5767
 5513SOL    HW228173   1.895   2.918   5.201 -0.8804  2.0158  0.5263
 5514SOL     OW28174   1.077   3.657   3.032 -0.4504 -0.6203  0.1957
 5514SOL    HW128175   1.138   3.665   2.959  0.9274 -1.3961  1.2718
 5514SOL    HW228176   1.087   3.567   3.063  1.5806 -0.3151  0.4078
 5515SOL     OW28177   1.558   1.597   5.628  0.4081  0.3228  0.5166
 5515SOL    HW128178   1.561   1.686   5.661  0.0679  0.1669  0.9690
 5515SOL    HW228179   1.595   1.558   5.707  0.5253 -1.0299 -0.1954
 5516SOL     OW28180   3.022   0.718   1.887  0.7567 -0.2639 -0.7949
 5516SOL    HW128181   3.037   0.808   1.917 -1.6446 -0.0722 -0.1646
 5516SOL    HW228182   2.946   0.687   1.937 -0.1612  3.7341  0.3304
 5517SOL     OW28183   3.369   1.106   6.768  0.1363  0.6736 -0.4480
 5517SOL    HW128184   3.295   1.082   6.712  1.0148 -0.7587 -1.0101
 5517SOL    HW228185   3.318   1.140   6.841  0.3046  2.3967 -1.1395
 5518SOL     OW28186   4.089   0.645   6.345 -0.3608  0.5761 -0.3734
 5518SOL    HW128187   4.085   0.611   6.255 -0.1220  0.0368 -0.1857
 5518SOL    HW228188   4.031   0.721   6.350 -1.1542 -0.0778  0.4012
 5519SOL     OW28189   2.072   3.692   2.967 -0.5317 -0.1620  0.6506
 5519SOL    HW128190   2.133   3.629   2.930  0.9946  1.9103 -0.3855
 5519SOL    HW228191   2.106   3.720   3.052  0.8530 -0.2822  0.1316
 5520SOL     OW28192   1.088   0.209   5.812 -0.1096 -0.3210 -0.4328
 5520SOL    HW128193   1.136   0.254   5.743  0.4390 -3.2627 -1.9396
 5520SOL    HW228194   1.074   0.283   5.872  0.7282 -0.7277  0.2702
 5521SOL     OW28195   4.465   3.336   9.120 -0.0436 -0.0775  0.1083
 5521SOL    HW128196   4.535   3.398   9.102 -0.6177  0.1136 -1.4847
 5521SOL    HW228197   4.495   3.300   9.204 -1.7250  0.7041  1.0394
 5522SOL     OW28198   3.678   1.324  13.516  0.2672  0.2813 -0.4503
 5522SOL    HW128199   3.614   1.341  13.447  0.2250 -0.3012 -0.5585
 5522SOL    HW228200   3.649   1.400  13.567 -1.3993 -0.8233  0.2517
 5523SOL     OW28201   2.296   1.353   2.840 -0.3849  0.0958 -0.4694
 5523SOL    HW128202   2.308   1.448   2.853  2.0129 -0.4503  1.4767
 5523SOL    HW228203   2.388   1.325   2.848 -0.1229  1.4438  1.3625
 5524SOL     OW28204   4.297   1.200  11.675 -0.0233  0.2230  0.6287
 5524SOL    HW128205   4.329   1.266  11.613 -1.7265 -1.2737 -1.8536
 5524SOL    HW228206   4.375   1.186  11.729 -0.8316 -0.0820  1.6966
 5525SOL     OW28207   3.612   3.099   2.000 -0.0052  0.1219 -0.3767
 5525SOL    HW128208   3.629   3.189   2.026 -2.6373 -0.0203  1.9134
 5525SOL    HW228209   3.681   3.087   1.935 -0.7457  0.3500 -1.1969
 5526SOL     OW28210   1.915   2.616  14.551 -0.3072 -0.6810  0.5056
 5526SOL    HW128211   1.855   2.669  14.604 -1.8896 -1.0916 -0.8556
 5526SOL    HW228212   2.002   2.610  14.590  0.7484 -0.3407 -1.7485
 5527SOL     OW28213   3.402   2.826   1.261  0.0147  0.2600  0.1755
 5527SOL    HW128214   3.436   2.736   1.266 -0.3272  0.0967 -0.4916
 5527SOL    HW228215   3.309   2.806   1.250  0.4105 -1.8484  0.4950
 5528SOL     OW28216   3.138   2.748  12.205 -0.1833 -0.5462  0.3883
 5528SOL    HW128217   3.186   2.705  12.276 -0.8783  0.2470  1.3355
 5528SOL    HW228218   3.079   2.675  12.182  0.5134 -1.5591  1.8409
 5529SOL     OW28219   2.783   3.101   1.184  0.1199  0.1692  0.6262
 5529SOL    HW128220   2.741   3.176   1.141 -0.4669 -0.4041  0.2172
 5529SOL    HW228221   2.720   3.088   1.255  0.0242  1.0154  0.7008
 5530SOL     OW28222   1.739   1.324  13.275  0.3188 -0.0613 -0.3780
 5530SOL    HW128223   1.715   1.246  13.226  0.3036 -0.6405  0.5464
 5530SOL    HW228224   1.660   1.343  13.326 -1.1222 -3.0008 -1.5134
 5531SOL     OW28225   3.529   1.189  13.058  0.0475  0.4695  0.0480
 5531SOL    HW128226   3.543   1.098  13.085  0.7527  0.6846  0.4046
 5531SOL    HW228227   3.537   1.172  12.964 -4.4554  0.2527 -0.2883
 5532SOL     OW28228   2.044   4.305   3.948  0.3936 -0.2794  0.4043
 5532SOL    HW128229   2.083   4.274   4.029  1.4638 -0.6825 -0.2688
 5532SOL    HW228230   2.060   4.229   3.891  0.6229  1.3497 -1.7237
 5533SOL     OW28231   2.534   1.443   4.821  0.4694  0.3532  0.3474
 5533SOL    HW128232   2.479   1.382   4.772  0.0775 -0.7217  2.1391
 5533SOL    HW228233   2.470   1.497   4.868  0.9512  2.6065 -1.5683
 5534SOL     OW28234   0.397   0.134   5.976 -0.0694 -0.3535 -0.2940
 5534SOL    HW128235   0.418   0.041   5.968  2.4136  0.0159  1.6622
 5534SOL    HW228236   0.406   0.157   6.069 -2.7952 -1.2523  0.1925
 5535SOL     OW28237   2.696   3.484   0.444 -0.4262 -0.4417  0.6605
 5535SOL    HW128238   2.623   3.447   0.494 -0.2535 -0.6782  0.7370
 5535SOL    HW228239   2.667   3.574   0.429  0.8760  0.1509  1.7808
 5536SOL     OW28240   3.282   3.675   3.196 -0.3846  0.1309  0.1431
 5536SOL    HW128241   3.308   3.591   3.158 -1.1644 -0.2922  0.5524
 5536SOL    HW228242   3.281   3.651   3.289 -0.8673 -2.1797 -0.4771
 5537SOL     OW28243   2.639   0.132   3.077 -0.1392 -0.3856 -0.7186
 5537SOL    HW128244   2.627   0.084   2.995 -1.2470 -0.7322 -0.3517
 5537SOL    HW228245   2.729   0.164   3.073 -0.4997  0.9121  1.2999
 5538SOL     OW28246   4.203   1.317   4.106  0.0254  0.6655  0.3339
 5538SOL    HW128247   4.126   1.264   4.129  0.4702  0.1297  0.5891
 5538SOL    HW228248   4.193   1.363   4.190  0.8019 -0.4083  1.0263
 5539SOL     OW28249   2.502   3.294   3.030 -0.1044 -0.5182  0.3966
 5539SOL    HW128250   2.513   3.318   2.938 -1.1517 -1.0160  0.1431
 5539SOL    HW228251   2.596   3.279   3.034  0.2283  1.8563  1.3652
 5540SOL     OW28252   1.649   2.448   1.439 -0.1217  0.1785 -0.1921
 5540SOL    HW128253   1.616   2.365   1.474 -0.2550  0.2803 -0.0793
 5540SOL    HW228254   1.681   2.487   1.521 -1.7642  0.8476  0.1284
 5541SOL     OW28255   1.859   2.708   6.686  0.0365 -0.1346  0.3565
 5541SOL    HW128256   1.914   2.697   6.763  0.2415  2.0138  0.5175
 5541SOL    HW228257   1.894   2.632   6.640 -1.3138 -1.4637  1.5763
 5542SOL     OW28258   2.868   0.226   5.179 -0.4630 -0.2492 -0.0403
 5542SOL    HW128259   2.795   0.165   5.175  1.3364 -2.3661 -0.4325
 5542SOL    HW228260   2.942   0.173   5.208  0.0419  0.4355 -0.0537
 5543SOL     OW28261   2.182   0.475   4.167 -0.3297  0.0751 -0.0179
 5543SOL    HW128262   2.238   0.400   4.186 -0.2416 -0.6485 -3.0478
 5543SOL    HW228263   2.209   0.535   4.236 -0.7787 -0.1991  0.4034
 5544SOL     OW28264   0.261   0.116   5.536 -0.0934 -0.7924 -0.3438
 5544SOL    HW128265   0.265   0.174   5.612 -0.4060 -0.7206 -0.3841
 5544SOL    HW228266   0.347   0.109   5.493  0.0197  1.8674 -0.5531
 5545SOL     OW28267   2.766   2.135   7.379 -0.0294  0.6590 -0.4067
 5545SOL    HW128268   2.701   2.111   7.313 -0.8605 -0.5081  0.8272
 5545SOL    HW228269   2.719   2.195   7.437 -1.0601 -0.5440  0.0147
 5546SOL     OW28270   1.714   3.261   7.498  0.3296 -0.6349 -0.3292
 5546SOL    HW128271   1.688   3.222   7.581  0.1663 -4.0312 -1.9595
 5546SOL    HW228272   1.636   3.247   7.444  0.4995  1.4907 -1.1390
 5547SOL     OW28273   4.148   2.017  12.726  0.3785 -0.4237 -0.3458
 5547SOL    HW128274   4.239   1.989  12.734  0.8629  0.7359 -1.8671
 5547SOL    HW228275   4.154   2.105  12.763 -0.7499 -0.3107 -0.4490
 5548SOL     OW28276   1.405   0.558   4.594 -0.2711  0.3330 -0.2766
 5548SOL    HW128277   1.470   0.488   4.587  0.5972  0.9215  2.0592
 5548SOL    HW228278   1.324   0.506   4.600 -2.1425  3.0796 -1.7136
 5549SOL     OW28279   2.256   2.524   4.922  0.2687  0.3919 -0.2105
 5549SOL    HW128280   2.222   2.536   4.833 -1.0602 -0.5696  0.1678
 5549SOL    HW228281   2.199   2.584   4.970 -1.1251 -0.2811 -1.0065
 5550SOL     OW28282   2.684   2.897   2.830  0.0445  0.4381  0.2313
 5550SOL    HW128283   2.732   2.964   2.781 -0.1686  1.9611  2.0784
 5550SOL    HW228284   2.757   2.846   2.862  0.6791  0.5506 -1.0485
 5551SOL     OW28285   1.394   1.088   6.355  0.1297 -0.0117  0.3628
 5551SOL    HW128286   1.328   1.033   6.313  1.1251  0.5144 -1.8536
 5551SOL    HW228287   1.447   1.108   6.278  1.4991 -4.1878  0.2262
 5552SOL     OW28288   0.508   4.514   2.610  0.4669 -0.1834  0.6361
 5552SOL    HW128289   0.521   4.585   2.547 -1.5697 -1.0427 -0.7552
 5552SOL    HW228290   0.453   4.451   2.564  1.9180 -1.1667  0.2538
 5553SOL     OW28291   4.370   3.614   6.197 -0.0363  0.0943 -0.5852
 5553SOL    HW128292   4.443   3.558   6.169  1.7638  1.6672  0.9343
 5553SOL    HW228293   4.295   3.555   6.194 -1.1569  1.6328 -2.2544
 5554SOL     OW28294   3.868   1.082   5.108 -0.2603  0.1174  0.6686
 5554SOL    HW128295   3.915   1.003   5.080 -1.1600 -0.7086  1.4772
 5554SOL    HW228296   3.933   1.118   5.168  1.3151 -0.2603 -0.8074
 5555SOL     OW28297   0.452   2.861   9.624  0.6340 -0.0160 -0.2248
 5555SOL    HW128298   0.415   2.842   9.711 -1.5253 -0.6259 -1.2814
 5555SOL    HW228299   0.396   2.812   9.564  1.4306  1.1361 -1.8973
 5556SOL     OW28300   1.685   1.221   5.778  0.0986 -0.2163  0.4468
 5556SOL    HW128301   1.673   1.308   5.817 -0.8100 -1.1064  2.1599
 5556SOL    HW228302   1.650   1.154   5.837 -2.7769  1.1419  0.3041
 5557SOL     OW28303   1.575   1.347   8.191 -0.0799 -0.4213 -0.2099
 5557SOL    HW128304   1.666   1.374   8.207 -0.8044  1.6885  0.2816
 5557SOL    HW228305   1.550   1.396   8.113  1.2149  0.5553 -0.0266
 5558SOL     OW28306   3.858   1.739  10.933 -0.3689 -0.0588  0.5468
 5558SOL    HW128307   3.766   1.731  10.907  0.3707  0.6788 -2.3572
 5558SOL    HW228308   3.902   1.692  10.861  0.2584 -1.7970  2.0753
 5559SOL     OW28309   2.159   0.281   7.860 -0.0809 -0.0416  0.6582
 5559SOL    HW128310   2.088   0.344   7.851 -0.6883 -0.8009  0.1761
 5559SOL    HW228311   2.110   0.203   7.835 -0.2901  0.3938 -0.2641
 5560SOL     OW28312   1.196   1.239   1.459  0.4540  0.8126  0.4846
 5560SOL    HW128313   1.235   1.273   1.539  0.9391  0.2721  0.4791
 5560SOL    HW228314   1.233   1.152   1.447 -1.2859  0.0180  0.8129
 5561SOL     OW28315   0.414   1.180   6.508  0.1445  0.1025 -0.0686
 5561SOL    HW128316   0.480   1.116   6.481  0.1902 -0.4850  1.4473
 5561SOL    HW228317   0.361   1.128   6.567 -1.2885  0.5250 -0.9774
 5562SOL     OW28318   2.313   0.418   2.493  0.4405 -0.1454 -0.0418
 5562SOL    HW128319   2.350   0.505   2.475 -0.7524  0.4295  0.2431
 5562SOL    HW228320   2.254   0.447   2.563  0.1835 -1.2871  0.2090
 5563SOL     OW28321   4.028   0.089   8.932  0.2437  0.4728 -0.1312
 5563SOL    HW128322   4.068   0.053   8.852 -0.3203  1.8386 -1.0294
 5563SOL    HW228323   4.012   0.004   8.974 -0.7959  1.0115  0.5567
 5564SOL     OW28324   4.373   2.893  15.628  0.4141  0.7679  0.3330
 5564SOL    HW128325   4.423   2.812  15.642 -2.0693 -0.9901 -1.0046
 5564SOL    HW228326   4.291   2.856  15.596  1.3448 -0.2341 -0.9317
 5565SOL     OW28327   0.331   0.085   8.081 -0.3015 -0.2451 -0.3870
 5565SOL    HW128328   0.268   0.025   8.120 -1.8431  1.5120 -0.1960
 5565SOL    HW228329   0.370   0.033   8.011  0.1147 -0.6249  0.1298
 5566SOL     OW28330   1.117   0.896   8.238 -0.1985  0.2275  0.5989
 5566SOL    HW128331   1.153   0.858   8.158  1.3720  0.9505  0.9554
 5566SOL    HW228332   1.075   0.821   8.280  0.2993  0.6477  1.8528
 5567SOL     OW28333   1.085   1.790   7.275  0.0021  0.2938  0.3139
 5567SOL    HW128334   1.070   1.709   7.226  1.0336  1.5609 -2.0980
 5567SOL    HW228335   1.060   1.851   7.205  1.6028 -1.2041 -1.5655
 5568SOL     OW28336   4.589   1.497   7.801 -0.8488  0.0107  0.3418
 5568SOL    HW128337   4.632   1.414   7.783 -1.8578 -0.2362 -0.9830
 5568SOL    HW228338   4.500   1.470   7.824 -1.5987  3.5209  1.6383
 5569SOL     OW28339   2.452   3.068   3.292  0.0318  0.1646 -0.3089
 5569SOL    HW128340   2.518   3.057   3.224  1.4614 -1.7766  1.4132
 5569SOL    HW228341   2.488   3.001   3.350 -0.4962 -1.3071 -1.6813
 5570SOL     OW28342   0.561   2.755   9.060  0.0666 -0.3713  0.1925
 5570SOL    HW128343   0.623   2.688   9.032  0.7715 -0.6753  2.4804
 5570SOL    HW228344   0.533   2.792   8.976  1.3048  2.6955  1.1075
 5571SOL     OW28345   1.393   1.572   5.411 -0.1817 -0.7210 -0.4340
 5571SOL    HW128346   1.471   1.565   5.466 -1.2928  3.2946  1.6671
 5571SOL    HW228347   1.338   1.618   5.475  0.4043  1.6379 -1.6512
 5572SOL     OW28348   1.045   3.192  16.986  0.3649 -0.7021  0.1182
 5572SOL    HW128349   1.030   3.101  17.012  0.5157 -0.3811  1.3574
 5572SOL    HW228350   1.106   3.188  16.913  2.3949  0.0942  1.7893
 5573SOL     OW28351   1.143   4.002   3.938 -0.0624 -0.0189 -0.1710
 5573SOL    HW128352   1.062   4.052   3.942  0.0867  0.3491 -1.5736
 5573SOL    HW228353   1.115   3.925   3.889  2.8853 -2.9777  2.7783
 5574SOL     OW28354   2.110   4.309  11.316  0.6015  0.1156  0.1183
 5574SOL    HW128355   2.132   4.346  11.402 -0.9736 -2.0638  1.4295
 5574SOL    HW228356   2.097   4.216  11.330 -0.8235  0.3368  0.1904
 5575SOL     OW28357   1.299   0.373  12.797  0.2338  0.6041 -0.1145
 5575SOL    HW128358   1.262   0.388  12.884  2.0713  1.5582  0.4949
 5575SOL    HW228359   1.303   0.277  12.804 -0.8425  0.5247 -0.6582
 5576SOL     OW28360   2.577   2.033   3.811 -0.1074  0.5062 -0.2735
 5576SOL    HW128361   2.495   1.999   3.847  1.8595 -2.6600  1.1970
 5576SOL    HW228362   2.634   1.957   3.804  0.8116  1.1392  0.3228
 5577SOL     OW28363   4.286   4.426   7.179 -0.0659 -0.0579  0.1981
 5577SOL    HW128364   4.284   4.334   7.152  1.4536 -0.3834  1.1942
 5577SOL    HW228365   4.258   4.480   7.105  0.0559  0.4072  0.4930
 5578SOL     OW28366   2.483   2.013  12.052  0.1010  0.8074 -0.0860
 5578SOL    HW128367   2.559   1.967  12.016 -0.3218  1.2449 -1.5083
 5578SOL    HW228368   2.415   1.992  11.988 -0.5736 -1.0089  1.2148
 5579SOL     OW28369   0.565   3.913  13.630 -0.4617 -0.4830  0.0938
 5579SOL    HW128370   0.545   3.820  13.615 -1.0237 -0.4944  0.9210
 5579SOL    HW228371   0.653   3.909  13.668  0.3095  0.1794 -1.6578
 5580SOL     OW28372   3.592   0.024  15.775 -0.1047  0.2837 -0.3864
 5580SOL    HW128373   3.505   0.056  15.751 -0.6566  0.0577  1.3023
 5580SOL    HW228374   3.604   0.048  15.867  2.6846 -0.4507 -0.5661
 5581SOL     OW28375   2.664   2.187   4.695 -0.2140 -0.4493 -0.1649
 5581SOL    HW128376   2.717   2.108   4.701 -0.6895 -0.6432  1.4821
 5581SOL    HW228377   2.662   2.223   4.784 -0.1899 -0.6757 -0.0729
 5582SOL     OW28378   2.692   3.504  15.008  0.2880 -0.4970  0.0878
 5582SOL    HW128379   2.676   3.537  15.096 -0.2475  1.8215 -0.8661
 5582SOL    HW228380   2.782   3.527  14.985 -0.1279  1.1338  0.0833
 5583SOL     OW28381   2.048   4.305   7.983  0.1466  0.2059 -0.3191
 5583SOL    HW128382   2.030   4.212   7.965 -3.1148  1.4610 -3.5683
 5583SOL    HW228383   2.128   4.307   7.931  0.0548 -0.6254 -0.4990
 5584SOL     OW28384   1.660   1.242   5.511  0.3471 -0.3940 -0.4933
 5584SOL    HW128385   1.668   1.183   5.586  2.3019  1.5145  0.7773
 5584SOL    HW228386   1.608   1.315   5.544  1.5390  0.0074  0.4853
 5585SOL     OW28387   1.636   4.729  13.583  0.4273  0.4484  0.2268
 5585SOL    HW128388   1.571   0.029  13.525 -0.1743  0.1503  0.6956
 5585SOL    HW228389   1.601   4.645  13.611  1.6533 -0.7395 -1.8568
 5586SOL     OW28390   1.321   0.310   4.447  0.0153 -0.6910 -0.0202
 5586SOL    HW128391   1.412   0.314   4.417  0.3900  1.6640  1.4540
 5586SOL    HW228392   1.264   0.287   4.373  1.5564 -0.0212 -1.4054
 5587SOL     OW28393   4.083   2.006   7.644 -0.2377  0.5602 -0.0526
 5587SOL    HW128394   4.068   1.913   7.661 -1.4804  0.9326  0.9753
 5587SOL    HW228395   4.114   2.002   7.554  0.4679  0.6706  0.1835
 5588SOL     OW28396   2.788   2.973   5.451 -0.0013  0.3372 -0.3260
 5588SOL    HW128397   2.786   2.952   5.545 -0.6853 -2.9403 -1.0717
 5588SOL    HW228398   2.698   2.943   5.437  0.4555 -1.0671 -0.2936
 5589SOL     OW28399   1.345   3.905   8.676  0.2409 -0.3885  0.2694
 5589SOL    HW128400   1.339   3.988   8.628 -0.2256  0.1797  1.2910
 5589SOL    HW228401   1.410   3.849   8.635  1.5534 -0.1046  1.9619
 5590SOL     OW28402   1.641   3.855  17.108  0.1832  0.0665  0.3580
 5590SOL    HW128403   1.573   3.800  17.147  1.2040 -2.1728 -1.0293
 5590SOL    HW228404   1.703   3.878  17.178 -0.5214 -0.4917  1.1690
 5591SOL     OW28405   2.418   0.733   3.672  0.1913 -0.0307  0.4785
 5591SOL    HW128406   2.413   0.656   3.616 -1.5118  0.2573  0.2499
 5591SOL    HW228407   2.498   0.773   3.637  0.0387 -0.1399  0.0136
 5592SOL     OW28408   0.964   4.083   6.103 -0.2168  0.0977 -0.6037
 5592SOL    HW128409   0.896   4.079   6.170 -0.4222  2.0881 -0.6675
 5592SOL    HW228410   1.007   3.998   6.111 -1.3501 -0.3530  0.6078
 5593SOL     OW28411   4.609   3.435  17.560 -0.5080 -0.2500 -0.2565
 5593SOL    HW128412   4.675   3.501  17.538 -0.5532  0.3905  1.5294
 5593SOL    HW228413   4.626   3.434  17.654 -1.1307  2.5406 -0.1048
 5594SOL     OW28414   4.507   0.369  11.207 -0.4818  0.2074  0.4234
 5594SOL    HW128415   4.454   0.336  11.134  1.4608  3.0570 -2.2971
 5594SOL    HW228416   4.565   0.293  11.218 -1.0978 -0.3915 -0.3873
 5595SOL     OW28417   1.260   0.407  13.356  0.3372  0.6250  0.6329
 5595SOL    HW128418   1.351   0.435  13.342 -0.6055  2.6779 -1.5173
 5595SOL    HW228419   1.252   0.379  13.447 -0.0168  0.0258  0.4179
 5596SOL     OW28420   1.902   0.851  13.874  0.1951  0.0198  0.2615
 5596SOL    HW128421   1.954   0.897  13.808  0.8615 -1.8228 -0.4815
 5596SOL    HW228422   1.828   0.824  13.819  0.0038  1.7931 -0.3474
 5597SOL     OW28423   2.006   3.315   4.357 -0.2061 -0.6983 -0.2487
 5597SOL    HW128424   1.942   3.353   4.297  1.0922  2.3375  0.2888
 5597SOL    HW228425   1.985   3.362   4.438 -1.8952 -2.3236  0.2599
 5598SOL     OW28426   1.767   0.407  10.519  0.5370  0.0566  0.0340
 5598SOL    HW128427   1.672   0.398  10.513  0.7405 -1.7720 -0.4214
 5598SOL    HW228428   1.782   0.340  10.586 -1.4674 -0.2841  0.1493
 5599SOL     OW28429   3.537   1.562  13.630 -0.0600 -0.0953  0.4973
 5599SOL    HW128430   3.472   1.587  13.696 -1.8739  0.3375 -1.4752
 5599SOL    HW228431   3.470   1.553  13.563  4.4856 -2.9548 -3.6855
 5600SOL     OW28432   1.647   4.284   8.872  0.8040  0.2633  1.1160
 5600SOL    HW128433   1.564   4.245   8.844  1.5566 -0.9081  0.5207
 5600SOL    HW228434   1.704   4.210   8.890  0.3835 -0.0902  0.9983
 5601SOL     OW28435   4.273   4.271   7.872 -0.7106  0.3577 -0.5096
 5601SOL    HW128436   4.191   4.314   7.847  0.2829  2.0260 -0.9136
 5601SOL    HW228437   4.322   4.342   7.829  1.3215  0.1773  1.4845
 5602SOL     OW28438   2.793   2.927   1.835  1.0466  0.4838  0.4285
 5602SOL    HW128439   2.768   2.842   1.801  3.7797 -0.6038  1.1434
 5602SOL    HW228440   2.833   2.968   1.758 -1.2781 -1.1803 -1.6398
 5603SOL     OW28441   0.869   2.527   6.743  0.0218 -0.3882 -0.2441
 5603SOL    HW128442   0.806   2.566   6.802  0.5564 -0.0685  0.1196
 5603SOL    HW228443   0.831   2.440   6.735  3.6060 -1.6448 -3.6000
 5604SOL     OW28444   4.288   3.355   5.287 -0.2343  0.1908 -0.1395
 5604SOL    HW128445   4.288   3.267   5.323  1.1340  0.9484  1.6943
 5604SOL    HW228446   4.196   3.377   5.272 -0.0336  0.4797 -0.9690
 5605SOL     OW28447   1.791   3.322   3.201 -0.0119  0.7369  0.3610
 5605SOL    HW128448   1.807   3.337   3.108 -0.4796  1.0002  0.3235
 5605SOL    HW228449   1.716   3.381   3.212  0.6846  1.5975  0.5609
 5606SOL     OW28450   1.924   3.587   3.727 -0.8312 -0.4500 -0.1293
 5606SOL    HW128451   1.847   3.639   3.703 -0.1652  1.4387  1.7932
 5606SOL    HW228452   1.897   3.496   3.712 -0.8364 -0.4621 -0.0448
 5607SOL     OW28453   2.605   2.023   2.133  0.2774 -0.0274 -0.2781
 5607SOL    HW128454   2.619   1.979   2.049  1.1369 -0.2304 -0.0344
 5607SOL    HW228455   2.558   1.948   2.169  0.6364 -0.0905  0.0661
 5608SOL     OW28456   0.171   4.360  11.410  0.0547  0.1398  0.3802
 5608SOL    HW128457   0.253   4.310  11.413  0.6898  1.1187 -0.6034
 5608SOL    HW228458   0.118   4.312  11.474 -1.1141  1.9368  0.7715
 5609SOL     OW28459   1.331   1.717   2.583  0.0351 -0.4636  0.0512
 5609SOL    HW128460   1.258   1.656   2.590  0.2641 -0.8000 -0.4806
 5609SOL    HW228461   1.296   1.804   2.561 -0.3567 -0.3314  1.1962
 5610SOL     OW28462   0.715   1.431   2.123 -0.1430  0.5188 -0.3150
 5610SOL    HW128463   0.793   1.470   2.084 -0.0104 -3.8121 -4.3138
 5610SOL    HW228464   0.664   1.511   2.138  0.2638  0.8641 -0.7556
 5611SOL     OW28465   3.477   3.231  11.686  0.0524  0.1776 -0.4578
 5611SOL    HW128466   3.556   3.187  11.717 -1.6473 -1.9689  0.7861
 5611SOL    HW228467   3.402   3.187  11.725 -1.3017  1.7538 -1.2498
 5612SOL     OW28468   1.143   0.691   7.291  0.1195 -0.2317  0.0463
 5612SOL    HW128469   1.083   0.708   7.218 -0.1087 -0.1201  0.2608
 5612SOL    HW228470   1.205   0.764   7.282  1.0404 -0.7814  1.9343
 5613SOL     OW28471   3.575   4.473  12.988  0.2268  0.2474 -0.5256
 5613SOL    HW128472   3.652   4.529  13.000 -0.1123  0.7246 -0.5413
 5613SOL    HW228473   3.605   4.383  12.980 -2.2567 -0.6282  0.0425
 5614SOL     OW28474   0.922   2.172  13.571 -0.0562 -0.2166  0.1479
 5614SOL    HW128475   0.934   2.239  13.639  1.7727 -0.4083  0.0136
 5614SOL    HW228476   0.937   2.226  13.493 -1.2185 -2.3497 -1.5315
 5615SOL     OW28477   2.436   2.470   6.220  0.4840 -0.3562  1.1805
 5615SOL    HW128478   2.385   2.549   6.239 -0.0555 -0.2691 -0.6142
 5615SOL    HW228479   2.379   2.395   6.206  1.2822 -0.8369  0.5003
 5616SOL     OW28480   3.567   4.452   2.013  0.3743 -0.0720  0.5177
 5616SOL    HW128481   3.633   4.522   2.017  0.8345 -0.5532  1.3071
 5616SOL    HW228482   3.488   4.484   2.057 -0.4025  2.5495 -2.7511
 5617SOL     OW28483   0.822   2.272   0.317  0.0721 -0.2476  0.1900
 5617SOL    HW128484   0.763   2.347   0.324 -1.8321 -1.7827  0.9421
 5617SOL    HW228485   0.844   2.274   0.224  0.0040 -0.5850  0.1631
 5618SOL     OW28486   1.079   3.869   8.776 -0.0483 -0.1689  0.1040
 5618SOL    HW128487   1.019   3.908   8.713 -1.3266 -3.2838 -0.5833
 5618SOL    HW228488   1.158   3.853   8.725  1.3890 -0.2062  2.3307
 5619SOL     OW28489   1.036   1.019   6.533  0.6188  0.3405  0.0721
 5619SOL    HW128490   1.110   0.958   6.542 -1.2592 -2.0118 -0.7455
 5619SOL    HW228491   1.069   1.092   6.587  1.1289 -1.0650  1.6706
 5620SOL     OW28492   0.133   4.174   9.096 -0.4147 -0.0274 -0.4429
 5620SOL    HW128493   0.226   4.193   9.109 -0.8641  0.3570  2.1547
 5620SOL    HW228494   0.111   4.118   9.170 -0.3728  1.1641  0.4564
 5621SOL     OW28495   0.069   0.850  10.068  0.4957  0.2758  0.3628
 5621SOL    HW128496   0.015   0.917  10.025  0.8505  0.3243  0.0001
 5621SOL    HW228497   0.149   0.867  10.019  0.8277  0.0723  0.8302
 5622SOL     OW28498   0.088   1.308  13.947 -0.3660 -0.4421  0.1686
 5622SOL    HW128499   0.078   1.402  13.932  0.5249 -0.2689  0.6834
 5622SOL    HW228500   0.001   1.276  13.972 -0.2185 -0.9400  0.0503
 5623SOL     OW28501   1.528   3.969   2.895 -0.0966 -0.3242  0.2771
 5623SOL    HW128502   1.484   4.024   2.832 -0.2878 -1.4152 -0.5423
 5623SOL    HW228503   1.551   3.890   2.846  0.4973 -1.1383  1.8397
 5624SOL     OW28504   0.689   1.331   1.476 -0.1198 -0.3348  0.0575
 5624SOL    HW128505   0.612   1.341   1.420 -0.3710 -0.1973  0.4263
 5624SOL    HW228506   0.650   1.352   1.560  1.8716  2.2389  0.3483
 5625SOL     OW28507   4.165   1.331   4.649 -0.6282  0.2856  0.1269
 5625SOL    HW128508   4.169   1.251   4.702 -1.8179  0.0145 -0.1800
 5625SOL    HW228509   4.237   1.383   4.683 -0.9310  0.6672  0.1859
 5626SOL     OW28510   0.244   3.704   5.502 -0.2514  0.6334 -0.0796
 5626SOL    HW128511   0.206   3.685   5.416  1.9873 -0.6812 -0.7907
 5626SOL    HW228512   0.299   3.628   5.519  1.2084  1.3266 -1.6990
 5627SOL     OW28513   3.499   2.463  16.484  0.1597 -0.1130  0.5733
 5627SOL    HW128514   3.576   2.518  16.495  0.3568 -0.1788 -0.3980
 5627SOL    HW228515   3.439   2.492  16.552  0.7306  2.9708 -0.2562
 5628SOL     OW28516   1.969   2.292   3.469 -0.0405 -0.0754  0.1632
 5628SOL    HW128517   1.874   2.288   3.458 -0.1334  0.8051  0.6808
 5628SOL    HW228518   1.993   2.228   3.537 -1.9254 -1.0798 -0.1098
 5629SOL     OW28519   2.485   4.592  10.249 -0.5015  0.1365 -0.0042
 5629SOL    HW128520   2.471   4.515  10.194 -0.2570  0.9139 -1.1498
 5629SOL    HW228521   2.569   4.573  10.289 -1.0235 -2.0802  0.0473
 5630SOL     OW28522   0.450   0.448   7.280 -0.2053  0.3730 -0.1984
 5630SOL    HW128523   0.373   0.449   7.337  1.0710 -0.7898  1.5442
 5630SOL    HW228524   0.412   0.426   7.195  1.6377 -2.3724 -0.3108
 5631SOL     OW28525   1.090   3.753   6.685 -0.2890 -0.7103 -0.6285
 5631SOL    HW128526   1.023   3.817   6.708  0.6875  0.4660 -1.0529
 5631SOL    HW228527   1.165   3.789   6.733 -1.6984  0.9064  0.3353
 5632SOL     OW28528   0.539   3.418  14.038  0.0005 -0.5450 -0.0412
 5632SOL    HW128529   0.577   3.397  13.953  1.5566 -2.4141  1.1084
 5632SOL    HW228530   0.481   3.344  14.057 -0.0223 -0.5837 -0.2540
 5633SOL     OW28531   0.664   3.595  14.201  0.1277  0.2946  0.2048
 5633SOL    HW128532   0.622   3.521  14.157  1.5822 -0.7301  0.5493
 5633SOL    HW228533   0.596   3.611  14.266 -0.9637 -1.6047 -0.4883
 5634SOL     OW28534   2.963   0.651   5.310 -0.2692 -0.5501 -0.3847
 5634SOL    HW128535   3.052   0.681   5.329 -0.9590  0.8995  0.5910
 5634SOL    HW228536   2.908   0.730   5.312 -0.4160 -0.6456 -0.6133
 5635SOL     OW28537   3.063   2.488  17.552 -0.2323  0.1378 -0.4137
 5635SOL    HW128538   3.085   2.517  17.464 -1.4291 -0.1852 -0.8126
 5635SOL    HW228539   2.999   2.419  17.536 -2.7111  1.8856  1.9507
 5636SOL     OW28540   0.680   0.553  12.618 -0.6683 -0.2648  0.1339
 5636SOL    HW128541   0.678   0.551  12.523 -1.9663 -0.5402  0.1677
 5636SOL    HW228542   0.604   0.496  12.632 -1.4625  0.4926 -1.0830
 5637SOL     OW28543   4.073   4.588   3.541  0.3787 -0.0320 -0.7969
 5637SOL    HW128544   4.019   4.558   3.469 -0.3983  0.8831 -0.6073
 5637SOL    HW228545   4.059   4.521   3.608  1.7591 -1.6226 -2.1234
 5638SOL     OW28546   0.149   2.099   7.085 -0.1998 -0.1305  0.3277
 5638SOL    HW128547   0.209   2.174   7.088  1.9699 -1.8444 -0.0652
 5638SOL    HW228548   0.117   2.099   6.995 -1.9190 -3.0826  0.9201
 5639SOL     OW28549   4.631   0.302   3.734  0.3941  0.3798  0.7128
 5639SOL    HW128550   4.690   0.337   3.666 -1.9788  2.4195 -0.3114
 5639SOL    HW228551   4.554   0.266   3.690  0.9094  0.7509 -0.4907
 5640SOL     OW28552   4.290   4.508   9.274  0.2214 -0.5182  0.0045
 5640SOL    HW128553   4.194   4.512   9.273  0.2491  0.0718 -0.1940
 5640SOL    HW228554   4.309   4.600   9.292  0.2849 -1.0011  2.3917
 5641SOL     OW28555   3.060   0.707   2.885 -0.3252  0.0517  0.1226
 5641SOL    HW128556   3.134   0.664   2.840 -0.6559 -2.0200  1.5406
 5641SOL    HW228557   3.099   0.788   2.918  0.2521 -0.6803  1.2174
 5642SOL     OW28558   1.432   2.332   4.452 -0.0046  0.0805 -0.2197
 5642SOL    HW128559   1.454   2.243   4.424  1.9876  0.3464  0.4987
 5642SOL    HW228560   1.426   2.324   4.548 -0.2768  1.1851 -0.1509
 5643SOL     OW28561   0.696   1.504   6.263  0.4522  0.1859 -0.0304
 5643SOL    HW128562   0.778   1.468   6.298 -0.2383 -1.0541  0.2883
 5643SOL    HW228563   0.656   1.533   6.345 -1.2285  0.2097 -0.8776
 5644SOL     OW28564   3.272   0.223   3.784  0.4567  0.3549  0.1130
 5644SOL    HW128565   3.184   0.189   3.767  1.2531 -0.5914 -2.0876
 5644SOL    HW228566   3.324   0.173   3.720 -0.4722  0.4054 -0.6834
 5645SOL     OW28567   1.860   0.363   2.478 -0.3200 -0.4675 -0.0155
 5645SOL    HW128568   1.779   0.319   2.454  0.0638 -2.1070  1.7317
 5645SOL    HW228569   1.917   0.334   2.407 -0.7902 -0.6088 -0.3345
 5646SOL     OW28570   1.700   2.997   7.258 -0.4307  0.1591  1.0099
 5646SOL    HW128571   1.788   3.033   7.272 -0.6696  0.5449  1.5408
 5646SOL    HW228572   1.666   3.061   7.195  0.2827  0.2238  0.6895
 5647SOL     OW28573   2.977   4.023   0.492  0.1757 -0.1329  0.2349
 5647SOL    HW128574   3.054   3.972   0.464 -0.6441 -0.9107 -0.5962
 5647SOL    HW228575   2.949   3.971   0.567  0.0996  0.9301  0.9474
 5648SOL     OW28576   0.476   0.385  12.682  0.0688  0.0491  0.0661
 5648SOL    HW128577   0.410   0.341  12.736  0.2466  1.4220  1.3844
 5648SOL    HW228578   0.501   0.308  12.630 -2.0500 -0.0487 -0.8198
 5649SOL     OW28579   4.617   2.542   2.700  0.6866  0.0492 -0.2871
 5649SOL    HW128580   4.601   2.455   2.736  0.5927 -0.4857 -1.6068
 5649SOL    HW228581   4.706   2.523   2.672  1.2393 -1.7342  2.7080
 5650SOL     OW28582   3.686   0.676  14.801 -0.1940 -0.6742  0.2024
 5650SOL    HW128583   3.660   0.740  14.867  0.3028 -1.3347  1.0272
 5650SOL    HW228584   3.782   0.684  14.799 -0.1954 -0.5940  0.4264
 5651SOL     OW28585   1.875   0.475   4.325  0.1664  0.0013 -0.4857
 5651SOL    HW128586   1.823   0.547   4.290 -3.3060 -1.2348  2.0852
 5651SOL    HW228587   1.886   0.414   4.252 -0.5406  0.2813 -0.8273
 5652SOL     OW28588   4.545   1.715   9.774 -0.0963  0.4547 -0.0600
 5652SOL    HW128589   4.628   1.760   9.793 -0.1197 -0.2721  1.8053
 5652SOL    HW228590   4.573   1.624   9.763 -0.3494  0.6175 -1.9731
 5653SOL     OW28591   3.241   1.806  12.999 -0.2800  0.2092 -0.7298
 5653SOL    HW128592   3.287   1.729  12.964 -0.9723 -0.9581  0.9668
 5653SOL    HW228593   3.195   1.755  13.065  0.9213 -1.3331 -1.0858
 5654SOL     OW28594   1.853   2.273  16.280 -0.2070 -0.4907  0.0728
 5654SOL    HW128595   1.800   2.335  16.330  0.2001  0.3959 -0.5852
 5654SOL    HW228596   1.852   2.209  16.351 -1.7918 -1.2229 -0.6066
 5655SOL     OW28597   3.527   4.094  14.843  0.2309  0.0332 -0.0970
 5655SOL    HW128598   3.537   4.005  14.876  2.1936 -0.5765 -2.3869
 5655SOL    HW228599   3.618   4.113  14.821  1.0057 -1.6556  1.6907
 5656SOL     OW28600   4.141   0.932   8.047 -0.3087  0.7040 -0.6026
 5656SOL    HW128601   4.150   0.892   8.134 -2.2140 -0.8466 -1.1173
 5656SOL    HW228602   4.059   0.897   8.012 -0.6046  1.9091 -1.1215
 5657SOL     OW28603   2.509   0.170   7.184  0.0910  0.3289 -0.4212
 5657SOL    HW128604   2.526   0.162   7.090  1.3482  3.2219 -0.4419
 5657SOL    HW228605   2.575   0.236   7.204 -0.6786  0.8804  0.3299
 5658SOL     OW28606   0.940   1.817  16.006  0.4627  0.2816  0.2531
 5658SOL    HW128607   0.864   1.830  16.062  0.3129  0.2288  0.0609
 5658SOL    HW228608   0.907   1.763  15.934  2.1203 -1.3198  0.6787
 5659SOL     OW28609   2.876   4.235   7.914  0.2066  0.2288  0.2037
 5659SOL    HW128610   2.927   4.172   7.966 -0.5234 -1.5276 -1.1977
 5659SOL    HW228611   2.863   4.302   7.981 -1.2522  1.4834 -1.3438
 5660SOL     OW28612   2.565   0.497   6.522 -0.0112 -0.2449  0.4715
 5660SOL    HW128613   2.479   0.535   6.504 -0.5534 -1.9309 -0.5584
 5660SOL    HW228614   2.538   0.409   6.550 -3.4877  0.7949  0.4019
 5661SOL     OW28615   4.508   1.318  10.725 -0.2024 -0.1035  0.2033
 5661SOL    HW128616   4.592   1.274  10.711 -0.9793 -1.8890  1.0715
 5661SOL    HW228617   4.515   1.334  10.819  0.5398  3.9931 -0.5611
 5662SOL     OW28618   0.927   0.452   7.383  0.8033  0.3535 -0.5819
 5662SOL    HW128619   0.834   0.431   7.391  1.0728  0.3580  2.3337
 5662SOL    HW228620   0.956   0.399   7.309 -0.5632 -0.3840 -0.5885
 5663SOL     OW28621   1.195   3.848   2.788  0.0419 -0.2250  0.1523
 5663SOL    HW128622   1.218   3.910   2.719 -1.0214 -1.6425 -1.4452
 5663SOL    HW228623   1.227   3.894   2.866  1.1545 -0.5035 -0.1379
 5664SOL     OW28624   4.515   0.724   9.387  0.7654 -0.3732 -0.2734
 5664SOL    HW128625   4.534   0.710   9.480  0.5685  0.9974 -0.0328
 5664SOL    HW228626   4.599   0.753   9.352  0.2229  0.3329 -0.9894
 5665SOL     OW28627   2.857   2.711  15.169 -0.0289  0.7520  0.2059
 5665SOL    HW128628   2.788   2.688  15.232  1.1953 -2.3079  0.4127
 5665SOL    HW228629   2.931   2.684  15.224 -0.5023 -1.6350 -0.3475
 5666SOL     OW28630   1.383   4.370   8.490  0.0926 -0.8750 -0.1005
 5666SOL    HW128631   1.304   4.399   8.535 -0.0991  1.1676 -1.7472
 5666SOL    HW228632   1.447   4.430   8.529  1.3975 -1.5167 -1.2342
 5667SOL     OW28633   3.663   1.759   4.647  0.2787 -0.0659  0.0636
 5667SOL    HW128634   3.618   1.685   4.687 -1.5857 -0.5878 -3.0130
 5667SOL    HW228635   3.704   1.805   4.720  3.7625 -2.7715 -0.1719
 5668SOL     OW28636   3.905   0.183   2.543 -0.7273 -0.1496 -0.2979
 5668SOL    HW128637   3.848   0.246   2.500 -0.5654  1.0676  1.2524
 5668SOL    HW228638   3.844   0.114   2.570 -3.3779  0.4834 -4.6546
 5669SOL     OW28639   0.018   2.904   6.166 -0.4802 -0.1775 -0.0281
 5669SOL    HW128640   4.684   2.870   6.114 -1.6215  2.0028  0.1313
 5669SOL    HW228641   0.045   2.819   6.198 -1.1123 -0.3689  0.0009
 5670SOL     OW28642   3.862   0.499   4.833  0.0474  0.1455  0.0765
 5670SOL    HW128643   3.814   0.501   4.750  0.1986  0.7598  0.0047
 5670SOL    HW228644   3.918   0.422   4.821  0.7219  0.5015  0.9499
 5671SOL     OW28645   2.180   0.379  11.654 -0.2040 -0.2681  0.3600
 5671SOL    HW128646   2.169   0.324  11.732  0.9948  0.6655  1.2027
 5671SOL    HW228647   2.167   0.309  11.590 -1.7018  0.0966  0.2676
 5672SOL     OW28648   2.105   3.878  10.810  0.0202  0.6717  0.2436
 5672SOL    HW128649   2.092   3.811  10.744  0.5597  0.3057  0.5080
 5672SOL    HW228650   2.099   3.828  10.892 -0.8311 -0.4759 -0.5185
 5673SOL     OW28651   1.904   1.613  11.048 -0.6178  0.1510  0.4883
 5673SOL    HW128652   1.918   1.696  11.093 -1.2605  0.0415  0.8970
 5673SOL    HW228653   1.994   1.589  11.026 -1.4544 -2.1397 -0.4507
 5674SOL     OW28654   1.618   3.933  11.619  0.1158  0.3453 -0.1139
 5674SOL    HW128655   1.682   3.899  11.557  0.3269 -1.0449  0.8649
 5674SOL    HW228656   1.535   3.925  11.571  0.6450  0.9775 -1.1280
 5675SOL     OW28657   4.722   1.179   7.425  0.4282 -0.9529  0.7837
 5675SOL    HW128658   4.722   1.191   7.330  1.2651 -0.3162  0.8655
 5675SOL    HW228659   4.663   1.105   7.442 -1.2103 -0.2848 -1.8647
 5676SOL     OW28660   1.832   1.492   2.167  0.5022  0.5291 -0.5929
 5676SOL    HW128661   1.880   1.523   2.244  1.4774  0.0573 -1.0091
 5676SOL    HW228662   1.795   1.573   2.133  1.8973  1.2791 -0.3311
 5677SOL     OW28663   1.945   2.356   4.975  0.3463 -0.1023 -0.0525
 5677SOL    HW128664   1.963   2.266   4.946 -1.5588 -0.8385  1.0716
 5677SOL    HW228665   1.960   2.404   4.894  1.3842 -0.0674  0.1535
 5678SOL     OW28666   1.841   1.413   8.195  0.6533  0.2272 -0.0295
 5678SOL    HW128667   1.835   1.412   8.100 -1.9112 -1.3990  0.1479
 5678SOL    HW228668   1.885   1.332   8.220  3.7965  0.8154 -3.6700
 5679SOL     OW28669   2.921   0.164   0.782 -0.3096 -0.1725 -0.1341
 5679SOL    HW128670   3.016   0.153   0.788 -0.5039 -1.9895 -0.5923
 5679SOL    HW228671   2.889   0.134   0.867 -0.0233  0.7978  0.3206
 5680SOL     OW28672   4.577   2.456  16.263 -0.5343 -0.3019  0.0220
 5680SOL    HW128673   4.652   2.452  16.323  0.4504  0.5981 -1.1505
 5680SOL    HW228674   4.595   2.398  16.189  0.1299 -2.3750  1.7852
 5681SOL     OW28675   4.490   4.524   8.194 -0.0422 -0.3052 -0.3287
 5681SOL    HW128676   4.556   4.505   8.261 -0.7683  1.9875  1.0388
 5681SOL    HW228677   4.425   4.560   8.254 -0.9446 -1.1453 -0.8086
 5682SOL     OW28678   0.753   0.602   3.229  0.1337  0.3788 -0.0632
 5682SOL    HW128679   0.762   0.696   3.241 -0.7314  0.2872  1.2213
 5682SOL    HW228680   0.832   0.570   3.272  0.9218  0.0745 -1.7035
 5683SOL     OW28681   0.553   0.301   2.852 -0.2664  0.8199  0.1765
 5683SOL    HW128682   0.509   0.384   2.834  0.9500  1.1025 -1.4780
 5683SOL    HW228683   0.477   0.242   2.859 -0.4695  1.1003  0.3486
 5684SOL     OW28684   1.160   2.390   6.738 -0.0149 -0.1387  0.4573
 5684SOL    HW128685   1.100   2.343   6.796 -2.4579  0.1448 -1.8459
 5684SOL    HW228686   1.139   2.357   6.651  3.1929  2.1798 -1.2068
 5685SOL     OW28687   4.005   2.900   5.628  0.2460  0.0960 -0.0906
 5685SOL    HW128688   3.996   2.897   5.723  1.2528  1.6138  0.0562
 5685SOL    HW228689   4.067   2.831   5.605 -0.3843  0.2072 -2.1543
 5686SOL     OW28690   2.548   2.951  17.232 -0.3937  0.2133  0.0551
 5686SOL    HW128691   2.600   2.918  17.306  0.9569  2.1209 -0.0650
 5686SOL    HW228692   2.462   2.912  17.244 -0.9226  0.5638 -2.5575
 5687SOL     OW28693   1.328   3.952   1.461  0.0102 -0.4599  0.8602
 5687SOL    HW128694   1.282   4.008   1.523 -1.4817 -0.0232 -0.6465
 5687SOL    HW228695   1.260   3.901   1.416  0.0493 -0.2260  0.5324
 5688SOL     OW28696   2.941   4.288   4.434  0.2294 -0.5219 -0.0730
 5688SOL    HW128697   2.930   4.273   4.340 -0.3809  0.1744 -0.1140
 5688SOL    HW228698   2.949   4.383   4.434 -3.2555 -0.2176  2.4697
 5689SOL     OW28699   4.470   4.144   2.395 -0.5847 -0.3625  0.1657
 5689SOL    HW128700   4.428   4.122   2.479 -2.1653  1.1267 -0.2400
 5689SOL    HW228701   4.430   4.227   2.370 -0.1570 -0.3176 -0.3547
 5690SOL     OW28702   3.320   2.318   9.585 -0.1534 -0.2336  0.1066
 5690SOL    HW128703   3.316   2.372   9.664  1.9065 -2.8151  1.9831
 5690SOL    HW228704   3.336   2.391   9.525  1.4791  0.2971  1.2058
 5691SOL     OW28705   2.487   1.276   9.251  0.2013  0.5000  0.0479
 5691SOL    HW128706   2.566   1.289   9.303 -0.5427  0.0594  1.2876
 5691SOL    HW228707   2.428   1.237   9.316 -0.2185 -0.5163 -0.9397
 5692SOL     OW28708   3.664   1.174   6.585 -0.4898 -0.1005  0.1861
 5692SOL    HW128709   3.633   1.095   6.541  1.9561 -1.4724  0.9104
 5692SOL    HW228710   3.751   1.167   6.546 -0.3053  2.0437  0.2081
 5693SOL     OW28711   0.187   4.096  14.050  0.6959 -0.0115  0.0783
 5693SOL    HW128712   0.223   4.184  14.060 -1.8174  1.0436 -0.0192
 5693SOL    HW228713   0.269   4.047  14.059  1.3198  0.6897 -1.7013
 5694SOL     OW28714   2.276   3.395  15.981  0.1056 -0.0476  0.1329
 5694SOL    HW128715   2.279   3.425  16.071 -1.0642  1.3945 -0.3193
 5694SOL    HW228716   2.291   3.478  15.936 -0.1671 -0.0657  0.0094
 5695SOL     OW28717   3.621   0.828   7.641 -0.0033 -0.4197 -0.3185
 5695SOL    HW128718   3.610   0.865   7.554  2.1317 -1.0441 -0.8492
 5695SOL    HW228719   3.533   0.827   7.680  0.5001  2.8541  0.8556
 5696SOL     OW28720   4.593   0.328   9.339 -0.8638 -0.1915  0.5649
 5696SOL    HW128721   4.646   0.389   9.288  0.0080 -2.7749 -1.6100
 5696SOL    HW228722   4.663   0.275   9.378  0.8470 -0.2656 -2.6019
 5697SOL     OW28723   4.622   3.265  16.116 -0.7355  0.6677 -0.8273
 5697SOL    HW128724   4.603   3.322  16.042 -0.7940  0.0819 -1.2613
 5697SOL    HW228725   4.664   3.190  16.074  0.8926 -0.2435  2.4342
 5698SOL     OW28726   4.710   2.467  11.853 -0.1286  1.0400 -0.4623
 5698SOL    HW128727   4.734   2.375  11.863 -1.3007  0.5511 -2.0745
 5698SOL    HW228728   4.642   2.460  11.785 -1.1928  0.5813  0.6480
 5699SOL     OW28729   2.102   1.329   6.282  0.3480 -0.0655 -0.0520
 5699SOL    HW128730   2.100   1.298   6.191 -1.6435 -0.1719  0.0190
 5699SOL    HW228731   2.014   1.340   6.319  0.7484  1.8773  0.3053
 5700SOL     OW28732   0.324   3.860   1.690  0.6411  0.2322  0.3971
 5700SOL    HW128733   0.377   3.906   1.755  0.7305  1.0009 -0.2156
 5700SOL    HW228734   0.383   3.809   1.635  1.4581  0.2157  1.2926
 5701SOL     OW28735   3.677   1.430   9.355 -0.2581 -0.1543 -0.2295
 5701SOL    HW128736   3.715   1.517   9.346  2.0526 -1.1565 -0.2763
 5701SOL    HW228737   3.599   1.449   9.406  0.7183  0.6307  0.9934
 5702SOL     OW28738   3.961   3.682  15.737 -0.4717  0.8322  0.4850
 5702SOL    HW128739   3.872   3.708  15.758 -0.4192 -0.2637  2.0831
 5702SOL    HW228740   3.989   3.626  15.809 -0.2915  1.4263  0.8780
 5703SOL     OW28741   1.667   1.204   0.979 -0.2339  0.2114 -0.1850
 5703SOL    HW128742   1.641   1.260   1.053 -1.1212  1.9036 -1.7954
 5703SOL    HW228743   1.757   1.200   1.011 -0.3691  0.5383  0.2432
 5704SOL     OW28744   3.305   3.170   8.596 -0.0121 -0.5732  0.2106
 5704SOL    HW128745   3.284   3.263   8.609 -1.2307 -0.5766 -1.7010
 5704SOL    HW228746   3.393   3.189   8.628 -0.7922  2.5510  0.5635
 5705SOL     OW28747   3.011   2.620   6.496 -0.2506 -0.3358 -0.9139
 5705SOL    HW128748   3.095   2.595   6.457  0.1020 -0.8223  0.1550
 5705SOL    HW228749   3.017   2.607   6.591 -0.8523  2.1745 -0.5303
 5706SOL     OW28750   3.256   0.065  14.143 -0.0995  0.2290  0.4104
 5706SOL    HW128751   3.161   0.063  14.132 -0.1103 -1.7046  0.8390
 5706SOL    HW228752   3.280   0.092  14.055 -1.5635  1.2775  0.3383
 5707SOL     OW28753   2.564   3.951   1.211 -0.4339 -0.1125 -0.2899
 5707SOL    HW128754   2.554   3.923   1.302 -1.4704  0.5449 -0.1981
 5707SOL    HW228755   2.614   3.879   1.173 -0.5365  0.5087 -1.5952
 5708SOL     OW28756   0.998   0.803  16.861  0.6186 -0.5486 -0.2181
 5708SOL    HW128757   1.029   0.726  16.909 -0.9408 -1.4813 -0.7096
 5708SOL    HW228758   0.907   0.776  16.853  0.4575  0.1975 -0.8885
 5709SOL     OW28759   1.960   1.868   7.440  0.1772 -0.0741 -0.3265
 5709SOL    HW128760   1.950   1.779   7.475  1.0118 -0.2803 -0.6237
 5709SOL    HW228761   2.055   1.867   7.437  0.2595 -0.3846  2.1902
 5710SOL     OW28762   0.984   2.776   8.511  0.4020 -0.2215  0.0575
 5710SOL    HW128763   0.904   2.801   8.464 -0.7667 -0.5451  1.8957
 5710SOL    HW228764   1.047   2.819   8.453  0.7701  2.2936  2.3105
 5711SOL     OW28765   2.361   0.317  13.099  0.0174 -0.0302  0.6768
 5711SOL    HW128766   2.444   0.271  13.117  1.0859  1.2832 -0.8695
 5711SOL    HW228767   2.375   0.390  13.158  0.8156  1.0448 -0.8455
 5712SOL     OW28768   1.816   1.149   8.562  0.0503 -0.4505 -0.2660
 5712SOL    HW128769   1.853   1.188   8.642 -0.1982 -0.0152 -0.3637
 5712SOL    HW228770   1.867   1.068   8.565 -0.6137 -0.8450  0.5164
 5713SOL     OW28771   1.356   0.336   0.465  0.3799  0.0886 -0.1377
 5713SOL    HW128772   1.376   0.421   0.502 -3.1185  0.0678  1.7524
 5713SOL    HW228773   1.442   0.297   0.448  1.7664  1.4069  4.0453
 5714SOL     OW28774   3.510   3.572   0.423 -0.5350  0.0368 -0.1188
 5714SOL    HW128775   3.463   3.578   0.340 -1.0303  1.3304  0.2540
 5714SOL    HW228776   3.447   3.620   0.476  1.0809 -0.1758  2.0180
 5715SOL     OW28777   3.234   2.656   2.704  0.0287  0.0259  0.0273
 5715SOL    HW128778   3.159   2.679   2.649 -1.0308  1.2286  1.9282
 5715SOL    HW228779   3.261   2.569   2.678  0.1123  0.3643 -1.0024
 5716SOL     OW28780   1.109   1.411   7.774 -0.0779  0.0945 -0.0461
 5716SOL    HW128781   1.021   1.417   7.813 -0.1213  0.3138 -0.1771
 5716SOL    HW228782   1.160   1.447   7.847  1.4439 -0.9277 -0.6005
 5717SOL     OW28783   4.059   4.595   3.014 -0.3007  0.1759  0.1805
 5717SOL    HW128784   4.102   4.512   2.994 -2.1713 -1.0686  1.3818
 5717SOL    HW228785   4.056   4.601   3.109 -1.4324 -0.0617  0.1639
 5718SOL     OW28786   2.753   0.714  12.702  0.3039 -0.1913 -0.1320
 5718SOL    HW128787   2.676   0.668  12.736 -0.0350  0.5402  0.1062
 5718SOL    HW228788   2.714   0.781  12.645 -1.1487 -0.4545  0.5455
 5719SOL     OW28789   3.524   2.528   6.087  0.0469  0.0983  0.1353
 5719SOL    HW128790   3.455   2.520   6.021  0.9424 -0.0434 -0.7893
 5719SOL    HW228791   3.566   2.443   6.078  0.7181  0.4392  0.0448
 5720SOL     OW28792   2.615   0.425  16.538 -0.3892  0.2782  0.2620
 5720SOL    HW128793   2.645   0.505  16.495 -1.9661  0.3184 -0.7763
 5720SOL    HW228794   2.533   0.460  16.573 -0.0190  1.1596  0.2460
 5721SOL     OW28795   1.721   0.609  17.275  0.4665 -0.1965 -0.1511
 5721SOL    HW128796   1.814   0.589  17.262  1.0676  2.0343  0.8010
 5721SOL    HW228797   1.710   0.596  17.369  1.3559 -1.0277 -0.1600
 5722SOL     OW28798   1.586   4.362   4.900 -0.3291  0.0656 -0.4599
 5722SOL    HW128799   1.551   4.445   4.932  1.0151  0.3088  0.4021
 5722SOL    HW228800   1.681   4.372   4.913 -0.5361  1.2650  0.0835
 5723SOL     OW28801   3.050   2.366  14.877  0.7048  0.0408  0.0920
 5723SOL    HW128802   3.139   2.373  14.912  1.4820  0.4255 -1.9879
 5723SOL    HW228803   3.041   2.444  14.823  0.7721  2.1605  3.1034
 5724SOL     OW28804   3.511   3.654   9.289 -0.0688 -0.1076  0.1397
 5724SOL    HW128805   3.594   3.695   9.266 -0.1117 -1.2767 -2.0761
 5724SOL    HW228806   3.474   3.637   9.202 -0.7565  0.8552  0.2445
 5725SOL     OW28807   4.560   1.356   2.091 -0.1481  0.4082  0.0519
 5725SOL    HW128808   4.557   1.434   2.036  0.8226  1.1138  1.0119
 5725SOL    HW228809   4.634   1.369   2.150 -0.2452  0.1468  0.2297
 5726SOL     OW28810   4.062   0.404  10.908  0.1309  0.0305 -0.2405
 5726SOL    HW128811   4.013   0.337  10.860  0.0700  0.1585 -0.3535
 5726SOL    HW228812   4.098   0.460  10.839 -0.1129 -0.7992 -1.0382
 5727SOL     OW28813   0.569   3.415   9.265 -0.0971 -0.4165 -0.1463
 5727SOL    HW128814   0.517   3.336   9.254  1.6528 -1.8544  1.8292
 5727SOL    HW228815   0.555   3.430   9.359  2.1632 -0.3651  0.1769
 5728SOL     OW28816   3.999   2.903   5.073 -0.2916  0.0570  0.4091
 5728SOL    HW128817   4.034   2.922   5.160 -0.5496 -2.1440  0.9835
 5728SOL    HW228818   4.083   2.914   5.028 -0.1804 -1.8813  0.1628
 5729SOL     OW28819   3.331   0.235   5.557  0.0551 -0.7302 -0.3635
 5729SOL    HW128820   3.337   0.297   5.484  1.4849 -1.0236 -0.4850
 5729SOL    HW228821   3.378   0.287   5.622  0.5581 -1.4067 -0.1772
 5730SOL     OW28822   1.698   3.501   5.860  0.2987 -0.1368 -0.0181
 5730SOL    HW128823   1.790   3.484   5.838 -0.2528 -2.9340 -0.0409
 5730SOL    HW228824   1.638   3.462   5.797  0.8318  2.1144 -1.9433
 5731SOL     OW28825   3.594   2.237  17.695  0.3148  0.1240  0.1265
 5731SOL    HW128826   3.508   2.196  17.686 -0.8848  2.2817  1.7576
 5731SOL    HW228827   3.588   2.322  17.739 -0.5382  0.5174 -0.7507
 5732SOL     OW28828   2.107   2.301  15.669  0.1808 -0.3556  0.0009
 5732SOL    HW128829   2.056   2.224  15.694 -1.6767  0.7830 -0.2990
 5732SOL    HW228830   2.183   2.289  15.725  1.1959 -2.3178 -1.8108
 5733SOL     OW28831   1.173   4.119   5.908 -0.0592 -0.4316 -0.2260
 5733SOL    HW128832   1.105   4.108   5.974 -0.7565 -3.5007 -1.4447
 5733SOL    HW228833   1.164   4.212   5.890  0.0921 -0.7166 -1.7891
 5734SOL     OW28834   1.754   3.246   3.544  0.0839  0.0963 -0.3481
 5734SOL    HW128835   1.803   3.210   3.470  0.9442 -0.4336  0.4725
 5734SOL    HW228836   1.713   3.328   3.516 -0.7454  0.3933  1.7895
 5735SOL     OW28837   0.911   2.414   1.333 -0.1972 -0.7041 -0.5163
 5735SOL    HW128838   0.941   2.503   1.318 -0.0683 -0.5217  0.8773
 5735SOL    HW228839   0.816   2.429   1.327 -0.2007 -0.7364 -0.5434
 5736SOL     OW28840   2.622   0.054  10.542  0.7952  0.1455  0.0744
 5736SOL    HW128841   2.599   0.033  10.633  0.1763  1.7858  0.2856
 5736SOL    HW228842   2.532   0.078  10.518  1.1145 -0.2139 -1.5253
 5737SOL     OW28843   4.691   0.008  15.153  0.1422  0.3781 -0.4103
 5737SOL    HW128844   0.004   4.703  15.087  1.0296  0.2116  0.4017
 5737SOL    HW228845   0.005   4.727  15.230  0.6509  0.8882 -0.6282
 5738SOL     OW28846   3.287   1.861  16.367 -0.3016 -0.2720  0.1002
 5738SOL    HW128847   3.203   1.860  16.320 -1.6332  2.3793  2.4182
 5738SOL    HW228848   3.309   1.953  16.351 -0.5040 -0.1458  0.5442
 5739SOL     OW28849   2.656   3.842   7.959  0.6757 -0.2940  0.3486
 5739SOL    HW128850   2.615   3.833   7.873 -0.4872  2.2746  0.6406
 5739SOL    HW228851   2.736   3.795   7.936  0.9570  0.3483  0.0168
 5740SOL     OW28852   2.165   4.598   5.758 -0.6063  0.0369  0.0720
 5740SOL    HW128853   2.225   4.526   5.738  0.0357  0.5234  0.2618
 5740SOL    HW228854   2.102   4.555   5.816 -0.3572 -0.2750  0.1123
 5741SOL     OW28855   0.789   2.136   6.148 -0.1867  0.8993 -0.8944
 5741SOL    HW128856   0.858   2.117   6.084 -0.7114 -1.1162 -0.8831
 5741SOL    HW228857   0.840   2.159   6.226  1.2750 -0.8806 -1.3192
 5742SOL     OW28858   1.473   2.119   9.678  0.0279  0.3275 -0.6232
 5742SOL    HW128859   1.429   2.055   9.734 -0.9243  1.7974  0.2967
 5742SOL    HW228860   1.565   2.098   9.694 -0.2697  0.4897  1.3372
 5743SOL     OW28861   1.465   2.332  16.393 -0.5627  0.2186 -0.2620
 5743SOL    HW128862   1.408   2.392  16.442  1.6347  0.9784  1.3767
 5743SOL    HW228863   1.545   2.380  16.415  0.6426 -1.6777 -0.5592
 5744SOL     OW28864   0.788   3.864   7.927  0.0275  0.5610  0.5068
 5744SOL    HW128865   0.813   3.820   8.008 -1.9177 -0.1661  0.7264
 5744SOL    HW228866   0.857   3.835   7.867  1.4434  1.2978  1.7898
 5745SOL     OW28867   0.465   1.306   4.097 -0.1144  0.7282  0.2729
 5745SOL    HW128868   0.536   1.359   4.131  0.2589  1.2410 -1.3345
 5745SOL    HW228869   0.465   1.224   4.147 -0.8907 -1.0084 -2.5696
 5746SOL     OW28870   3.183   4.508   5.861 -0.2225  0.1605  0.2702
 5746SOL    HW128871   3.145   4.570   5.799 -1.0227  0.0704  0.6751
 5746SOL    HW228872   3.246   4.562   5.909 -2.2939  0.9607  2.0644
 5747SOL     OW28873   1.726   4.586   4.113  0.8811 -0.1470  0.5113
 5747SOL    HW128874   1.722   4.597   4.018 -0.4442 -3.3911  0.1994
 5747SOL    HW228875   1.644   4.540   4.128  0.4053 -0.5697 -3.4432
 5748SOL     OW28876   0.047   4.605   4.586  0.3443 -0.1546  0.0800
 5748SOL    HW128877   4.720   4.566   4.643 -0.3125 -3.4485 -2.9833
 5748SOL    HW228878   0.049   4.545   4.511  0.5776 -0.4124  0.2904
 5749SOL     OW28879   0.107   2.014   6.255 -0.2840 -0.4666 -0.2975
 5749SOL    HW128880   0.030   2.065   6.280 -0.8323 -1.5328  0.2201
 5749SOL    HW228881   0.077   1.995   6.166  0.3192  2.5844 -1.1303
 5750SOL     OW28882   1.039   2.212   5.217 -0.3828 -0.6695 -0.2469
 5750SOL    HW128883   1.117   2.264   5.203  0.2883 -1.8848 -1.0606
 5750SOL    HW228884   0.989   2.259   5.284 -0.7306 -0.6768 -0.4981
 5751SOL     OW28885   3.138   2.980   5.668 -0.1550  0.4945  0.2096
 5751SOL    HW128886   3.187   2.918   5.614 -1.4533  0.0306 -0.4360
 5751SOL    HW228887   3.102   2.934   5.744  0.4687  0.7299  0.6489
 5752SOL     OW28888   3.476   2.986   6.237  0.3526  0.3658  0.1261
 5752SOL    HW128889   3.534   3.022   6.305  0.4472 -0.2150  0.3558
 5752SOL    HW228890   3.426   3.063   6.210 -0.6964  0.1778  1.5253
 5753SOL     OW28891   4.199   1.216  13.435 -0.1895 -0.3711  0.0582
 5753SOL    HW128892   4.248   1.285  13.390 -0.5314 -1.6790 -2.2843
 5753SOL    HW228893   4.198   1.244  13.527  2.6130  2.5671 -0.7954
 5754SOL     OW28894   0.826   0.575  15.368 -0.0695  0.1241  0.0107
 5754SOL    HW128895   0.843   0.481  15.367  0.7228  0.2319  2.8600
 5754SOL    HW228896   0.898   0.605  15.312  1.1451 -2.6081  0.1325
 5755SOL     OW28897   3.618   0.340   8.887 -0.0957  0.1104  0.3353
 5755SOL    HW128898   3.700   0.327   8.935  1.2084 -1.6365 -2.3526
 5755SOL    HW228899   3.556   0.361   8.957  1.8562  1.3748  1.6842
 5756SOL     OW28900   1.267   1.213  15.342  0.3438 -0.2848 -0.7239
 5756SOL    HW128901   1.316   1.134  15.363 -1.2697 -1.3673 -1.0738
 5756SOL    HW228902   1.306   1.281  15.398  3.3079 -2.0008 -0.7301
 5757SOL     OW28903   1.857   2.810  11.113  0.5651  0.1114 -0.4412
 5757SOL    HW128904   1.840   2.750  11.185 -1.3872  2.1565  0.8228
 5757SOL    HW228905   1.857   2.898  11.151  2.3939  0.1604 -0.5598
 5758SOL     OW28906   4.366   0.774   4.043  0.8959 -0.2922  0.9711
 5758SOL    HW128907   4.357   0.869   4.053  0.0722 -0.0989 -1.5661
 5758SOL    HW228908   4.432   0.754   4.109  1.0479  0.6954  1.1309
 5759SOL     OW28909   4.267   0.121   3.316  0.3591 -0.0894  0.0349
 5759SOL    HW128910   4.230   0.154   3.235  0.2302 -0.7301 -0.1714
 5759SOL    HW228911   4.353   0.091   3.286 -0.2764 -0.9295 -0.9534
 5760SOL     OW28912   4.580   3.566   4.527 -0.1169 -0.2817  0.3722
 5760SOL    HW128913   4.558   3.607   4.611 -3.6585 -0.5884 -0.4002
 5760SOL    HW228914   4.555   3.474   4.533  2.2275 -0.8760  0.9750
 5761SOL     OW28915   0.993   4.474   0.619  0.0337 -0.1603 -0.2887
 5761SOL    HW128916   0.999   4.426   0.536 -1.6682  1.2928 -1.2480
 5761SOL    HW228917   0.919   4.423   0.650  0.8136 -2.2380 -1.8159
 5762SOL     OW28918   4.399   3.105   4.762 -0.1522 -0.5417  0.1524
 5762SOL    HW128919   4.450   3.028   4.789  0.5173 -0.2604 -0.2878
 5762SOL    HW228920   4.465   3.131   4.697 -0.2237 -2.8429 -0.8394
 5763SOL     OW28921   1.872   0.529   7.322 -0.2773 -0.4505  0.1350
 5763SOL    HW128922   1.862   0.605   7.264  3.3251 -0.1852 -0.1787
 5763SOL    HW228923   1.965   0.535   7.346  0.0891  0.9330 -1.6054
 5764SOL     OW28924   4.254   2.262   9.612  0.3818 -0.2173 -0.2237
 5764SOL    HW128925   4.316   2.253   9.685  0.3469 -0.2543 -0.1982
 5764SOL    HW228926   4.181   2.211   9.648 -1.2638  2.1221 -0.2507
 5765SOL     OW28927   3.281   2.155   5.936 -0.0610 -0.1734 -0.1105
 5765SOL    HW128928   3.242   2.239   5.911  0.2291  0.2584  0.8691
 5765SOL    HW228929   3.350   2.166   5.870  0.5847  0.0011  0.5855
 5766SOL     OW28930   1.874   0.236   4.618 -0.2922  0.0552  0.5757
 5766SOL    HW128931   1.789   0.240   4.662 -1.1264  1.7785 -1.2541
 5766SOL    HW228932   1.886   0.141   4.614 -1.7104 -0.0569 -0.8948
 5767SOL     OW28933   4.336   1.673   7.527  0.0551 -0.1501 -0.3319
 5767SOL    HW128934   4.404   1.606   7.525 -0.1732 -0.4479  1.4824
 5767SOL    HW228935   4.303   1.662   7.616 -2.6662  1.4494 -1.1520
 5768SOL     OW28936   4.587   1.243  16.345  0.4928 -0.0683  0.4980
 5768SOL    HW128937   4.604   1.294  16.266  0.8944 -3.0870 -1.3817
 5768SOL    HW228938   4.535   1.174  16.303 -2.1943  1.6958  0.9597
 5769SOL     OW28939   0.117   2.746   2.165  0.2511  0.1736  0.0944
 5769SOL    HW128940   0.135   2.724   2.073  0.4934 -0.1662  0.2240
 5769SOL    HW228941   0.125   2.842   2.163  1.5216  0.0889  1.3436
 5770SOL     OW28942   2.647   0.535  10.161  0.7185 -0.2530  0.7714
 5770SOL    HW128943   2.619   0.575  10.243 -0.7114 -1.5048  0.9004
 5770SOL    HW228944   2.734   0.500  10.184  0.3836 -0.9339  1.0047
 5771SOL     OW28945   1.184   0.932   8.945  0.1342  0.6036  0.1700
 5771SOL    HW128946   1.180   0.996   9.015  0.8587 -0.0818  0.8410
 5771SOL    HW228947   1.237   0.976   8.879  0.8345 -0.8432 -0.2433
 5772SOL     OW28948   2.303   4.547   3.746 -0.2047  0.6370 -0.3446
 5772SOL    HW128949   2.294   4.452   3.742  5.4431  0.1892 -2.1054
 5772SOL    HW228950   2.392   4.546   3.780 -1.1799  0.5992  2.1796
 5773SOL     OW28951   1.074   0.587   4.607  0.0531  0.5183  0.5886
 5773SOL    HW128952   1.102   0.607   4.517 -0.4375 -2.4541 -0.2375
 5773SOL    HW228953   1.007   0.521   4.587  1.4925 -0.8163  0.2592
 5774SOL     OW28954   2.905   1.195   7.439 -0.1982 -0.3623 -0.1771
 5774SOL    HW128955   2.839   1.189   7.369 -1.4353 -0.6814  0.9959
 5774SOL    HW228956   2.970   1.247   7.392  0.2308  0.1972  1.0314
 5775SOL     OW28957   0.223   4.702   0.004 -0.0090  0.9795 -0.2345
 5775SOL    HW128958   0.265   0.049   0.004 -0.6474  1.2816  0.5503
 5775SOL    HW228959   0.237   4.693  17.666 -0.3710 -1.6257 -0.0488
 5776SOL     OW28960   2.158   2.364   1.650  0.4650  0.1645  0.5061
 5776SOL    HW128961   2.163   2.365   1.746  0.2188  1.3865  0.5032
 5776SOL    HW228962   2.081   2.313   1.625  1.4378 -0.3530 -1.4693
 5777SOL     OW28963   0.292   2.938   8.459 -0.1877 -0.1002 -0.2514
 5777SOL    HW128964   0.378   2.953   8.419 -0.8675  0.9731 -1.3125
 5777SOL    HW228965   0.306   2.974   8.546  0.5832 -1.4107  0.1605
 5778SOL     OW28966   2.026   2.740   7.419 -0.2362 -0.7709 -0.3548
 5778SOL    HW128967   2.052   2.801   7.351 -0.8236  0.2683  0.3463
 5778SOL    HW228968   1.932   2.749   7.406 -0.3760  0.2011  1.3350
 5779SOL     OW28969   3.287   4.227   3.266  0.2594  0.3653 -0.3910
 5779SOL    HW128970   3.251   4.237   3.354 -1.0112  2.3871 -1.1395
 5779SOL    HW228971   3.287   4.132   3.256  0.0422  0.3902 -0.6138
 5780SOL     OW28972   4.647   2.925  16.305 -0.1157  0.2032 -0.4628
 5780SOL    HW128973   4.580   2.990  16.285  0.4135  0.8930  0.0373
 5780SOL    HW228974   4.679   2.946  16.392  0.2443  0.5664 -0.6838
 5781SOL     OW28975   0.382   3.985   4.991 -0.7158 -0.7199 -0.3716
 5781SOL    HW128976   0.406   4.072   5.024  1.5862 -0.7210 -2.0567
 5781SOL    HW228977   0.440   3.987   4.915 -1.4671 -0.2825 -0.9366
 5782SOL     OW28978   0.708   1.937   8.455 -0.1451 -0.4284  0.1629
 5782SOL    HW128979   0.763   1.915   8.380 -2.1838 -1.0921 -1.1384
 5782SOL    HW228980   0.752   2.009   8.500  1.4917 -0.7211 -1.0011
 5783SOL     OW28981   3.085   1.279   5.114  0.0833 -0.2822  0.1287
 5783SOL    HW128982   3.053   1.369   5.123  0.0018 -0.3054  0.0721
 5783SOL    HW228983   3.076   1.236   5.199  1.1892 -0.3026  0.2339
 5784SOL     OW28984   3.063   4.526  12.262  0.4833 -0.1463  0.6081
 5784SOL    HW128985   3.000   4.586  12.223 -1.5925 -2.5392  0.2799
 5784SOL    HW228986   3.023   4.520  12.349 -2.6615 -0.3079 -0.8676
 5785SOL     OW28987   3.030   1.871   7.276  0.0608 -0.3737 -0.4658
 5785SOL    HW128988   3.035   1.820   7.195  0.4376  1.0078 -1.2995
 5785SOL    HW228989   3.065   1.821   7.350  0.8824 -0.8372 -1.1568
 5786SOL     OW28990   3.811   0.410   4.185  0.0094  0.4478 -0.2898
 5786SOL    HW128991   3.841   0.373   4.101  0.3173 -2.0663  0.9261
 5786SOL    HW228992   3.888   0.390   4.238 -1.4940 -0.6860  1.4607
 5787SOL     OW28993   1.872   1.399   7.928  0.3764  0.2460  0.1669
 5787SOL    HW128994   1.964   1.374   7.931  0.9997  2.4060 -1.3983
 5787SOL    HW228995   1.845   1.354   7.848 -1.7882  1.6541  0.1152
 5788SOL     OW28996   1.844   1.999   4.005 -0.0807  0.1164  0.2686
 5788SOL    HW128997   1.796   2.082   4.011 -2.6514 -1.4543  1.4431
 5788SOL    HW228998   1.805   1.966   3.924 -1.7101  0.4956  0.8877
 5789SOL     OW28999   1.383   4.170   1.691  0.0347 -0.2298  0.1726
 5789SOL    HW129000   1.415   4.189   1.779  0.2242  0.1022  0.0314
 5789SOL    HW229001   1.435   4.092   1.669  1.7069  1.4437 -1.7982
 5790SOL     OW29002   3.694   0.521  11.454  0.3690  0.0087  0.1251
 5790SOL    HW129003   3.752   0.457  11.413  1.8920  0.3405  1.7719
 5790SOL    HW229004   3.756   0.594  11.458  0.6702 -0.2307 -0.2966
 5791SOL     OW29005   4.504   3.904   4.118 -0.7481  0.2918  0.3689
 5791SOL    HW129006   4.595   3.876   4.108 -1.4784 -1.7858 -0.4440
 5791SOL    HW229007   4.513   3.999   4.128 -0.0505  0.3436 -0.7043
 5792SOL     OW29008   1.191   1.495   2.632  0.3722 -0.0832 -0.0252
 5792SOL    HW129009   1.158   1.429   2.570  0.7950 -1.2622  1.0196
 5792SOL    HW229010   1.251   1.439   2.682  0.1808  0.0646  0.3633
 5793SOL     OW29011   1.920   4.206  11.527  0.5267  0.4033  0.3476
 5793SOL    HW129012   1.938   4.210  11.621  1.6769  0.7895  0.1190
 5793SOL    HW229013   1.986   4.147  11.491  0.5390  0.1147  0.8447
 5794SOL     OW29014   2.839   2.647   5.077  0.3398 -0.2069 -0.4152
 5794SOL    HW129015   2.913   2.662   5.135  0.0287 -1.3663  0.2810
 5794SOL    HW229016   2.800   2.572   5.122 -2.3719 -0.7391 -3.6255
 5795SOL     OW29017   4.051   0.793   5.491 -0.4539  0.2661 -0.2670
 5795SOL    HW129018   4.126   0.819   5.544 -1.8593  1.1076  1.3175
 5795SOL    HW229019   4.039   0.876   5.445 -0.6479  0.2113 -0.3181
 5796SOL     OW29020   2.344   2.425   9.135 -0.2596 -0.6640 -0.4356
 5796SOL    HW129021   2.377   2.514   9.126  1.2936 -1.1249  0.6895
 5796SOL    HW229022   2.412   2.382   9.187 -0.1265 -0.4276 -0.4156
 5797SOL     OW29023   2.235   1.689   6.321 -0.2633  0.1698 -0.2105
 5797SOL    HW129024   2.324   1.717   6.299  0.5000 -1.1448  1.2288
 5797SOL    HW229025   2.211   1.646   6.238  0.5135 -3.3025  1.3344
 5798SOL     OW29026   1.821   3.165  14.946 -0.3084 -0.0026  0.1256
 5798SOL    HW129027   1.855   3.180  15.034 -1.2580 -0.9030  0.6422
 5798SOL    HW229028   1.885   3.224  14.905  0.3984  0.0768  1.3545
 5799SOL     OW29029   2.614   3.840   6.181  0.0315  0.2488  0.2093
 5799SOL    HW129030   2.603   3.863   6.089 -1.5605 -1.8497 -0.1317
 5799SOL    HW229031   2.639   3.748   6.173 -1.0602 -0.0596  0.3819
 5800SOL     OW29032   0.447   1.806  11.517  0.4919 -0.2851 -0.6599
 5800SOL    HW129033   0.382   1.792  11.586 -1.5047  0.3390 -2.4222
 5800SOL    HW229034   0.527   1.797  11.568  0.0373 -0.7290 -0.0280
 5801SOL     OW29035   1.152   0.840   7.616 -0.1943  0.1314 -0.2156
 5801SOL    HW129036   1.118   0.900   7.682  0.6048  1.6966 -1.2470
 5801SOL    HW229037   1.083   0.777   7.593 -0.2154  0.1791 -0.2825
 5802SOL     OW29038   1.880   1.104   3.817  0.3217  0.3041 -0.2482
 5802SOL    HW129039   1.793   1.113   3.857  0.9797 -0.9068  1.4519
 5802SOL    HW229040   1.919   1.145   3.893  1.1153  1.0367 -1.0503
 5803SOL     OW29041   4.025   2.580   2.836  0.3958 -0.2717 -0.5898
 5803SOL    HW129042   4.110   2.609   2.869  0.9728 -2.9295  0.2313
 5803SOL    HW229043   4.038   2.485   2.837 -1.8337 -0.5748  0.9681
 5804SOL     OW29044   4.138   4.394   6.884  0.0322  0.4798 -0.5025
 5804SOL    HW129045   4.144   4.303   6.853 -2.9179  0.3033 -0.5200
 5804SOL    HW229046   4.059   4.391   6.937 -0.8631 -1.4003 -1.9428
 5805SOL     OW29047   1.816   4.189   0.589 -0.3139  0.2948  0.3384
 5805SOL    HW129048   1.866   4.235   0.656  1.1174  0.5208 -0.8920
 5805SOL    HW229049   1.790   4.254   0.525  2.3688 -0.0862 -1.1407
 5806SOL     OW29050   0.898   0.013   0.550 -0.4221 -0.4136  0.5986
 5806SOL    HW129051   0.936   4.665   0.553  0.5872  0.0048  0.0221
 5806SOL    HW229052   0.967   0.068   0.586  0.8908 -1.1975 -0.7052
 5807SOL     OW29053   4.006   0.123  10.394 -0.0323 -0.0299 -0.1141
 5807SOL    HW129054   4.065   0.051  10.371 -1.6089 -0.9020 -1.4381
 5807SOL    HW229055   3.984   0.157  10.307 -0.0654 -0.0027 -0.0952
 5808SOL     OW29056   0.727   3.196   2.632  0.3416 -0.3837 -0.4547
 5808SOL    HW129057   0.719   3.273   2.576 -2.4164  0.4551  1.0792
 5808SOL    HW229058   0.822   3.206   2.640  0.3099  0.7796 -1.5747
 5809SOL     OW29059   3.152   0.755   8.416  0.0302 -0.0125 -0.4055
 5809SOL    HW129060   3.236   0.739   8.459  0.0234 -2.5393 -1.3076
 5809SOL    HW229061   3.101   0.752   8.497  0.1732 -2.0845 -0.3854
 5810SOL     OW29062   2.678   2.621  15.367  0.5495 -0.3247  0.2714
 5810SOL    HW129063   2.595   2.585  15.337 -0.4384  0.8226  1.6431
 5810SOL    HW229064   2.648   2.672  15.442 -0.3666 -1.5474  0.7187
 5811SOL     OW29065   1.436   1.578   9.351  0.0340 -0.2069  0.2394
 5811SOL    HW129066   1.445   1.640   9.279 -1.0666  1.5604  1.6085
 5811SOL    HW229067   1.422   1.632   9.429  0.6549 -1.0302  0.9119
 5812SOL     OW29068   3.236   1.885   3.024 -0.0452 -0.0243  0.3091
 5812SOL    HW129069   3.240   1.798   3.064  0.4292  1.1724  2.8307
 5812SOL    HW229070   3.320   1.912   3.060 -0.0886 -0.3391  0.6476
 5813SOL     OW29071   4.505   3.258   5.556  0.4746  0.1417 -0.0551
 5813SOL    HW129072   4.472   3.323   5.618  1.7614  0.0770  0.6880
 5813SOL    HW229073   4.592   3.248   5.596  0.1011  0.5175  0.8464
 5814SOL     OW29074   3.750   2.318   6.997  0.2776  0.1932  0.2112
 5814SOL    HW129075   3.719   2.320   6.907  2.0639 -0.2458 -0.4022
 5814SOL    HW229076   3.713   2.238   7.034  2.2476 -0.1147  1.5420
 5815SOL     OW29077   2.606   4.737  15.848  0.0902 -0.1701  0.5542
 5815SOL    HW129078   2.632   0.074  15.900  2.4558 -1.0372  0.6172
 5815SOL    HW229079   2.515   0.021  15.830  1.1203  1.1243 -2.9536
 5816SOL     OW29080   1.418   1.810   7.069 -0.8232  0.8276 -0.0177
 5816SOL    HW129081   1.365   1.865   7.128  0.1212 -1.5788  3.0399
 5816SOL    HW229082   1.509   1.823   7.094 -0.3351 -1.8209 -0.4496
 5817SOL     OW29083   1.925   4.093  10.785  0.1307 -0.4447  0.3496
 5817SOL    HW129084   1.984   4.017  10.781  0.1510 -0.4516  0.8543
 5817SOL    HW229085   1.864   4.066  10.716 -0.4186 -0.6913  0.9406
 5818SOL     OW29086   3.396   1.433   1.994 -0.2242  0.0285 -0.3836
 5818SOL    HW129087   3.457   1.436   2.068  1.7580  0.5064 -2.0472
 5818SOL    HW229088   3.406   1.519   1.954  0.1290  1.0032  1.7879
 5819SOL     OW29089   1.659   1.868   7.158  0.5222  0.4223 -0.3375
 5819SOL    HW129090   1.737   1.864   7.102  0.6135  0.1467 -0.1926
 5819SOL    HW229091   1.662   1.781   7.199  1.0444  0.5344 -0.1286
 5820SOL     OW29092   4.265   3.817  12.366  0.3985 -0.8631  0.1576
 5820SOL    HW129093   4.220   3.900  12.381  1.1565 -0.8560  2.2723
 5820SOL    HW229094   4.346   3.819  12.416 -0.9572  0.5794  2.3160
 5821SOL     OW29095   3.086   3.452   6.076 -0.0774  0.0585 -0.1183
 5821SOL    HW129096   2.992   3.439   6.085  0.2086 -1.6547  0.3236
 5821SOL    HW229097   3.084   3.539   6.035 -0.4013 -0.0065 -0.2394
 5822SOL     OW29098   1.163   2.887   8.306  0.4531  0.3634  0.0120
 5822SOL    HW129099   1.133   2.894   8.215 -0.2454  0.5487  0.2603
 5822SOL    HW229100   1.182   2.976   8.336 -2.4672  1.4858 -1.4786
 5823SOL     OW29101   3.204   4.044   5.024 -0.1584 -0.2715  0.3127
 5823SOL    HW129102   3.143   4.006   4.960 -0.0153 -0.2812  0.1813
 5823SOL    HW229103   3.227   4.131   4.991 -1.2980 -0.0520  0.1115
 5824SOL     OW29104   1.348   3.831   7.203 -0.0704 -0.4379 -0.1101
 5824SOL    HW129105   1.294   3.889   7.256  1.8827 -0.1978  1.6130
 5824SOL    HW229106   1.378   3.895   7.138 -0.9344  0.9651  0.8647
 5825SOL     OW29107   2.305   4.673  13.716  0.1790 -0.4374  0.3574
 5825SOL    HW129108   2.362   4.726  13.659 -0.7399 -0.6519 -0.7579
 5825SOL    HW229109   2.327   4.582  13.695 -0.3541  0.1818 -2.9347
 5826SOL     OW29110   4.346   0.720   2.696 -0.0999  0.5590  0.1213
 5826SOL    HW129111   4.375   0.786   2.633  0.5204  0.1323 -0.0475
 5826SOL    HW229112   4.274   0.766   2.739 -0.2802  0.9554 -0.6091
 5827SOL     OW29113   0.134   2.471   3.432  0.6095 -0.8112 -0.3265
 5827SOL    HW129114   0.207   2.446   3.376  1.6117 -0.9744  1.0377
 5827SOL    HW229115   0.106   2.559   3.408  0.3109  0.3916  4.4409
 5828SOL     OW29116   3.314   0.462   4.523 -0.1210 -1.1845  0.1250
 5828SOL    HW129117   3.383   0.503   4.575 -1.7809 -0.5548  1.8370
 5828SOL    HW229118   3.350   0.480   4.436  1.9701 -2.0488  0.8128
 5829SOL     OW29119   1.887   2.158   9.059 -0.2967  0.1470  0.7418
 5829SOL    HW129120   1.807   2.206   9.083 -0.3877  0.7394 -0.6852
 5829SOL    HW229121   1.953   2.227   9.058  3.1294 -3.1877 -1.6841
 5830SOL     OW29122   2.855   2.271   3.507  0.1850  0.3250 -0.4904
 5830SOL    HW129123   2.866   2.325   3.428 -1.2157 -0.7209 -1.4052
 5830SOL    HW229124   2.761   2.286   3.508 -0.0940 -1.1902 -2.7221
 5831SOL     OW29125   4.716   3.394  10.810 -0.0943  0.2006  0.3417
 5831SOL    HW129126   4.673   3.308  10.815  2.2236 -0.9359  0.6036
 5831SOL    HW229127   4.670   3.431  10.735  1.1337  1.1686  0.0653
 5832SOL     OW29128   1.049   3.688   0.815 -0.8111 -0.5778 -0.3065
 5832SOL    HW129129   1.094   3.702   0.898  0.5937  2.2898 -1.5495
 5832SOL    HW229130   1.112   3.743   0.767 -1.5496 -0.5289 -1.2266
 5833SOL     OW29131   0.332   2.739   7.846  0.1951 -0.1362  0.2456
 5833SOL    HW129132   0.244   2.741   7.884  0.5351  0.5089  0.9812
 5833SOL    HW229133   0.355   2.830   7.860 -0.3191  0.0649 -0.1754
 5834SOL     OW29134   1.653   2.106   8.637  0.4751 -0.1869 -0.1208
 5834SOL    HW129135   1.666   2.016   8.667  0.5617  0.6571  2.4061
 5834SOL    HW229136   1.728   2.143   8.683  1.1171 -0.2885 -1.1036
 5835SOL     OW29137   1.272   3.385   6.537 -0.1387 -0.0919 -0.0237
 5835SOL    HW129138   1.203   3.450   6.541  0.8133  0.9789 -0.9539
 5835SOL    HW229139   1.331   3.432   6.477 -0.1101  1.9351  1.6017
 5836SOL     OW29140   1.989   2.614   1.764 -0.0096  0.0515  0.2441
 5836SOL    HW129141   1.994   2.636   1.671  1.3876 -1.7271 -0.1104
 5836SOL    HW229142   2.035   2.530   1.767  0.0754 -0.0183 -3.2006
 5837SOL     OW29143   3.430   1.648   8.122 -0.6312 -0.0047  0.7821
 5837SOL    HW129144   3.469   1.675   8.205  0.5454 -0.3151  0.3236
 5837SOL    HW229145   3.382   1.569   8.147 -0.7273  0.5699  2.4004
 5838SOL     OW29146   0.013   2.531   9.512 -0.0311 -0.7520 -0.7257
 5838SOL    HW129147   4.708   2.525   9.596  2.8763  1.2615  0.9739
 5838SOL    HW229148   4.685   2.528   9.445  1.7928  1.8980 -2.7055
 5839SOL     OW29149   0.764   3.058   3.022 -0.3707 -0.1985 -0.5333
 5839SOL    HW129150   0.800   3.128   2.968 -0.6555  1.6360  1.6473
 5839SOL    HW229151   0.685   3.098   3.058 -1.3320 -1.0461 -1.6916
 5840SOL     OW29152   1.052   3.086  14.479 -0.5307  0.3932  0.2588
 5840SOL    HW129153   0.971   3.093  14.429  1.2386 -0.9938 -2.8482
 5840SOL    HW229154   1.040   3.160  14.539  0.6309  1.8334 -1.2911
 5841SOL     OW29155   1.220   1.016   5.410 -0.6576 -0.3818 -0.2720
 5841SOL    HW129156   1.272   1.003   5.331  0.3758 -1.7063  0.6209
 5841SOL    HW229157   1.168   1.084   5.366  0.9526  0.7385 -0.4499
 5842SOL     OW29158   1.818   0.009  12.087 -0.3479  0.2128  0.0326
 5842SOL    HW129159   1.865   4.700  12.155  2.5376 -0.3952 -2.4542
 5842SOL    HW229160   1.733   4.706  12.100 -0.5694  0.1778 -1.5454
 5843SOL     OW29161   1.775   1.279   6.091 -0.1825 -0.4237 -0.0392
 5843SOL    HW129162   1.858   1.248   6.056 -0.1600 -1.4406  0.8876
 5843SOL    HW229163   1.799   1.370   6.106 -1.6851  0.0578 -0.5462
 5844SOL     OW29164   1.394   1.018  15.612 -0.0942 -0.6049 -0.0280
 5844SOL    HW129165   1.428   0.965  15.684 -0.2180  0.1133  0.5543
 5844SOL    HW229166   1.418   0.954  15.544 -0.9330 -1.3093  0.3509
 5845SOL     OW29167   3.654   1.137   9.463 -0.6229  0.3592 -0.1623
 5845SOL    HW129168   3.635   1.054   9.420  0.0456 -1.2396  2.5984
 5845SOL    HW229169   3.671   1.196   9.390 -0.1696 -1.7453 -1.7464
 5846SOL     OW29170   1.769   3.405   1.845 -0.4061 -0.4777  0.1209
 5846SOL    HW129171   1.677   3.407   1.818  0.3269  0.6530 -2.2734
 5846SOL    HW229172   1.806   3.327   1.805  0.0540  0.5942 -1.5665
 5847SOL     OW29173   1.560   3.478   3.228 -0.5813 -0.4770 -0.1844
 5847SOL    HW129174   1.610   3.493   3.308  2.0165 -3.3661 -1.2391
 5847SOL    HW229175   1.580   3.562   3.186  1.2258 -0.9125 -0.2008
 5848SOL     OW29176   2.362   0.710   3.218  0.5549 -0.2841  0.2202
 5848SOL    HW129177   2.453   0.738   3.205  0.1849  1.0651  0.5000
 5848SOL    HW229178   2.358   0.688   3.311  1.9614  0.3214  0.4304
 5849SOL     OW29179   2.618   4.634  13.827  0.4274  0.1868  0.3337
 5849SOL    HW129180   2.567   4.560  13.796  0.7748 -0.2954  0.9220
 5849SOL    HW229181   2.591   4.703  13.766  1.4646 -0.2375 -0.6078
 5850SOL     OW29182   2.792   1.394   6.429  0.1165 -0.1957  0.2801
 5850SOL    HW129183   2.876   1.435   6.450  0.9956 -1.1038 -1.4725
 5850SOL    HW229184   2.780   1.420   6.338  1.3693 -3.5911 -0.8518
 5851SOL     OW29185   3.446   0.613  13.131  0.6217  0.2005 -0.0778
 5851SOL    HW129186   3.396   0.655  13.201  2.1972 -0.6132  1.5628
 5851SOL    HW229187   3.518   0.577  13.183  2.4305  0.8042 -2.2100
 5852SOL     OW29188   1.023   2.965   2.761 -0.0304  0.0207  0.0883
 5852SOL    HW129189   1.111   2.988   2.789 -0.9162  1.8100  1.3946
 5852SOL    HW229190   0.981   3.052   2.757 -0.6174 -0.2217  1.1329
 5853SOL     OW29191   1.169   1.872   6.639  0.4456 -0.2006 -0.2437
 5853SOL    HW129192   1.198   1.841   6.725 -1.8129  1.2119  1.0041
 5853SOL    HW229193   1.121   1.795   6.608 -0.3484  0.8242 -1.5286
 5854SOL     OW29194   2.702   1.129   3.584  0.4264  0.0607 -0.0791
 5854SOL    HW129195   2.668   1.208   3.542 -0.7578 -0.0938  0.5920
 5854SOL    HW229196   2.735   1.157   3.669 -1.5844  0.3418  0.6149
 5855SOL     OW29197   0.281   3.047   3.325  0.5233  0.2930 -0.2062
 5855SOL    HW129198   0.374   3.044   3.348  0.0417 -0.8498  1.5820
 5855SOL    HW229199   0.246   3.053   3.413  1.3947 -1.5306  0.2637
 5856SOL     OW29200   3.703   4.707   3.036  0.2727 -0.2176  0.0492
 5856SOL    HW129201   3.655   0.006   3.109 -0.1630 -0.9682  0.1594
 5856SOL    HW229202   3.725   4.623   3.077  0.8431  0.6990  1.6106
 5857SOL     OW29203   3.297   3.610   1.834 -0.3800  0.3389 -0.7341
 5857SOL    HW129204   3.305   3.522   1.873 -0.0691  0.4328 -0.5877
 5857SOL    HW229205   3.346   3.591   1.754 -0.7390  0.7530 -1.0478
 5858SOL     OW29206   1.888   0.278   1.638 -0.1646  0.5058 -0.1277
 5858SOL    HW129207   1.856   0.329   1.563  3.0419  1.2248 -1.0195
 5858SOL    HW229208   1.950   0.343   1.671  2.1864 -0.9695 -1.6457
 5859SOL     OW29209   3.749   2.191   4.915 -0.3968  0.4714 -0.5234
 5859SOL    HW129210   3.660   2.199   4.882 -0.0725  1.8585 -1.0329
 5859SOL    HW229211   3.757   2.271   4.967 -1.2908 -0.4967  1.1070
 5860SOL     OW29212   3.343   0.301   8.597  0.0227  0.5352  0.7558
 5860SOL    HW129213   3.318   0.382   8.642  1.6379  0.4081  1.8605
 5860SOL    HW229214   3.259   0.259   8.575  1.2021  0.4481 -3.5914
 5861SOL     OW29215   0.024   3.867   1.771 -0.2961  0.6838 -0.1656
 5861SOL    HW129216   0.019   3.779   1.807 -1.0965  0.1985 -1.4627
 5861SOL    HW229217   0.116   3.877   1.747 -0.4525  0.0048 -1.0544
 5862SOL     OW29218   3.784   4.043   1.671  0.1349  0.3579  0.0815
 5862SOL    HW129219   3.858   4.028   1.611  0.7128 -0.4595  0.9871
 5862SOL    HW229220   3.722   4.077   1.607 -1.0439 -2.2502 -0.1697
 5863SOL     OW29221   1.099   2.410  14.197  0.2735 -0.2951  0.0660
 5863SOL    HW129222   1.084   2.475  14.265  0.8232 -0.9382  0.8089
 5863SOL    HW229223   1.194   2.395  14.203  0.4288  0.7353  0.0741
 5864SOL     OW29224   4.094   3.970   8.915 -0.1014 -0.1045  0.6622
 5864SOL    HW129225   4.126   4.048   8.959  0.1161 -2.2202  4.2371
 5864SOL    HW229226   4.176   3.921   8.904 -0.4531 -1.5571  4.4379
 5865SOL     OW29227   0.274   2.572   6.225  0.0400  0.3396  0.6806
 5865SOL    HW129228   0.256   2.563   6.132 -0.1261 -1.4861  0.8876
 5865SOL    HW229229   0.190   2.602   6.260 -0.4649  1.2735 -1.3543
 5866SOL     OW29230   2.724   3.216   8.115 -0.3211 -0.6682  0.1471
 5866SOL    HW129231   2.691   3.299   8.079 -1.9396 -2.3721 -2.2784
 5866SOL    HW229232   2.817   3.216   8.092 -0.6065 -2.0701 -1.0169
 5867SOL     OW29233   3.903   4.013  13.843 -0.3762  0.0225 -0.0096
 5867SOL    HW129234   3.914   4.035  13.751  0.1214  1.1393  0.3129
 5867SOL    HW229235   3.931   3.922  13.848  1.1009  0.6729  3.7421
 5868SOL     OW29236   1.310   2.941   3.106 -1.0417  0.4991  0.2892
 5868SOL    HW129237   1.284   2.955   3.197  0.3600 -0.7705  0.8866
 5868SOL    HW229238   1.237   2.884   3.081  1.4390 -1.5917 -2.1028
 5869SOL     OW29239   1.803   2.578   6.191  0.4217 -0.0354 -0.3395
 5869SOL    HW129240   1.727   2.551   6.243  0.4866 -1.4624 -0.9865
 5869SOL    HW229241   1.768   2.566   6.103  1.4407  0.2978 -0.7882
 5870SOL     OW29242   2.226   0.995   3.652 -0.0107 -0.3500 -0.5454
 5870SOL    HW129243   2.296   0.930   3.659 -0.6709 -0.9190  0.7129
 5870SOL    HW229244   2.258   1.050   3.580 -1.8057  1.1520 -0.1695
 5871SOL     OW29245   0.454   2.420  12.108 -0.3728 -0.4976  0.0564
 5871SOL    HW129246   0.390   2.482  12.074 -0.0290  0.5008  1.2720
 5871SOL    HW229247   0.525   2.407  12.045 -0.3893 -0.4317  0.0238
 5872SOL     OW29248   1.425   3.108  16.681 -0.1906 -0.2373  0.0055
 5872SOL    HW129249   1.378   3.186  16.713 -0.5478  0.1274 -1.3922
 5872SOL    HW229250   1.507   3.148  16.650 -0.0840 -1.0497 -0.7506
 5873SOL     OW29251   1.218   1.165   9.108  0.1060 -0.0471 -0.0960
 5873SOL    HW129252   1.312   1.146   9.100  0.0479 -1.4457  2.7184
 5873SOL    HW229253   1.220   1.238   9.169  0.2034 -0.3253  0.2343
 5874SOL     OW29254   2.331   0.029   6.230 -0.0967 -0.3099 -0.2346
 5874SOL    HW129255   2.376   0.113   6.221  0.1961 -0.3981  0.4214
 5874SOL    HW229256   2.297   0.020   6.141 -1.1796  1.4949 -0.0112
 5875SOL     OW29257   1.390   0.100   2.302 -0.0620 -0.4425  0.2102
 5875SOL    HW129258   1.298   0.118   2.281 -0.0473 -1.8453 -1.0323
 5875SOL    HW229259   1.392   0.017   2.350  1.7093 -0.4061  0.2011
 5876SOL     OW29260   1.698   0.113   5.640  0.4470 -0.5893 -1.0888
 5876SOL    HW129261   1.684   0.198   5.682 -2.3893 -2.3033  1.4035
 5876SOL    HW229262   1.783   0.082   5.672 -0.2877  2.2062  3.6836
 5877SOL     OW29263   3.759   0.856   9.874 -0.0285 -0.0411 -0.0039
 5877SOL    HW129264   3.732   0.938   9.834 -0.6133  0.3149  1.1177
 5877SOL    HW229265   3.789   0.876   9.963 -2.5536  2.2346  0.3513
 5878SOL     OW29266   1.190   2.177   2.723 -0.2896  0.5452  0.3132
 5878SOL    HW129267   1.160   2.264   2.749 -0.6649  0.7977 -0.9580
 5878SOL    HW229268   1.279   2.198   2.696  0.6842 -0.8514  2.3627
 5879SOL     OW29269   1.672   2.686  12.825  0.1510  0.5248  0.0660
 5879SOL    HW129270   1.752   2.685  12.878 -0.5572  0.4642  1.1305
 5879SOL    HW229271   1.606   2.704  12.892  0.3266 -1.8344  0.8958
 5880SOL     OW29272   2.787   0.005   1.420  0.5743 -0.3359  0.5204
 5880SOL    HW129273   2.724   4.696   1.368  1.0642  0.2807 -0.6405
 5880SOL    HW229274   2.863   4.715   1.369  2.1696  2.4059  1.2954
 5881SOL     OW29275   4.299   0.636   0.762  0.8893 -0.6540 -0.6177
 5881SOL    HW129276   4.273   0.549   0.734 -0.9878 -0.9531  2.1056
 5881SOL    HW229277   4.395   0.627   0.763  0.9808  0.1051 -2.1849
 5882SOL     OW29278   1.179   2.310   3.866 -0.4298 -0.3695  0.3407
 5882SOL    HW129279   1.229   2.255   3.927  0.4506  0.7371  0.6252
 5882SOL    HW229280   1.165   2.388   3.919  1.0940 -0.7963  1.3676
 5883SOL     OW29281   1.824   1.911   6.541 -0.1835  0.1403 -0.7857
 5883SOL    HW129282   1.783   1.827   6.521 -0.9419  0.1887  0.5966
 5883SOL    HW229283   1.886   1.916   6.468  1.1475 -2.9359  0.1128
 5884SOL     OW29284   0.875   2.172   7.363 -0.1961 -1.0325 -0.0240
 5884SOL    HW129285   0.894   2.239   7.428 -1.8323  0.3450 -0.9400
 5884SOL    HW229286   0.900   2.090   7.406 -2.4224 -2.4420 -1.4185
 5885SOL     OW29287   0.943   1.084   3.224  0.8521 -0.4719 -0.1097
 5885SOL    HW129288   0.936   1.151   3.293 -0.4262 -1.8260  1.0721
 5885SOL    HW229289   0.990   1.136   3.158  0.2771 -1.7389 -1.4952
 5886SOL     OW29290   3.742   2.341   3.661  0.5249  0.0990 -0.3966
 5886SOL    HW129291   3.834   2.318   3.649  0.2423 -0.5514 -1.2804
 5886SOL    HW229292   3.708   2.343   3.572 -2.0080 -3.0497  0.5021
 5887SOL     OW29293   0.611   2.693   5.408  0.0632  0.1762 -0.8148
 5887SOL    HW129294   0.531   2.708   5.357  0.2676  0.6454 -0.9975
 5887SOL    HW229295   0.573   2.657   5.488  1.6018 -0.1682 -0.2392
 5888SOL     OW29296   1.699   1.175   9.145  0.1880  0.1052  0.0242
 5888SOL    HW129297   1.781   1.196   9.189  0.5511  1.8263 -1.4544
 5888SOL    HW229298   1.735   1.162   9.057  0.1358 -0.7884  0.1374
 5889SOL     OW29299   4.203   4.023   4.154 -0.2250  0.4527 -0.2937
 5889SOL    HW129300   4.202   4.065   4.239  1.5745  1.0459 -0.5555
 5889SOL    HW229301   4.298   4.010   4.152 -0.2693  0.1088 -0.0757
 5890SOL     OW29302   3.083   1.336   7.331 -0.0233  0.0955  0.0409
 5890SOL    HW129303   3.163   1.389   7.334  0.5179 -0.7993  1.2818
 5890SOL    HW229304   3.028   1.394   7.279 -1.5276 -0.5523  0.9362
 5891SOL     OW29305   0.958   4.405  13.098 -0.3808  0.2269  0.1076
 5891SOL    HW129306   0.891   4.454  13.145 -0.9916  0.0461 -0.5645
 5891SOL    HW229307   0.961   4.328  13.155 -1.1025 -1.0489 -1.5736
 5892SOL     OW29308   1.538   2.315   5.048 -0.3991 -0.2116 -0.3409
 5892SOL    HW129309   1.566   2.404   5.068  1.0452 -1.2355  2.0662
 5892SOL    HW229310   1.575   2.309   4.960 -0.6515 -1.1286 -0.3878
 5893SOL     OW29311   3.878   1.520   6.375  0.5319  0.1033 -0.8000
 5893SOL    HW129312   3.836   1.557   6.452  0.3959  1.0976 -1.3393
 5893SOL    HW229313   3.965   1.554   6.399  0.9620 -1.5154 -0.0988
 5894SOL     OW29314   2.792   3.648  12.584  0.1818  0.1853 -0.6201
 5894SOL    HW129315   2.855   3.671  12.653  1.0099  0.8343 -1.5929
 5894SOL    HW229316   2.837   3.570  12.552 -0.8339  0.5360 -2.9043
 5895SOL     OW29317   1.691   4.354   9.845  0.1353  0.3744 -0.2385
 5895SOL    HW129318   1.753   4.356   9.917 -1.3666 -0.1097  1.0633
 5895SOL    HW229319   1.617   4.398   9.887 -1.9337 -1.5035 -1.9181
 5896SOL     OW29320   1.936   0.078   5.788  0.1811  0.2766 -0.5707
 5896SOL    HW129321   1.968   0.163   5.817  2.8085 -0.4452 -1.3409
 5896SOL    HW229322   2.015   0.057   5.738  1.6593  0.7273  1.5985
 5897SOL     OW29323   4.582   4.527  12.234 -0.4474  0.2293 -0.2123
 5897SOL    HW129324   4.637   4.452  12.210 -0.1580  0.9602 -1.8564
 5897SOL    HW229325   4.505   4.481  12.267 -0.0274 -2.0157 -2.3138
 5898SOL     OW29326   2.597   2.351   3.421  0.4050  0.7097  0.8114
 5898SOL    HW129327   2.669   2.380   3.366  0.8387  1.4843  1.7924
 5898SOL    HW229328   2.549   2.434   3.423  1.2514  1.2133  0.1134
 5899SOL     OW29329   0.297   3.235   7.934  0.4076  0.0286 -0.0142
 5899SOL    HW129330   0.212   3.220   7.894  0.2125  2.8542 -0.6431
 5899SOL    HW229331   0.341   3.306   7.887  2.8251 -1.4443 -0.0239
 5900SOL     OW29332   1.802   1.583   2.649  0.0444 -0.1855 -0.2787
 5900SOL    HW129333   1.713   1.584   2.614  0.8635  1.1096 -2.3314
 5900SOL    HW229334   1.789   1.520   2.719 -0.8800 -0.2147 -0.4861
 5901SOL     OW29335   4.210   2.355   0.785 -0.1733  0.0991  0.2983
 5901SOL    HW129336   4.207   2.396   0.871  1.7331 -2.4534  1.5973
 5901SOL    HW229337   4.256   2.415   0.726  0.9864 -2.1140 -1.0467
 5902SOL     OW29338   3.201   4.275   9.778 -0.1305  0.1174  0.6200
 5902SOL    HW129339   3.172   4.361   9.809 -0.7500 -0.6916  2.3120
 5902SOL    HW229340   3.225   4.314   9.694  1.0329 -1.0261  0.4258
 5903SOL     OW29341   3.369   3.048   8.361 -0.0729  0.2188 -0.5620
 5903SOL    HW129342   3.336   3.118   8.417 -1.3663  0.2817 -1.4091
 5903SOL    HW229343   3.293   3.051   8.303 -0.4641 -2.0136 -0.1573
 5904SOL     OW29344   4.669   0.999   9.870 -0.2204 -0.0247 -0.0727
 5904SOL    HW129345   4.712   0.951   9.799 -0.4195 -1.9424  1.1183
 5904SOL    HW229346   4.645   1.074   9.816 -1.6099 -0.4411 -0.0320
 5905SOL     OW29347   1.330   1.012   8.729 -0.4236  0.1349 -0.0088
 5905SOL    HW129348   1.268   1.068   8.684 -1.9024 -0.6066  1.1217
 5905SOL    HW229349   1.414   1.052   8.706 -0.7650  0.7048 -0.2361
 5906SOL     OW29350   0.458   3.737   6.815 -0.3300  0.2347 -0.1678
 5906SOL    HW129351   0.391   3.711   6.879  0.2691 -0.3885  0.2067
 5906SOL    HW229352   0.402   3.728   6.738 -0.6997 -0.0262  0.1296
 5907SOL     OW29353   0.163   3.783   2.129  0.5215 -0.0421  0.2919
 5907SOL    HW129354   0.217   3.834   2.189 -0.5119 -1.1751  2.1920
 5907SOL    HW229355   0.088   3.843   2.123 -0.6978 -1.8173 -2.3605
 5908SOL     OW29356   0.953   1.542   6.736  0.3902  0.0737  0.2683
 5908SOL    HW129357   0.925   1.625   6.773 -1.1105  0.9803 -2.8267
 5908SOL    HW229358   0.929   1.481   6.805  0.4172 -0.2464 -0.0027
 5909SOL     OW29359   3.590   3.013   8.837  0.1813  0.0794  1.0677
 5909SOL    HW129360   3.641   2.980   8.763  0.7118  0.2848  1.3347
 5909SOL    HW229361   3.518   2.950   8.834 -0.9959  1.3296  2.6494
 5910SOL     OW29362   2.368   3.051   6.557 -0.0988 -0.3383 -0.4243
 5910SOL    HW129363   2.385   2.975   6.501 -1.5233 -0.1090 -1.1611
 5910SOL    HW229364   2.320   3.011   6.629  2.0376 -1.9290  0.1219
 5911SOL     OW29365   1.405   0.429  15.167 -0.0592 -0.0039  0.1469
 5911SOL    HW129366   1.346   0.450  15.238 -1.1431  0.3170 -0.8508
 5911SOL    HW229367   1.388   0.337  15.144  1.9296 -0.2931 -0.2575
 5912SOL     OW29368   0.777   2.497   5.911  0.4847 -0.1178 -0.1985
 5912SOL    HW129369   0.732   2.464   5.989 -0.9042 -0.2611 -1.0442
 5912SOL    HW229370   0.700   2.504   5.853  1.3850 -0.8382 -1.4829
 5913SOL     OW29371   4.369   4.395   3.492  0.2577 -0.2978  0.6056
 5913SOL    HW129372   4.330   4.311   3.517  0.1668 -0.5815 -0.5216
 5913SOL    HW229373   4.434   4.364   3.430 -3.2636 -2.1658 -2.1531
 5914SOL     OW29374   1.842   1.427   7.382  0.0488 -0.2376 -0.3416
 5914SOL    HW129375   1.779   1.358   7.402 -0.9443  0.9682  0.6758
 5914SOL    HW229376   1.919   1.376   7.356  0.2839  0.7425 -1.5982
 5915SOL     OW29377   3.867   1.426   6.114 -0.3481 -0.0558 -0.8677
 5915SOL    HW129378   3.962   1.425   6.104 -0.2523 -0.5257  0.1610
 5915SOL    HW229379   3.860   1.449   6.206  1.7195 -2.7008 -0.0652
 5916SOL     OW29380   2.571   0.808   4.102 -0.8097 -0.1061 -0.5593
 5916SOL    HW129381   2.561   0.873   4.172 -3.1390 -0.2180 -0.7854
 5916SOL    HW229382   2.666   0.812   4.088 -0.7079 -0.5262 -0.0041
 5917SOL     OW29383   3.511   3.470   3.085  0.5026 -0.0518  0.4408
 5917SOL    HW129384   3.578   3.441   3.147 -0.1003 -0.0562  1.0905
 5917SOL    HW229385   3.546   3.553   3.053  1.8450 -0.1010  1.7648
 5918SOL     OW29386   1.860   3.495   8.114 -0.1792  0.2043 -0.5798
 5918SOL    HW129387   1.817   3.513   8.031 -0.6400  1.2630 -0.1096
 5918SOL    HW229388   1.842   3.401   8.117 -1.0000  0.3609 -0.7130
 5919SOL     OW29389   0.443   3.071   2.330  0.0158 -0.7999  0.2166
 5919SOL    HW129390   0.416   3.126   2.404 -0.4849  0.0071 -0.5589
 5919SOL    HW229391   0.449   2.986   2.373  1.2953 -0.3922  0.8405
 5920SOL     OW29392   1.042   4.497   8.374  0.0917 -0.3628 -0.4119
 5920SOL    HW129393   1.073   4.454   8.294  0.0648 -1.4389  0.1545
 5920SOL    HW229394   1.078   4.442   8.443 -0.6822  0.0218  0.2948
 5921SOL     OW29395   1.888   3.699   1.734  0.0926 -0.7894  0.3788
 5921SOL    HW129396   1.904   3.609   1.761 -0.5332 -0.5046  1.7094
 5921SOL    HW229397   1.980   3.722   1.727  0.4798 -1.8693  1.9408
 5922SOL     OW29398   0.537   2.916  14.724  0.7112 -0.3209 -0.2106
 5922SOL    HW129399   0.613   2.956  14.766  0.6309 -2.3192  1.7991
 5922SOL    HW229400   0.582   2.844  14.679 -1.7188 -2.2973  0.5437
 5923SOL     OW29401   1.375   3.011   5.235  0.0412 -0.3656 -0.5266
 5923SOL    HW129402   1.338   2.963   5.161 -0.0685 -2.2202  0.7221
 5923SOL    HW229403   1.357   2.961   5.315  2.6141 -0.7690 -0.2031
 5924SOL     OW29404   1.214   2.672   6.681  0.2076  0.4187 -0.0628
 5924SOL    HW129405   1.190   2.579   6.689  0.2906  0.5062  1.2070
 5924SOL    HW229406   1.214   2.696   6.589  0.4591 -1.4150 -0.5538
 5925SOL     OW29407   2.516   0.452   8.337 -0.4665  0.5260 -0.1594
 5925SOL    HW129408   2.471   0.536   8.336 -0.4323  0.5746  3.4121
 5925SOL    HW229409   2.455   0.393   8.380  1.4138 -0.1955  1.5200
 5926SOL     OW29410   4.441   4.527  15.773 -0.1763 -0.3354  0.0704
 5926SOL    HW129411   4.450   4.450  15.717 -0.0633 -0.5066  0.3235
 5926SOL    HW229412   4.424   4.477  15.853  0.9994 -0.0291  0.5038
 5927SOL     OW29413   0.741   0.611  11.797 -0.0312 -0.1013  0.0143
 5927SOL    HW129414   0.694   0.569  11.869  1.4114  0.2840  1.1731
 5927SOL    HW229415   0.781   0.537  11.752  2.8280  2.5555 -1.8451
 5928SOL     OW29416   2.448   3.346  15.068  0.2198 -0.3069 -0.2564
 5928SOL    HW129417   2.436   3.422  15.011  0.5170  1.0564  1.4854
 5928SOL    HW229418   2.492   3.373  15.149 -2.0603  1.7254  0.3011
 5929SOL     OW29419   4.239   1.973   2.218 -0.1281  0.4409 -0.5430
 5929SOL    HW129420   4.253   1.879   2.228  2.5090  0.8685 -0.3378
 5929SOL    HW229421   4.221   2.006   2.306 -3.5502 -1.6363 -0.4500
 5930SOL     OW29422   4.298   1.330   8.966  0.4919 -0.0128  0.8362
 5930SOL    HW129423   4.330   1.263   8.906 -1.2978 -0.2251  0.1402
 5930SOL    HW229424   4.208   1.333   8.935  0.5800 -1.0199  0.5026
 5931SOL     OW29425   3.451   2.971   0.582  0.3268 -0.0959  0.2639
 5931SOL    HW129426   3.376   2.919   0.612  0.7291  0.9179  3.0317
 5931SOL    HW229427   3.408   3.056   0.573  2.5682  1.1260  1.1562
 5932SOL     OW29428   0.965   2.522   9.462  0.3339 -0.3935 -0.4535
 5932SOL    HW129429   0.901   2.490   9.398 -1.9833 -1.2279  2.2649
 5932SOL    HW229430   1.049   2.491   9.428  0.8432  0.1804  0.2712
 5933SOL     OW29431   4.617   4.441   1.291  0.1214 -0.3411  0.0517
 5933SOL    HW129432   4.604   4.492   1.211 -0.9651 -2.7590 -1.3113
 5933SOL    HW229433   4.659   4.514   1.337  0.9725 -0.9228  0.1961
 5934SOL     OW29434   1.444   2.809  12.572  0.3085 -0.4736  0.3570
 5934SOL    HW129435   1.517   2.750  12.554 -0.1879 -0.9169 -0.2224
 5934SOL    HW229436   1.474   2.893  12.538 -3.0637  1.0283  1.0374
 5935SOL     OW29437   3.464   2.611   4.709  0.8371 -0.0523 -0.4774
 5935SOL    HW129438   3.420   2.609   4.794 -0.8844  0.1636 -1.3632
 5935SOL    HW229439   3.533   2.544   4.715 -0.5022 -1.5433 -1.8133
 5936SOL     OW29440   2.029   1.605   0.371  0.3037 -0.0047 -0.2299
 5936SOL    HW129441   1.971   1.598   0.295 -2.3064  0.5679  1.6839
 5936SOL    HW229442   2.032   1.517   0.407  1.6316 -0.2924 -1.0565
 5937SOL     OW29443   0.482   4.681   7.510 -0.1505  0.1796 -0.5504
 5937SOL    HW129444   0.393   4.670   7.478 -0.1961  1.0923 -0.7384
 5937SOL    HW229445   0.494   4.592   7.544  1.1461  0.2878 -0.7074
 5938SOL     OW29446   2.535   4.520   3.065 -0.2545 -0.2702 -0.0951
 5938SOL    HW129447   2.455   4.559   3.101 -0.2585 -2.1015  1.9282
 5938SOL    HW229448   2.568   4.476   3.144  0.4838 -0.5556 -0.5621
 5939SOL     OW29449   0.985   1.570   7.134  0.0493  0.1433 -0.6560
 5939SOL    HW129450   0.900   1.526   7.142  1.2440 -2.0601  0.0536
 5939SOL    HW229451   0.962   1.623   7.058  0.8758  1.7874  0.2422
 5940SOL     OW29452   2.397   0.173   2.413 -0.1989  0.0487 -0.1885
 5940SOL    HW129453   2.371   0.262   2.436  1.9488  0.0755  2.0842
 5940SOL    HW229454   2.317   0.122   2.399  0.4066 -0.9572  0.0475
 5941SOL     OW29455   3.573   4.197   6.909  0.1821  0.0830 -0.1568
 5941SOL    HW129456   3.591   4.209   7.002 -0.8864  0.8285 -0.0425
 5941SOL    HW229457   3.507   4.266   6.899  0.3065  0.2921  0.5102
 5942SOL     OW29458   2.868   4.221   5.556 -0.2787  0.5889  0.3389
 5942SOL    HW129459   2.787   4.206   5.508  0.7554  0.6018 -1.4018
 5942SOL    HW229460   2.935   4.188   5.497  0.7829 -0.0766  1.9130
 5943SOL     OW29461   0.445   2.094  14.242  0.3517  0.0068  0.2337
 5943SOL    HW129462   0.360   2.137  14.251  0.1560 -0.5376  0.9918
 5943SOL    HW229463   0.473   2.083  14.333  0.0565 -1.7907  0.0948
 5944SOL     OW29464   1.865   2.691  13.035  0.3421  0.3798 -0.4488
 5944SOL    HW129465   1.922   2.756  12.994 -0.0156 -0.6279 -2.5482
 5944SOL    HW229466   1.912   2.684  13.118  3.3280  0.6116 -2.1123
 5945SOL     OW29467   3.688   3.687   3.331  0.2993 -0.1162 -0.0585
 5945SOL    HW129468   3.665   3.778   3.317 -0.5537 -0.3780 -0.3886
 5945SOL    HW229469   3.619   3.671   3.395 -2.0394 -1.5834 -2.9163
 5946SOL     OW29470   3.356   2.250  14.885  0.1532  0.0506 -0.3129
 5946SOL    HW129471   3.321   2.283  14.968 -0.4002  0.6555 -0.7815
 5946SOL    HW229472   3.362   2.158  14.912 -0.6411  0.0254 -0.2258
 5947SOL     OW29473   4.547   1.503   7.067 -0.7291  0.0663 -0.1840
 5947SOL    HW129474   4.507   1.510   6.980 -0.9363 -1.5146 -0.2151
 5947SOL    HW229475   4.484   1.533   7.133  0.3945 -0.3356  1.0588
 5948SOL     OW29476   0.830   4.378   9.326 -0.3178  0.4415  0.2476
 5948SOL    HW129477   0.773   4.452   9.348 -1.7695 -1.1951  2.0276
 5948SOL    HW229478   0.894   4.413   9.264 -0.8879 -1.5696 -1.4721
 5949SOL     OW29479   0.262   3.326   3.875  0.5475 -0.4731 -0.5675
 5949SOL    HW129480   0.173   3.296   3.893  0.7117 -0.5447  0.0919
 5949SOL    HW229481   0.313   3.251   3.906  3.1726  1.4386 -0.3101
 5950SOL     OW29482   0.846   3.937   7.163 -0.2701  0.2706 -0.4215
 5950SOL    HW129483   0.802   3.946   7.248 -0.6047  1.1037 -0.6894
 5950SOL    HW229484   0.938   3.943   7.190  0.9594 -0.3325 -4.5665
 5951SOL     OW29485   4.064   1.986  14.452 -0.1715  0.3604  0.4793
 5951SOL    HW129486   4.044   1.993  14.358 -0.7864  0.8777  0.6489
 5951SOL    HW229487   4.067   2.080  14.469  1.8041  0.5551 -0.9084
 5952SOL     OW29488   2.851   4.569   5.578 -0.2537 -0.5683  0.1040
 5952SOL    HW129489   2.844   4.525   5.663 -0.3476 -0.3376  0.2155
 5952SOL    HW229490   2.813   4.501   5.523  2.6959 -1.5639 -0.6935
 5953SOL     OW29491   1.282   3.199  11.487 -0.0474  0.5183  0.3824
 5953SOL    HW129492   1.205   3.147  11.512  0.1430  0.2114  0.3352
 5953SOL    HW229493   1.351   3.175  11.548 -0.5444  0.7262  1.0200
 5954SOL     OW29494   3.024   1.809  14.761  0.4721 -0.2314 -0.5813
 5954SOL    HW129495   3.055   1.899  14.776  2.8452 -0.6834 -2.8664
 5954SOL    HW229496   3.098   1.769  14.715 -0.3508 -1.7102 -0.6031
 5955SOL     OW29497   4.216   3.724   8.425 -0.0768  0.9989 -0.1154
 5955SOL    HW129498   4.209   3.793   8.359 -1.6446  0.6676 -0.3047
 5955SOL    HW229499   4.289   3.670   8.393 -2.0524 -1.8419  0.1977
 5956SOL     OW29500   0.138   3.152   4.256  0.3419 -0.6637  0.3408
 5956SOL    HW129501   0.187   3.184   4.332  0.0372  0.2400  0.1469
 5956SOL    HW229502   0.095   3.232   4.228  2.1646  0.2244  0.0642
 5957SOL     OW29503   3.898   0.057  15.824 -0.7317 -0.0227 -0.3991
 5957SOL    HW129504   3.854   0.127  15.872 -2.1381 -0.5875 -0.8875
 5957SOL    HW229505   3.990   0.082  15.826 -0.0962 -2.1597 -1.8958
 5958SOL     OW29506   2.961   2.554  12.152  0.0208  0.1963  0.5348
 5958SOL    HW129507   2.876   2.510  12.149 -0.4723  1.2139 -0.3805
 5958SOL    HW229508   3.004   2.502  12.084  1.4497  0.4966  1.2133
 5959SOL     OW29509   3.247   3.255  14.816 -0.1000 -0.1427 -0.2682
 5959SOL    HW129510   3.317   3.205  14.774 -0.6650 -0.2901 -1.0280
 5959SOL    HW229511   3.172   3.216  14.772 -0.7869 -0.2921  1.0236
 5960SOL     OW29512   2.903   1.819   8.096 -0.3651  0.0924  0.6805
 5960SOL    HW129513   2.941   1.735   8.072  2.9018  2.0374 -0.9285
 5960SOL    HW229514   2.977   1.859   8.141 -1.2662  0.9192  1.4469
 5961SOL     OW29515   3.303   4.180  13.100  0.4454  0.2001 -0.0418
 5961SOL    HW129516   3.241   4.149  13.166  1.5590  1.4874  1.6033
 5961SOL    HW229517   3.322   4.270  13.127  1.7282 -0.3032  0.7332
 5962SOL     OW29518   1.305   3.531   4.850  0.4111  0.2173  0.2319
 5962SOL    HW129519   1.338   3.589   4.918  0.0039  1.1239 -0.3455
 5962SOL    HW229520   1.311   3.596   4.780 -2.9986  0.5858  0.2521
 5963SOL     OW29521   3.888   1.136  15.668  0.7138  0.5401  0.1030
 5963SOL    HW129522   3.905   1.051  15.627 -0.9263  0.7057 -0.9397
 5963SOL    HW229523   3.892   1.112  15.760  1.9611 -0.7680 -0.2841
 5964SOL     OW29524   0.091   1.712   6.235  0.4753  0.0035  0.3306
 5964SOL    HW129525   0.084   1.806   6.251  0.6904 -0.2046  1.6097
 5964SOL    HW229526   0.181   1.687   6.258  1.8617  2.6781 -2.1316
 5965SOL     OW29527   0.778   3.709   3.175 -0.0709  0.2611 -0.4323
 5965SOL    HW129528   0.745   3.727   3.263  0.7810  0.7699 -0.2160
 5965SOL    HW229529   0.780   3.614   3.172 -1.2106  0.2513 -0.7535
 5966SOL     OW29530   1.752   0.691  16.185  1.0700  0.2018 -0.2533
 5966SOL    HW129531   1.777   0.611  16.231 -0.0915  0.1835  0.3473
 5966SOL    HW229532   1.743   0.745  16.263  0.3352 -0.3333  0.0357
 5967SOL     OW29533   0.992   1.316   5.765 -0.0013 -0.1924  0.0535
 5967SOL    HW129534   0.939   1.303   5.844  1.4866  1.6239  1.3407
 5967SOL    HW229535   0.928   1.339   5.698  0.6601 -1.1473 -0.9014
 5968SOL     OW29536   0.625   0.226   6.504 -0.3597  0.3422  0.2110
 5968SOL    HW129537   0.631   0.256   6.595  1.2672  0.2037  0.1478
 5968SOL    HW229538   0.538   0.185   6.509 -1.1416  2.0925  0.9605
 5969SOL     OW29539   2.886   4.300  15.487  0.0256 -0.7607 -0.5056
 5969SOL    HW129540   2.929   4.286  15.402  1.4573  0.5725  0.0197
 5969SOL    HW229541   2.910   4.391  15.499 -0.4847 -0.7397  0.2945
 5970SOL     OW29542   3.570   2.839   9.058  0.0471 -0.1695 -0.1543
 5970SOL    HW129543   3.552   2.787   8.979 -0.0412 -0.3828  0.0071
 5970SOL    HW229544   3.632   2.908   9.032 -2.3213  1.2257 -2.0319
 5971SOL     OW29545   2.475   3.441   5.663 -0.6321 -0.3573 -0.4470
 5971SOL    HW129546   2.448   3.407   5.748  0.7360  0.0326  0.1520
 5971SOL    HW229547   2.535   3.369   5.644  0.7832  0.1863  1.9602
 5972SOL     OW29548   3.374   2.019   5.635 -0.6828 -0.0352 -0.2149
 5972SOL    HW129549   3.315   1.952   5.670 -1.1620  0.7314  0.4336
 5972SOL    HW229550   3.451   1.962   5.637  0.1601  1.0603 -1.4760
 5973SOL     OW29551   1.053   4.581   8.766  0.1227 -0.3697  0.4937
 5973SOL    HW129552   0.975   4.549   8.811  1.8966 -2.7711  1.8798
 5973SOL    HW229553   1.097   4.614   8.845  2.4125 -0.1342 -0.8940
 5974SOL     OW29554   3.302   2.264   4.660 -0.0898 -0.3069 -0.2797
 5974SOL    HW129555   3.225   2.251   4.715 -1.1964 -1.2924 -2.0704
 5974SOL    HW229556   3.272   2.322   4.591 -1.0000 -1.2420 -0.6765
 5975SOL     OW29557   2.251   3.507   4.062  0.1908  0.3422  0.3234
 5975SOL    HW129558   2.179   3.570   4.053  0.8840  1.1354  0.3467
 5975SOL    HW229559   2.300   3.545   4.135  1.5780  0.6460 -0.7720
 5976SOL     OW29560   2.993   0.106   6.633  0.2249 -0.1694 -0.9987
 5976SOL    HW129561   2.933   0.031   6.637  2.4261 -1.8351  1.3362
 5976SOL    HW229562   3.068   0.077   6.686 -1.5390  1.1502  2.2026
 5977SOL     OW29563   3.141   4.177   3.014 -0.2339 -0.0475 -0.0546
 5977SOL    HW129564   3.221   4.137   2.980 -0.1894  0.8990 -1.0902
 5977SOL    HW229565   3.103   4.104   3.063  0.0748 -0.8529 -1.0007
 5978SOL     OW29566   4.233   4.700  12.169  0.7348 -0.1885 -0.8005
 5978SOL    HW129567   4.228   4.714  12.264  3.1430  0.0677 -0.7210
 5978SOL    HW229568   4.146   4.661  12.161  1.7454 -2.8372  1.1131
 5979SOL     OW29569   0.848   0.106   9.504  0.5581 -0.3817 -0.4864
 5979SOL    HW129570   0.838   0.047   9.428 -0.6186  0.9784 -1.3850
 5979SOL    HW229571   0.934   0.141   9.479  0.2899 -0.8975 -2.1743
 5980SOL     OW29572   0.165   2.433   3.773  0.0407 -0.2098 -0.1446
 5980SOL    HW129573   0.073   2.446   3.799 -0.5522 -0.8841 -1.8764
 5980SOL    HW229574   0.179   2.518   3.732 -0.6080 -0.2267 -0.4081
 5981SOL     OW29575   4.671   3.985  10.281  0.4673  0.2854 -0.7607
 5981SOL    HW129576   4.727   3.908  10.295 -2.0555 -1.5540 -0.7623
 5981SOL    HW229577   4.591   3.951  10.241 -0.1709  0.5295  0.3139
 5982SOL     OW29578   4.308   2.242   2.913 -0.2794 -0.4624  0.6157
 5982SOL    HW129579   4.350   2.253   2.998  0.2540  0.5721  0.2209
 5982SOL    HW229580   4.367   2.291   2.855 -2.6920  0.5232 -1.0158
 5983SOL     OW29581   0.001   1.382   6.492  0.1306  0.0287  0.6384
 5983SOL    HW129582   0.037   1.309   6.542 -0.2538 -1.8499 -1.8462
 5983SOL    HW229583   4.724   1.343   6.406  0.1344  1.9010 -0.2218
 5984SOL     OW29584   4.462   2.900   1.708 -0.0995  0.5262  0.3985
 5984SOL    HW129585   4.418   2.904   1.623  0.0474 -0.6602  0.2586
 5984SOL    HW229586   4.546   2.860   1.685  0.5749  2.6610 -0.8017
 5985SOL     OW29587   1.308   1.193   1.870 -0.4254  0.2755  0.9814
 5985SOL    HW129588   1.255   1.247   1.811  1.1781  0.8606  0.0659
 5985SOL    HW229589   1.377   1.253   1.899  0.7229 -0.5065 -0.1146
 5986SOL     OW29590   3.491   0.727   1.362 -0.5163 -0.4034 -0.2454
 5986SOL    HW129591   3.414   0.743   1.417 -1.3475 -0.2440 -1.4410
 5986SOL    HW229592   3.553   0.757   1.428  1.4102 -2.2117 -1.2401
 5987SOL     OW29593   1.913   1.413   1.347  0.3611 -0.2241 -0.2990
 5987SOL    HW129594   1.919   1.353   1.422  0.7859  0.6182  0.3427
 5987SOL    HW229595   1.885   1.497   1.384  2.2516  0.4565 -0.4237
 5988SOL     OW29596   1.340   1.576   1.439 -0.3081 -0.2346 -0.0496
 5988SOL    HW129597   1.261   1.556   1.390 -0.6377 -0.7986  0.7271
 5988SOL    HW229598   1.390   1.634   1.380  0.6131  0.3586  1.3010
 5989SOL     OW29599   2.902   0.284   4.887 -0.1734 -0.4209  0.5594
 5989SOL    HW129600   2.955   0.223   4.938  1.3274 -1.3362 -2.0808
 5989SOL    HW229601   2.816   0.300   4.926 -0.2927 -0.5962  0.3743
 5990SOL     OW29602   0.278   1.358   5.731  0.1298 -0.4476  0.6894
 5990SOL    HW129603   0.325   1.434   5.766 -1.3372  0.3045  1.0348
 5990SOL    HW229604   0.285   1.361   5.635  1.3799 -1.3570  0.7524
 5991SOL     OW29605   2.475   0.496   8.044  0.2632  0.3217  0.0519
 5991SOL    HW129606   2.452   0.408   8.073  2.2748 -1.1129 -2.7417
 5991SOL    HW229607   2.562   0.507   8.081 -0.3549 -0.5401  1.7307
 5992SOL     OW29608   4.359   4.628   2.778 -0.5470  0.2554 -0.3777
 5992SOL    HW129609   4.429   4.693   2.780 -0.7175  0.4259 -0.0982
 5992SOL    HW229610   4.280   4.680   2.791 -0.7662  0.1546 -1.3161
 5993SOL     OW29611   0.669   1.788  13.389 -0.7867  0.1835  0.1080
 5993SOL    HW129612   0.741   1.851  13.389  0.7514 -1.5880 -1.8052
 5993SOL    HW229613   0.600   1.832  13.439 -1.2853  1.2468 -1.5398
 5994SOL     OW29614   1.195   4.461   6.918  0.6727  0.1787  0.4955
 5994SOL    HW129615   1.272   4.515   6.896 -0.0492  1.8725  2.1169
 5994SOL    HW229616   1.141   4.477   6.841 -0.1064  0.6087  1.1290
 5995SOL     OW29617   2.903   3.287   3.083 -0.1132  0.0966  0.4951
 5995SOL    HW129618   2.840   3.222   3.115 -0.2712 -0.1664 -0.3367
 5995SOL    HW229619   2.853   3.367   3.070  1.9230  1.4019  0.8393
 5996SOL     OW29620   4.139   1.570  13.390  0.3904 -0.6734 -0.1188
 5996SOL    HW129621   4.147   1.618  13.473 -0.9320 -0.0710 -0.3356
 5996SOL    HW229622   4.063   1.518  13.415  0.0610  0.2685  0.8759
 5997SOL     OW29623   3.165   1.983  15.611 -0.7404  0.2333  0.3428
 5997SOL    HW129624   3.105   2.053  15.587 -0.2472  0.4415 -0.2818
 5997SOL    HW229625   3.249   2.017  15.581 -1.1451 -0.7420 -1.9062
 5998SOL     OW29626   4.201   2.486  15.255  0.3203  0.2695  0.7143
 5998SOL    HW129627   4.138   2.506  15.324  0.4502  3.2559 -0.0298
 5998SOL    HW229628   4.153   2.430  15.194 -1.5760 -1.2335  3.6203
 5999SOL     OW29629   4.189   2.994   4.886  0.6671  0.1481 -0.3427
 5999SOL    HW129630   4.256   3.046   4.842  1.3063 -0.6800 -0.3546
 5999SOL    HW229631   4.112   3.045   4.859  1.4407  2.2254  1.3763
 6000SOL     OW29632   2.483   3.664   9.113 -0.6365  0.0663 -0.2009
 6000SOL    HW129633   2.465   3.602   9.184 -0.5367  0.9809  0.6228
 6000SOL    HW229634   2.400   3.711   9.111 -0.8473 -0.2210  2.5987
 6001SOL     OW29635   0.884   2.067   9.012 -0.4899 -0.6110  0.2025
 6001SOL    HW129636   0.794   2.066   9.043 -0.3846 -0.4506  0.5119
 6001SOL    HW229637   0.898   1.974   9.025  1.1896  0.0877  3.2967
 6002SOL     OW29638   1.819   4.506   0.182  0.1030  0.0269 -0.1620
 6002SOL    HW129639   1.784   4.444   0.247 -1.3859 -1.3005 -2.2334
 6002SOL    HW229640   1.896   4.537   0.230  1.1079  0.3529 -2.0260
 6003SOL     OW29641   4.335   1.527  17.572 -0.5531 -0.5251  0.0970
 6003SOL    HW129642   4.412   1.534  17.517 -0.9930  0.6680 -0.3780
 6003SOL    HW229643   4.347   1.589  17.644  0.8569 -1.5823  0.7697
 6004SOL     OW29644   1.862   0.878   0.517 -0.5719  0.2314  0.1156
 6004SOL    HW129645   1.953   0.848   0.523 -0.3803  0.8058  0.1176
 6004SOL    HW229646   1.883   0.971   0.523  1.0974 -0.1228 -0.4478
 6005SOL     OW29647   0.133   3.644   7.387 -0.0872 -0.1094 -0.4973
 6005SOL    HW129648   0.222   3.666   7.415 -0.6484  0.3604  0.9491
 6005SOL    HW229649   0.114   3.713   7.324  0.4768  0.1126 -0.4305
 6006SOL     OW29650   4.281   3.746   5.387 -0.3028 -0.1367 -0.2436
 6006SOL    HW129651   4.244   3.720   5.303 -0.0999 -0.4968 -0.2226
 6006SOL    HW229652   4.199   3.757   5.434 -0.4128 -0.1892 -0.4231
 6007SOL     OW29653   2.092   1.682   7.763 -0.6759  0.1500 -0.3631
 6007SOL    HW129654   2.035   1.664   7.688 -2.5605  1.1790  0.8140
 6007SOL    HW229655   2.086   1.778   7.762 -0.0540  0.1691 -1.3111
 6008SOL     OW29656   2.467   2.901  11.369 -0.1829  0.0799  0.0782
 6008SOL    HW129657   2.480   2.810  11.342 -0.4605 -0.0689  0.4460
 6008SOL    HW229658   2.417   2.890  11.450 -0.3660 -1.6600 -0.2708
 6009SOL     OW29659   0.427   1.497   8.206 -0.5047  0.8248 -0.5596
 6009SOL    HW129660   0.381   1.473   8.126 -0.4839  1.3371 -0.7286
 6009SOL    HW229661   0.469   1.578   8.177  0.6041  0.9995  1.5317
 6010SOL     OW29662   2.661   0.943   2.172 -0.3973 -0.1696 -0.0425
 6010SOL    HW129663   2.662   0.953   2.077 -0.3797  0.9923  0.0801
 6010SOL    HW229664   2.723   0.869   2.179 -0.1663  0.0790  0.5174
 6011SOL     OW29665   1.572   3.298   4.969  0.2008 -0.1273 -0.1195
 6011SOL    HW129666   1.660   3.263   4.980 -0.2335 -1.5240 -1.0235
 6011SOL    HW229667   1.570   3.314   4.875  0.1480  2.4633  0.3302
 6012SOL     OW29668   3.936   4.647   1.604 -0.7817  0.0731 -0.5729
 6012SOL    HW129669   3.880   4.598   1.664 -0.0906 -1.1803 -0.9481
 6012SOL    HW229670   3.981   4.580   1.552 -2.0308 -0.6890 -0.6908
 6013SOL     OW29671   0.693   4.305   7.904  0.5410 -0.3149 -0.4393
 6013SOL    HW129672   0.744   4.321   7.983 -0.4569  1.1105 -0.0771
 6013SOL    HW229673   0.699   4.394   7.869 -0.3864  0.1881  0.6921
 6014SOL     OW29674   0.953   1.716   3.566  0.0372  0.2111 -0.2046
 6014SOL    HW129675   0.923   1.638   3.519  1.9952  0.6682 -2.1713
 6014SOL    HW229676   0.959   1.777   3.493 -1.6199 -0.2238 -0.7017
 6015SOL     OW29677   3.840   4.117  14.816  0.5252  0.1177  0.0642
 6015SOL    HW129678   3.811   4.065  14.741 -0.3806 -1.8029  1.7436
 6015SOL    HW229679   3.838   4.202  14.772 -0.6977 -0.5720 -1.2408
 6016SOL     OW29680   4.659   0.847   4.710 -0.2924  0.4243  0.0543
 6016SOL    HW129681   0.004   0.845   4.666  0.8296  0.1190  2.2018
 6016SOL    HW229682   4.684   0.828   4.801  0.6512  1.5061  0.0277
 6017SOL     OW29683   4.021   2.313   4.342  0.2097 -0.0147 -0.3485
 6017SOL    HW129684   4.092   2.259   4.308  1.6563  0.6784  1.5661
 6017SOL    HW229685   3.993   2.249   4.407  2.2664  0.7082  1.2610
 6018SOL     OW29686   3.257   0.139  12.368 -0.4946  0.5196  0.2280
 6018SOL    HW129687   3.317   0.066  12.353  0.2186  1.1208  0.1360
 6018SOL    HW229688   3.229   0.116  12.456 -0.7055  1.2574  0.3481
 6019SOL     OW29689   1.237   1.481   8.064 -0.8282  0.1066  0.1891
 6019SOL    HW129690   1.304   1.549   8.073  1.4252 -2.3092  1.7466
 6019SOL    HW229691   1.176   1.510   8.132  0.7382 -0.9633  2.0336
 6020SOL     OW29692   1.539   2.409   2.991 -0.4441 -0.0738  0.3991
 6020SOL    HW129693   1.522   2.489   2.941 -1.8627  0.0315  1.0458
 6020SOL    HW229694   1.595   2.442   3.061 -0.0594  0.7007 -0.2829
 6021SOL     OW29695   2.295   0.664   6.432  0.1524  0.0517 -0.2775
 6021SOL    HW129696   2.320   0.757   6.430 -0.4833  0.2035 -1.0735
 6021SOL    HW229697   2.260   0.652   6.344  0.8398 -1.1127 -0.3905
 6022SOL     OW29698   2.640   2.195   0.046 -0.3139  0.1572  0.6192
 6022SOL    HW129699   2.645   2.122   0.107 -1.8094 -1.4282 -1.1645
 6022SOL    HW229700   2.579   2.156  17.740 -3.0958 -0.7106  3.8175
 6023SOL     OW29701   3.181   0.438  12.122 -0.6069  0.5661  0.6983
 6023SOL    HW129702   3.185   0.511  12.060 -0.4936  1.2571  1.5163
 6023SOL    HW229703   3.102   0.466  12.169 -0.5248  1.2817  0.4155
 6024SOL     OW29704   2.789   0.578   3.912  0.6127  0.5064 -0.0312
 6024SOL    HW129705   2.798   0.635   3.836  2.6626 -1.3589 -1.2039
 6024SOL    HW229706   2.716   0.531   3.871  0.8499 -0.0509  0.1820
 6025SOL     OW29707   3.877   3.825   7.032  0.1172  0.0916  0.1480
 6025SOL    HW129708   3.845   3.882   7.102 -0.2045  2.9595 -2.3544
 6025SOL    HW229709   3.966   3.802   7.059  0.3901 -0.1357 -0.9743
 6026SOL     OW29710   0.405   3.106   5.607  0.5071  0.0850  0.1846
 6026SOL    HW129711   0.339   3.083   5.542 -0.0437 -1.6453  1.3602
 6026SOL    HW229712   0.352   3.167   5.658  0.1790 -0.1546  0.1295
 6027SOL     OW29713   1.966   1.926   0.515  0.1181  1.0602 -0.1562
 6027SOL    HW129714   1.920   1.995   0.563 -0.2298 -0.1932  1.3155
 6027SOL    HW229715   1.924   1.906   0.431  0.9805  0.3712 -0.4214
 6028SOL     OW29716   2.530   3.735  14.203 -0.5910  0.0862  0.1912
 6028SOL    HW129717   2.507   3.668  14.267  2.5958 -1.0644  0.1409
 6028SOL    HW229718   2.518   3.807  14.266  1.4992 -0.3019  1.0409
 6029SOL     OW29719   1.954   2.451   6.685 -0.2486 -0.2327 -0.4933
 6029SOL    HW129720   1.925   2.375   6.735  0.1589 -1.4181 -2.0888
 6029SOL    HW229721   2.010   2.411   6.618 -0.9681 -1.3543 -0.4107
 6030SOL     OW29722   2.994   4.663   3.519  0.2373 -0.4214 -0.1730
 6030SOL    HW129723   2.999   4.678   3.614 -0.6532 -0.6450 -0.0831
 6030SOL    HW229724   3.083   4.632   3.508  0.3649  0.0600 -0.4915
 6031SOL     OW29725   1.179   2.640   4.936 -0.2761 -0.2080 -0.3730
 6031SOL    HW129726   1.117   2.610   4.869 -2.0338  3.3580 -0.3465
 6031SOL    HW229727   1.253   2.604   4.888  0.9750 -1.3995  2.4398
 6032SOL     OW29728   4.290   1.228   3.605 -0.4812  0.4123  0.2069
 6032SOL    HW129729   4.267   1.192   3.520  0.6713 -0.7743  0.3975
 6032SOL    HW229730   4.211   1.276   3.631 -0.7501  0.2913 -0.3989
 6033SOL     OW29731   1.657   2.295   3.971  0.0144 -0.7362  0.3234
 6033SOL    HW129732   1.628   2.384   3.953  3.9733  0.7730  1.4378
 6033SOL    HW229733   1.600   2.248   3.910  0.1696 -0.7510  0.1922
 6034SOL     OW29734   3.071   4.669   1.307  0.5558 -0.5486 -0.5007
 6034SOL    HW129735   3.051   4.590   1.256 -1.0877 -1.3933  1.4614
 6034SOL    HW229736   3.086   4.625   1.391 -5.0302  0.5785  1.0895
 6035SOL     OW29737   4.622   4.719  15.815  0.0899  0.4257 -0.0923
 6035SOL    HW129738   4.545   4.662  15.821  0.5219 -0.5443 -3.8903
 6035SOL    HW229739   4.605   0.022  15.731 -0.7070  1.3942  0.5543
 6036SOL     OW29740   0.101   0.273  16.058  0.1308 -0.7324  0.2691
 6036SOL    HW129741   0.077   0.289  15.966 -1.4790  2.1817  1.1915
 6036SOL    HW229742   0.106   0.178  16.048  2.2284 -0.5743 -0.0613
 6037SOL     OW29743   4.024   1.553   2.624  0.1003  0.1475 -0.0176
 6037SOL    HW129744   4.084   1.518   2.559 -0.5273 -0.1600 -0.4348
 6037SOL    HW229745   3.986   1.627   2.577 -0.3258 -0.3001 -0.3776
 6038SOL     OW29746   4.702   0.410   5.651  0.6450 -0.4027  0.1158
 6038SOL    HW129747   0.052   0.442   5.652  0.0858  1.2041 -1.1410
 6038SOL    HW229748   4.696   0.362   5.568  3.4903 -2.0613  0.8690
 6039SOL     OW29749   0.610   3.237   7.067 -0.1992  0.8086 -0.1992
 6039SOL    HW129750   0.697   3.261   7.099 -0.4417  0.4734  0.6993
 6039SOL    HW229751   0.582   3.189   7.144 -0.5437  0.5450 -0.4878
 6040SOL     OW29752   2.728   3.058   6.501  0.1648 -0.0911 -0.4500
 6040SOL    HW129753   2.791   2.986   6.492  0.3764 -0.0284  0.5855
 6040SOL    HW229754   2.757   3.093   6.585  0.4359  2.1039 -1.4551
 6041SOL     OW29755   0.031   4.656  11.715  0.4592 -0.3245  0.3421
 6041SOL    HW129756   0.059   4.594  11.782 -0.6052 -1.7021 -0.5007
 6041SOL    HW229757   0.051   4.598  11.642  0.5172 -1.3571  1.1790
 6042SOL     OW29758   4.728   2.658   4.420  0.3907  0.1155 -0.0004
 6042SOL    HW129759   0.020   2.720   4.355 -1.3903 -0.2914 -1.2286
 6042SOL    HW229760   4.650   2.705   4.449 -1.3446 -2.4743 -0.5595
 6043SOL     OW29761   4.484   1.814   1.428  0.4984  0.1183 -0.0547
 6043SOL    HW129762   4.431   1.780   1.500  1.2138  0.7359  0.7653
 6043SOL    HW229763   4.476   1.907   1.448 -0.9008  0.3360 -1.6578
 6044SOL     OW29764   0.483   4.509   3.013 -0.2497  0.0514  0.1574
 6044SOL    HW129765   0.408   4.459   2.979 -1.2202 -0.8113  3.6131
 6044SOL    HW229766   0.553   4.449   2.988  1.2671  0.8464  2.5716
 6045SOL     OW29767   4.718   3.851  12.415  0.0104  0.3527 -0.2315
 6045SOL    HW129768   0.025   3.794  12.354  0.6491  0.1554  0.4393
 6045SOL    HW229769   4.635   3.805  12.403 -0.0193  0.4132 -0.2556
 6046SOL     OW29770   0.393   3.205   8.354 -0.4067  0.5919 -0.3469
 6046SOL    HW129771   0.441   3.282   8.386  0.1040 -0.0107  0.3352
 6046SOL    HW229772   0.456   3.138   8.380 -0.7338  0.6235  0.5572
 6047SOL     OW29773   4.594   0.144   7.408  0.0673  0.3096  0.4637
 6047SOL    HW129774   4.650   0.082   7.361  1.9334  1.3843  1.2375
 6047SOL    HW229775   4.527   0.154   7.340  0.7724 -1.0296 -0.4336
 6048SOL     OW29776   0.704   3.708   8.143 -0.1328  0.0184  0.7857
 6048SOL    HW129777   0.764   3.638   8.166 -1.1292 -0.9002  0.5679
 6048SOL    HW229778   0.621   3.671   8.172 -0.6980 -0.2385 -1.1602
 6049SOL     OW29779   1.510   2.216   1.473  0.5209  0.1696 -0.0700
 6049SOL    HW129780   1.503   2.126   1.505 -0.2975  0.0576 -0.5703
 6049SOL    HW229781   1.484   2.216   1.381  0.6972  0.7785 -0.1189
 6050SOL     OW29782   0.665   1.006   3.811 -0.0807 -0.2576 -0.2358
 6050SOL    HW129783   0.571   1.022   3.807 -0.2829 -2.2402 -3.1415
 6050SOL    HW229784   0.665   0.911   3.827  1.9269 -0.0463  0.9633
 6051SOL     OW29785   3.311   4.640   6.518 -0.2351 -0.5028  0.0876
 6051SOL    HW129786   3.375   4.573   6.493  2.6172  1.5815  1.7650
 6051SOL    HW229787   3.255   4.627   6.441 -0.4076  0.1440  0.1002
 6052SOL     OW29788   4.258   3.782   3.785 -0.0781 -0.3459 -0.0211
 6052SOL    HW129789   4.207   3.860   3.768  0.0972 -0.0428  0.8572
 6052SOL    HW229790   4.254   3.731   3.704 -1.1277 -0.2405 -0.0369
 6053SOL     OW29791   1.948   0.135  15.860 -0.7671  0.6673 -0.1840
 6053SOL    HW129792   2.025   0.190  15.850 -0.5809  0.7521  1.7357
 6053SOL    HW229793   1.901   0.133  15.777 -1.7192 -0.5735  0.3699
 6054SOL     OW29794   1.878   3.704   7.646  0.5434  0.1043 -0.1655
 6054SOL    HW129795   1.970   3.707   7.670  0.1021  1.6160  1.3489
 6054SOL    HW229796   1.867   3.773   7.581  0.1094 -1.2849 -1.5593
 6055SOL     OW29797   3.555   2.477  10.853  0.2462 -0.2394  0.1453
 6055SOL    HW129798   3.589   2.520  10.931 -1.1423  1.2371 -0.0688
 6055SOL    HW229799   3.518   2.400  10.896 -1.1495  0.8283  0.8545
 6056SOL     OW29800   3.034   2.754   9.891 -0.6550 -0.1536 -0.1695
 6056SOL    HW129801   3.042   2.712   9.806 -0.1510  0.9490 -0.6674
 6056SOL    HW229802   3.116   2.805   9.891 -1.3112  0.9145  0.6782
 6057SOL     OW29803   3.989   2.586   4.353  0.2276 -0.1223 -0.0533
 6057SOL    HW129804   3.998   2.495   4.325  3.1824 -0.0898  0.7798
 6057SOL    HW229805   3.983   2.586   4.449 -0.2998  2.2797 -0.0821
 6058SOL     OW29806   3.444   3.932   8.052 -0.6367  0.5593 -0.2623
 6058SOL    HW129807   3.401   3.909   8.134 -0.8993  0.3385 -0.4631
 6058SOL    HW229808   3.509   3.862   8.056 -1.8044 -0.5400 -0.6020
 6059SOL     OW29809   0.204   3.137   7.092  0.2287  0.3431  0.0470
 6059SOL    HW129810   0.215   3.231   7.077  1.7807 -0.2469 -2.5997
 6059SOL    HW229811   0.116   3.127   7.056  0.6841  1.2630 -1.3368
 6060SOL     OW29812   1.135   2.387   8.801 -0.5038 -0.1079  0.3170
 6060SOL    HW129813   1.103   2.472   8.771 -0.4704 -0.4384 -0.6589
 6060SOL    HW229814   1.222   2.398   8.763 -1.0911 -3.0770 -1.9568
 6061SOL     OW29815   4.416   2.908   2.780 -0.0084 -0.7533  0.1607
 6061SOL    HW129816   4.352   2.866   2.723 -0.0784 -0.8149  0.2845
 6061SOL    HW229817   4.377   2.881   2.863 -0.3326  0.9906  0.5788
 6062SOL     OW29818   1.262   1.756   6.843  0.1274 -0.7073  0.1039
 6062SOL    HW129819   1.268   1.778   6.936  1.6476  0.3709 -0.2324
 6062SOL    HW229820   1.351   1.776   6.811 -0.2244  0.2959 -0.2371
 6063SOL     OW29821   2.085   2.992  15.772 -0.2758  0.7648  0.4998
 6063SOL    HW129822   2.114   3.040  15.850 -0.9353  0.0970  1.1587
 6063SOL    HW229823   2.034   3.064  15.734 -0.8993  0.5767  0.9738
 6064SOL     OW29824   3.460   3.292   9.547  0.5292  0.4820  0.6395
 6064SOL    HW129825   3.436   3.312   9.638 -1.2581 -0.0216  0.2843
 6064SOL    HW229826   3.421   3.364   9.498 -1.2091 -0.4325  0.6477
 6065SOL     OW29827   1.299   4.646   3.830 -0.1276  0.4623  0.2977
 6065SOL    HW129828   1.288   4.668   3.923  2.3339  2.0663  0.2217
 6065SOL    HW229829   1.257   4.561   3.825 -0.1321  0.6042 -1.9235
 6066SOL     OW29830   0.174   1.047   6.652 -0.4219 -0.0233  0.3266
 6066SOL    HW129831   0.136   0.987   6.589  2.2222 -0.7575 -0.5830
 6066SOL    HW229832   0.189   0.987   6.724  0.9929 -0.8624 -0.6626
 6067SOL     OW29833   0.052   4.023   9.391  0.0273 -0.0077  0.4015
 6067SOL    HW129834   4.738   4.039   9.468 -1.1490 -1.2400 -0.1493
 6067SOL    HW229835   0.124   3.985   9.440  0.8971 -0.4647 -1.2124
 6068SOL     OW29836   2.975   3.227   9.600  0.1674  0.0923  0.7870
 6068SOL    HW129837   3.037   3.154   9.603 -1.1257 -0.9239  3.2122
 6068SOL    HW229838   2.944   3.235   9.509  2.5737  1.1509  0.0668
 6069SOL     OW29839   1.054   3.340   3.001  0.3165 -0.1304  0.0905
 6069SOL    HW129840   1.149   3.330   3.000  0.4350  1.2420 -1.5171
 6069SOL    HW229841   1.035   3.328   2.908 -1.4638  0.2095  0.4153
 6070SOL     OW29842   1.976   2.557  10.007  0.2633 -0.2234  0.3771
 6070SOL    HW129843   2.051   2.501   9.992 -0.3771 -0.1717 -3.1270
 6070SOL    HW229844   1.951   2.581   9.917  1.2182  0.7790  0.3744
 6071SOL     OW29845   3.978   1.736  13.161  0.1888  0.3640  0.2453
 6071SOL    HW129846   4.072   1.730  13.176  0.1968 -0.8449 -0.2657
 6071SOL    HW229847   3.946   1.811  13.210  1.4181  0.7995  0.3611
 6072SOL     OW29848   1.796   0.124  13.947  0.0464 -0.3082  0.3876
 6072SOL    HW129849   1.718   0.072  13.930  0.4368 -0.3298 -1.3080
 6072SOL    HW229850   1.862   0.062  13.914  0.7840 -0.2696  1.7775
 6073SOL     OW29851   3.721   3.478   1.122  0.2490 -0.0397  0.3016
 6073SOL    HW129852   3.806   3.440   1.102 -0.4697 -1.5650  0.1267
 6073SOL    HW229853   3.745   3.571   1.125  1.0798 -0.1955 -1.5619
 6074SOL     OW29854   2.566   1.191   2.895 -0.4554  0.2875  0.5161
 6074SOL    HW129855   2.628   1.215   2.964  0.1754 -2.7710  1.0202
 6074SOL    HW229856   2.516   1.115   2.926  0.4069 -1.0357 -1.3105
 6075SOL     OW29857   2.092   0.076   5.529 -0.3998  0.3953  0.3790
 6075SOL    HW129858   2.069   0.073   5.436 -0.8799 -1.4590  0.5515
 6075SOL    HW229859   2.124   0.166   5.537  0.6066 -0.1264  2.3446
 6076SOL     OW29860   0.824   1.922   4.422 -0.1778  0.3244 -0.8783
 6076SOL    HW129861   0.886   1.861   4.463 -1.7303 -0.1852  0.6981
 6076SOL    HW229862   0.772   1.947   4.498  1.0281 -1.5504  0.5802
 6077SOL     OW29863   2.901   3.285   7.367  0.0548  0.1837 -0.4641
 6077SOL    HW129864   2.846   3.333   7.304 -1.8099 -1.0895  0.2174
 6077SOL    HW229865   2.858   3.324   7.443  0.7845  0.2538 -0.0915
 6078SOL     OW29866   1.526   2.110   7.997 -0.0872 -0.0548 -0.5360
 6078SOL    HW129867   1.519   2.068   7.911  0.1772  0.4882 -0.8201
 6078SOL    HW229868   1.523   2.202   7.972 -0.7120 -0.0916 -0.5993
 6079SOL     OW29869   3.947   0.645   7.480 -0.1449 -0.9836 -0.0936
 6079SOL    HW129870   3.914   0.698   7.554  2.8420 -1.4113  1.5253
 6079SOL    HW229871   3.864   0.618   7.440 -0.3063  0.5964 -0.8349
 6080SOL     OW29872   1.784   1.789   4.953  0.4528 -0.4686  0.2466
 6080SOL    HW129873   1.761   1.881   4.963 -0.4652 -0.4911 -1.6671
 6080SOL    HW229874   1.703   1.751   4.988  0.4226  0.7865  1.5238
 6081SOL     OW29875   3.620   3.553   1.851  0.4107  0.4686  0.9438
 6081SOL    HW129876   3.554   3.565   1.783 -0.2094 -0.4097  1.3930
 6081SOL    HW229877   3.660   3.640   1.855 -0.0223  0.7286 -0.6026
 6082SOL     OW29878   4.467   3.647   4.779  0.2299  0.2536  0.1927
 6082SOL    HW129879   4.466   3.622   4.872  2.1344  0.3399  0.2361
 6082SOL    HW229880   4.392   3.707   4.779  0.0583  0.0382 -1.3986
 6083SOL     OW29881   0.930   1.059  11.796  0.2650  0.6603  0.0205
 6083SOL    HW129882   0.911   1.134  11.741  0.0152  0.5206 -0.0821
 6083SOL    HW229883   0.857   1.004  11.771  1.0409 -1.2798  1.9749
 6084SOL     OW29884   2.412   3.508   9.338 -0.2985  0.5756 -0.1898
 6084SOL    HW129885   2.373   3.515   9.425 -1.5290  1.7274 -0.8376
 6084SOL    HW229886   2.504   3.531   9.350 -0.9290  2.5265  0.8428
 6085SOL     OW29887   2.142   3.776   8.989 -0.1298  0.0564  0.2223
 6085SOL    HW129888   2.168   3.838   8.921  0.1404 -0.0780  0.2058
 6085SOL    HW229889   2.200   3.797   9.062  0.3682  1.5033 -0.5950
 6086SOL     OW29890   0.783   1.472  10.283 -0.1464  0.2565  0.3331
 6086SOL    HW129891   0.823   1.526  10.214 -0.4827 -0.1600 -0.1914
 6086SOL    HW229892   0.802   1.519  10.364 -0.3692  0.6868  0.1340
 6087SOL     OW29893   4.115   4.050   7.020 -0.4997 -0.2857 -0.3751
 6087SOL    HW129894   4.030   4.075   7.057  0.2037 -1.6965  2.1522
 6087SOL    HW229895   4.128   4.110   6.947 -0.8406 -0.4817 -0.6015
 6088SOL     OW29896   4.265   4.420   0.353  0.0247 -0.2827  0.4511
 6088SOL    HW129897   4.255   4.515   0.359  0.8532 -0.2163  0.8588
 6088SOL    HW229898   4.358   4.398   0.343 -0.5979 -2.4248 -0.5633
 6089SOL     OW29899   0.407   3.161   6.139 -0.0409 -0.3768 -0.2563
 6089SOL    HW129900   0.472   3.167   6.209 -0.0147  0.4478 -0.3479
 6089SOL    HW229901   0.454   3.108   6.074  0.9849 -0.0109  0.1890
 6090SOL     OW29902   1.445   3.829   8.939 -0.4286 -0.5387  0.4138
 6090SOL    HW129903   1.411   3.899   8.884  0.6998 -0.9143 -0.7625
 6090SOL    HW229904   1.486   3.856   9.021 -1.7926 -0.5667  1.0980
 6091SOL     OW29905   4.591   1.855  13.684  0.1845 -0.2708 -0.4796
 6091SOL    HW129906   4.633   1.857  13.770  1.2725 -1.1529 -0.9928
 6091SOL    HW229907   4.504   1.819  13.702 -0.3490 -0.1114 -2.6833
 6092SOL     OW29908   0.981   0.483   3.366 -0.2338  0.3082 -0.1514
 6092SOL    HW129909   0.938   0.466   3.450  0.6324  0.7084  0.3740
 6092SOL    HW229910   1.067   0.504   3.403 -0.7790  0.6800  0.8941
 6093SOL     OW29911   3.786   2.366  12.297 -0.2972  0.4163 -0.6818
 6093SOL    HW129912   3.804   2.448  12.342  0.4332  0.0866 -0.3677
 6093SOL    HW229913   3.816   2.370  12.206  1.0250  1.3397 -0.1887
 6094SOL     OW29914   4.451   1.589   8.321  0.2228  0.3045  0.8588
 6094SOL    HW129915   4.404   1.651   8.265  2.1640  1.0743  0.0762
 6094SOL    HW229916   4.437   1.506   8.276 -0.4595  0.8543  0.0624
 6095SOL     OW29917   3.314   0.475   8.809  0.4788  0.2235  0.0668
 6095SOL    HW129918   3.307   0.563   8.846  0.6371  0.9727 -1.6442
 6095SOL    HW229919   3.332   0.423   8.887  2.1169  2.3873  1.1252
 6096SOL     OW29920   0.435   3.243   0.753 -0.3457 -0.3605  0.4485
 6096SOL    HW129921   0.529   3.244   0.737  0.0528 -0.6724  2.7357
 6096SOL    HW229922   0.431   3.162   0.804  3.7737  0.0436  1.4196
 6097SOL     OW29923   1.013   0.082  15.487 -0.0045 -0.3736  0.0250
 6097SOL    HW129924   1.061   0.012  15.441  1.7730 -0.6265  2.2580
 6097SOL    HW229925   0.920   0.072  15.467 -0.5134  1.0988  1.6890
 6098SOL     OW29926   0.690   1.865  12.826 -0.0106  0.6075  0.1091
 6098SOL    HW129927   0.623   1.800  12.845  1.8799 -0.9751  1.4696
 6098SOL    HW229928   0.744   1.848  12.903 -0.4449  0.7283  0.4399
 6099SOL     OW29929   2.596   3.964   2.682 -0.0766 -0.3405 -0.0688
 6099SOL    HW129930   2.506   3.954   2.651 -0.0996  0.0034 -0.1060
 6099SOL    HW229931   2.593   4.034   2.747  1.1009 -0.1566 -0.2070
 6100SOL     OW29932   1.967   3.582  16.895 -0.7264  0.7689 -0.2591
 6100SOL    HW129933   1.969   3.502  16.947 -1.2706  1.2607  0.5144
 6100SOL    HW229934   2.025   3.639  16.946 -1.7361 -0.5734  2.3921
 6101SOL     OW29935   3.217   2.693   2.234 -0.1433  0.0749 -0.2317
 6101SOL    HW129936   3.192   2.607   2.266  2.7530 -0.6275  0.0904
 6101SOL    HW229937   3.311   2.700   2.249  0.0876  0.4674 -1.8710
 6102SOL     OW29938   0.230   0.640   5.379 -0.2384 -0.3879  0.2549
 6102SOL    HW129939   0.269   0.622   5.293 -0.6582  1.1097 -0.2627
 6102SOL    HW229940   0.298   0.686   5.428 -0.0140 -0.0752 -0.3521
 6103SOL     OW29941   1.277   2.104  15.370  0.2604 -0.5506  0.0231
 6103SOL    HW129942   1.240   2.033  15.422 -1.8531  0.0776 -0.6197
 6103SOL    HW229943   1.201   2.126  15.317 -1.0774 -1.1202  1.7057
 6104SOL     OW29944   2.607   4.630   5.779 -0.3048 -0.0968  0.3173
 6104SOL    HW129945   2.569   4.574   5.847 -1.4761  0.3793  0.0638
 6104SOL    HW229946   2.675   4.666   5.835 -0.2692  1.0177 -0.4405
 6105SOL     OW29947   2.963   3.627  16.422  0.0756  0.0193 -0.0208
 6105SOL    HW129948   2.928   3.715  16.406  0.9063  0.4268  0.4100
 6105SOL    HW229949   3.005   3.650  16.505  0.7674 -0.1828 -0.3159
 6106SOL     OW29950   3.501   0.331   8.175  0.1668  0.0226  0.0397
 6106SOL    HW129951   3.597   0.329   8.176  0.2438  2.1771 -1.8842
 6106SOL    HW229952   3.483   0.425   8.167 -1.1624  0.0027  2.9254
 6107SOL     OW29953   1.357   2.390   1.978 -0.7639 -0.6684 -0.2397
 6107SOL    HW129954   1.274   2.437   1.979 -0.0145  0.6432  0.2639
 6107SOL    HW229955   1.359   2.363   1.886 -0.6754  0.2174 -0.5002
 6108SOL     OW29956   1.609   3.923   7.312 -0.1821 -0.0046  0.5754
 6108SOL    HW129957   1.625   3.974   7.232  0.5643  0.7657  1.2212
 6108SOL    HW229958   1.534   3.867   7.293 -0.3110  0.4119 -0.1519
 6109SOL     OW29959   0.856   1.144   7.895  0.3070 -0.0191  0.0354
 6109SOL    HW129960   0.872   1.050   7.898  2.4377  0.3506  0.4274
 6109SOL    HW229961   0.917   1.184   7.958  1.2861 -0.1559 -0.8259
 6110SOL     OW29962   2.640   2.711   6.430  0.0643  0.3045 -0.6074
 6110SOL    HW129963   2.621   2.718   6.524  0.5574  0.8545 -0.5494
 6110SOL    HW229964   2.689   2.629   6.437  0.1192  0.4767  1.1980
 6111SOL     OW29965   1.346   2.955   1.819 -0.2275  0.4320 -0.8625
 6111SOL    HW129966   1.427   3.001   1.797 -0.4033  1.2780  0.2703
 6111SOL    HW229967   1.284   3.028   1.814  1.5674  1.8832 -1.7369
 6112SOL     OW29968   4.406   3.056  16.223  0.5343 -0.2389  0.6377
 6112SOL    HW129969   4.312   3.070  16.234  0.2352 -2.4644  1.0014
 6112SOL    HW229970   4.434   3.139  16.185 -1.1085 -0.1515 -0.3910
 6113SOL     OW29971   2.691   2.342   6.276 -0.3416 -0.1009 -0.5854
 6113SOL    HW129972   2.739   2.379   6.350 -1.7618 -2.7242  1.6762
 6113SOL    HW229973   2.618   2.403   6.278 -1.8914 -1.8862 -2.1265
 6114SOL     OW29974   3.993   2.318   3.957  0.1404 -0.0268  0.2007
 6114SOL    HW129975   3.947   2.398   3.931  0.3324 -0.1675 -0.5919
 6114SOL    HW229976   3.938   2.277   4.023  0.1583 -1.0988 -0.4543
 6115SOL     OW29977   3.637   2.063   7.102  0.4149 -0.3420  0.2023
 6115SOL    HW129978   3.675   1.991   7.152 -0.6494 -2.4936 -2.0504
 6115SOL    HW229979   3.587   2.106   7.171  2.5202 -2.6110  3.1256
 6116SOL     OW29980   4.041   1.993   6.015 -0.5518  0.6259  0.8843
 6116SOL    HW129981   3.955   2.001   5.973  0.4709 -0.4081 -1.4353
 6116SOL    HW229982   4.006   1.958   6.097 -0.5710 -1.1029  0.1491
 6117SOL     OW29983   0.849   2.322   7.899  0.0396 -0.4488 -0.4745
 6117SOL    HW129984   0.844   2.417   7.884 -1.3020 -0.3080  0.8539
 6117SOL    HW229985   0.918   2.316   7.965 -1.4210 -0.9337  1.0046
 6118SOL     OW29986   2.555   0.546   4.210 -0.1861 -0.1710 -0.4391
 6118SOL    HW129987   2.566   0.629   4.164  0.1721 -0.1185 -0.2539
 6118SOL    HW229988   2.474   0.565   4.258  0.2269  0.3638  0.0449
 6119SOL     OW29989   2.816   3.481   7.182 -0.4268 -0.0485  0.0475
 6119SOL    HW129990   2.753   3.542   7.221 -0.0913 -0.3405  1.0345
 6119SOL    HW229991   2.767   3.461   7.102  1.8674  0.4265 -1.4575
 6120SOL     OW29992   3.705   1.171   2.086  0.2008 -0.0537 -0.3503
 6120SOL    HW129993   3.625   1.210   2.051  0.1012  0.8443  0.8896
 6120SOL    HW229994   3.682   1.175   2.178  0.3942  1.5185 -0.3778
 6121SOL     OW29995   0.173   1.725   9.263  0.3100 -0.2747  0.0033
 6121SOL    HW129996   0.211   1.657   9.319 -0.9632  0.6816  2.0314
 6121SOL    HW229997   0.195   1.800   9.318 -0.7569 -0.2958  0.4618
 6122SOL     OW29998   4.424   1.006   7.578 -0.2561  0.0357  0.2792
 6122SOL    HW129999   4.502   0.988   7.631 -0.6072  1.2910  1.2178
 6122SOL    HW230000   4.397   1.097   7.588 -0.3095 -0.0247  0.7024
 6123SOL     OW30001   2.156   0.617   4.721 -0.8303  0.1916  0.3370
 6123SOL    HW130002   2.121   0.577   4.801  1.3407 -1.1488  0.6160
 6123SOL    HW230003   2.110   0.554   4.665  0.2101  0.5649 -0.9289
 6124SOL     OW30004   1.631   0.993   9.773  0.2338  0.5257  0.4609
 6124SOL    HW130005   1.592   0.983   9.859  0.6918 -0.1185  0.5919
 6124SOL    HW230006   1.718   1.021   9.803  1.7818 -2.8528 -0.9306
 6125SOL     OW30007   3.057   4.274   4.802 -0.5071 -0.0041 -0.6116
 6125SOL    HW130008   3.140   4.299   4.842  1.4005 -0.8495 -4.0263
 6125SOL    HW230009   3.011   4.358   4.796  0.6043  0.6345 -0.1493
 6126SOL     OW30010   4.626   3.998   4.443 -0.4093  0.2770 -0.0252
 6126SOL    HW130011   4.533   3.974   4.443 -0.3329 -0.0271 -1.3787
 6126SOL    HW230012   4.667   3.941   4.507 -0.7716  0.3530  0.2719
 6127SOL     OW30013   4.017   3.911  15.956 -0.2599  0.3958  0.1456
 6127SOL    HW130014   4.035   3.885  16.046  0.0428  1.3758  0.3701
 6127SOL    HW230015   3.977   3.831  15.923 -1.4175  1.3278 -0.6853
 6128SOL     OW30016   0.302   1.487  10.647 -0.3711  0.6057  0.4522
 6128SOL    HW130017   0.265   1.513  10.563  1.3093 -1.2696 -0.8781
 6128SOL    HW230018   0.367   1.423  10.619 -2.1209 -1.0437  0.1671
 6129SOL     OW30019   2.860   3.902   2.803  0.3083 -0.0437 -0.3234
 6129SOL    HW130020   2.922   3.968   2.771  0.6461  0.1421  0.6968
 6129SOL    HW230021   2.782   3.919   2.751  0.8264 -0.3283 -1.1826
 6130SOL     OW30022   3.333   0.527  13.891  0.0921  0.7760  0.9041
 6130SOL    HW130023   3.258   0.585  13.904 -0.2200 -0.0627  2.7965
 6130SOL    HW230024   3.302   0.440  13.866  2.4796  0.1249  0.2393
 6131SOL     OW30025   3.925   3.811   3.847  0.1434 -0.1285  0.2274
 6131SOL    HW130026   3.943   3.876   3.915 -2.5544 -0.6161  1.3865
 6131SOL    HW230027   3.960   3.854   3.768 -0.6185  0.7480  0.3637
 6132SOL     OW30028   2.355   2.715  11.611 -0.4517 -0.1768  0.0640
 6132SOL    HW130029   2.383   2.680  11.527 -1.2622  3.3148 -1.6673
 6132SOL    HW230030   2.300   2.644  11.644 -1.9280 -0.2351 -2.5746
 6133SOL     OW30031   1.894   4.690  16.393 -0.2188  0.2481 -0.5922
 6133SOL    HW130032   1.833   4.727  16.457  2.2010  2.3002  0.5209
 6133SOL    HW230033   1.843   4.662  16.317  0.0139  2.0143 -1.3980
 6134SOL     OW30034   4.428   3.030   9.477 -0.1081  0.2390 -0.2717
 6134SOL    HW130035   4.483   2.975   9.533 -2.0671 -0.9450  0.5041
 6134SOL    HW230036   4.344   2.990   9.501 -0.5392  1.9286  0.9948
 6135SOL     OW30037   1.095   2.061   7.513  0.4300 -0.1915 -0.2501
 6135SOL    HW130038   1.178   2.015   7.503  0.5703 -0.4899  2.3401
 6135SOL    HW230039   1.119   2.154   7.508  1.9905 -0.5927 -0.1911
 6136SOL     OW30040   0.830   3.058   5.697  0.2652 -0.5127  0.8278
 6136SOL    HW130041   0.842   3.152   5.679  3.6786 -0.5484  2.8632
 6136SOL    HW230042   0.739   3.068   5.725 -0.2732 -2.1553 -0.3228
 6137SOL     OW30043   4.406   2.678   4.854 -0.1854 -0.3061 -0.4854
 6137SOL    HW130044   4.321   2.710   4.824 -2.4286 -4.8889  0.9768
 6137SOL    HW230045   4.440   2.752   4.905  2.0485 -2.1271  0.6628
 6138SOL     OW30046   3.166   1.485   2.161 -0.0722 -0.6228 -0.0085
 6138SOL    HW130047   3.158   1.431   2.239 -0.1384 -0.1777  0.2927
 6138SOL    HW230048   3.231   1.548   2.193 -0.2244 -0.4269 -0.0874
 6139SOL     OW30049   3.172   4.259   3.529  0.4970 -0.7756 -0.5049
 6139SOL    HW130050   3.098   4.200   3.544 -1.2690  2.4349  3.4066
 6139SOL    HW230051   3.217   4.261   3.613 -1.1113 -1.1072  0.3672
 6140SOL     OW30052   2.795   2.890   4.744  0.1610 -0.0475 -0.2986
 6140SOL    HW130053   2.890   2.879   4.739 -0.0147 -1.4583 -0.5250
 6140SOL    HW230054   2.771   2.879   4.652  0.8283  0.5636 -0.5496
 6141SOL     OW30055   0.494   2.285   3.330  0.3843  0.2907 -0.1009
 6141SOL    HW130056   0.464   2.204   3.289  0.7517  0.1919 -0.1754
 6141SOL    HW230057   0.425   2.342   3.296 -0.0696  0.2492  0.7464
 6142SOL     OW30058   0.878   0.629  10.034  0.0987  0.0283 -0.3126
 6142SOL    HW130059   0.819   0.638   9.959 -1.8317  0.0995  1.2299
 6142SOL    HW230060   0.819   0.607  10.105 -0.3660  0.9625 -0.4022
 6143SOL     OW30061   4.405   2.995   9.203  0.1112  0.1504 -0.0759
 6143SOL    HW130062   4.325   3.040   9.175 -0.4516  0.1316  1.5133
 6143SOL    HW230063   4.401   2.998   9.298  2.0201  0.7956 -0.0106
 6144SOL     OW30064   3.039   0.187   9.432 -0.1155 -0.6110  0.6390
 6144SOL    HW130065   2.970   0.241   9.395  0.8825  0.3688  0.2294
 6144SOL    HW230066   3.110   0.251   9.430 -2.2865  1.7506 -0.5829
 6145SOL     OW30067   0.839   0.436   7.725 -0.2879  0.3549 -0.0392
 6145SOL    HW130068   0.780   0.363   7.740  0.2308  0.6144  3.4017
 6145SOL    HW230069   0.914   0.395   7.681 -0.6670 -0.5174  0.1311
 6146SOL     OW30070   2.103   4.103   1.636  0.6912 -0.1800  0.6569
 6146SOL    HW130071   2.016   4.084   1.672  1.1996 -0.3595  1.7937
 6146SOL    HW230072   2.100   4.197   1.616  1.8738 -0.3847 -0.4828
 6147SOL     OW30073   0.780   1.534  17.709  0.6243 -0.3734  0.1249
 6147SOL    HW130074   0.749   1.618  17.743  1.1977 -0.4081  0.7329
 6147SOL    HW230075   0.862   1.532   0.002 -0.4760 -2.2722  1.8686
 6148SOL     OW30076   4.700   2.112   6.725 -0.0391  0.3812 -0.2300
 6148SOL    HW130077   0.021   2.185   6.725  0.9443 -0.4337 -0.0870
 6148SOL    HW230078   4.674   2.113   6.817  0.0865 -0.7120 -0.1748
 6149SOL     OW30079   2.228   0.581   5.759 -0.0498 -0.1033  0.3242
 6149SOL    HW130080   2.313   0.544   5.780 -0.2462  0.3583  1.9399
 6149SOL    HW230081   2.223   0.656   5.818  0.3006  0.2499 -0.0970
 6150SOL     OW30082   4.682   1.547  11.502  0.0667  0.1165  0.8139
 6150SOL    HW130083   0.037   1.558  11.510  0.4386 -2.4801 -0.0104
 6150SOL    HW230084   4.646   1.635  11.488 -0.2300 -0.3658 -1.5198
 6151SOL     OW30085   3.603   2.818   2.930 -0.2892  0.0564  0.1161
 6151SOL    HW130086   3.555   2.873   2.868 -0.0686  1.6316  1.3602
 6151SOL    HW230087   3.669   2.792   2.865  1.7907 -0.0340  2.2702
 6152SOL     OW30088   3.701   2.991  13.562  0.5601 -0.0959  0.0029
 6152SOL    HW130089   3.682   2.897  13.560 -0.5731  0.1416 -0.1761
 6152SOL    HW230090   3.690   3.007  13.469  2.3523  3.5001  0.4119
 6153SOL     OW30091   0.671   3.641   4.357 -0.2357  0.4127  0.2138
 6153SOL    HW130092   0.597   3.611   4.304 -0.3772 -1.5174  1.5148
 6153SOL    HW230093   0.651   3.735   4.350 -0.7554  0.1858 -1.3051
 6154SOL     OW30094   4.047   0.100  13.175 -0.1027 -0.1309 -0.0368
 6154SOL    HW130095   4.030   0.006  13.167 -0.6303  0.0001 -0.5225
 6154SOL    HW230096   3.970   0.127  13.225  0.6573  1.0276  0.5052
 6155SOL     OW30097   2.938   3.681   8.931 -0.3912  0.2729  0.3783
 6155SOL    HW130098   2.901   3.713   8.848  1.9722 -0.9735 -1.1518
 6155SOL    HW230099   2.996   3.612   8.898 -2.1492 -0.0755 -1.9840
 6156SOL     OW30100   0.615   0.145   2.376 -0.7589  0.2970 -0.3820
 6156SOL    HW130101   0.677   0.181   2.440 -1.9054 -1.7918  1.8924
 6156SOL    HW230102   0.652   0.194   2.302 -0.5921 -0.6713 -0.9294
 6157SOL     OW30103   0.197   3.422   9.238  0.7276  0.9147 -0.1876
 6157SOL    HW130104   0.192   3.398   9.331  0.1719  0.9813 -0.2049
 6157SOL    HW230105   0.127   3.486   9.235 -2.0977 -2.1008  1.1172
 6158SOL     OW30106   1.128   2.912   7.814 -0.0933  0.0637 -0.1797
 6158SOL    HW130107   1.041   2.913   7.854 -0.6918 -0.4468 -1.4455
 6158SOL    HW230108   1.162   2.997   7.841  0.9804 -0.1345 -0.8800
 6159SOL     OW30109   3.646   4.135   5.439  0.5283 -0.2970  0.1706
 6159SOL    HW130110   3.711   4.065   5.444  2.5584  1.6087  0.3067
 6159SOL    HW230111   3.632   4.156   5.531 -0.8893  0.2308 -0.1637
 6160SOL     OW30112   3.690   2.829   8.146  0.2825 -0.0674 -0.9471
 6160SOL    HW130113   3.776   2.789   8.155  0.4535  0.0241 -2.1208
 6160SOL    HW230114   3.636   2.752   8.129 -0.5481  0.2591  0.2293
 6161SOL     OW30115   4.588   4.437  13.367  0.0572  0.1661 -0.2982
 6161SOL    HW130116   4.611   4.346  13.385 -0.4246  0.4664  1.9120
 6161SOL    HW230117   4.492   4.435  13.363  0.0516 -1.6036  0.9313
 6162SOL     OW30118   0.559   0.691   2.411 -0.0489 -0.0204 -0.7861
 6162SOL    HW130119   0.522   0.655   2.491 -0.7785  1.1650 -0.5851
 6162SOL    HW230120   0.479   0.690   2.358 -0.6652 -3.7992  0.2683
 6163SOL     OW30121   0.599   4.651   2.221 -0.4519  0.0308  0.3211
 6163SOL    HW130122   0.613   4.735   2.264 -0.4054 -0.3919  1.1505
 6163SOL    HW230123   0.506   4.661   2.198 -0.9556 -0.6545  2.0216
 6164SOL     OW30124   0.504   1.720   3.798  0.0810 -0.2115  0.5983
 6164SOL    HW130125   0.516   1.760   3.712  0.4342  1.5976  1.4935
 6164SOL    HW230126   0.419   1.757   3.820  0.1525  1.5149 -2.0706
 6165SOL     OW30127   3.408   3.712   4.153 -0.3322  0.4576  0.3719
 6165SOL    HW130128   3.413   3.617   4.142 -2.0412  0.1727  2.0546
 6165SOL    HW230129   3.391   3.732   4.061 -0.1127  0.4513  0.3299
 6166SOL     OW30130   1.746   1.325   0.748 -0.0424  0.3592 -0.0107
 6166SOL    HW130131   1.700   1.288   0.824 -2.3778 -0.3169 -1.7548
 6166SOL    HW230132   1.802   1.393   0.786  0.4163 -0.3791  0.6464
 6167SOL     OW30133   3.668   3.093  14.153 -0.1375  0.4992 -0.0590
 6167SOL    HW130134   3.665   3.189  14.158 -2.1357  0.4051  0.3339
 6167SOL    HW230135   3.646   3.070  14.062  1.7346 -1.8547  0.0877
 6168SOL     OW30136   1.871   4.391   4.261 -0.2637  0.1141 -0.2173
 6168SOL    HW130137   1.843   4.473   4.220 -1.1197 -0.0060  0.1373
 6168SOL    HW230138   1.798   4.378   4.321 -1.5794 -1.0557 -2.0995
 6169SOL     OW30139   3.285   0.223   7.961 -0.1353  0.2682  0.4488
 6169SOL    HW130140   3.307   0.145   7.909 -2.2751  0.5227 -0.8451
 6169SOL    HW230141   3.350   0.227   8.031  1.6185  0.0806 -1.1789
 6170SOL     OW30142   0.374   2.303   6.836 -0.1498 -0.0081 -0.2927
 6170SOL    HW130143   0.406   2.393   6.828  0.5298 -0.3418 -1.3350
 6170SOL    HW230144   0.443   2.278   6.896 -0.4909  0.0013  0.1052
 6171SOL     OW30145   0.743   3.090  13.897  0.4581 -0.2701  0.3002
 6171SOL    HW130146   0.690   3.083  13.976 -3.2926 -0.3622 -2.2289
 6171SOL    HW230147   0.709   3.173  13.862  1.0977  0.2646  0.9325
 6172SOL     OW30148   1.359   2.444   7.642  0.5009 -0.3536  0.1365
 6172SOL    HW130149   1.426   2.390   7.684  0.5362 -0.7148 -0.3922
 6172SOL    HW230150   1.391   2.534   7.646  1.1540 -0.5134 -1.3301
 6173SOL     OW30151   1.539   2.609   8.891  0.2199 -0.3613 -0.3161
 6173SOL    HW130152   1.508   2.641   8.806  1.4347  0.0928 -0.5870
 6173SOL    HW230153   1.472   2.543   8.909 -1.5182  1.9659  1.6265
 6174SOL     OW30154   3.543   0.312   0.003 -0.2330 -0.9341  0.1821
 6174SOL    HW130155   3.535   0.400  17.722  0.4485 -0.3128  1.5345
 6174SOL    HW230156   3.638   0.310   0.011 -0.3538 -3.3623  1.1915
 6175SOL     OW30157   0.441   3.004   0.880  0.6175 -0.0772 -0.8801
 6175SOL    HW130158   0.437   2.909   0.871  2.8973 -0.3573  1.0023
 6175SOL    HW230159   0.504   3.010   0.952  1.9402  1.0138 -2.1135
 6176SOL     OW30160   3.824   2.278  15.642  0.0830 -0.5138  0.2079
 6176SOL    HW130161   3.809   2.234  15.558 -1.1490  1.6541 -0.7107
 6176SOL    HW230162   3.803   2.369  15.621 -0.1170 -0.3404  1.1772
 6177SOL     OW30163   1.490   2.475   9.849  0.2928 -0.4072  0.2202
 6177SOL    HW130164   1.549   2.521   9.789 -0.2181 -0.0243  0.0075
 6177SOL    HW230165   1.432   2.547   9.871  0.5629 -0.2879  0.5449
 6178SOL     OW30166   1.977   0.489  17.187  0.2046 -0.8524  0.0424
 6178SOL    HW130167   1.988   0.569  17.237  2.1412 -0.6132 -0.7446
 6178SOL    HW230168   2.018   0.513  17.104  0.0578  0.6817  0.4138
 6179SOL     OW30169   1.020   0.761   0.639  0.2858 -0.5066  0.1962
 6179SOL    HW130170   1.080   0.693   0.670 -0.1431 -2.2777 -2.8978
 6179SOL    HW230171   1.088   0.827   0.622  0.3265 -0.6486 -0.1941
 6180SOL     OW30172   4.565   3.245   9.371  0.4219 -0.0532 -0.2104
 6180SOL    HW130173   4.514   3.173   9.406 -0.2195  0.3680 -0.2748
 6180SOL    HW230174   4.616   3.262   9.450 -3.0901 -0.0115  2.0269
 6181SOL     OW30175   0.047   2.733   7.023 -0.0865  0.1078 -0.1644
 6181SOL    HW130176   4.730   2.705   7.095 -1.7587 -2.1193 -2.3110
 6181SOL    HW230177   4.718   2.729   6.955 -0.2870 -1.3049  0.1128
 6182SOL     OW30178   2.223   2.924  13.280  0.2843 -0.4368  0.1124
 6182SOL    HW130179   2.249   2.836  13.305 -0.5258 -1.2710 -2.0164
 6182SOL    HW230180   2.153   2.935  13.344  0.8935 -1.0445  0.8910
 6183SOL     OW30181   2.005   1.830   9.946 -0.5331  0.9020 -0.0688
 6183SOL    HW130182   1.950   1.850  10.022 -0.1195 -0.0722  0.5005
 6183SOL    HW230183   2.018   1.919   9.914  0.1402  0.0312 -2.2469
 6184SOL     OW30184   1.943   1.210   5.694 -0.2122  0.4631 -0.1417
 6184SOL    HW130185   1.961   1.196   5.601  1.4313 -1.0180  0.3953
 6184SOL    HW230186   1.848   1.208   5.704 -0.2228 -0.6680 -0.4518
 6185SOL     OW30187   1.356   4.244  16.469  0.4237  0.2086 -0.0217
 6185SOL    HW130188   1.443   4.283  16.473  0.1660  0.9456 -1.1508
 6185SOL    HW230189   1.360   4.193  16.549  2.1813  0.1379 -0.1659
 6186SOL     OW30190   0.130   3.381   6.539  0.2588  0.4056  0.2356
 6186SOL    HW130191   0.066   3.452   6.546  1.1132  1.4519 -2.2560
 6186SOL    HW230192   0.173   3.411   6.459  0.9905  0.7895  0.7714
 6187SOL     OW30193   1.166   1.566   1.870 -0.3278  0.4068 -0.2098
 6187SOL    HW130194   1.124   1.650   1.852 -0.7665  0.6432  1.8650
 6187SOL    HW230195   1.206   1.564   1.783 -1.6737 -1.3095 -0.7649
 6188SOL     OW30196   3.629   3.772   3.869 -0.5219 -0.5258 -0.1415
 6188SOL    HW130197   3.655   3.851   3.821 -0.3533 -0.1482  0.5735
 6188SOL    HW230198   3.678   3.698   3.832  0.0371 -0.0579 -0.3253
 6189SOL     OW30199   1.460   4.162  12.771 -0.2517  0.8026  0.4148
 6189SOL    HW130200   1.421   4.243  12.804  0.6859  1.8613 -1.0996
 6189SOL    HW230201   1.382   4.135  12.723 -0.5396  1.9688  0.2286
 6190SOL     OW30202   2.338   1.682   1.026 -0.1624 -0.5061 -0.2714
 6190SOL    HW130203   2.338   1.588   1.008 -1.6537 -0.3563 -1.1229
 6190SOL    HW230204   2.246   1.707   1.013 -0.1015 -0.0157  0.2488
 6191SOL     OW30205   2.341   4.255   1.492  0.6822  0.2426  0.4028
 6191SOL    HW130206   2.275   4.217   1.434 -0.6476  1.2851  1.2273
 6191SOL    HW230207   2.302   4.340   1.513  0.5907 -0.5456  3.3429
 6192SOL     OW30208   2.935   1.444  11.118  0.3442  0.4399 -0.4749
 6192SOL    HW130209   2.928   1.536  11.145 -0.3127  0.2433  0.0252
 6192SOL    HW230210   3.025   1.441  11.085 -0.5265  1.9884 -2.9517
 6193SOL     OW30211   1.820   3.586   2.996 -0.5899  0.9944 -0.2267
 6193SOL    HW130212   1.860   3.500   2.993 -1.6077  0.5101  0.1844
 6193SOL    HW230213   1.898   3.642   3.001  0.0180 -0.0602  1.9543
 6194SOL     OW30214   1.986   0.430   5.224 -0.1232 -0.2168  0.3409
 6194SOL    HW130215   1.939   0.429   5.307 -0.6275 -0.7433  0.0458
 6194SOL    HW230216   2.024   0.342   5.227  0.9589  0.1597 -2.3949
 6195SOL     OW30217   1.245   2.105   4.523 -0.4541  0.5407 -0.3221
 6195SOL    HW130218   1.217   2.189   4.488 -0.1203  0.6093 -0.4246
 6195SOL    HW230219   1.191   2.107   4.603 -0.5656  3.3745 -0.4914
 6196SOL     OW30220   1.876   1.271   1.564  0.0679 -0.4981  0.1287
 6196SOL    HW130221   1.781   1.266   1.556 -0.1059  0.6212  1.5756
 6196SOL    HW230222   1.863   1.259   1.658  0.3475  0.4629  0.2887
 6197SOL     OW30223   3.224   2.090   3.389  0.1793 -0.4283 -0.6851
 6197SOL    HW130224   3.238   2.002   3.423  0.9064  0.3333  0.9842
 6197SOL    HW230225   3.175   2.133   3.458 -1.2345 -3.1844  0.0379
 6198SOL     OW30226   2.474   3.694   4.065 -0.1786  0.3642  0.2933
 6198SOL    HW130227   2.452   3.643   4.143 -0.1219  1.2687  0.8967
 6198SOL    HW230228   2.543   3.750   4.101  0.5460 -0.2253 -0.1638
 6199SOL     OW30229   4.070   3.772   4.411  0.6370 -0.5443 -0.5546
 6199SOL    HW130230   3.977   3.752   4.400  0.4728  1.2460 -2.4568
 6199SOL    HW230231   4.065   3.865   4.392 -0.3058 -0.5533 -0.3216
 6200SOL     OW30232   4.495   0.119   5.413 -0.8706 -0.0365  0.3839
 6200SOL    HW130233   4.580   0.153   5.440 -2.4544  2.2104  2.4911
 6200SOL    HW230234   4.484   0.160   5.327 -0.5848  0.0089  0.3673
 6201SOL     OW30235   3.235   4.214  17.162  0.1552  0.0013  0.1358
 6201SOL    HW130236   3.311   4.167  17.126 -2.8571 -2.7373 -2.7117
 6201SOL    HW230237   3.173   4.143  17.180  0.5159 -0.5529 -0.7694
 6202SOL     OW30238   0.169   3.373   7.350 -0.1626  0.1854  0.5610
 6202SOL    HW130239   0.161   3.465   7.376  1.5246  0.5110 -0.0816
 6202SOL    HW230240   0.184   3.380   7.255  0.7819 -2.7724  0.4794
 6203SOL     OW30241   0.902   3.831   2.713 -0.2010  0.0350 -0.8699
 6203SOL    HW130242   0.968   3.861   2.775  0.9062 -0.3903 -1.8305
 6203SOL    HW230243   0.938   3.858   2.628 -0.5691 -0.3871 -1.1577
 6204SOL     OW30244   3.178   1.732   2.519  0.3221  0.4342 -0.0685
 6204SOL    HW130245   3.115   1.661   2.519  1.7640 -0.8398  1.9276
 6204SOL    HW230246   3.178   1.758   2.611  1.1976 -0.0060  0.0584
 6205SOL     OW30247   1.718   3.088   4.700  0.4590 -0.7362  0.1987
 6205SOL    HW130248   1.661   3.160   4.674  1.5718 -0.3763 -1.2632
 6205SOL    HW230249   1.751   3.108   4.787 -1.3582  0.7464  0.5387
 6206SOL     OW30250   1.016   3.236   2.710 -0.2545 -0.6661  0.0205
 6206SOL    HW130251   1.045   3.217   2.621  0.6772  0.3808  0.1001
 6206SOL    HW230252   1.102   3.225   2.752 -2.3622 -2.8667  3.6932
 6207SOL     OW30253   2.572   1.981   0.968  0.3422  0.1590  0.0550
 6207SOL    HW130254   2.488   2.016   0.998  1.3021  0.4640  2.3864
 6207SOL    HW230255   2.531   1.963   0.884  0.9531 -2.1491  0.2546
 6208SOL     OW30256   1.792   2.822   6.298  0.3922 -0.0307 -0.2916
 6208SOL    HW130257   1.792   2.734   6.260  0.5187 -0.7703  1.4503
 6208SOL    HW230258   1.765   2.876   6.224 -0.5332  1.0771  0.8711
 6209SOL     OW30259   0.732   4.050   8.854 -0.4353  0.2980 -0.0834
 6209SOL    HW130260   0.723   3.955   8.841 -2.5929  0.5625 -0.6583
 6209SOL    HW230261   0.669   4.084   8.790 -1.8044 -2.8479 -0.4191
 6210SOL     OW30262   3.985   1.853   3.551  0.0365 -0.4880  0.0723
 6210SOL    HW130263   3.964   1.780   3.609 -0.4482 -0.3810  0.0248
 6210SOL    HW230264   3.981   1.814   3.463  0.7848 -1.0309  0.2787
 6211SOL     OW30265   2.349   4.499   6.656 -0.3160 -0.2500  0.2878
 6211SOL    HW130266   2.318   4.555   6.585  1.7917 -0.4185 -0.7501
 6211SOL    HW230267   2.441   4.477   6.641 -0.2312  1.2611 -1.3684
 6212SOL     OW30268   2.139   4.398   4.342  0.0477 -0.4788  0.3919
 6212SOL    HW130269   2.181   4.333   4.286 -0.1279  0.4270 -0.7895
 6212SOL    HW230270   2.047   4.372   4.339  0.3426 -1.5654  0.5948
 6213SOL     OW30271   1.557   4.117   6.302  0.2092 -0.2474  0.2169
 6213SOL    HW130272   1.485   4.092   6.360 -0.7507  0.4926 -0.6651
 6213SOL    HW230273   1.619   4.149   6.368 -1.6545 -1.5757  2.6183
 6214SOL     OW30274   4.392   4.260  14.020 -0.2776  0.1376  0.0459
 6214SOL    HW130275   4.394   4.279  13.926 -0.7098 -1.9647 -0.3832
 6214SOL    HW230276   4.299   4.255  14.043 -0.2511  0.1581  0.1582
 6215SOL     OW30277   3.267   2.968  12.068  0.1917  0.3546  0.6507
 6215SOL    HW130278   3.209   2.903  12.107 -1.7709  1.4584 -0.3962
 6215SOL    HW230279   3.237   3.052  12.103 -1.5906 -0.2566  0.5908
 6216SOL     OW30280   3.621   0.725   6.680 -0.0129  0.1638 -0.9340
 6216SOL    HW130281   3.605   0.784   6.754 -1.5505 -2.0350  0.5001
 6216SOL    HW230282   3.612   0.645   6.733 -0.3116 -0.3707 -1.7922
 6217SOL     OW30283   2.452   3.280   0.408 -0.3119  0.3482 -0.3056
 6217SOL    HW130284   2.420   3.248   0.324 -0.8656 -2.0273  0.8168
 6217SOL    HW230285   2.528   3.222   0.411  0.2337  1.1195  0.7964
 6218SOL     OW30286   3.610   4.693   5.848  0.4336  0.2175 -0.3972
 6218SOL    HW130287   3.704   4.704   5.835  0.2640  3.3965  0.8366
 6218SOL    HW230288   3.590   4.640   5.770 -1.7815  0.5438 -0.0465
 6219SOL     OW30289   0.688   2.518   0.226 -0.1737  0.2532 -0.1072
 6219SOL    HW130290   0.749   2.585   0.258  1.4802 -0.7367 -1.1429
 6219SOL    HW230291   0.727   2.499   0.140  0.3467 -2.3431  0.6981
 6220SOL     OW30292   4.601   3.323  13.120 -0.1959  0.1930 -0.2594
 6220SOL    HW130293   4.645   3.239  13.107 -0.1745  0.3435 -1.2174
 6220SOL    HW230294   4.644   3.350  13.038  0.6585 -0.2589  0.0390
 6221SOL     OW30295   4.667   2.730   5.261  0.5295 -0.6967  0.6241
 6221SOL    HW130296   4.700   2.776   5.338  1.1494 -0.7003  0.3539
 6221SOL    HW230297   4.601   2.790   5.225  0.4667 -1.3161 -0.2827
 6222SOL     OW30298   3.372   0.903   9.412  0.3603 -0.2922 -0.1890
 6222SOL    HW130299   3.312   0.831   9.393  2.0572 -1.2519 -1.9326
 6222SOL    HW230300   3.452   0.860   9.444  1.1393  3.4011  2.8825
 6223SOL     OW30301   2.905   0.448  16.716  0.5492 -0.2062 -0.2842
 6223SOL    HW130302   2.824   0.431  16.764 -0.8409 -0.6972 -2.8009
 6223SOL    HW230303   2.914   0.543  16.726 -0.3900 -0.3037  1.4559
 6224SOL     OW30304   3.466   4.588  14.640  0.1313 -0.1512 -0.5928
 6224SOL    HW130305   3.474   4.569  14.734  0.2092 -2.4726 -1.0636
 6224SOL    HW230306   3.404   4.520  14.614  1.2101 -0.6545 -1.8673
 6225SOL     OW30307   0.374   3.432   4.651 -0.3289 -0.3431  0.4998
 6225SOL    HW130308   0.363   3.526   4.664  0.6187 -0.1316 -0.2451
 6225SOL    HW230309   0.463   3.430   4.618 -0.7406 -0.1773 -0.6227
 6226SOL     OW30310   1.551   1.741   3.660 -0.0803  0.4948  0.2927
 6226SOL    HW130311   1.581   1.697   3.581  0.3355 -0.5870  1.0474
 6226SOL    HW230312   1.491   1.807   3.624 -1.6878 -1.1229  0.0253
 6227SOL     OW30313   2.982   2.949   9.188  0.0955  0.1046 -0.0530
 6227SOL    HW130314   2.933   2.890   9.244  0.6420  0.6630  1.0141
 6227SOL    HW230315   3.054   2.983   9.241  1.2483 -0.3274 -1.3461
 6228SOL     OW30316   2.646   1.013   5.710  0.2719  0.4996 -0.3637
 6228SOL    HW130317   2.618   0.924   5.691 -2.1249  1.3213 -0.7817
 6228SOL    HW230318   2.613   1.023   5.800 -1.1777 -0.6391 -0.7831
 6229SOL     OW30319   2.217   4.414  17.736  0.5366 -0.1491  0.0934
 6229SOL    HW130320   2.209   4.509  17.725 -0.2957 -0.2940 -0.5695
 6229SOL    HW230321   2.156   4.403   0.053 -1.5890  1.3047 -1.4570
 6230SOL     OW30322   0.335   2.392  17.592 -0.1457 -0.9949 -0.2167
 6230SOL    HW130323   0.353   2.456  17.661  1.1922 -0.2438 -1.2666
 6230SOL    HW230324   0.258   2.342  17.621 -0.2063 -1.4471 -1.1526
 6231SOL     OW30325   1.234   4.032   1.041  0.3677 -0.4215  0.4918
 6231SOL    HW130326   1.240   4.103   0.977  0.3826  0.2020  1.1763
 6231SOL    HW230327   1.225   4.079   1.124 -1.0815  0.7119 -0.3241
 6232SOL     OW30328   1.312   1.685  11.859 -0.3954  0.8513 -0.3419
 6232SOL    HW130329   1.304   1.755  11.924  0.3596  1.2172 -0.6390
 6232SOL    HW230330   1.369   1.624  11.906 -0.2288  2.1830  1.2164
 6233SOL     OW30331   2.552   4.282  12.305  0.2360 -0.0022  0.2759
 6233SOL    HW130332   2.595   4.250  12.384 -0.2727 -3.4566 -0.8778
 6233SOL    HW230333   2.493   4.347  12.344  0.7854  0.9860 -0.5171
 6234SOL     OW30334   2.929   4.544  15.498  0.4247  0.2075 -0.2242
 6234SOL    HW130335   3.022   4.556  15.480 -0.3022  0.0023 -4.2218
 6234SOL    HW230336   2.899   4.597  15.424  1.0019  1.4247  0.4029
 6235SOL     OW30337   1.033   0.622   8.304 -0.6958 -0.1220  0.0739
 6235SOL    HW130338   1.081   0.540   8.291  2.3839  1.6203  0.6197
 6235SOL    HW230339   0.950   0.605   8.260 -0.5667  1.6379 -0.8740
 6236SOL     OW30340   2.827   4.126  17.509 -0.1503  0.2205  0.2271
 6236SOL    HW130341   2.749   4.161  17.550 -0.7150 -1.0416  0.2319
 6236SOL    HW230342   2.891   4.197  17.503 -0.8843  0.8715  0.2095
 6237SOL     OW30343   2.315   0.419   3.886 -0.3957  0.2064  0.0799
 6237SOL    HW130344   2.314   0.329   3.919 -0.4251  0.8980  1.9943
 6237SOL    HW230345   2.309   0.456   3.974 -1.6751  1.5876 -0.5917
 6238SOL     OW30346   2.151   3.183  13.199  0.0535  0.1245 -0.5014
 6238SOL    HW130347   2.172   3.231  13.279 -2.0667 -0.3541  0.3426
 6238SOL    HW230348   2.178   3.094  13.220  0.7172  0.2926 -0.6369
 6239SOL     OW30349   1.347   2.126   9.439  0.2283 -0.0677  0.0502
 6239SOL    HW130350   1.402   2.091   9.510 -1.4838 -0.9280  0.9620
 6239SOL    HW230351   1.261   2.087   9.452  0.0113  0.0612 -1.0084
 6240SOL     OW30352   1.510   1.551   8.003 -0.1665 -0.9014 -0.1074
 6240SOL    HW130353   1.443   1.562   7.935 -0.7970 -0.2943  0.6129
 6240SOL    HW230354   1.548   1.639   8.006 -2.2754 -0.0202  0.5117
 6241SOL     OW30355   2.339   0.976   7.609  0.5755 -0.1023  0.0081
 6241SOL    HW130356   2.277   0.938   7.672  1.0914  0.2632  0.7276
 6241SOL    HW230357   2.391   1.032   7.665  0.9808 -0.3424 -0.1321
 6242SOL     OW30358   2.430   1.002   2.633 -0.4826 -0.3140 -0.3392
 6242SOL    HW130359   2.522   0.976   2.637 -0.1044  1.3042  1.2013
 6242SOL    HW230360   2.383   0.920   2.619 -2.3606  0.7677 -0.3344
 6243SOL     OW30361   1.913   4.246  14.211 -0.5844  0.0748 -0.0573
 6243SOL    HW130362   1.995   4.295  14.216 -0.7973  0.6251 -1.7074
 6243SOL    HW230363   1.876   4.273  14.126  1.1443 -1.0414 -1.1672
 6244SOL     OW30364   3.507   4.047   3.658 -0.1296 -0.1392 -0.3819
 6244SOL    HW130365   3.596   4.082   3.661  0.9810 -2.9223 -0.8607
 6244SOL    HW230366   3.459   4.110   3.713  0.0505 -1.6773  1.5261
 6245SOL     OW30367   2.716   0.023   2.780  0.2030 -0.4367 -0.1053
 6245SOL    HW130368   2.803   0.049   2.809  0.0753  0.4927 -0.5522
 6245SOL    HW230369   2.731   4.668   2.781  2.9306 -0.0170 -2.2957
 6246SOL     OW30370   2.131   4.282   5.549 -0.6725 -0.1891  0.3501
 6246SOL    HW130371   2.127   4.280   5.645 -3.1162 -2.0529  0.2119
 6246SOL    HW230372   2.053   4.337   5.542  0.4003  1.3888  0.8945
 6247SOL     OW30373   2.503   3.933   7.248 -0.1248 -0.2106  0.0127
 6247SOL    HW130374   2.533   3.988   7.175  0.6421  0.7497  1.0437
 6247SOL    HW230375   2.421   3.901   7.212 -0.1646 -1.5799  1.3115
 6248SOL     OW30376   0.668   3.380   5.815 -0.1371 -0.0827 -0.4333
 6248SOL    HW130377   0.675   3.400   5.722 -2.6054  0.2057 -0.5482
 6248SOL    HW230378   0.615   3.301   5.810  0.3279 -0.3385 -1.3107
 6249SOL     OW30379   0.639   0.757   7.610 -0.4004 -0.3880 -0.1886
 6249SOL    HW130380   0.598   0.767   7.695 -0.9451 -0.3615 -0.4566
 6249SOL    HW230381   0.667   0.667   7.595 -1.0291 -0.2291 -2.3772
 6250SOL     OW30382   0.136   4.393   7.160 -0.2266 -0.5285  0.3298
 6250SOL    HW130383   0.227   4.401   7.189 -0.4622  0.8610  0.7157
 6250SOL    HW230384   0.087   4.430   7.233 -0.8144  3.3206 -1.9845
 6251SOL     OW30385   3.620   3.219   9.952  0.3689  0.6143 -0.3176
 6251SOL    HW130386   3.539   3.256   9.988 -1.5199 -0.5224 -3.4427
 6251SOL    HW230387   3.648   3.281   9.885  1.1849  0.6457  0.0454
 6252SOL     OW30388   1.814   4.146   7.738 -0.2246 -0.0388  0.0676
 6252SOL    HW130389   1.881   4.115   7.799  0.8154  0.6404 -0.7243
 6252SOL    HW230390   1.744   4.080   7.734 -0.0740 -0.0097 -3.1191
 6253SOL     OW30391   0.604   0.948   2.312  0.4130  0.4448 -0.1080
 6253SOL    HW130392   0.599   0.859   2.344  0.1066  0.5633  0.1741
 6253SOL    HW230393   0.680   0.977   2.362 -0.8247 -1.4986  2.8660
 6254SOL     OW30394   1.681   4.022   2.640  0.5294 -0.0975  0.1858
 6254SOL    HW130395   1.698   4.093   2.702 -0.2181  0.3983 -0.1768
 6254SOL    HW230396   1.636   4.064   2.566 -3.1844 -2.0534  1.3227
 6255SOL     OW30397   0.678   0.583   7.189 -0.1780  0.0430  0.5935
 6255SOL    HW130398   0.726   0.607   7.269 -0.4093  0.5864  0.5733
 6255SOL    HW230399   0.617   0.516   7.219 -1.3637 -0.0472 -2.0052
 6256SOL     OW30400   1.218   3.212  12.165  0.3805  0.1600  0.0668
 6256SOL    HW130401   1.286   3.216  12.233  1.5661  0.0945 -1.1070
 6256SOL    HW230402   1.166   3.146  12.210 -0.7321  0.7438 -0.3730
 6257SOL     OW30403   3.913   1.175   4.505  0.2408 -0.3244  0.9637
 6257SOL    HW130404   4.006   1.192   4.492  0.5718 -1.2231  2.1981
 6257SOL    HW230405   3.904   1.223   4.587 -1.4423 -2.6138  2.1113
 6258SOL     OW30406   3.770   1.133   7.753  0.1247  0.1791 -0.2423
 6258SOL    HW130407   3.774   1.142   7.658  0.1765 -0.4486 -0.3011
 6258SOL    HW230408   3.854   1.171   7.776 -0.1517  0.4091  0.3949
 6259SOL     OW30409   2.616   4.427   6.640 -0.2666  0.2148 -0.3981
 6259SOL    HW130410   2.665   4.376   6.705 -0.8105 -1.0206 -0.9605
 6259SOL    HW230411   2.680   4.495   6.621  1.5665 -1.2409  0.6171
 6260SOL     OW30412   3.269   1.490   0.109  0.1465  0.4888 -0.8193
 6260SOL    HW130413   3.220   1.409   0.120 -0.1360  0.7566 -0.1080
 6260SOL    HW230414   3.266   1.534   0.194 -2.0364  1.6493 -1.5203
 6261SOL     OW30415   0.695   0.973   2.985  0.1309  0.1418  0.3233
 6261SOL    HW130416   0.669   0.988   3.076 -1.9074 -1.9420  0.0763
 6261SOL    HW230417   0.749   1.051   2.973 -1.5287  1.3518  0.6891
 6262SOL     OW30418   3.835   1.580  10.699 -0.0770 -0.0520 -0.4624
 6262SOL    HW130419   3.870   1.513  10.639  2.4224 -1.2036  2.2788
 6262SOL    HW230420   3.760   1.538  10.742 -0.5230  1.4875  0.2546
 6263SOL     OW30421   3.681   0.815   0.285  0.0846 -0.2404  0.0063
 6263SOL    HW130422   3.618   0.791   0.217 -0.6607 -1.6711  1.2013
 6263SOL    HW230423   3.633   0.785   0.362  2.0641  0.5923  1.5621
 6264SOL     OW30424   1.035   0.351  15.570  0.6536  0.1351 -0.4017
 6264SOL    HW130425   0.945   0.347  15.536  0.0983 -2.5158  1.3273
 6264SOL    HW230426   1.048   0.256  15.575  0.4248  0.0159 -2.3363
 6265SOL     OW30427   1.443   2.817  10.864  0.2075 -0.3510 -0.1891
 6265SOL    HW130428   1.538   2.826  10.865  0.2506 -0.6094 -1.2465
 6265SOL    HW230429   1.410   2.905  10.844 -1.0991  0.0306  3.5920
 6266SOL     OW30430   0.454   2.318   7.310 -0.2805  0.0714  0.2911
 6266SOL    HW130431   0.492   2.234   7.284 -0.6981  0.8991 -2.9045
 6266SOL    HW230432   0.532   2.371   7.325  0.9834 -2.1645  1.6720
 6267SOL     OW30433   1.127   0.153   2.233  0.0825 -0.3004 -0.4281
 6267SOL    HW130434   1.127   0.234   2.283  0.3564 -0.2915 -0.4436
 6267SOL    HW230435   1.036   0.149   2.204 -0.3261  0.0393  0.8049
 6268SOL     OW30436   4.339   2.589   6.624 -0.2358  0.0444 -0.2137
 6268SOL    HW130437   4.366   2.498   6.608 -0.4360 -0.1457  0.5152
 6268SOL    HW230438   4.280   2.604   6.551  0.0958  2.5614  0.0441
 6269SOL     OW30439   2.495   3.558   2.895 -0.0603 -0.2796 -0.1498
 6269SOL    HW130440   2.502   3.560   2.799 -2.3582 -0.3610 -0.3338
 6269SOL    HW230441   2.581   3.528   2.923  0.2515 -0.1946 -1.0053
 6270SOL     OW30442   3.250   0.481   3.857 -0.0941  0.3476  0.1272
 6270SOL    HW130443   3.201   0.497   3.938 -2.5569 -2.1499 -0.8532
 6270SOL    HW230444   3.254   0.386   3.858 -2.4734  0.2196 -0.6317
 6271SOL     OW30445   0.465   2.480  16.573 -0.7738  0.3522  0.2053
 6271SOL    HW130446   0.541   2.509  16.623 -1.7817  0.2969  1.7837
 6271SOL    HW230447   0.491   2.526  16.493  1.2517 -1.5385 -0.2238
 6272SOL     OW30448   0.685   3.440   9.756  0.0572  0.3193 -0.1709
 6272SOL    HW130449   0.769   3.482   9.776  0.1461  0.1255 -0.1258
 6272SOL    HW230450   0.652   3.418   9.843  1.7031 -1.7550 -0.0486
 6273SOL     OW30451   4.508   1.752   2.066  0.0541  0.1189  0.0407
 6273SOL    HW130452   4.457   1.690   2.118 -0.9324 -0.2987 -1.4129
 6273SOL    HW230453   4.574   1.789   2.125 -0.6881 -0.1260  1.0294
 6274SOL     OW30454   0.445   1.883   2.862  0.2117  0.1465 -0.2811
 6274SOL    HW130455   0.481   1.896   2.775 -0.5523  1.1873 -0.4361
 6274SOL    HW230456   0.497   1.807   2.887  1.1010  0.5811 -0.8218
 6275SOL     OW30457   3.190   1.885   2.183 -0.3188 -0.0572 -0.0871
 6275SOL    HW130458   3.112   1.830   2.175  2.0508 -3.3816 -0.4450
 6275SOL    HW230459   3.248   1.822   2.225 -1.7622 -0.7227  0.8966
 6276SOL     OW30460   4.399   3.982   8.575  0.4012 -0.5694 -0.2467
 6276SOL    HW130461   4.429   3.990   8.484 -2.5294  0.9447 -1.0776
 6276SOL    HW230462   4.354   4.066   8.588  0.6411 -0.6707  1.1556
 6277SOL     OW30463   2.429   0.538   5.466 -0.2260 -0.0713 -0.4429
 6277SOL    HW130464   2.380   0.598   5.410  1.4581  2.7258  1.1108
 6277SOL    HW230465   2.517   0.577   5.463 -1.1885  2.2329  2.5579
 6278SOL     OW30466   2.576   4.363  12.048  0.9051 -0.4618  0.0247
 6278SOL    HW130467   2.588   4.335  12.139 -0.7424  1.8734  0.9716
 6278SOL    HW230468   2.667   4.364  12.020  0.8430 -0.8323 -0.1996
 6279SOL     OW30469   0.929   2.794   1.597  0.4656  0.0003 -0.0744
 6279SOL    HW130470   0.872   2.810   1.523  2.2786  0.3918 -1.3950
 6279SOL    HW230471   0.981   2.875   1.600 -1.4722  1.2473 -0.3334
 6280SOL     OW30472   3.136   0.708   7.841 -0.6606  0.1933 -0.5439
 6280SOL    HW130473   3.041   0.714   7.832 -0.6258 -0.7931 -1.5048
 6280SOL    HW230474   3.146   0.676   7.931 -1.7703 -0.9900 -0.8437
 6281SOL     OW30475   1.067   1.627   6.248 -0.6662  0.1623 -0.2175
 6281SOL    HW130476   1.124   1.555   6.223  0.0577 -0.0905  2.1871
 6281SOL    HW230477   1.097   1.643   6.337 -0.0752 -0.2763 -0.3387
 6282SOL     OW30478   2.549   0.313   7.517 -0.0862  0.2487 -0.5445
 6282SOL    HW130479   2.499   0.306   7.598  0.0449  0.8927 -0.4105
 6282SOL    HW230480   2.528   0.397   7.478 -0.4595  0.9803  1.2654
 6283SOL     OW30481   0.541   1.367   6.063  0.0979  0.0810 -0.6475
 6283SOL    HW130482   0.571   1.423   6.135  0.4809 -0.8597 -0.0765
 6283SOL    HW230483   0.489   1.314   6.123  0.6376  0.6391  0.3167
 6284SOL     OW30484   4.407   3.468   3.984 -0.4369  0.9170 -0.7052
 6284SOL    HW130485   4.345   3.443   3.916  1.5075  0.3449 -2.2683
 6284SOL    HW230486   4.374   3.552   4.015 -0.2763  0.4307  0.7967
 6285SOL     OW30487   1.629   1.209  12.916 -0.0107 -0.0826 -0.0250
 6285SOL    HW130488   1.554   1.244  12.867  0.2073  1.2951  0.6575
 6285SOL    HW230489   1.668   1.142  12.860 -0.1860  2.8092 -3.5719
 6286SOL     OW30490   2.397   1.255   4.044 -0.1362 -0.3596 -0.0139
 6286SOL    HW130491   2.485   1.233   4.077 -1.1061 -1.7923  1.6758
 6286SOL    HW230492   2.359   1.169   4.024 -0.5477  0.0973 -1.1468
 6287SOL     OW30493   1.455   0.474   6.406 -0.3189 -0.0514  0.4230
 6287SOL    HW130494   1.532   0.417   6.415 -0.8610 -1.1615 -2.0436
 6287SOL    HW230495   1.421   0.479   6.496 -0.8264  1.5271  0.1240
 6288SOL     OW30496   2.213   3.226   6.919 -0.2757 -0.3331  0.0052
 6288SOL    HW130497   2.140   3.282   6.945  0.4536  1.0593 -0.9318
 6288SOL    HW230498   2.235   3.182   7.002 -0.2210  1.0949  0.7573
 6289SOL     OW30499   0.656   0.977   8.937  0.6648 -0.6479 -0.4444
 6289SOL    HW130500   0.744   1.015   8.941  0.0315  0.7536  0.5735
 6289SOL    HW230501   0.666   0.884   8.956 -1.3932 -0.9430 -0.8613
 6290SOL     OW30502   4.526   2.138   9.480 -0.2204  0.0733  0.3976
 6290SOL    HW130503   4.473   2.139   9.400 -1.3422 -1.6822  1.1152
 6290SOL    HW230504   4.484   2.206   9.533 -0.2270 -0.1349  0.6599
 6291SOL     OW30505   2.939   1.115  15.949 -0.3047  0.4523 -0.7086
 6291SOL    HW130506   2.865   1.174  15.964  0.7517  1.4623  0.5092
 6291SOL    HW230507   2.992   1.121  16.028 -2.8255  3.0187  0.7847
 6292SOL     OW30508   2.098   3.028   7.731 -0.2225 -0.4122  0.0461
 6292SOL    HW130509   2.068   3.046   7.820  0.9466 -1.6258  0.6908
 6292SOL    HW230510   2.020   2.980   7.701  0.5879 -2.1368  0.7128
 6293SOL     OW30511   2.380   2.674  16.805  0.8063  0.6970  0.0019
 6293SOL    HW130512   2.396   2.765  16.780  1.2344  1.1267  1.8592
 6293SOL    HW230513   2.316   2.646  16.739  2.4067  2.7189 -2.3912
 6294SOL     OW30514   3.850   3.447  16.528  0.0121  0.0965 -0.5718
 6294SOL    HW130515   3.942   3.423  16.524  0.0041  0.0210 -0.3333
 6294SOL    HW230516   3.863   3.531  16.572 -0.5380 -0.8715  1.4550
 6295SOL     OW30517   1.988   2.324   5.277  0.2063 -0.7202 -0.1186
 6295SOL    HW130518   2.006   2.231   5.267  1.6595 -0.3454 -0.9813
 6295SOL    HW230519   1.959   2.335   5.186 -1.9723  2.0422  0.8792
 6296SOL     OW30520   1.144   1.063   8.015  0.3091  0.4037 -0.6198
 6296SOL    HW130521   1.200   1.132   8.049  2.8596 -0.6478 -2.7457
 6296SOL    HW230522   1.114   1.033   8.101  1.6353 -0.2664 -0.4082
 6297SOL     OW30523   0.570   2.494   2.281 -0.7489 -0.1510 -0.0017
 6297SOL    HW130524   0.624   2.464   2.354  1.9657 -1.0572 -2.3900
 6297SOL    HW230525   0.630   2.560   2.248  0.0852 -0.2873  1.2279
 6298SOL     OW30526   4.251   4.523  17.160 -0.2028  0.1890  0.4604
 6298SOL    HW130527   4.186   4.559  17.220  1.8981  1.4337  1.9615
 6298SOL    HW230528   4.259   4.435  17.196  1.2520 -0.9553 -2.5899
 6299SOL     OW30529   1.764   4.182   2.039  0.3977  0.1979 -0.1818
 6299SOL    HW130530   1.819   4.238   2.093 -1.3847  1.6537  0.1330
 6299SOL    HW230531   1.736   4.117   2.104 -2.3521  1.8945  0.3629
 6300SOL     OW30532   0.219   2.641  16.120  0.3211  0.2134  0.0720
 6300SOL    HW130533   0.208   2.662  16.213  0.4018 -1.8340  0.5504
 6300SOL    HW230534   0.206   2.727  16.080  1.7215 -0.7584 -2.4524
 6301SOL     OW30535   4.093   3.847   1.225 -0.7348 -0.5028 -0.5172
 6301SOL    HW130536   4.184   3.845   1.256 -0.9106 -0.0175  0.0119
 6301SOL    HW230537   4.085   3.937   1.193  0.8047 -0.3064 -0.3873
 6302SOL     OW30538   4.339   3.411   1.149 -0.1985 -0.0756 -0.0312
 6302SOL    HW130539   4.285   3.408   1.228 -0.3243  1.7134 -0.0376
 6302SOL    HW230540   4.404   3.342   1.164 -0.1981 -0.2977 -1.0493
 6303SOL     OW30541   3.646   3.018   8.318  0.0295 -0.2159 -0.5445
 6303SOL    HW130542   3.647   2.949   8.252 -0.1417 -0.5070 -0.2402
 6303SOL    HW230543   3.552   3.031   8.316  0.1280  0.1890 -2.3409
 6304SOL     OW30544   4.203   0.541   9.466 -0.3522 -0.2368  0.4505
 6304SOL    HW130545   4.170   0.627   9.440 -0.9453 -0.0612  1.7550
 6304SOL    HW230546   4.126   0.506   9.511 -0.4831 -0.6477 -0.0948
 6305SOL     OW30547   1.741   4.102   7.121 -0.3125  0.2192 -0.1643
 6305SOL    HW130548   1.799   4.173   7.148 -0.8506  0.1779  1.0807
 6305SOL    HW230549   1.807   4.041   7.088  0.0198  0.1030  0.7154
 6306SOL     OW30550   0.033   0.164   4.130 -0.1614  0.2822  0.1563
 6306SOL    HW130551   0.077   0.151   4.045  0.8093 -2.3173  1.0566
 6306SOL    HW230552   4.715   0.090   4.143  0.4647  0.2211  2.5432
 6307SOL     OW30553   0.046   1.774   9.919 -0.0345 -0.1913 -0.6402
 6307SOL    HW130554   0.133   1.784   9.880  1.0196 -3.0208  0.9634
 6307SOL    HW230555   0.067   1.733  10.003 -0.5249  0.0661 -0.3991
 6308SOL     OW30556   4.590   2.992   8.545  0.5922  0.0074  0.2201
 6308SOL    HW130557   4.671   2.994   8.595  0.7852  3.7392 -0.2564
 6308SOL    HW230558   4.616   3.063   8.486  0.9264 -1.2206 -1.1049
 6309SOL     OW30559   2.672   1.735   2.849  0.3698  0.2146 -0.5600
 6309SOL    HW130560   2.739   1.735   2.917 -0.7303 -0.6606  0.5081
 6309SOL    HW230561   2.644   1.825   2.864 -0.0861  0.3329 -2.0947
 6310SOL     OW30562   4.059   3.271   7.820  0.2527  0.0789  0.4077
 6310SOL    HW130563   4.004   3.199   7.788 -0.7091 -0.3863  3.1134
 6310SOL    HW230564   4.140   3.226   7.840  0.7996  0.5845 -0.6763
 6311SOL     OW30565   4.177   4.061   6.042  0.2983 -0.1528 -0.1252
 6311SOL    HW130566   4.156   3.981   6.090 -0.3801  1.4663  2.2995
 6311SOL    HW230567   4.232   4.033   5.969  0.4717  0.6129 -0.2887
 6312SOL     OW30568   4.317   2.670   5.218 -0.0402 -0.0642  0.0958
 6312SOL    HW130569   4.370   2.620   5.156 -1.5937 -2.0247  0.3815
 6312SOL    HW230570   4.359   2.755   5.205  1.2125 -0.6983 -0.0162
 6313SOL     OW30571   2.496   0.174   0.352  0.0553 -0.1538  0.1327
 6313SOL    HW130572   2.585   0.210   0.344  0.1886  0.0527  2.4132
 6313SOL    HW230573   2.506   0.095   0.300  0.7572 -0.0867  0.1587
 6314SOL     OW30574   0.901   2.605   7.613  0.2301  0.3796  0.1536
 6314SOL    HW130575   0.942   2.595   7.699 -0.8544  1.2496  0.7826
 6314SOL    HW230576   0.948   2.544   7.558 -0.0320  1.0481 -0.8046
 6315SOL     OW30577   0.874   3.920   0.854 -0.1992 -0.0996  0.4706
 6315SOL    HW130578   0.889   3.825   0.856 -0.8249 -0.2083  0.0394
 6315SOL    HW230579   0.927   3.948   0.779 -0.8163 -0.3740 -0.0670
 6316SOL     OW30580   4.617   2.540  14.277  0.8546  0.0138  0.3885
 6316SOL    HW130581   4.704   2.512  14.248  0.4538 -2.3106  1.3935
 6316SOL    HW230582   4.630   2.635  14.276  1.0770 -0.0216 -1.5153
 6317SOL     OW30583   2.768   2.175  10.242  0.0145  0.4941 -0.0645
 6317SOL    HW130584   2.783   2.109  10.174 -0.4377 -0.9880  1.2815
 6317SOL    HW230585   2.760   2.112  10.314 -3.2113  0.3002 -0.6178
 6318SOL     OW30586   0.378   2.616   0.011  0.6391  0.0169  0.1425
 6318SOL    HW130587   0.462   2.656   0.034  1.6368 -1.3598 -1.0846
 6318SOL    HW230588   0.366   2.659  17.682  2.1161  2.1240  1.0187
 6319SOL     OW30589   4.174   4.048   5.545  0.1055  0.2945  0.0661
 6319SOL    HW130590   4.163   4.142   5.541  0.5120  0.3575  0.4266
 6319SOL    HW230591   4.269   4.038   5.538  0.0441 -1.8081  2.0309
 6320SOL     OW30592   0.553   0.738   8.358  0.6269 -0.0283  0.2351
 6320SOL    HW130593   0.484   0.800   8.335  1.2823  0.3757 -0.6355
 6320SOL    HW230594   0.622   0.763   8.296  1.9821 -0.0452  1.7466
 6321SOL     OW30595   2.991   2.285   8.449  0.1879  0.3396 -0.0908
 6321SOL    HW130596   2.990   2.302   8.544 -1.7000  1.6027 -0.3264
 6321SOL    HW230597   2.900   2.308   8.429  0.5747  1.3984 -0.6099
 6322SOL     OW30598   3.835   1.752   6.951  0.0409  0.4141  0.0098
 6322SOL    HW130599   3.790   1.706   6.880  0.6485 -0.7997  0.4002
 6322SOL    HW230600   3.788   1.834   6.963 -0.0367  0.6694 -2.0115
 6323SOL     OW30601   1.512   1.002   2.585  0.2466 -0.2586 -0.7357
 6323SOL    HW130602   1.456   0.944   2.533  2.5897 -4.0475  1.0072
 6323SOL    HW230603   1.588   0.944   2.586  1.9230  1.9164 -0.9981
 6324SOL     OW30604   1.306   1.861  12.057 -0.9098  0.0937 -0.2861
 6324SOL    HW130605   1.241   1.887  12.122 -0.8008  0.8031 -0.4530
 6324SOL    HW230606   1.381   1.917  12.079 -0.1938 -1.1327  0.3973
 6325SOL     OW30607   0.004   4.150   5.722 -0.1339 -0.2737 -0.5200
 6325SOL    HW130608   0.012   4.241   5.693  0.3439  0.4337  1.8822
 6325SOL    HW230609   0.036   4.163   5.811  1.4061 -0.1951 -1.0838
 6326SOL     OW30610   0.589   2.783   2.262  0.1760 -0.0039  0.3655
 6326SOL    HW130611   0.613   2.828   2.181 -3.3044  0.2050 -0.5885
 6326SOL    HW230612   0.605   2.853   2.324 -0.7571  1.6622 -1.2577
 6327SOL     OW30613   2.668   2.645   4.864  0.0466  0.0398  0.3997
 6327SOL    HW130614   2.625   2.730   4.870  0.2284 -0.1122  3.7712
 6327SOL    HW230615   2.746   2.660   4.918 -0.5955 -0.1989  1.3849
 6328SOL     OW30616   0.003   1.908   7.626  0.5832 -0.2637 -0.2287
 6328SOL    HW130617   4.695   1.989   7.608 -0.4323 -0.7247  0.4261
 6328SOL    HW230618   0.093   1.941   7.622  0.2789  0.7118  1.0083
 6329SOL     OW30619   2.415   0.034   7.834 -0.4670 -0.1690  0.5503
 6329SOL    HW130620   2.492   0.013   7.781 -1.0347  2.8086 -1.4758
 6329SOL    HW230621   2.360   0.065   7.762 -2.3992 -1.0316  1.6859
 6330SOL     OW30622   2.820   3.510  16.786 -0.1734 -0.0708 -0.0494
 6330SOL    HW130623   2.724   3.506  16.795  0.1429 -1.8615  2.6188
 6330SOL    HW230624   2.842   3.420  16.809 -0.2137 -0.2199 -0.6014
 6331SOL     OW30625   1.777   3.076  15.400 -0.9348  0.2515 -0.1439
 6331SOL    HW130626   1.751   2.996  15.355 -0.7462  0.8159 -1.2578
 6331SOL    HW230627   1.835   3.112  15.332 -0.2750 -1.0005 -0.2399
 6332SOL     OW30628   1.017   4.508  10.542 -0.0414 -0.3069 -0.1767
 6332SOL    HW130629   0.978   4.427  10.508 -2.4673  0.9346 -0.3652
 6332SOL    HW230630   1.103   4.517  10.499 -0.0284 -2.9278 -0.7380
 6333SOL     OW30631   3.079   0.910   8.169 -0.0852 -0.4101 -0.2527
 6333SOL    HW130632   3.171   0.883   8.175  0.0300 -0.1262 -0.7049
 6333SOL    HW230633   3.055   0.903   8.261 -0.7774 -0.1520 -0.4165
 6334SOL     OW30634   3.642   1.455   1.238 -0.2405 -0.4078 -0.2124
 6334SOL    HW130635   3.589   1.406   1.301 -2.9742  0.3161 -1.9850
 6334SOL    HW230636   3.659   1.527   1.298  1.0613 -0.5750 -0.3833
 6335SOL     OW30637   0.099   2.821  14.050  0.4169  0.4389 -0.2975
 6335SOL    HW130638   0.124   2.851  14.138 -1.3777  0.8970  0.0493
 6335SOL    HW230639   0.043   2.892  14.018 -0.1391  0.2733  0.3067
 6336SOL     OW30640   0.562   4.422   4.613  0.0325  0.3305  0.0858
 6336SOL    HW130641   0.479   4.469   4.602  0.1321  0.8388  1.6323
 6336SOL    HW230642   0.603   4.488   4.668  1.1156 -1.2624  1.1998
 6337SOL     OW30643   4.645   0.994   4.172  0.0520 -0.1795  0.4290
 6337SOL    HW130644   4.733   0.980   4.207  1.2828  0.2059 -2.4949
 6337SOL    HW230645   4.603   0.990   4.258  2.2068  0.3891  1.4877
 6338SOL     OW30646   3.734   0.826   8.545 -0.0618  0.1226  0.0292
 6338SOL    HW130647   3.647   0.834   8.585  0.4722 -2.1484  1.6379
 6338SOL    HW230648   3.791   0.859   8.614 -0.2594 -2.7057  1.5429
 6339SOL     OW30649   0.386   2.557   4.024 -0.2789 -0.1340 -0.4396
 6339SOL    HW130650   0.456   2.613   4.055  0.2491 -0.3750 -1.1885
 6339SOL    HW230651   0.409   2.522   3.938  2.0899  1.1174 -0.2915
 6340SOL     OW30652   2.026   1.357   2.768  0.0147  0.5945 -0.2245
 6340SOL    HW130653   1.981   1.417   2.827 -2.3003 -1.0683 -0.3252
 6340SOL    HW230654   2.115   1.393   2.772  0.3182 -0.3283  1.3759
 6341SOL     OW30655   3.522   0.891  10.448 -0.2273  0.0455  0.6543
 6341SOL    HW130656   3.550   0.972  10.405 -0.2013  0.3480  1.2518
 6341SOL    HW230657   3.562   0.890  10.535 -0.5019  0.3401  0.7810
 6342SOL     OW30658   3.161   1.275   2.918 -0.1313  0.0984 -0.4142
 6342SOL    HW130659   3.085   1.296   2.973  0.6161 -0.9324  1.0182
 6342SOL    HW230660   3.225   1.276   2.990 -0.9920 -2.2045  0.4010
 6343SOL     OW30661   4.015   3.895  14.843  0.3067 -0.4410  0.0687
 6343SOL    HW130662   4.068   3.899  14.763 -1.8927 -0.1753 -1.3754
 6343SOL    HW230663   3.988   3.987  14.850 -0.3769 -0.5456 -1.2496
 6344SOL     OW30664   0.704   3.281   7.584 -0.5349  0.4308  0.1303
 6344SOL    HW130665   0.650   3.206   7.608 -0.3072  0.5777  1.1096
 6344SOL    HW230666   0.721   3.311   7.673 -1.3473  2.2043 -0.3262
 6345SOL     OW30667   4.244   3.604   4.283  0.1872 -0.0919  0.0893
 6345SOL    HW130668   4.185   3.672   4.315  1.4608  1.5334 -1.0408
 6345SOL    HW230669   4.258   3.623   4.190 -0.1525 -1.6203 -0.2703
 6346SOL     OW30670   4.415   0.224   6.123  0.3029 -0.4359 -0.5191
 6346SOL    HW130671   4.407   0.136   6.158  0.9378 -0.0476  0.6165
 6346SOL    HW230672   4.488   0.263   6.172 -2.1489  1.1782  1.8695
 6347SOL     OW30673   2.365   4.174   8.546  0.2740  0.6761 -0.4910
 6347SOL    HW130674   2.394   4.085   8.568  2.1411  1.4204  0.0792
 6347SOL    HW230675   2.350   4.214   8.632 -2.1096 -0.5813 -0.3139
 6348SOL     OW30676   2.973   4.367  17.474  0.0952  0.1020 -0.3180
 6348SOL    HW130677   2.935   4.450  17.501  1.5390  0.6006  0.1545
 6348SOL    HW230678   2.991   4.391  17.383  0.6702  1.2141  0.0938
 6349SOL     OW30679   3.543   3.968  15.897 -0.2489 -0.1166  0.0112
 6349SOL    HW130680   3.450   3.960  15.918 -0.7858  2.7707 -1.2460
 6349SOL    HW230681   3.558   4.059  15.922 -0.6157 -0.4336  1.3840
 6350SOL     OW30682   2.539   2.951   7.324  0.5056  0.0495 -0.4901
 6350SOL    HW130683   2.493   2.924   7.403 -0.8065  1.1504 -0.8755
 6350SOL    HW230684   2.606   3.010   7.359 -0.2356 -0.7050  2.2354
 6351SOL     OW30685   1.103   4.221   8.838 -0.2059  0.0819  0.1023
 6351SOL    HW130686   1.025   4.268   8.865 -0.7570 -1.7692  1.7222
 6351SOL    HW230687   1.078   4.146   8.785 -0.5137 -0.3822  0.9142
 6352SOL     OW30688   0.673   0.377   7.389 -0.3156  0.7300  0.4158
 6352SOL    HW130689   0.583   0.406   7.370 -0.6481 -1.3519 -1.2080
 6352SOL    HW230690   0.661   0.284   7.406  2.7391  0.2865  0.1368
 6353SOL     OW30691   1.290   3.615  14.947 -0.3562  0.0091  0.6775
 6353SOL    HW130692   1.383   3.601  14.930 -0.2441  0.6384  0.7557
 6353SOL    HW230693   1.253   3.542  14.898 -3.8007  1.1694  1.4874
 6354SOL     OW30694   0.031   4.677   3.735 -0.2905 -0.1477  0.1299
 6354SOL    HW130695   4.735   4.684   3.647  0.4069  0.5867 -0.0877
 6354SOL    HW230696   0.115   4.633   3.724  0.6399  1.6028  0.2655
 6355SOL     OW30697   0.802   1.742   6.825  0.4892 -0.5914  0.2513
 6355SOL    HW130698   0.848   1.813   6.869  1.7416 -1.0401 -0.3249
 6355SOL    HW230699   0.804   1.770   6.734  2.5783 -0.5859  0.2987
 6356SOL     OW30700   4.736   1.831  12.146 -0.1102  0.1682 -0.4692
 6356SOL    HW130701   4.652   1.790  12.126 -1.2204  3.1457 -1.9804
 6356SOL    HW230702   0.015   1.785  12.228 -0.5443 -0.1091 -0.5273
 6357SOL     OW30703   0.223   1.242  17.280 -0.3014  0.5165 -0.0938
 6357SOL    HW130704   0.216   1.210  17.190  0.9768  0.4376 -0.1598
 6357SOL    HW230705   0.176   1.325  17.284  2.2709  1.9953 -0.6991
 6358SOL     OW30706   2.512   0.268   5.515  0.0734 -0.2294 -0.2161
 6358SOL    HW130707   2.487   0.359   5.501  0.8727  0.3646  2.3307
 6358SOL    HW230708   2.453   0.235   5.447  0.9193  1.9241 -1.9914
 6359SOL     OW30709   2.067   2.309   8.281 -0.2101  0.0487 -0.3609
 6359SOL    HW130710   2.034   2.344   8.198  0.5433  0.1816 -0.6046
 6359SOL    HW230711   2.096   2.222   8.254 -2.9524 -1.1112  0.4642
 6360SOL     OW30712   2.702   2.769  11.207  0.1403 -0.1142  0.2143
 6360SOL    HW130713   2.764   2.835  11.175 -0.1945  0.1252  0.0586
 6360SOL    HW230714   2.725   2.762  11.300 -1.1590  1.6993  0.6826
 6361SOL     OW30715   3.160   4.350   7.465  0.4086 -0.4230 -0.0255
 6361SOL    HW130716   3.245   4.345   7.422  2.2553 -1.9231  3.7901
 6361SOL    HW230717   3.184   4.316   7.551 -0.4456 -0.6895  0.1074
 6362SOL     OW30718   3.106   4.364  16.404 -0.2119  0.2243 -0.4575
 6362SOL    HW130719   3.059   4.389  16.484  0.3270 -1.0470  0.2546
 6362SOL    HW230720   3.183   4.420  16.411  1.4399 -2.2286  1.2948
 6363SOL     OW30721   2.127   1.954   7.693  0.3629  0.2675 -0.2610
 6363SOL    HW130722   2.162   1.969   7.605 -1.9824  1.2884 -1.0122
 6363SOL    HW230723   2.211   1.930   7.732  0.4648  2.1404  0.6789
 6364SOL     OW30724   0.045   3.571   7.835  0.3468 -0.1544 -0.3680
 6364SOL    HW130725   0.113   3.639   7.830 -0.1022  0.4380  1.8717
 6364SOL    HW230726   0.066   3.539   7.923 -1.0624 -4.5283 -1.6371
 6365SOL     OW30727   1.933   3.175   7.249  0.3703  0.5558  0.2337
 6365SOL    HW130728   1.941   3.241   7.180 -1.1064  1.4114  0.8890
 6365SOL    HW230729   1.943   3.237   7.321 -1.0711  0.7061  0.2973
 6366SOL     OW30730   2.274   0.085   7.570 -0.5571 -0.6569  0.2992
 6366SOL    HW130731   2.193   0.035   7.561  0.8150 -2.8071 -0.3192
 6366SOL    HW230732   2.258   0.154   7.506  1.4811  0.5205  1.0471
 6367SOL     OW30733   2.619   3.729   0.364  0.1173  0.3938 -0.0643
 6367SOL    HW130734   2.545   3.773   0.407 -1.5622 -1.4823 -1.0163
 6367SOL    HW230735   2.598   3.751   0.273 -1.3267 -1.2123 -0.1267
 6368SOL     OW30736   1.054   0.647   5.200 -0.1441  0.6817 -0.0494
 6368SOL    HW130737   1.136   0.638   5.250 -0.5229 -1.2064  0.2370
 6368SOL    HW230738   0.989   0.600   5.251  1.3164 -0.6193  0.6022
 6369SOL     OW30739   1.561   2.444   8.214  0.2657  0.2072  0.2457
 6369SOL    HW130740   1.535   2.421   8.304  1.5807 -0.0049  0.5661
 6369SOL    HW230741   1.633   2.383   8.200  0.1091 -0.0394  0.5186
 6370SOL     OW30742   0.731   3.804  10.017  0.2650 -0.0904  0.3768
 6370SOL    HW130743   0.707   3.893  10.041 -1.2565 -0.1223 -1.0545
 6370SOL    HW230744   0.826   3.804  10.004  0.3850 -2.3940  1.1123
 6371SOL     OW30745   1.490   2.871   4.749  0.7452 -0.1898  0.2873
 6371SOL    HW130746   1.561   2.838   4.804  0.3400  1.0187  1.5441
 6371SOL    HW230747   1.524   2.958   4.728  1.4540 -0.5181  0.0468
 6372SOL     OW30748   4.567   1.967   3.247  0.6326  0.1975 -0.0398
 6372SOL    HW130749   4.543   1.875   3.233  0.0985  0.2344  0.6205
 6372SOL    HW230750   4.640   1.988   3.190  1.3379 -1.8803  0.0696
 6373SOL     OW30751   1.264   3.293   6.813  0.2946  0.2583  0.0046
 6373SOL    HW130752   1.240   3.200   6.807 -0.6079  0.6357 -2.2853
 6373SOL    HW230753   1.249   3.323   6.723 -2.8715  1.4541  0.9412
 6374SOL     OW30754   2.551   0.385   3.206 -0.6099  0.0555  0.0605
 6374SOL    HW130755   2.593   0.314   3.158  0.8909  1.6010 -0.8972
 6374SOL    HW230756   2.458   0.375   3.186 -0.7583 -0.8920  1.2124
 6375SOL     OW30757   1.170   1.181  15.652 -0.3423 -0.0254  0.6139
 6375SOL    HW130758   1.248   1.126  15.648  0.5068  1.2910 -0.6008
 6375SOL    HW230759   1.107   1.130  15.600  0.9195 -0.1698 -0.7735
 6376SOL     OW30760   1.004   0.835   4.089 -0.2370 -0.0201  0.0579
 6376SOL    HW130761   0.974   0.925   4.095  1.6994  0.6476 -0.3341
 6376SOL    HW230762   0.964   0.811   4.006  2.4370 -0.5032 -1.1118
 6377SOL     OW30763   3.131   0.404   5.164  0.4260  0.1199 -0.2638
 6377SOL    HW130764   3.060   0.468   5.157  2.6515  2.5777 -0.2462
 6377SOL    HW230765   3.089   0.325   5.199 -1.7606  1.6442  0.6286
 6378SOL     OW30766   2.698   3.928  17.388 -0.0062 -0.8762 -0.0602
 6378SOL    HW130767   2.767   3.865  17.366  0.7728 -0.5352  1.3688
 6378SOL    HW230768   2.746   3.981  17.453  0.0058  0.0379 -0.8113
 6379SOL     OW30769   0.666   2.129   4.302 -0.2255 -0.5534  0.2642
 6379SOL    HW130770   0.601   2.061   4.319 -0.2965 -0.3504  0.7817
 6379SOL    HW230771   0.741   2.070   4.305 -1.6818 -2.4952 -1.5117
 6380SOL     OW30772   0.852   1.839   7.402 -0.3344  1.1707 -0.2586
 6380SOL    HW130773   0.840   1.744   7.413 -3.0527  1.7506  1.7450
 6380SOL    HW230774   0.946   1.849   7.386 -0.2382 -0.3355 -0.6611
 6381SOL     OW30775   4.427   0.791   6.286  0.4501  0.3708  0.3653
 6381SOL    HW130776   4.487   0.744   6.229 -0.6005  1.3135 -1.5116
 6381SOL    HW230777   4.384   0.717   6.329  0.2826  0.4216  0.2843
 6382SOL     OW30778   4.151   2.889  15.871  0.4557 -0.1925  0.1453
 6382SOL    HW130779   4.180   2.874  15.961  0.0198 -1.2939  0.1001
 6382SOL    HW230780   4.159   2.798  15.842 -0.1896  0.0606 -0.8399
 6383SOL     OW30781   0.571   1.337   8.390  0.2037  0.9540  0.0381
 6383SOL    HW130782   0.516   1.398   8.341 -0.2671  1.5273  1.2775
 6383SOL    HW230783   0.655   1.381   8.403  0.7085 -0.5669  1.9949
 6384SOL     OW30784   1.669   3.281  17.034 -0.1213 -0.2915  0.1508
 6384SOL    HW130785   1.730   3.343  16.994 -0.7894  0.6868  0.6642
 6384SOL    HW230786   1.586   3.323  17.014 -0.5656 -1.1851  0.1422
 6385SOL     OW30787   1.174   1.552   7.553 -0.1224  0.1702 -0.3873
 6385SOL    HW130788   1.088   1.593   7.543  0.3458  1.5259  1.1345
 6385SOL    HW230789   1.146   1.495   7.625 -1.9438  0.9619 -0.4585
 6386SOL     OW30790   2.394   0.272   4.237  0.4210 -0.1020  0.2758
 6386SOL    HW130791   2.379   0.180   4.214 -1.0013  0.0042  0.8198
 6386SOL    HW230792   2.461   0.304   4.177  1.0745  0.4141  1.2813
 6387SOL     OW30793   3.474   2.180   3.419 -0.3655 -0.2517  0.2471
 6387SOL    HW130794   3.471   2.154   3.511  2.3887 -0.0608  0.4025
 6387SOL    HW230795   3.385   2.159   3.391 -0.1362 -1.0737  0.1423
 6388SOL     OW30796   0.584   3.018   3.305  0.2237 -0.3179  0.4934
 6388SOL    HW130797   0.561   3.002   3.397 -0.3769  1.9727  0.7291
 6388SOL    HW230798   0.666   2.968   3.300  0.1148 -0.5464  1.0139
 6389SOL     OW30799   1.410   1.000   7.889  0.3256  0.0754  0.1794
 6389SOL    HW130800   1.317   1.021   7.892  0.3878  0.1523  1.8121
 6389SOL    HW230801   1.396   0.906   7.882  4.9565 -0.6043 -0.3284
 6390SOL     OW30802   2.963   3.122  10.776 -0.5907 -0.8405  0.1353
 6390SOL    HW130803   2.885   3.144  10.827 -0.4418 -0.3265  0.1387
 6390SOL    HW230804   2.959   3.169  10.693 -1.2124  1.5160  1.5185
 6391SOL     OW30805   1.822   3.656   4.660  0.0407 -0.2127  0.3457
 6391SOL    HW130806   1.733   3.626   4.674 -0.3456  0.3501 -0.8873
 6391SOL    HW230807   1.820   3.728   4.723 -1.7347 -1.2936  1.5068
 6392SOL     OW30808   1.910   3.459   0.885  0.0282  0.9731  0.3439
 6392SOL    HW130809   1.934   3.509   0.964  2.8383  0.1310  0.0274
 6392SOL    HW230810   1.990   3.407   0.872 -1.2858 -1.0729  0.3813
 6393SOL     OW30811   0.280   3.396   7.090 -0.0893  0.3557 -0.3080
 6393SOL    HW130812   0.327   3.478   7.107  0.2718 -0.1803  1.2554
 6393SOL    HW230813   0.339   3.361   7.024 -0.2193 -0.6426  0.1161
 6394SOL     OW30814   1.560   4.120  10.023  0.0106 -0.3992  0.0331
 6394SOL    HW130815   1.551   4.071  10.104  0.0268 -1.4551 -0.6019
 6394SOL    HW230816   1.568   4.212  10.050 -0.0761  0.2626 -2.2036
 6395SOL     OW30817   4.197   4.030   7.410  0.6101  0.2463 -0.4717
 6395SOL    HW130818   4.173   3.958   7.467 -1.1322  0.4244 -0.9584
 6395SOL    HW230819   4.251   3.998   7.338  0.4756 -0.0491 -0.4415
 6396SOL     OW30820   0.425   2.739   1.555 -0.0879  0.5225  0.1098
 6396SOL    HW130821   0.488   2.793   1.507  0.1963  0.6678  0.6424
 6396SOL    HW230822   0.367   2.810   1.579 -1.9141 -1.1543  0.6174
 6397SOL     OW30823   0.792   3.868   5.974  0.4692 -0.4180  0.3749
 6397SOL    HW130824   0.808   3.788   6.023  2.1643 -1.1412 -1.3445
 6397SOL    HW230825   0.843   3.929   6.026 -0.5725  1.3558 -0.6797
 6398SOL     OW30826   4.387   3.819   7.598 -0.0599 -0.2242 -0.2935
 6398SOL    HW130827   4.404   3.728   7.622 -1.1689 -0.9243 -2.1611
 6398SOL    HW230828   4.475   3.857   7.602 -0.5275  0.8531 -0.4143
 6399SOL     OW30829   3.292   3.442   8.606  0.4947  0.2198  0.2199
 6399SOL    HW130830   3.268   3.533   8.619 -0.5461  0.1698 -1.3931
 6399SOL    HW230831   3.340   3.454   8.523 -0.5659  2.5832 -0.0430
 6400SOL     OW30832   2.421   2.776   1.340 -0.4851  0.1142  0.0114
 6400SOL    HW130833   2.489   2.836   1.370 -1.0715 -0.0531  1.6740
 6400SOL    HW230834   2.401   2.728   1.421  1.9232  0.1668  0.6475
 6401SOL     OW30835   1.633   0.999   4.849  0.1090 -0.1723  0.1754
 6401SOL    HW130836   1.541   0.973   4.844 -0.2510  0.8857  1.4126
 6401SOL    HW230837   1.677   0.917   4.825  1.5703  0.8707 -0.7153
 6402SOL     OW30838   2.170   2.869   9.776 -0.9447 -0.4952  0.1089
 6402SOL    HW130839   2.173   2.828   9.863 -0.6225 -2.6889 -0.9390
 6402SOL    HW230840   2.115   2.945   9.797  3.5880  2.3212  1.9813
 6403SOL     OW30841   2.686   4.461  17.681  0.4799 -0.1758  0.0925
 6403SOL    HW130842   2.718   4.524  17.617  0.5858  0.8820  1.2023
 6403SOL    HW230843   2.741   4.467   0.002 -1.7789 -0.2635  1.7051
 6404SOL     OW30844   3.323   1.681   2.295 -0.2362 -0.0415 -0.0320
 6404SOL    HW130845   3.289   1.692   2.384 -0.6799 -0.6782 -0.1300
 6404SOL    HW230846   3.412   1.711   2.316 -0.3182 -0.4797  0.9223
 6405SOL     OW30847   3.886   2.317  17.705 -0.4105  0.4742  0.2014
 6405SOL    HW130848   3.824   2.270  17.648  1.5702 -0.8058 -0.9095
 6405SOL    HW230849   3.962   2.260  17.717 -0.8707 -0.1527  0.1912
 6406SOL     OW30850   4.559   4.386   0.291  0.0418  0.0445  0.2794
 6406SOL    HW130851   4.617   4.311   0.278  0.0670  0.0888  0.1386
 6406SOL    HW230852   4.596   4.419   0.372 -2.4366  1.7579  0.7112
 6407SOL     OW30853   0.083   3.863   3.432 -0.2168 -0.3148  0.0608
 6407SOL    HW130854   0.168   3.839   3.395 -0.1502 -2.0481  1.3272
 6407SOL    HW230855   0.089   3.835   3.523  1.7404 -1.6634 -0.4902
 6408SOL     OW30856   2.257   0.655   7.729 -0.0925 -0.4455  0.5920
 6408SOL    HW130857   2.164   0.644   7.708 -0.2744  1.0157  0.6752
 6408SOL    HW230858   2.262   0.667   7.824 -0.7727 -0.3740  0.6165
 6409SOL     OW30859   2.045   2.641   6.883 -0.1787 -0.5661 -0.1904
 6409SOL    HW130860   2.074   2.554   6.855  0.4422 -0.1622 -0.7725
 6409SOL    HW230861   2.008   2.623   6.970 -0.0334 -0.2625 -0.0657
 6410SOL     OW30862   2.678   2.285   1.497 -0.3669 -1.0928 -0.4332
 6410SOL    HW130863   2.638   2.295   1.583  0.6947 -1.1142  0.0644
 6410SOL    HW230864   2.741   2.215   1.516  2.5359  1.9908  1.2184
 6411SOL     OW30865   0.527   4.388   3.873 -0.2772 -0.0728 -0.5900
 6411SOL    HW130866   0.560   4.461   3.820 -0.9239 -0.3287 -1.3399
 6411SOL    HW230867   0.478   4.344   3.804  0.5926 -1.6002 -0.2414
 6412SOL     OW30868   2.482   1.083   6.779 -0.0318  0.4307  0.0746
 6412SOL    HW130869   2.407   1.102   6.835  0.0859 -3.6087  1.5835
 6412SOL    HW230870   2.495   1.159   6.723  1.3778 -1.5001 -2.2317
 6413SOL     OW30871   1.371   1.601  16.644  0.0815 -0.4793  0.3338
 6413SOL    HW130872   1.344   1.662  16.713  0.7721  0.3241 -0.1024
 6413SOL    HW230873   1.288   1.590  16.598 -0.7115 -0.7387  1.8434
 6414SOL     OW30874   1.564   0.165   3.983  0.6729 -0.4298  0.1566
 6414SOL    HW130875   1.634   0.209   4.031  0.7635  1.1466 -1.4336
 6414SOL    HW230876   1.585   0.072   3.976  1.6432 -0.2649  0.8773
 6415SOL     OW30877   1.562   4.312   9.539  0.2309 -0.0072 -0.0286
 6415SOL    HW130878   1.531   4.246   9.601  0.8170  0.6206  0.9376
 6415SOL    HW230879   1.488   4.372   9.529  0.9669  0.9053  0.0642
 6416SOL     OW30880   1.580   1.610   0.501 -0.4420  0.6170 -0.1373
 6416SOL    HW130881   1.648   1.631   0.565 -2.1200  0.4325  1.7238
 6416SOL    HW230882   1.518   1.559   0.553 -0.7311  0.9876 -0.1117
 6417SOL     OW30883   1.282   1.328   5.649 -0.0011 -0.4042 -0.2049
 6417SOL    HW130884   1.288   1.358   5.559 -0.5666 -0.7959 -0.3711
 6417SOL    HW230885   1.207   1.375   5.684 -1.1046  0.4825 -3.7643
 6418SOL     OW30886   1.232   0.705   5.850  0.0172 -0.2528  0.2102
 6418SOL    HW130887   1.170   0.746   5.910 -0.3148 -1.0581  0.4200
 6418SOL    HW230888   1.231   0.766   5.777 -0.3665 -0.2161  0.2473
 6419SOL     OW30889   0.774   1.667   8.767  0.3925 -0.2845  0.5064
 6419SOL    HW130890   0.719   1.744   8.781 -1.5487 -1.8674  1.7228
 6419SOL    HW230891   0.722   1.593   8.737 -0.8270  1.7369 -2.3614
 6420SOL     OW30892   0.148   3.115   6.638 -0.0095 -0.1979  0.5099
 6420SOL    HW130893   0.069   3.061   6.632 -1.4546  2.0817 -0.9156
 6420SOL    HW230894   0.124   3.189   6.582  0.7038 -0.1084  0.3255
 6421SOL     OW30895   2.268   0.114   3.039  0.1716  0.7323  0.0015
 6421SOL    HW130896   2.300   0.033   3.079 -1.3447  0.7284  1.2164
 6421SOL    HW230897   2.327   0.134   2.967  2.4197 -0.2361  1.5795
 6422SOL     OW30898   1.091   0.362  11.301 -0.5573  0.2307  0.6210
 6422SOL    HW130899   1.164   0.355  11.362 -0.7217  2.4399  1.0737
 6422SOL    HW230900   1.103   0.446  11.257 -0.8567 -1.2119 -2.2246
 6423SOL     OW30901   4.307   1.830   9.687 -0.3850 -0.1749  0.0106
 6423SOL    HW130902   4.383   1.781   9.720 -1.0250 -0.6104  0.8190
 6423SOL    HW230903   4.330   1.909   9.736  1.4054 -0.9395  0.4110
 6424SOL     OW30904   2.336   1.912   8.681  0.3002 -0.3889 -0.0561
 6424SOL    HW130905   2.261   1.948   8.728 -0.5109  1.0555 -2.4035
 6424SOL    HW230906   2.304   1.876   8.598  0.9280 -1.2377  0.0734
 6425SOL     OW30907   0.782   4.296   2.074 -0.0030 -0.5495 -0.6675
 6425SOL    HW130908   0.843   4.261   2.139  1.0331  1.0421 -0.7577
 6425SOL    HW230909   0.843   4.348   2.021 -1.3863  1.7659  0.0238
 6426SOL     OW30910   2.340   3.163   8.242  0.4950 -0.2820 -0.2282
 6426SOL    HW130911   2.385   3.092   8.289 -0.6777  0.6285  2.2670
 6426SOL    HW230912   2.408   3.228   8.255  0.6856 -0.5583  0.1806
 6427SOL     OW30913   3.251   3.015   3.823 -0.7320 -0.1811 -0.2258
 6427SOL    HW130914   3.320   2.952   3.844  0.6808  1.5363  0.2974
 6427SOL    HW230915   3.203   2.950   3.773 -0.9320  0.9718 -1.5411
 6428SOL     OW30916   1.762   0.415   3.966 -0.0954 -0.8403  0.2900
 6428SOL    HW130917   1.815   0.353   3.915  0.2068  0.1992 -0.6521
 6428SOL    HW230918   1.831   0.478   3.985  2.3912 -3.5870  0.4431
 6429SOL     OW30919   3.552   4.048   6.286 -0.7396 -0.1811 -0.0552
 6429SOL    HW130920   3.501   4.123   6.316 -1.6909 -0.1933 -1.6550
 6429SOL    HW230921   3.565   3.991   6.362 -0.6362  1.5210  1.1931
 6430SOL     OW30922   3.830   0.502   2.245  0.1368 -0.2701 -0.1448
 6430SOL    HW130923   3.759   0.550   2.287  0.3598  0.0691 -0.1499
 6430SOL    HW230924   3.787   0.425   2.208 -0.9590 -0.0250  0.6067
 6431SOL     OW30925   1.298   1.672   3.418  0.4292 -0.0272  0.1920
 6431SOL    HW130926   1.293   1.714   3.333  1.2012 -0.6464 -0.1534
 6431SOL    HW230927   1.256   1.588   3.398 -0.2193  0.0768  1.0854
 6432SOL     OW30928   1.474   1.828  13.468  0.0088 -0.0343  0.1527
 6432SOL    HW130929   1.405   1.861  13.409 -0.3490 -1.6710 -0.3456
 6432SOL    HW230930   1.531   1.905  13.469  0.2318 -0.1579 -2.2509
 6433SOL     OW30931   0.022   1.303  11.094 -0.3699  0.3425  0.4267
 6433SOL    HW130932   0.033   1.362  11.020  2.3230 -0.0321  0.5097
 6433SOL    HW230933   0.022   1.373  11.159  0.2307  0.2836  0.4924
 6434SOL     OW30934   3.563   1.443   2.189 -0.1345 -0.1131 -0.0082
 6434SOL    HW130935   3.645   1.492   2.195  0.9193 -1.6166 -2.1767
 6434SOL    HW230936   3.546   1.443   2.283 -1.0851 -0.3737 -0.1844
 6435SOL     OW30937   0.577   3.840   6.541  0.0469  0.3672 -0.4783
 6435SOL    HW130938   0.517   3.797   6.602 -0.3327 -0.5982 -1.5377
 6435SOL    HW230939   0.522   3.914   6.516 -2.0625 -1.2888 -0.7614
 6436SOL     OW30940   3.414   4.454   8.458  0.2509  0.2056 -0.3978
 6436SOL    HW130941   3.427   4.544   8.485  3.6072 -0.1829 -0.7350
 6436SOL    HW230942   3.319   4.447   8.466  0.3683  0.0243  0.7990
 6437SOL     OW30943   4.457   2.786   8.647 -0.1262 -0.1573 -0.1056
 6437SOL    HW130944   4.498   2.851   8.591  1.9123 -1.9431 -0.6872
 6437SOL    HW230945   4.520   2.794   8.719 -0.4854 -3.4839  0.6080
 6438SOL     OW30946   3.936   1.135  17.214  0.6435 -0.4575  0.0578
 6438SOL    HW130947   3.868   1.150  17.148  1.2806 -1.2421 -0.7759
 6438SOL    HW230948   3.928   1.214  17.267  1.3044  0.8774 -1.8058
 6439SOL     OW30949   3.077   2.884   1.532  0.2619 -0.0496 -0.0663
 6439SOL    HW130950   3.019   2.879   1.456  0.3704 -0.9872 -0.0841
 6439SOL    HW230951   3.135   2.950   1.494  1.7503 -0.6075  1.2423
 6440SOL     OW30952   3.130   1.539   7.043  0.2521 -0.1153  0.2914
 6440SOL    HW130953   3.157   1.569   7.129  1.7288  1.0520 -0.5912
 6440SOL    HW230954   3.059   1.600   7.024  1.5494  0.6708 -2.1153
 6441SOL     OW30955   4.557   4.037   8.370 -0.0728  0.5153 -0.1718
 6441SOL    HW130956   4.524   4.087   8.295 -0.9689  1.2505  0.7078
 6441SOL    HW230957   4.593   3.968   8.314 -0.9878  1.5386 -1.9930
 6442SOL     OW30958   3.531   0.556  17.618 -0.7348 -0.3251  0.0754
 6442SOL    HW130959   3.576   0.633  17.583  1.4551 -0.8589  1.7224
 6442SOL    HW230960   3.449   0.598  17.644 -1.1530 -1.0686 -0.0330
 6443SOL     OW30961   1.735   0.506  12.009  0.5043 -0.1182 -0.2172
 6443SOL    HW130962   1.715   0.507  11.915 -0.8353  1.9827  0.0878
 6443SOL    HW230963   1.710   0.417  12.031 -2.0359 -0.2915 -3.7303
 6444SOL     OW30964   0.798   3.882   7.622  0.2785 -0.0351  0.4217
 6444SOL    HW130965   0.739   3.938   7.571 -0.8576 -0.9633  0.7327
 6444SOL    HW230966   0.746   3.802   7.617 -1.5974  1.3897 -3.2655
 6445SOL     OW30967   4.108   4.616   6.131  0.5828 -0.3746 -0.9339
 6445SOL    HW130968   4.088   4.523   6.119  0.2506 -0.5326  0.9490
 6445SOL    HW230969   4.140   4.646   6.045  0.0626  0.2639 -0.9052
 6446SOL     OW30970   2.429   3.074   3.984  0.4904  0.2934 -0.4594
 6446SOL    HW130971   2.369   3.144   3.959  2.7536  2.5230  0.2921
 6446SOL    HW230972   2.391   3.000   3.936  0.8017  0.0274 -0.2991
 6447SOL     OW30973   2.134   1.624   2.058  0.3917 -0.3529  1.1132
 6447SOL    HW130974   2.070   1.676   2.108 -0.5922 -0.8417  0.3689
 6447SOL    HW230975   2.187   1.607   2.136  1.3746 -0.2905  0.4597
 6448SOL     OW30976   3.213   2.672   3.530  0.1633 -0.3058  0.5130
 6448SOL    HW130977   3.253   2.586   3.518 -3.7181 -2.1877  0.9251
 6448SOL    HW230978   3.288   2.727   3.508 -0.3762 -0.0114 -0.5723
 6449SOL     OW30979   4.568   0.701   6.587 -0.0148  0.6156 -0.1715
 6449SOL    HW130980   4.553   0.790   6.619 -1.5087  1.3287 -2.8559
 6449SOL    HW230981   4.484   0.686   6.544  0.1718 -2.1613  0.4786
 6450SOL     OW30982   0.785   4.591   0.089 -0.1715 -0.6271 -0.2318
 6450SOL    HW130983   0.870   4.552   0.109 -0.3613 -1.1419 -0.4288
 6450SOL    HW230984   0.764   4.644   0.166  0.5165 -0.2195 -0.3207
 6451SOL     OW30985   0.035   0.357   9.104  0.6541 -0.3962 -0.1759
 6451SOL    HW130986   0.038   0.344   9.009 -0.4800  0.4129 -0.3109
 6451SOL    HW230987   0.113   0.319   9.145  1.2746  0.4975 -0.5456
 6452SOL     OW30988   2.894   1.163  14.805  0.4925  0.0089  0.3377
 6452SOL    HW130989   2.821   1.193  14.751  1.0398 -2.3298 -1.6543
 6452SOL    HW230990   2.962   1.160  14.738  2.9536  3.5704  2.6262
 6453SOL     OW30991   1.198   4.594   4.461 -0.2489  0.2730 -0.6020
 6453SOL    HW130992   1.157   4.588   4.375 -0.2312  0.7424 -0.6421
 6453SOL    HW230993   1.247   4.511   4.458  1.1637  1.1644 -2.2879
 6454SOL     OW30994   3.400   3.542   6.497  0.2753  0.1198 -0.0784
 6454SOL    HW130995   3.373   3.632   6.519 -1.2246 -0.6133  1.0480
 6454SOL    HW230996   3.338   3.517   6.429  1.1868 -1.5538 -0.2840
 6455SOL     OW30997   4.290   1.925   8.532  1.0629  0.2005  0.2008
 6455SOL    HW130998   4.321   1.916   8.442  1.9271 -2.1572  0.7432
 6455SOL    HW230999   4.307   1.842   8.575  0.1841 -0.7572 -1.2842
 6456SOL     OW31000   2.964   4.511   2.492  0.3749  0.2989  0.5317
 6456SOL    HW131001   2.973   4.561   2.573  2.3534  1.6904 -0.5482
 6456SOL    HW231002   2.985   4.423   2.523  2.0575  0.1965 -0.8941
 6457SOL     OW31003   0.302   0.155   6.247 -0.3068  0.3610  0.5875
 6457SOL    HW131004   0.304   0.250   6.261  2.1098  0.5326 -0.9629
 6457SOL    HW231005   0.211   0.141   6.271 -0.2967  1.3601  1.2125
 6458SOL     OW31006   4.172   3.909   7.774 -0.5244  0.3911  0.2285
 6458SOL    HW131007   4.131   3.823   7.762  0.3785  0.2113 -1.5174
 6458SOL    HW231008   4.246   3.912   7.714  0.0953 -0.2686  0.9772
 6459SOL     OW31009   0.789   0.384   9.279  0.2455  0.3861 -0.4794
 6459SOL    HW131010   0.882   0.391   9.257  0.6554 -0.9045  0.8172
 6459SOL    HW231011   0.777   0.442   9.354  3.5553  0.6823 -0.1947
 6460SOL     OW31012   4.493   0.062   1.970 -0.1619  0.0558 -0.4925
 6460SOL    HW131013   4.473   0.138   1.915  0.8910  0.1353 -0.7839
 6460SOL    HW231014   4.419   0.068   2.030  1.5126 -2.6348  1.8473
 6461SOL     OW31015   4.668   1.497   5.213 -0.1875 -0.2351  0.3785
 6461SOL    HW131016   4.678   1.401   5.217 -0.8397 -0.3444 -0.5511
 6461SOL    HW231017   4.721   1.518   5.289 -2.3206 -2.4642  2.5045
 6462SOL     OW31018   3.394   2.928  12.964  0.0324  0.2003  0.5278
 6462SOL    HW131019   3.441   2.863  13.017  1.8158  0.7651 -0.3480
 6462SOL    HW231020   3.443   2.926  12.882  2.3528 -3.0954  2.0032
 6463SOL     OW31021   2.642   3.120  17.718 -0.0459 -0.2696 -0.2493
 6463SOL    HW131022   2.567   3.068  17.690  0.7180 -1.3029 -0.3923
 6463SOL    HW231023   2.661   3.065   0.038  1.1845 -1.9564 -1.7605
 6464SOL     OW31024   3.726   0.635   4.601  0.3185 -0.3551  0.4518
 6464SOL    HW131025   3.651   0.661   4.655  1.5421  0.5066  1.7414
 6464SOL    HW231026   3.685   0.629   4.514 -1.0196 -1.0675  1.1141
 6465SOL     OW31027   1.887   2.881   4.654 -0.0205 -0.5266 -0.0927
 6465SOL    HW131028   1.962   2.927   4.615 -0.8291  1.5319  0.7798
 6465SOL    HW231029   1.825   2.952   4.643  0.4192  0.0918  1.4844
 6466SOL     OW31030   3.893   3.917  11.168 -0.4393 -0.0742 -0.0530
 6466SOL    HW131031   3.917   3.934  11.077  0.5521  2.0888  0.6180
 6466SOL    HW231032   3.801   3.943  11.162 -0.4694 -0.4333 -1.1241
 6467SOL     OW31033   3.475   2.595  16.244  0.1920 -0.0219  0.3478
 6467SOL    HW131034   3.462   2.539  16.321  0.4774  2.7197  2.3847
 6467SOL    HW231035   3.517   2.671  16.285  3.1601 -2.6076  2.1257
 6468SOL     OW31036   0.970   1.298   4.559  0.1268  0.2376 -0.5682
 6468SOL    HW131037   1.030   1.340   4.496 -1.9250  1.9178 -1.3949
 6468SOL    HW231038   0.919   1.373   4.590  2.6128  2.0408 -0.7940
 6469SOL     OW31039   4.644   1.187   8.620  0.1425  0.5532  0.2263
 6469SOL    HW131040   4.653   1.274   8.581 -0.6740  0.5124 -0.0547
 6469SOL    HW231041   4.677   1.203   8.708  1.7984  2.6301 -0.7680
 6470SOL     OW31042   0.957   1.253  16.321  0.1689 -0.3781 -0.2041
 6470SOL    HW131043   1.007   1.237  16.241  1.3192 -0.8155  0.5955
 6470SOL    HW231044   0.866   1.251  16.291  0.4912 -0.0670 -1.2201
 6471SOL     OW31045   2.821   2.314  15.045 -0.0020  0.0685  0.2904
 6471SOL    HW131046   2.826   2.410  15.040 -1.7405  0.0778 -1.1283
 6471SOL    HW231047   2.890   2.299  14.979  0.6394  0.8907  0.7723
 6472SOL     OW31048   0.264   0.884   9.882  0.4661  0.4507 -0.0997
 6472SOL    HW131049   0.288   0.796   9.854  0.2640 -0.0583  1.3561
 6472SOL    HW231050   0.324   0.940   9.832  1.1977  0.0518  0.3318
 6473SOL     OW31051   1.286   3.514  17.704 -1.2463  0.3737  0.0217
 6473SOL    HW131052   1.375   3.549  17.702 -1.7737  1.8387  1.3249
 6473SOL    HW231053   1.286   3.484   0.038  0.1758  0.2260 -0.0333
 6474SOL     OW31054   1.573   1.207  15.561  0.1660 -0.4162 -0.9240
 6474SOL    HW131055   1.511   1.136  15.579  0.1538  0.6041  2.9731
 6474SOL    HW231056   1.517   1.283  15.575  0.7336  0.1175 -1.5333
 6475SOL     OW31057   1.763   3.434   9.602 -0.7810 -0.1739  0.1239
 6475SOL    HW131058   1.832   3.373   9.576  1.1696  1.7815  0.7103
 6475SOL    HW231059   1.807   3.517   9.622  3.2770 -1.7015 -2.5337
 6476SOL     OW31060   0.849   3.504   4.040 -0.2898 -0.3408 -0.2804
 6476SOL    HW131061   0.907   3.488   3.965 -1.6988 -3.7525 -0.6264
 6476SOL    HW231062   0.762   3.518   4.001 -0.7861  0.9028  1.2863
 6477SOL     OW31063   1.767   2.319   7.079 -0.0137  0.1483  0.0576
 6477SOL    HW131064   1.734   2.289   7.164 -1.2184  0.8327 -0.1730
 6477SOL    HW231065   1.721   2.402   7.066 -0.4734 -0.4229 -1.9025
 6478SOL     OW31066   1.469   0.837   0.689 -0.0124 -0.5860 -0.1651
 6478SOL    HW131067   1.537   0.811   0.626 -1.1486 -0.7945 -1.2993
 6478SOL    HW231068   1.400   0.872   0.633  0.1394  1.0328  0.6659
 6479SOL     OW31069   2.357   1.310   2.116 -0.3164 -0.3102 -0.4357
 6479SOL    HW131070   2.262   1.315   2.120 -0.3764 -0.9729 -0.9274
 6479SOL    HW231071   2.369   1.219   2.141  1.6640 -0.5453 -2.1887
 6480SOL     OW31072   0.645   1.358   3.446  0.4937 -0.3227  0.6536
 6480SOL    HW131073   0.613   1.448   3.459 -1.9265 -1.0400 -0.3917
 6480SOL    HW231074   0.643   1.325   3.536 -1.3942 -1.2797  0.2653
 6481SOL     OW31075   2.906   1.210  16.273  0.5254  0.2121 -0.0290
 6481SOL    HW131076   2.962   1.190  16.349 -0.5215 -1.3360  0.3427
 6481SOL    HW231077   2.907   1.122  16.235  0.3108 -0.2240  0.9703
 6482SOL     OW31078   3.032   2.002   6.971  0.3740 -0.4053  0.2834
 6482SOL    HW131079   2.972   2.051   6.914  0.4997 -1.7891 -1.0261
 6482SOL    HW231080   3.050   2.050   7.052 -1.0161 -1.7915  1.4214
 6483SOL     OW31081   0.854   2.061   1.164  0.4227 -0.2826  0.0844
 6483SOL    HW131082   0.881   2.147   1.198  1.1427 -0.1752 -0.7686
 6483SOL    HW231083   0.808   2.033   1.244  0.4928  0.8098  0.5110
 6484SOL     OW31084   2.009   2.738  15.726  0.1662 -0.2820  0.2406
 6484SOL    HW131085   1.933   2.752  15.669  0.9197 -0.6047 -0.8447
 6484SOL    HW231086   2.038   2.829  15.732 -1.5625  0.4441 -2.3103
 6485SOL     OW31087   4.605   2.114   7.003  0.0098  0.2930 -0.1448
 6485SOL    HW131088   4.662   2.106   7.080  0.5168 -0.1119 -0.5585
 6485SOL    HW231089   4.530   2.161   7.039 -0.3047  0.2640 -0.7676
 6486SOL     OW31090   0.522   3.976   6.958  0.3520 -0.1966  0.4533
 6486SOL    HW131091   0.495   3.899   6.906  0.6262 -0.5598  0.8475
 6486SOL    HW231092   0.444   3.979   7.014 -0.4629 -0.5773 -0.6403
 6487SOL     OW31093   2.037   1.582   2.967  0.0133 -0.4449 -0.3541
 6487SOL    HW131094   2.110   1.563   3.026  0.2319 -1.7650 -1.0330
 6487SOL    HW231095   1.964   1.572   3.027  1.1661 -0.3942  1.0519
 6488SOL     OW31096   1.259   4.377  14.038  0.9587 -0.1775  0.2330
 6488SOL    HW131097   1.330   4.391  14.101  0.1816  2.7361  0.4865
 6488SOL    HW231098   1.254   4.283  14.026 -0.5027 -0.3098  1.8350
 6489SOL     OW31099   1.785   2.596   2.552  0.3893 -0.5419  1.0452
 6489SOL    HW131100   1.842   2.520   2.546  0.6899 -0.2025 -0.2776
 6489SOL    HW231101   1.756   2.619   2.464 -0.2626 -2.7550  0.6977
 6490SOL     OW31102   3.318   1.294   6.255 -0.4501 -0.6835 -0.0988
 6490SOL    HW131103   3.376   1.335   6.191 -0.2320 -1.5375 -0.4522
 6490SOL    HW231104   3.366   1.316   6.335  0.5595  0.3384 -0.9812
 6491SOL     OW31105   2.638   2.794  15.590 -0.3955 -0.3031 -0.0527
 6491SOL    HW131106   2.651   2.807  15.684 -0.0459 -0.1669 -0.1165
 6491SOL    HW231107   2.547   2.818  15.571 -0.2033 -0.7707 -1.5604
 6492SOL     OW31108   2.248   3.322  15.638  0.4051  0.3591 -0.4309
 6492SOL    HW131109   2.278   3.246  15.688  0.4878  0.8923  0.3470
 6492SOL    HW231110   2.162   3.287  15.614  0.1729  1.5019 -1.2359
 6493SOL     OW31111   1.098   3.361   8.360  0.4305 -0.0351 -0.4549
 6493SOL    HW131112   1.112   3.437   8.416 -1.3371  1.0848 -1.5231
 6493SOL    HW231113   1.077   3.289   8.421 -0.2184 -1.0907 -1.9179
 6494SOL     OW31114   3.167   1.557   4.076  0.2103 -0.1982 -0.3900
 6494SOL    HW131115   3.126   1.528   4.158 -0.8457  1.3114 -0.3748
 6494SOL    HW231116   3.252   1.591   4.105  0.5487 -0.6647 -0.8414
 6495SOL     OW31117   2.122   3.786   0.491  0.4497 -0.8939 -0.4962
 6495SOL    HW131118   2.083   3.722   0.431  0.3730  0.0004 -1.4020
 6495SOL    HW231119   2.046   3.844   0.500  0.2305 -1.3330  0.5448
 6496SOL     OW31120   3.755   3.480   0.344 -0.1722 -0.2573 -0.2759
 6496SOL    HW131121   3.686   3.545   0.356 -0.0163 -0.0698 -0.3901
 6496SOL    HW231122   3.721   3.424   0.274 -0.8915 -0.4323  0.2117
 6497SOL     OW31123   2.120   4.619   8.909 -0.4846 -0.1770  0.2144
 6497SOL    HW131124   2.192   4.682   8.903  0.3690 -1.2803 -0.9950
 6497SOL    HW231125   2.043   4.672   8.887 -0.2641  0.6159  1.3281
 6498SOL     OW31126   3.949   0.294   3.956  0.0856  0.8269 -0.4840
 6498SOL    HW131127   4.011   0.301   3.883  1.7699 -0.0718  0.8739
 6498SOL    HW231128   3.977   0.211   3.993 -2.9468 -0.9558 -2.1637
 6499SOL     OW31129   2.181   4.104  13.048  0.2969 -0.0915 -0.1435
 6499SOL    HW131130   2.086   4.093  13.038  0.3712 -0.6479 -0.2759
 6499SOL    HW231131   2.211   4.028  12.998 -0.5588 -1.1021  0.8548
 6500SOL     OW31132   2.850   4.144   0.266 -0.1095  0.8241  0.1951
 6500SOL    HW131133   2.756   4.136   0.284  0.0153  1.0080  0.9235
 6500SOL    HW231134   2.890   4.100   0.341 -0.4485 -2.0579 -1.3268
 6501SOL     OW31135   2.121   3.472   9.827  0.9750 -0.3474 -0.0808
 6501SOL    HW131136   2.058   3.424   9.879  2.4953 -0.8091  1.3481
 6501SOL    HW231137   2.186   3.507   9.889  1.4920  1.9774 -1.9156
 6502SOL     OW31138   0.764   2.635   2.672  0.3832 -0.6153 -0.0825
 6502SOL    HW131139   0.758   2.606   2.763  0.6121  1.8528  0.7325
 6502SOL    HW231140   0.856   2.661   2.675  0.0672  0.6389 -1.0394
 6503SOL     OW31141   3.593   4.656   5.313 -0.1184  0.9360 -0.0658
 6503SOL    HW131142   3.510   4.696   5.340  0.5648  2.0865  0.3332
 6503SOL    HW231143   3.585   4.571   5.357 -3.8192  1.3030  0.0189
 6504SOL     OW31144   4.470   3.945  12.504 -0.1518 -0.3116 -0.2916
 6504SOL    HW131145   4.563   3.931  12.486 -0.0884  0.2256 -0.3864
 6504SOL    HW231146   4.448   4.025  12.456  0.3459  0.0947  0.1636
 6505SOL     OW31147   0.101   1.990   9.086 -0.3282  0.7517  0.0107
 6505SOL    HW131148   0.026   1.989   9.146 -1.1631 -1.9665 -1.1018
 6505SOL    HW231149   0.066   1.922   9.029 -0.3396  1.0521 -0.3465
 6506SOL     OW31150   3.171   4.192   2.271 -0.2601  0.4574  0.3470
 6506SOL    HW131151   3.152   4.192   2.365  0.0209  0.7823  0.4078
 6506SOL    HW231152   3.145   4.282   2.253 -0.3026  0.6119  1.1512
 6507SOL     OW31153   0.233   1.381   2.009 -0.1383 -0.5873 -0.1903
 6507SOL    HW131154   0.212   1.473   2.029  0.8714 -0.8924  2.2951
 6507SOL    HW231155   0.188   1.335   2.080 -1.7212  0.9575 -0.1738
 6508SOL     OW31156   2.934   0.771   2.270  0.1295  0.0685  0.0037
 6508SOL    HW131157   2.891   0.694   2.232 -0.6687  0.3379  0.3599
 6508SOL    HW231158   3.019   0.771   2.227 -0.8843 -1.3610 -2.0023
 6509SOL     OW31159   0.798   0.084   6.031 -0.3135 -0.5635 -0.0749
 6509SOL    HW131160   0.840   0.164   6.001 -0.7080 -0.4038 -0.2021
 6509SOL    HW231161   0.741   0.069   5.955 -1.5299 -0.6062  0.8560
 6510SOL     OW31162   3.773   1.404   4.990  0.1974 -0.1960  0.4034
 6510SOL    HW131163   3.810   1.328   4.944  0.9592 -0.0768  0.8141
 6510SOL    HW231164   3.824   1.401   5.071 -2.3612  0.5506  2.0448
 6511SOL     OW31165   3.392   3.067  14.683 -1.1743  0.4918 -0.0727
 6511SOL    HW131166   3.470   3.108  14.646 -1.2084 -0.2389 -0.9662
 6511SOL    HW231167   3.428   2.993  14.731  1.2266  0.5721 -1.7339
 6512SOL     OW31168   0.580   1.626   7.920 -0.0505 -0.5770 -0.6705
 6512SOL    HW131169   0.549   1.682   7.991 -2.7222 -0.2598 -2.0727
 6512SOL    HW231170   0.530   1.659   7.845  0.2852 -2.9957 -1.9442
 6513SOL     OW31171   3.605   2.355  14.967 -0.0263 -0.0392 -0.0543
 6513SOL    HW131172   3.573   2.435  15.008  0.8627  1.3121 -1.9827
 6513SOL    HW231173   3.526   2.311  14.934 -1.2952  1.3655  1.0918
 6514SOL     OW31174   0.165   1.556   7.867 -0.6220  0.5692  0.4919
 6514SOL    HW131175   0.164   1.588   7.776 -1.0137  0.2976  0.4027
 6514SOL    HW231176   0.096   1.614   7.901 -0.1334  0.7109  1.2337
 6515SOL     OW31177   3.931   0.276   2.808  0.2995  0.4272 -0.2612
 6515SOL    HW131178   3.849   0.233   2.831  2.4516 -2.7552  1.4315
 6515SOL    HW231179   3.926   0.262   2.714  0.3207 -2.8370  0.2414
 6516SOL     OW31180   1.036   0.702   3.836 -0.3322  0.2251  0.2228
 6516SOL    HW131181   1.096   0.628   3.828 -0.5388  0.3219 -2.1384
 6516SOL    HW231182   1.093   0.769   3.797  0.0459  0.1553  0.6475
 6517SOL     OW31183   4.303   3.722   3.534  0.2669 -0.1538  0.0103
 6517SOL    HW131184   4.384   3.764   3.564 -0.3645  0.3545  1.0104
 6517SOL    HW231185   4.334   3.661   3.467  1.2611 -0.0136  0.3310
 6518SOL     OW31186   1.857   1.158   0.558  0.3356 -0.0963 -0.6130
 6518SOL    HW131187   1.913   1.216   0.507  0.0629 -1.2098 -2.1706
 6518SOL    HW231188   1.829   1.217   0.628  1.8245  1.4964 -1.3542
 6519SOL     OW31189   3.488   3.808   3.537 -0.0025 -0.0152  0.0136
 6519SOL    HW131190   3.561   3.756   3.569  2.3037  2.6564 -0.9288
 6519SOL    HW231191   3.501   3.878   3.601  0.3225 -0.1398  0.0824
 6520SOL     OW31192   1.632   0.789  15.157 -0.2399 -0.2697  0.1174
 6520SOL    HW131193   1.664   0.814  15.244  0.9079 -0.4491 -0.2415
 6520SOL    HW231194   1.624   0.868  15.104 -0.3716 -0.5695 -0.3081
 6521SOL     OW31195   2.523   2.092   3.522 -0.1417 -0.3073  0.2933
 6521SOL    HW131196   2.494   2.183   3.532  1.4808  0.3222 -0.8036
 6521SOL    HW231197   2.519   2.072   3.615  0.4649  0.6780  0.5275
 6522SOL     OW31198   3.119   2.947  10.256  0.1494  0.1918 -0.9005
 6522SOL    HW131199   3.043   2.907  10.212 -1.4522  0.1357  1.9260
 6522SOL    HW231200   3.085   2.965  10.343 -0.3747 -1.0395 -0.8429
 6523SOL     OW31201   1.300   1.416   2.197  0.2554 -0.6006  0.2160
 6523SOL    HW131202   1.351   1.448   2.123 -0.8845  1.3832  0.2991
 6523SOL    HW231203   1.362   1.361   2.245  1.3763 -0.1944 -0.7709
 6524SOL     OW31204   3.257   4.213  15.617 -0.4972 -0.4600  0.2278
 6524SOL    HW131205   3.278   4.269  15.542  1.1827  0.0514  1.0821
 6524SOL    HW231206   3.208   4.271  15.675  0.9130 -1.2966  2.2430
 6525SOL     OW31207   1.776   4.480   4.615 -0.3434 -0.2621  0.3426
 6525SOL    HW131208   1.687   4.507   4.593 -0.2106  1.0691  1.3539
 6525SOL    HW231209   1.776   4.398   4.566 -1.0112 -0.2970  0.4023
 6526SOL     OW31210   2.896   0.017  12.339 -0.2832  0.0608  0.1766
 6526SOL    HW131211   2.905   0.100  12.291  0.6051 -0.5216 -0.6671
 6526SOL    HW231212   2.963   0.032  12.405 -0.4935  1.2159  0.1409
 6527SOL     OW31213   0.105   2.782  14.339  0.0551 -0.0015  0.0972
 6527SOL    HW131214   0.046   2.833  14.395  1.7416  2.1587 -0.0986
 6527SOL    HW231215   0.183   2.791  14.393  0.2898  2.0432 -0.5838
 6528SOL     OW31216   0.175   3.787  15.759  0.7378  0.1906 -0.2754
 6528SOL    HW131217   0.237   3.761  15.691 -0.7277 -0.6663 -1.2738
 6528SOL    HW231218   0.204   3.878  15.767 -0.1311  0.2349  2.1265
 6529SOL     OW31219   1.412   2.135   5.195 -0.1221 -0.4634 -0.4128
 6529SOL    HW131220   1.455   2.179   5.122 -1.2301  0.7772 -0.3021
 6529SOL    HW231221   1.460   2.158   5.274  0.7814  1.0614 -1.4105
 6530SOL     OW31222   4.227   1.914   9.452  0.5769  0.2234 -0.7887
 6530SOL    HW131223   4.142   1.873   9.436  0.2100  0.3095  0.8719
 6530SOL    HW231224   4.246   1.892   9.544  0.3062  0.0119 -0.7838
 6531SOL     OW31225   1.966   1.767   2.235  0.2127 -0.3263 -0.3054
 6531SOL    HW131226   1.971   1.862   2.225  2.4622 -0.3651  0.3570
 6531SOL    HW231227   1.885   1.753   2.285 -0.8697  0.3336 -1.8678
 6532SOL     OW31228   1.114   3.281   5.263 -0.0200  0.9565  0.6588
 6532SOL    HW131229   1.207   3.274   5.243  0.2876  3.7454  1.1200
 6532SOL    HW231230   1.089   3.223   5.191  1.1434  0.8662  0.3205
 6533SOL     OW31231   1.901   4.437   6.276  0.2426 -0.4007  0.0038
 6533SOL    HW131232   1.963   4.498   6.316 -0.2747  0.2546 -0.1875
 6533SOL    HW231233   1.925   4.354   6.317 -0.3286 -0.3439  0.4459
 6534SOL     OW31234   3.084   2.747   9.004 -0.4530  0.1695 -0.4997
 6534SOL    HW131235   3.019   2.800   9.050 -0.4743 -0.2133 -0.0902
 6534SOL    HW231236   3.134   2.711   9.077 -2.5681  0.4556  1.0793
 6535SOL     OW31237   1.083   2.455  14.777  0.2131  0.1795  0.2318
 6535SOL    HW131238   1.058   2.379  14.725 -1.8414 -0.5250  2.2770
 6535SOL    HW231239   1.177   2.459  14.756  0.3672  0.4524  0.9937
 6536SOL     OW31240   1.802   2.928   1.508 -0.5046 -0.0385  0.9425
 6536SOL    HW131241   1.733   2.910   1.445  0.2579 -2.2080  0.7232
 6536SOL    HW231242   1.854   2.848   1.505 -1.8234 -0.8741  0.4250
 6537SOL     OW31243   2.671   2.469   8.202  0.1485  0.2784  0.4006
 6537SOL    HW131244   2.622   2.422   8.134  0.1965 -0.5384  0.9261
 6537SOL    HW231245   2.756   2.476   8.159  0.0759  0.9792  0.3675
 6538SOL     OW31246   0.849   1.532  11.744 -0.2692  0.1741  0.6268
 6538SOL    HW131247   0.767   1.574  11.718  0.5426  1.2032 -0.2622
 6538SOL    HW231248   0.918   1.592  11.716  0.3055 -2.4217 -3.5215
 6539SOL     OW31249   1.766   1.826   2.424 -0.3795  1.0232 -0.6254
 6539SOL    HW131250   1.795   1.789   2.507 -3.5860  2.2083  1.0163
 6539SOL    HW231251   1.734   1.914   2.445 -1.7760 -0.6555  4.0870
 6540SOL     OW31252   2.554   0.766   4.492 -0.2441 -0.2293 -0.2493
 6540SOL    HW131253   2.507   0.805   4.566  0.7133  1.3343 -0.4568
 6540SOL    HW231254   2.558   0.837   4.427  2.0953  2.2097  2.5805
 6541SOL     OW31255   3.176   4.496   4.594 -0.5205 -0.0935 -0.5351
 6541SOL    HW131256   3.109   4.512   4.528  0.3106 -2.1421 -1.8770
 6541SOL    HW231257   3.119   4.471   4.667 -0.7179  0.0640 -0.6334
 6542SOL     OW31258   2.193   2.371   2.931  0.2384  0.3403  0.1514
 6542SOL    HW131259   2.121   2.315   2.960  0.5152  0.5756  1.3084
 6542SOL    HW231260   2.144   2.422   2.867 -0.6844 -0.1887  0.4410
 6543SOL     OW31261   3.799   4.721   3.609 -0.1050 -0.0044  0.0160
 6543SOL    HW131262   3.879   0.025   3.580  0.0873 -1.6758 -1.9644
 6543SOL    HW231263   3.834   4.653   3.666 -2.9043 -0.5442  1.0832
 6544SOL     OW31264   0.865   4.125   7.418 -0.0949  0.3411 -0.2438
 6544SOL    HW131265   0.942   4.151   7.469 -1.3109 -0.2269  1.8600
 6544SOL    HW231266   0.802   4.132   7.489  0.7101  4.0465  0.1205
 6545SOL     OW31267   4.612   0.432   4.854  0.0502 -0.4773  0.4592
 6545SOL    HW131268   4.650   0.345   4.870 -1.6293 -1.2815 -0.0111
 6545SOL    HW231269   4.656   0.476   4.928  0.6109  0.1454 -0.2461
 6546SOL     OW31270   0.013   3.393  15.908  0.4766 -0.1201 -0.1457
 6546SOL    HW131271   0.086   3.350  15.953  2.0991 -0.4927 -3.1542
 6546SOL    HW231272   0.044   3.483  15.905  0.8107 -0.1514  2.5256
 6547SOL     OW31273   0.117   2.015  11.551 -0.5417 -0.0781 -0.2682
 6547SOL    HW131274   0.057   2.078  11.512 -1.2387 -1.3268 -1.2327
 6547SOL    HW231275   0.148   2.044  11.636 -1.9141 -2.4729  1.0632
 6548SOL     OW31276   4.422   3.046   6.124  0.1371  0.0404  0.4030
 6548SOL    HW131277   4.405   3.062   6.217 -0.0069 -1.1347  0.5708
 6548SOL    HW231278   4.333   3.043   6.090 -0.0293 -0.3465  0.8784
 6549SOL     OW31279   1.113   4.600   2.262 -0.7627  0.0724 -0.6243
 6549SOL    HW131280   1.020   4.582   2.246 -0.8061 -0.0960 -0.2020
 6549SOL    HW231281   1.121   4.672   2.201 -0.2309  0.4163 -0.1485
 6550SOL     OW31282   0.896   1.837   6.299 -0.3440  0.4892  0.1907
 6550SOL    HW131283   0.878   1.880   6.216  0.0753  2.9175  1.3460
 6550SOL    HW231284   0.946   1.757   6.281 -0.7859 -0.0125  1.1755
 6551SOL     OW31285   1.664   2.152   2.886  0.2362 -0.5258  0.2989
 6551SOL    HW131286   1.659   2.194   2.801 -0.1753 -0.7917  0.1920
 6551SOL    HW231287   1.621   2.216   2.944  1.2347  0.2783  0.1609
 6552SOL     OW31288   2.535   2.667   8.337  0.2267 -0.0133 -0.7420
 6552SOL    HW131289   2.558   2.584   8.296 -0.9949 -0.4474 -0.5620
 6552SOL    HW231290   2.447   2.688   8.305  0.0475 -0.4307 -0.5278
 6553SOL     OW31291   3.898   3.520   9.370  0.4023 -0.2817  0.7809
 6553SOL    HW131292   3.854   3.562   9.444  0.2807 -1.6639  1.4986
 6553SOL    HW231293   3.896   3.426   9.390  1.5498 -0.8649 -1.7466
 6554SOL     OW31294   2.847   2.491   1.904  0.2927 -0.3622  0.0709
 6554SOL    HW131295   2.777   2.485   1.969  1.0272 -0.2127  0.8746
 6554SOL    HW231296   2.828   2.570   1.853 -1.2867 -1.0405 -0.3679
 6555SOL     OW31297   2.427   0.103   1.959 -0.7169  0.4392 -0.0835
 6555SOL    HW131298   2.460   0.014   1.946  3.5695  2.1667 -0.9861
 6555SOL    HW231299   2.422   0.137   1.870 -1.0997  1.8669  0.4829
 6556SOL     OW31300   0.029   0.525   0.148  0.0296 -0.3978  0.2816
 6556SOL    HW131301   0.041   0.544   0.055  0.3801  0.4433  0.5010
 6556SOL    HW231302   0.109   0.476   0.168 -0.5996 -1.1703  0.9052
 6557SOL     OW31303   1.618   0.893  11.051  0.0865  0.3750  0.2327
 6557SOL    HW131304   1.560   0.824  11.021  0.0766  0.4485  0.0791
 6557SOL    HW231305   1.602   0.884  11.145 -0.2646  1.7120  0.3058
 6558SOL     OW31306   3.955   3.171  15.019 -0.3980  0.0345  0.2043
 6558SOL    HW131307   4.040   3.151  15.058 -1.0984 -2.0760  0.6676
 6558SOL    HW231308   3.970   3.263  14.998 -1.3507 -0.1173 -1.0690
 6559SOL     OW31309   4.288   1.739   7.001  0.3376 -0.8326  0.3314
 6559SOL    HW131310   4.312   1.706   7.088 -0.5350 -0.0091  0.8786
 6559SOL    HW231311   4.206   1.689   7.001  1.3535 -2.4729  3.2956
 6560SOL     OW31312   0.643   0.889  17.559  0.1321 -0.3945 -0.2278
 6560SOL    HW131313   0.585   0.890  17.636 -0.1859  1.9975 -0.4985
 6560SOL    HW231314   0.580   0.848  17.500 -2.3819  0.7494  1.6281
 6561SOL     OW31315   4.130   3.579   6.946 -0.1651  0.3339 -0.0811
 6561SOL    HW131316   4.057   3.530   6.987  0.4650  1.2637  2.1671
 6561SOL    HW231317   4.108   3.662   6.988 -0.4951 -1.0615  2.5614
 6562SOL     OW31318   2.091   2.245   3.228 -0.1783  0.3861 -0.7243
 6562SOL    HW131319   2.048   2.279   3.307  0.6905 -0.5208  0.1381
 6562SOL    HW231320   2.027   2.266   3.160 -2.0124  0.7396  1.0912
 6563SOL     OW31321   1.491   1.231   5.260  0.5488  0.0986 -0.3572
 6563SOL    HW131322   1.535   1.269   5.336  1.5003  0.0497 -0.8865
 6563SOL    HW231323   1.566   1.177   5.236  0.6053 -0.4778  1.1394
 6564SOL     OW31324   0.262   1.463   5.246 -0.0631  0.6747  0.4535
 6564SOL    HW131325   0.288   1.398   5.182 -1.2433 -0.4543  1.1247
 6564SOL    HW231326   0.317   1.424   5.314 -1.2957 -0.0677  1.0184
 6565SOL     OW31327   0.633   0.480  15.131 -0.1068 -0.2957 -0.3107
 6565SOL    HW131328   0.716   0.432  15.131  0.0656 -0.0192  1.0716
 6565SOL    HW231329   0.618   0.508  15.222 -2.3246 -1.4692 -0.3179
 6566SOL     OW31330   0.685   1.737   4.630  0.1821  0.1251  0.5185
 6566SOL    HW131331   0.749   1.749   4.700  2.2320 -0.3457 -1.2822
 6566SOL    HW231332   0.604   1.742   4.681 -0.9155 -1.9866 -1.0030
 6567SOL     OW31333   0.572   1.873   3.541  0.1437  0.5868  0.4556
 6567SOL    HW131334   0.489   1.913   3.567  0.6568  1.1187  1.2401
 6567SOL    HW231335   0.626   1.951   3.538 -0.8303  1.3096  1.7270
 6568SOL     OW31336   3.918   3.508   3.668  0.3611 -0.5968  0.0951
 6568SOL    HW131337   3.931   3.598   3.700  0.1793 -0.6765  0.3896
 6568SOL    HW231338   3.931   3.450   3.742 -0.6947 -0.4404  0.3960
 6569SOL     OW31339   4.197   3.054   3.865  0.0595 -0.4095 -0.1316
 6569SOL    HW131340   4.123   3.063   3.925  0.4671  0.8078  0.1781
 6569SOL    HW231341   4.234   2.972   3.898  1.2971 -0.0428 -0.6091
 6570SOL     OW31342   3.995   4.032  14.135 -0.0756 -0.2869  0.3288
 6570SOL    HW131343   3.970   3.940  14.139 -2.3479  0.3220  0.0638
 6570SOL    HW231344   3.985   4.061  14.044  1.0792  2.3899  1.0465
 6571SOL     OW31345   3.209   2.209   1.353 -0.0614  0.1541 -0.0079
 6571SOL    HW131346   3.278   2.263   1.314  0.2393  0.4761  0.9844
 6571SOL    HW231347   3.252   2.176   1.431  0.8439 -1.3408 -1.1342
 6572SOL     OW31348   1.471   0.104   9.207  0.1093  0.1847 -0.1004
 6572SOL    HW131349   1.468   0.161   9.130  2.4019  1.0291  0.4468
 6572SOL    HW231350   1.436   0.165   9.272 -3.2191 -1.1469 -0.5970
 6573SOL     OW31351   0.201   1.891   7.888 -0.1699  0.3637  0.2188
 6573SOL    HW131352   0.236   1.880   7.800 -2.0746  2.8269 -0.8332
 6573SOL    HW231353   0.117   1.845   7.880  1.3925 -2.4784  0.1119
 6574SOL     OW31354   1.662   1.945  10.000 -0.2778 -0.4100 -0.3253
 6574SOL    HW131355   1.602   2.019   9.987 -0.3140 -0.1699  1.2592
 6574SOL    HW231356   1.737   1.988  10.039 -0.2080  0.3746 -1.3264
 6575SOL     OW31357   0.586   4.332   1.717  0.5163  0.1637 -0.3039
 6575SOL    HW131358   0.507   4.300   1.760  1.2837  1.6045  2.1503
 6575SOL    HW231359   0.612   4.406   1.771  0.0574  0.1787 -0.1063
 6576SOL     OW31360   3.967   0.102  11.520  0.2498 -0.4443  0.2232
 6576SOL    HW131361   3.940   0.062  11.603  0.6951 -0.0954  0.5367
 6576SOL    HW231362   3.880   0.123  11.485  0.2516  0.0802  0.5413
 6577SOL     OW31363   1.816   0.718   4.142 -0.4943 -0.1797 -0.3871
 6577SOL    HW131364   1.749   0.721   4.073 -1.6304 -1.4017  0.6386
 6577SOL    HW231365   1.884   0.676   4.089 -1.2629  0.0041 -1.5122
 6578SOL     OW31366   0.304   2.058   5.002  0.1968 -0.0861  0.1326
 6578SOL    HW131367   0.273   2.117   5.071  0.3945 -0.9596  0.9756
 6578SOL    HW231368   0.294   1.975   5.048  0.5085  0.1623  0.6446
 6579SOL     OW31369   0.835   0.535   3.616 -0.2942 -0.9116  0.2596
 6579SOL    HW131370   0.887   0.524   3.695  2.4135  2.9139 -0.9743
 6579SOL    HW231371   0.757   0.487   3.644 -0.7615  0.3837  1.1699
 6580SOL     OW31372   4.411   4.139  11.931 -0.7484 -0.4822  0.0249
 6580SOL    HW131373   4.340   4.202  11.918  0.0027  0.9447  2.7645
 6580SOL    HW231374   4.470   4.163  11.860 -1.6861 -2.5532 -1.4780
 6581SOL     OW31375   3.710   0.445   5.601  0.1604 -0.1247  0.2087
 6581SOL    HW131376   3.754   0.400   5.529  0.1009  0.1882 -0.0216
 6581SOL    HW231377   3.778   0.511   5.615 -0.3108  0.1878  1.0090
 6582SOL     OW31378   2.619   3.303   1.088 -0.5017 -0.0214  0.1371
 6582SOL    HW131379   2.561   3.301   1.163  0.9388  0.0821  1.2640
 6582SOL    HW231380   2.554   3.308   1.018 -0.7036 -0.4040  0.2976
 6583SOL     OW31381   0.921   2.902   7.991  0.3589 -0.4549 -0.0075
 6583SOL    HW131382   0.956   2.988   8.012 -0.9643  0.4692 -1.6945
 6583SOL    HW231383   0.833   2.910   8.027  0.0510  2.9488 -1.5895
 6584SOL     OW31384   1.043   1.813   0.528  0.2066 -0.2892  0.4978
 6584SOL    HW131385   1.032   1.878   0.597 -0.1771  2.0307 -1.7637
 6584SOL    HW231386   0.964   1.759   0.528  0.2267 -0.3185  0.1038
 6585SOL     OW31387   3.668   4.269   9.247 -0.2154 -0.0948  0.4919
 6585SOL    HW131388   3.601   4.250   9.313 -0.3857 -2.3333 -0.3044
 6585SOL    HW231389   3.715   4.187   9.266 -0.2171 -0.1354  0.3187
 6586SOL     OW31390   4.570   0.284   8.054 -0.5251  0.0526  0.0372
 6586SOL    HW131391   4.502   0.342   8.089 -0.8538  1.1508 -2.4522
 6586SOL    HW231392   4.639   0.294   8.119 -0.7819  0.9810  0.1583
 6587SOL     OW31393   0.168   2.447   0.265  0.0383  0.1706  0.2830
 6587SOL    HW131394   0.168   2.356   0.234 -1.3579  0.1576  0.3139
 6587SOL    HW231395   0.260   2.463   0.287  0.0099  2.9069 -1.5887
 6588SOL     OW31396   0.920   3.534   5.819 -0.3226 -0.0024 -0.0847
 6588SOL    HW131397   0.901   3.568   5.906  0.6344  0.0870  0.0832
 6588SOL    HW231398   0.840   3.488   5.794  0.2441 -2.3608  2.4684
 6589SOL     OW31399   2.752   1.104   0.925  0.6377  0.2105 -0.0565
 6589SOL    HW131400   2.817   1.100   0.995 -0.3015  2.2097  0.9326
 6589SOL    HW231401   2.722   1.195   0.926  0.1189  0.0524 -1.4042
 6590SOL     OW31402   1.313   4.473   2.136 -0.2167  0.3980 -0.2342
 6590SOL    HW131403   1.236   4.495   2.188 -0.8823  0.2586 -1.1759
 6590SOL    HW231404   1.279   4.416   2.067 -0.5196 -0.6792  0.8067
 6591SOL     OW31405   3.690   0.283   7.406  0.1925  0.4381 -0.3437
 6591SOL    HW131406   3.704   0.235   7.487 -0.6558 -0.7024 -0.8638
 6591SOL    HW231407   3.676   0.373   7.435  0.8964  0.6334 -0.5929
 6592SOL     OW31408   4.577   3.606   1.903 -0.2673  0.1173 -0.7511
 6592SOL    HW131409   4.492   3.565   1.891  0.0624 -0.8174  0.0751
 6592SOL    HW231410   4.550   3.696   1.921  1.2692 -0.0515  2.3011
 6593SOL     OW31411   3.039   3.360   7.764 -0.2512  0.1886 -0.5602
 6593SOL    HW131412   2.981   3.386   7.691 -0.4446 -0.3746 -0.6072
 6593SOL    HW231413   3.074   3.281   7.722  0.1105 -0.0461  0.1949
 6594SOL     OW31414   1.987   0.068   7.788  0.0428  0.7143  0.6167
 6594SOL    HW131415   2.006   0.027   7.704  2.7107 -0.1538  1.6709
 6594SOL    HW231416   1.985   4.728   7.840  1.9586  0.4598  0.2744
 6595SOL     OW31417   3.499   4.328   3.110  0.0987 -0.0934 -0.1690
 6595SOL    HW131418   3.433   4.307   3.176 -2.1450  0.1601 -2.3515
 6595SOL    HW231419   3.486   4.256   3.049 -0.5623 -0.0736 -0.0516
 6596SOL     OW31420   4.503   4.157   7.448  0.0905 -0.0907  0.3610
 6596SOL    HW131421   4.532   4.069   7.472 -0.5877 -0.1782  0.8574
 6596SOL    HW231422   4.537   4.166   7.359 -0.1050 -2.1630  0.0881
 6597SOL     OW31423   2.712   1.688   3.919  0.4877 -0.0316  0.1552
 6597SOL    HW131424   2.676   1.702   3.832 -0.7132 -1.7780  0.3654
 6597SOL    HW231425   2.641   1.647   3.968  0.9032 -1.1150 -0.1458
 6598SOL     OW31426   3.217   4.325  12.294  0.1079 -0.0011  0.2035
 6598SOL    HW131427   3.148   4.258  12.293 -0.7432  0.8625  0.8970
 6598SOL    HW231428   3.169   4.406  12.281  1.5271  1.1943  2.3220
 6599SOL     OW31429   2.910   1.301   2.056 -0.4127 -0.1840  0.1493
 6599SOL    HW131430   2.991   1.257   2.081  0.8241  0.9247 -1.8785
 6599SOL    HW231431   2.902   1.362   2.130 -2.5915  0.5630 -0.6853
 6600SOL     OW31432   3.230   1.003   5.448 -0.3303 -0.1515  0.1078
 6600SOL    HW131433   3.322   0.984   5.432 -0.3900  1.0944 -1.7203
 6600SOL    HW231434   3.216   1.098   5.444 -0.0927 -0.1763 -1.4105
 6601SOL     OW31435   2.063   3.327   9.621  0.1574 -0.5569 -0.2092
 6601SOL    HW131436   2.082   3.378   9.699 -0.1734 -1.8517  0.7147
 6601SOL    HW231437   2.134   3.266   9.600 -0.3940 -2.2492  2.9523
 6602SOL     OW31438   0.482   0.172   3.171  0.2166 -0.1672  0.2586
 6602SOL    HW131439   0.571   0.195   3.145 -0.8854  2.9647 -0.7766
 6602SOL    HW231440   0.490   0.081   3.198  1.6954  0.3669  1.6535
 6603SOL     OW31441   1.088   0.440   4.274  0.5595 -0.8564 -0.0860
 6603SOL    HW131442   1.180   0.466   4.270  0.2063  0.4978  0.3274
 6603SOL    HW231443   1.049   0.528   4.274 -2.1583 -2.0709 -0.4080
 6604SOL     OW31444   0.536   4.383   2.206 -0.3235 -0.6300  0.6701
 6604SOL    HW131445   0.615   4.353   2.160  0.0907  2.0002 -0.3107
 6604SOL    HW231446   0.538   4.478   2.210 -1.0246 -0.6596  1.7722
 6605SOL     OW31447   1.237   2.556  17.431  0.2054  0.3914 -0.3305
 6605SOL    HW131448   1.210   2.471  17.397  1.2144 -0.2255  0.4124
 6605SOL    HW231449   1.330   2.535  17.443  0.3960  0.6448 -1.3696
 6606SOL     OW31450   0.457   3.803   4.522 -0.2021 -0.0192 -0.1649
 6606SOL    HW131451   0.418   3.886   4.493 -0.9188  0.1348  1.1948
 6606SOL    HW231452   0.443   3.751   4.443  1.5365 -0.9452  0.1468
 6607SOL     OW31453   4.128   3.071   0.418 -0.4801  0.3001 -0.2463
 6607SOL    HW131454   4.065   3.111   0.478 -0.7776  1.7328 -1.5110
 6607SOL    HW231455   4.202   3.130   0.408  0.3795 -1.2736 -3.1426
 6608SOL     OW31456   2.627   2.747   8.592 -0.4161 -0.1903  0.2337
 6608SOL    HW131457   2.540   2.759   8.631 -0.0841  1.9803  0.3168
 6608SOL    HW231458   2.612   2.690   8.517  0.8578  0.8621 -0.8339
 6609SOL     OW31459   2.200   0.685   6.165 -0.4174  0.4957 -0.4393
 6609SOL    HW131460   2.160   0.765   6.198  0.9009  1.5112 -1.3416
 6609SOL    HW231461   2.259   0.715   6.096 -0.1842 -0.9576 -0.8693
 6610SOL     OW31462   3.270   1.942   4.247 -0.1218 -0.1824 -0.3934
 6610SOL    HW131463   3.190   1.895   4.269 -0.8164  1.9854  1.7236
 6610SOL    HW231464   3.299   1.960   4.336  1.2360  2.1203 -1.2825
 6611SOL     OW31465   3.098   2.403  17.012 -0.4256  0.4021 -0.5284
 6611SOL    HW131466   3.094   2.493  17.045 -1.9204  0.4366 -0.7954
 6611SOL    HW231467   3.005   2.379  17.019 -0.0578 -1.1408 -0.9417
 6612SOL     OW31468   2.529   4.224   0.325 -0.0628 -0.1790  0.1262
 6612SOL    HW131469   2.507   4.271   0.406  0.5133 -0.3183  0.3634
 6612SOL    HW231470   2.489   4.279   0.258  1.0751  0.2973 -0.1611
 6613SOL     OW31471   1.331   4.108   7.918  0.6087 -0.4329 -0.0351
 6613SOL    HW131472   1.409   4.132   7.968  3.2218 -2.0875 -3.2757
 6613SOL    HW231473   1.284   4.184   7.883 -0.0767 -1.1500 -0.6714
 6614SOL     OW31474   2.029   1.481   8.379 -0.4857 -0.0557 -0.3225
 6614SOL    HW131475   2.095   1.416   8.354  0.5918  0.3948  1.3153
 6614SOL    HW231476   1.967   1.480   8.306  0.6336  2.7079 -1.3040
 6615SOL     OW31477   4.567   2.501   1.521  0.0543  0.0247 -0.4963
 6615SOL    HW131478   4.475   2.526   1.508 -0.8172 -1.0608  3.4550
 6615SOL    HW231479   4.582   2.509   1.427  1.9168 -1.6136 -0.3339
 6616SOL     OW31480   2.792   0.699   6.112 -0.1612 -0.0845 -0.2799
 6616SOL    HW131481   2.767   0.686   6.204 -0.3395  0.3338 -0.2695
 6616SOL    HW231482   2.875   0.653   6.100 -0.8121 -1.8121  1.7982
 6617SOL     OW31483   4.278   2.241  14.248  0.4234 -0.1906 -1.0427
 6617SOL    HW131484   4.236   2.253  14.333 -0.0192  1.5692 -1.5058
 6617SOL    HW231485   4.257   2.317  14.194 -2.7367 -0.9601 -0.8787
 6618SOL     OW31486   2.505   0.256  11.799  0.0765  0.2432 -0.1724
 6618SOL    HW131487   2.540   0.177  11.838  1.8327  0.7241 -0.7543
 6618SOL    HW231488   2.414   0.249  11.826  0.2376 -1.0350  0.0462
 6619SOL     OW31489   2.667   3.437   6.953 -0.2295  0.4936 -0.2108
 6619SOL    HW131490   2.614   3.362   6.981  3.6608 -1.9750  0.6589
 6619SOL    HW231491   2.602   3.498   6.919 -1.3442 -0.2081  0.6735
 6620SOL     OW31492   1.533   2.655  16.558  0.2548 -0.3553 -0.0545
 6620SOL    HW131493   1.451   2.614  16.585 -1.2065  1.9288 -0.9914
 6620SOL    HW231494   1.529   2.738  16.605  0.1256 -0.2828 -0.1932
 6621SOL     OW31495   2.531   1.904   7.493  0.0140 -0.6620 -0.1482
 6621SOL    HW131496   2.601   1.927   7.554 -1.9790  1.3753  1.3930
 6621SOL    HW231497   2.577   1.860   7.422  0.6856  0.4325 -0.3840
 6622SOL     OW31498   1.573   4.145  10.824 -0.0258 -0.1034  0.4548
 6622SOL    HW131499   1.566   4.076  10.890  1.8585 -2.4861 -1.8562
 6622SOL    HW231500   1.502   4.203  10.853  1.3013  0.6628  2.1388
 6623SOL     OW31501   1.413   0.243  15.459 -0.7265  0.1121 -0.2416
 6623SOL    HW131502   1.346   0.303  15.427  0.4803  0.8441 -1.4011
 6623SOL    HW231503   1.437   0.292  15.538  0.0536 -2.8337  1.3540
 6624SOL     OW31504   3.279   2.520   7.323  0.1194  0.1626  0.8160
 6624SOL    HW131505   3.346   2.582   7.292  0.7785 -2.2208 -2.4942
 6624SOL    HW231506   3.298   2.511   7.416 -1.6044  1.8587  1.3210
 6625SOL     OW31507   3.867   1.171   4.805  0.3619  0.3170 -0.6251
 6625SOL    HW131508   3.895   1.081   4.824 -0.9834 -0.1488 -0.7907
 6625SOL    HW231509   3.782   1.142   4.769 -0.6598 -0.4081  2.3516
 6626SOL     OW31510   2.607   0.079   5.184 -0.2308 -0.0148 -0.0603
 6626SOL    HW131511   2.590   4.734   5.144  0.7780  0.0043 -0.5282
 6626SOL    HW231512   2.626   0.059   5.276 -0.8766  0.3003  0.1446
 6627SOL     OW31513   3.247   3.130   2.868 -0.0160  0.3218 -0.2290
 6627SOL    HW131514   3.193   3.204   2.898 -0.5109  0.4205 -1.3778
 6627SOL    HW231515   3.330   3.170   2.844 -0.0812  0.8227  0.3624
 6628SOL     OW31516   3.687   3.372   0.066 -0.0020 -0.0947  0.3181
 6628SOL    HW131517   3.780   3.361   0.051  0.0155 -2.3494  1.8592
 6628SOL    HW231518   3.647   3.423  17.753 -0.7837  0.9166  1.5054
 6629SOL     OW31519   2.355   3.592   7.416  0.0391 -1.0405 -0.4577
 6629SOL    HW131520   2.274   3.640   7.401  0.4264  0.3637  1.8736
 6629SOL    HW231521   2.350   3.585   7.512 -3.4252  0.0910 -0.5296
 6630SOL     OW31522   0.248   0.126   4.320 -0.1469 -0.6044 -0.6369
 6630SOL    HW131523   0.299   0.147   4.241 -1.3817 -1.4227 -1.6539
 6630SOL    HW231524   0.183   0.195   4.316  1.3519  0.8482  0.2865
 6631SOL     OW31525   4.135   4.415  12.079 -0.6758  0.5315 -0.1577
 6631SOL    HW131526   4.120   4.321  12.094 -0.6365  0.9077  2.3015
 6631SOL    HW231527   4.088   4.437  11.998  1.0268  2.8928 -0.4974
 6632SOL     OW31528   0.293   0.753   1.821  0.0457  0.4230  0.5852
 6632SOL    HW131529   0.231   0.686   1.852  1.5159 -1.8549 -1.3803
 6632SOL    HW231530   0.288   0.825   1.883  1.3212  0.6187  0.4609
 6633SOL     OW31531   4.458   1.048  16.184  0.0770 -0.1533  0.2355
 6633SOL    HW131532   4.396   1.089  16.122  1.2225 -1.5798 -1.8654
 6633SOL    HW231533   4.470   0.967  16.133 -0.0337  0.6001 -1.0049
 6634SOL     OW31534   2.453   0.671   6.006 -0.2532  0.1547 -0.3971
 6634SOL    HW131535   2.457   0.646   6.098  0.4670 -1.2017 -0.7933
 6634SOL    HW231536   2.517   0.616   5.960  0.0867  1.6899 -1.7804
 6635SOL     OW31537   4.669   3.094  15.282  0.1411  0.2062  0.3041
 6635SOL    HW131538   4.624   3.163  15.331  0.0230  0.3236  0.0307
 6635SOL    HW231539   4.595   3.042  15.254 -0.8963  2.3400 -0.9344
 6636SOL     OW31540   3.141   1.599  14.198  0.0234 -0.2449  0.6292
 6636SOL    HW131541   3.229   1.632  14.179  0.2613 -0.5674  1.1805
 6636SOL    HW231542   3.093   1.644  14.129 -0.2026  1.4378  1.8830
 6637SOL     OW31543   0.324   3.376   9.610 -0.2244 -0.2448  0.4387
 6637SOL    HW131544   0.408   3.360   9.568  0.4034  1.2747  1.1238
 6637SOL    HW231545   0.336   3.322   9.689  2.7497  0.7008  0.5974
 6638SOL     OW31546   3.126   3.398   9.737  0.1251  0.1086  0.1760
 6638SOL    HW131547   3.113   3.360   9.824 -2.2915  0.1008 -0.1686
 6638SOL    HW231548   3.069   3.343   9.684  1.2016 -0.4826 -0.3662
 6639SOL     OW31549   4.540   1.681   2.328 -0.7582 -0.3649 -0.0075
 6639SOL    HW131550   4.532   1.763   2.377  1.5622 -1.2030  1.8005
 6639SOL    HW231551   4.514   1.610   2.387 -1.7775 -1.2422 -1.5404
 6640SOL     OW31552   1.882   3.461   6.796  0.3206  0.2681  0.6949
 6640SOL    HW131553   1.836   3.439   6.715 -1.0728  0.9666  1.3092
 6640SOL    HW231554   1.921   3.547   6.779 -0.3589  0.6013  0.8461
 6641SOL     OW31555   3.769   4.186   2.785  0.1996 -0.1814 -0.0354
 6641SOL    HW131556   3.822   4.222   2.856 -1.5192  2.1048  0.0805
 6641SOL    HW231557   3.743   4.265   2.737 -0.2875  0.5354  1.4012
 6642SOL     OW31558   1.170   1.585   9.106 -0.2451 -0.1703  0.0713
 6642SOL    HW131559   1.258   1.621   9.101 -0.5699  0.4511 -1.2867
 6642SOL    HW231560   1.171   1.521   9.035  0.8035  0.4633 -0.4862
 6643SOL     OW31561   1.542   1.407   8.549  0.1146  0.1215  0.2899
 6643SOL    HW131562   1.506   1.451   8.472 -1.3143 -1.1951  0.2066
 6643SOL    HW231563   1.637   1.410   8.534  0.3611  1.6384  2.2327
 6644SOL     OW31564   1.240   2.382   1.051  0.6612  0.1509  0.2257
 6644SOL    HW131565   1.159   2.335   1.034  0.6557  0.5025 -0.6850
 6644SOL    HW231566   1.228   2.428   1.134  1.5243 -0.8409  0.9140
 6645SOL     OW31567   0.844   3.001   5.010 -0.5784  0.3719 -0.4805
 6645SOL    HW131568   0.784   3.015   5.083 -2.6212 -0.1703 -2.0837
 6645SOL    HW231569   0.919   3.055   5.036  1.6440 -2.0775 -1.7641
 6646SOL     OW31570   3.213   3.591  16.916  0.3979  0.2612 -0.6660
 6646SOL    HW131571   3.238   3.665  16.971 -0.5867  0.2111 -0.1622
 6646SOL    HW231572   3.277   3.603  16.846  2.6667  0.3223  1.4214
 6647SOL     OW31573   1.633   4.264  16.517 -0.1141 -0.0092 -0.1786
 6647SOL    HW131574   1.647   4.171  16.499  1.6321  0.3839 -0.8001
 6647SOL    HW231575   1.718   4.303  16.499  0.2670  0.5512  2.9388
 6648SOL     OW31576   3.546   0.149  10.098 -0.6564  0.1210  0.0662
 6648SOL    HW131577   3.579   0.204  10.026  2.3117 -1.0649  0.4919
 6648SOL    HW231578   3.525   0.069  10.049 -2.3771  2.6039 -3.2984
 6649SOL     OW31579   4.266   2.623   4.604 -0.0416 -0.0335 -0.4596
 6649SOL    HW131580   4.321   2.564   4.656 -2.4056 -1.5661  0.2847
 6649SOL    HW231581   4.279   2.579   4.520  0.7556 -0.5602 -0.0658
 6650SOL     OW31582   3.920   2.058  15.808 -0.1821 -0.4956 -0.0826
 6650SOL    HW131583   3.857   2.131  15.806 -0.9703 -1.1698 -0.0966
 6650SOL    HW231584   3.877   2.000  15.745  1.3529 -0.2128 -1.4034
 6651SOL     OW31585   2.945   4.565   4.443 -0.1306 -0.1442  0.2500
 6651SOL    HW131586   2.873   4.622   4.469 -0.4291  0.3376 -1.5963
 6651SOL    HW231587   2.958   4.588   4.351  1.6457  0.7441  0.7255
 6652SOL     OW31588   2.334   3.002   2.502 -0.9061  0.0405  0.0817
 6652SOL    HW131589   2.272   3.012   2.430  0.3676 -1.4655 -1.2216
 6652SOL    HW231590   2.274   2.994   2.576 -0.5737 -1.0609  0.2302
 6653SOL     OW31591   2.965   1.748  16.319 -0.4304 -0.5609  0.5363
 6653SOL    HW131592   2.933   1.664  16.288 -0.2404  0.0491 -1.2820
 6653SOL    HW231593   3.022   1.769  16.246  2.3044 -2.5591  2.0955
 6654SOL     OW31594   2.635   3.603   8.271 -0.9625 -0.1875 -0.6214
 6654SOL    HW131595   2.612   3.568   8.185  0.5620  0.0170 -1.1087
 6654SOL    HW231596   2.568   3.555   8.320 -1.9953  0.0345 -1.8069
 6655SOL     OW31597   2.342   0.010   1.552  0.4639  0.0437 -0.2117
 6655SOL    HW131598   2.378   0.098   1.543 -1.4815  1.0440  1.5312
 6655SOL    HW231599   2.265   0.029   1.607 -0.1729 -0.4418 -0.9361
 6656SOL     OW31600   3.303   1.042   7.573 -0.2191  0.0863 -0.5775
 6656SOL    HW131601   3.215   1.039   7.611 -0.8245  1.5474 -1.8952
 6656SOL    HW231602   3.352   1.006   7.648 -0.3134  0.8444 -0.1584
 6657SOL     OW31603   4.031   4.577   9.018  0.4991 -0.4969 -0.6082
 6657SOL    HW131604   4.055   4.505   8.960  1.2116 -1.3689  0.7666
 6657SOL    HW231605   3.978   4.533   9.085  1.4956 -1.8868 -0.7530
 6658SOL     OW31606   2.160   0.042   2.043  0.1356  0.4821  0.4066
 6658SOL    HW131607   2.234   0.068   1.988  0.9773 -3.9310 -0.5148
 6658SOL    HW231608   2.205   0.019   2.124  3.4134  2.2785 -0.8809
 6659SOL     OW31609   2.255   1.932   7.470  0.0642 -0.2307  0.4216
 6659SOL    HW131610   2.236   2.024   7.452  1.5229 -0.2052 -0.9939
 6659SOL    HW231611   2.349   1.943   7.483 -0.2016 -1.5682  3.4089
 6660SOL     OW31612   4.702   4.562   9.414  0.6569 -0.1138 -0.6308
 6660SOL    HW131613   4.675   4.647   9.379 -1.3725  0.0774  1.4422
 6660SOL    HW231614   4.667   4.504   9.347  0.2776  0.7367 -1.1732
 6661SOL     OW31615   3.138   3.248   5.908  0.2681 -0.4670  0.5070
 6661SOL    HW131616   3.117   3.326   5.961  0.9823 -1.7803  2.7214
 6661SOL    HW231617   3.213   3.203   5.947 -0.3179  0.3095  2.5539
 6662SOL     OW31618   2.407   1.594   2.784 -0.3436  0.0810 -0.2116
 6662SOL    HW131619   2.381   1.630   2.868  0.7496 -0.3820  0.3228
 6662SOL    HW231620   2.485   1.648   2.786  0.3522 -0.9885  1.5687
 6663SOL     OW31621   1.659   2.343   6.587  0.1665 -0.2858 -0.8263
 6663SOL    HW131622   1.596   2.331   6.659 -0.1030 -1.5677 -1.2811
 6663SOL    HW231623   1.736   2.381   6.630 -2.0913  1.4017  1.7865
 6664SOL     OW31624   4.014   4.650   2.364 -0.0372  0.2142 -0.6023
 6664SOL    HW131625   4.040   4.678   2.276  0.1582 -1.8005 -1.1688
 6664SOL    HW231626   4.015   4.736   2.408 -0.2374 -0.9726  1.7318
 6665SOL     OW31627   2.103   4.237  10.532 -0.8603  0.3131 -0.5655
 6665SOL    HW131628   2.008   4.235  10.520 -0.9105  1.7604 -0.4965
 6665SOL    HW231629   2.102   4.240  10.628  0.0484  0.8775 -0.5613
 6666SOL     OW31630   4.482   3.025  15.830 -0.0075 -0.2007  0.1097
 6666SOL    HW131631   4.398   3.056  15.863 -0.3141 -0.8029 -0.1191
 6666SOL    HW231632   4.449   2.981  15.752 -0.0529 -1.7445  1.0151
 6667SOL     OW31633   1.758   2.160   3.387  0.4069  0.4068  0.0329
 6667SOL    HW131634   1.772   2.093   3.454  2.0222  1.4174  0.6848
 6667SOL    HW231635   1.788   2.112   3.309  0.1903  0.4435 -0.0726
 6668SOL     OW31636   2.825   1.861   5.355 -0.2755 -0.0125  0.2396
 6668SOL    HW131637   2.844   1.846   5.448  0.7962  0.1345  0.0461
 6668SOL    HW231638   2.753   1.799   5.345  0.3587 -0.6904 -0.1453
 6669SOL     OW31639   2.983   3.275   8.747 -0.8859 -0.2444  0.3890
 6669SOL    HW131640   2.969   3.243   8.836 -1.5151 -2.2493 -0.4444
 6669SOL    HW231641   2.989   3.200   8.688 -2.4992 -0.0534 -0.0375
 6670SOL     OW31642   1.857   1.737  13.579  0.3745 -0.4801 -0.2839
 6670SOL    HW131643   1.778   1.683  13.580 -0.6206  0.9666  0.4820
 6670SOL    HW231644   1.824   1.817  13.622  0.5504  0.7035 -2.3611
 6671SOL     OW31645   4.116   3.197  12.455 -0.8386  0.0592  0.0003
 6671SOL    HW131646   4.031   3.175  12.493 -0.3662  0.8097  1.5280
 6671SOL    HW231647   4.097   3.283  12.417 -0.7970 -1.3880 -3.2696
 6672SOL     OW31648   2.533   3.416  12.396 -0.8548  0.4371  0.8242
 6672SOL    HW131649   2.530   3.439  12.489 -1.1822 -0.0410  0.9320
 6672SOL    HW231650   2.445   3.383  12.378  0.2856 -1.5404 -1.2257
 6673SOL     OW31651   1.980   0.689   7.667  0.6740 -0.9530  0.1573
 6673SOL    HW131652   1.973   0.732   7.582 -2.9278 -1.2361  0.2892
 6673SOL    HW231653   1.923   0.743   7.722  0.0834 -0.4382 -0.9759
 6674SOL     OW31654   4.537   2.245   4.460  0.0692  0.0510 -0.1361
 6674SOL    HW131655   4.545   2.150   4.464  1.1734  0.0614 -2.0004
 6674SOL    HW231656   4.616   2.270   4.412  1.4315 -1.0911  1.5173
 6675SOL     OW31657   1.475   1.384   1.896  0.3504  0.1190  0.1272
 6675SOL    HW131658   1.437   1.434   1.824 -1.1213 -3.4902 -1.5808
 6675SOL    HW231659   1.517   1.460   1.937  0.9912 -0.1925  0.0550
 6676SOL     OW31660   2.485   2.595   3.268  0.1155 -0.3922 -0.2332
 6676SOL    HW131661   2.486   2.519   3.210 -0.2537  0.2637 -1.1066
 6676SOL    HW231662   2.402   2.629   3.234 -0.8477 -2.4258  0.0994
 6677SOL     OW31663   2.068   2.667   0.482 -0.2734  0.3907  0.2442
 6677SOL    HW131664   2.059   2.762   0.470 -1.1228  0.4907  1.6490
 6677SOL    HW231665   2.069   2.664   0.578 -2.7345 -0.1045  0.2616
 6678SOL     OW31666   4.536   0.628   2.185 -0.0597 -0.5458 -0.1813
 6678SOL    HW131667   4.443   0.630   2.208 -0.0151  0.5628 -0.0957
 6678SOL    HW231668   4.525   0.667   2.098  0.8721 -1.3096 -0.6316
 6679SOL     OW31669   2.047   2.111   6.302 -0.1676 -0.0025  0.0135
 6679SOL    HW131670   2.033   2.016   6.297 -0.4599  0.1562 -2.1426
 6679SOL    HW231671   1.961   2.152   6.298 -0.5602 -0.6781  1.3270
 6680SOL     OW31672   3.602   3.806   2.648  0.0745 -0.3386 -0.1967
 6680SOL    HW131673   3.612   3.763   2.563  0.6409  0.3524 -0.4844
 6680SOL    HW231674   3.578   3.897   2.627 -0.7279 -0.5013  0.0387
 6681SOL     OW31675   2.033   3.540   6.136  0.1925  0.0117 -0.2891
 6681SOL    HW131676   2.006   3.449   6.134 -3.0361  0.9630 -0.7075
 6681SOL    HW231677   2.095   3.541   6.063  0.3160 -0.3893 -0.1890
 6682SOL     OW31678   0.593   0.278   0.905 -0.3882  0.3230  0.7480
 6682SOL    HW131679   0.559   0.193   0.934  2.5951 -1.7658 -1.9344
 6682SOL    HW231680   0.618   0.267   0.813 -1.9093 -0.6019  0.4264
 6683SOL     OW31681   0.067   1.624   2.092 -0.3503  0.1217 -0.2698
 6683SOL    HW131682   0.031   1.710   2.115 -0.3950 -0.4438  1.7746
 6683SOL    HW231683   0.002   1.603   2.025  0.2525 -0.1567 -0.7623
 6684SOL     OW31684   1.966   2.840   1.258  0.0957  0.1957  0.1410
 6684SOL    HW131685   1.889   2.895   1.250 -0.0957 -0.3577 -1.9316
 6684SOL    HW231686   1.970   2.795   1.174  0.7132  0.4297  0.0394
 6685SOL     OW31687   4.189   3.238   2.007 -0.1268  0.0855 -0.4589
 6685SOL    HW131688   4.096   3.217   2.008  0.1660 -1.1632  0.0683
 6685SOL    HW231689   4.232   3.155   1.986 -1.3038 -0.4098 -0.8928
 6686SOL     OW31690   0.358   2.979   2.759  0.3081  0.3814 -0.4712
 6686SOL    HW131691   0.349   3.040   2.686  0.3533  1.9602  0.8498
 6686SOL    HW231692   0.377   2.896   2.715 -1.1838  0.4667 -1.2760
 6687SOL     OW31693   2.220   1.539   8.696 -0.2737  0.3859  0.3827
 6687SOL    HW131694   2.150   1.597   8.665 -1.5157 -1.0731  0.4540
 6687SOL    HW231695   2.267   1.518   8.616  0.5888  2.1984  0.4366
 6688SOL     OW31696   0.697   3.771   2.348  0.5416 -0.6138 -0.5415
 6688SOL    HW131697   0.640   3.752   2.423  0.0228 -0.7358 -0.9662
 6688SOL    HW231698   0.711   3.864   2.365 -1.6353 -0.7277  1.9247
 6689SOL     OW31699   2.384   3.742   3.053  0.0449 -0.3857 -0.5471
 6689SOL    HW131700   2.419   3.671   2.998 -0.8435 -1.1086 -0.1828
 6689SOL    HW231701   2.353   3.687   3.125 -2.3080  3.4689  1.3227
 6690SOL     OW31702   2.872   3.631   7.971  0.1163  0.5165  0.1969
 6690SOL    HW131703   2.944   3.632   8.034  0.4257 -0.4632 -0.1337
 6690SOL    HW231704   2.921   3.611   7.892 -0.7158 -0.2864 -0.1213
 6691SOL     OW31705   1.819   0.192   4.340  0.7088 -0.1597 -0.1237
 6691SOL    HW131706   1.853   0.221   4.425  1.0791 -2.4260  0.5051
 6691SOL    HW231707   1.896   0.199   4.284 -0.1005  1.6970 -0.9974
 6692SOL     OW31708   1.786   3.113   7.806  0.1072 -0.3240  0.1856
 6692SOL    HW131709   1.702   3.067   7.807 -0.5801  0.9479  1.3215
 6692SOL    HW231710   1.833   3.044   7.758  1.2795 -0.1494  1.0814
 6693SOL     OW31711   2.198   1.961   5.542 -0.4851  0.2986  0.0833
 6693SOL    HW131712   2.146   1.884   5.565  0.7276 -0.5651 -0.0543
 6693SOL    HW231713   2.168   1.982   5.454  0.3349  1.4914  0.0913
 6694SOL     OW31714   0.440   3.314   5.263 -0.2311  0.1270  0.5802
 6694SOL    HW131715   0.441   3.240   5.203  0.7337  1.0787 -0.5965
 6694SOL    HW231716   0.403   3.382   5.206 -0.5443  1.4062  2.3166
 6695SOL     OW31717   0.541   4.533   0.858 -0.1365 -0.1342 -0.2590
 6695SOL    HW131718   0.594   4.474   0.911  1.1656  3.0002  1.8916
 6695SOL    HW231719   0.593   4.570   0.787 -0.4864  0.4669 -0.2009
 6696SOL     OW31720   0.203   4.212   1.855 -0.2654  0.2265  0.9763
 6696SOL    HW131721   0.247   4.127   1.853 -0.8048  0.0053 -0.7731
 6696SOL    HW231722   0.280   4.267   1.867 -1.0420  1.5907 -0.3479
 6697SOL     OW31723   1.552   2.025   7.721 -0.0604 -0.0871  0.3050
 6697SOL    HW131724   1.546   2.018   7.626  1.1086  1.0758  0.1303
 6697SOL    HW231725   1.614   1.956   7.745  2.0395  1.5314 -0.4301
 6698SOL     OW31726   3.825   3.979   7.950 -0.1732  0.7300 -0.5839
 6698SOL    HW131727   3.883   4.048   7.983  0.4387 -0.6071  1.0982
 6698SOL    HW231728   3.881   3.902   7.956 -0.7003  0.4150  0.2351
 6699SOL     OW31729   4.142   2.919  12.461  0.6025 -0.4073 -0.1626
 6699SOL    HW131730   4.217   2.912  12.520  1.3944  1.8033 -0.9141
 6699SOL    HW231731   4.137   3.014  12.450  0.5219 -0.3669  0.2314
 6700SOL     OW31732   1.028   3.553   6.497 -0.2000 -0.2482  0.4326
 6700SOL    HW131733   0.937   3.530   6.513  0.8298 -3.4216  1.7241
 6700SOL    HW231734   1.043   3.623   6.560 -3.1696  2.3541 -1.7417
 6701SOL     OW31735   0.676   4.172   1.313  0.3217 -0.1365  0.0666
 6701SOL    HW131736   0.712   4.157   1.401  2.1201 -0.3449 -0.7129
 6701SOL    HW231737   0.745   4.125   1.267  0.9414  0.9106 -0.0661
 6702SOL     OW31738   3.700   1.783   4.373 -0.5866  1.2563 -0.6275
 6702SOL    HW131739   3.674   1.787   4.465 -0.3853 -0.2024 -0.5093
 6702SOL    HW231740   3.708   1.874   4.344  0.3690  1.9162  1.6971
 6703SOL     OW31741   1.304   1.891   7.798  0.7314 -0.0281 -0.4817
 6703SOL    HW131742   1.375   1.952   7.779  1.2797 -0.4704  0.1237
 6703SOL    HW231743   1.227   1.948   7.797 -0.8408 -2.0651  2.3012
 6704SOL     OW31744   3.553   2.493   4.190 -0.3238 -0.3212  0.0372
 6704SOL    HW131745   3.527   2.526   4.105 -1.0776  0.5394  0.6067
 6704SOL    HW231746   3.564   2.569   4.247 -1.7991 -0.8991  1.0930
 6705SOL     OW31747   3.303   4.557   3.465  0.2113 -0.6556  0.3753
 6705SOL    HW131748   3.325   4.569   3.557  0.7149 -1.8476  0.4210
 6705SOL    HW231749   3.305   4.461   3.458 -0.7189 -0.7520  1.5826
 6706SOL     OW31750   0.314   2.652  12.067  0.4712 -0.0994  0.1866
 6706SOL    HW131751   0.233   2.684  12.105  1.9623  1.9375  1.6081
 6706SOL    HW231752   0.314   2.670  11.973  2.1908 -0.6608  0.0825
 6707SOL     OW31753   3.349   0.746   2.390  0.7315 -0.4438  0.2128
 6707SOL    HW131754   3.305   0.759   2.306 -1.4080 -1.6592  1.1485
 6707SOL    HW231755   3.323   0.657   2.412  0.9536 -0.5033  0.2363
 6708SOL     OW31756   3.711   2.298   8.535 -0.0927 -0.4624  0.1132
 6708SOL    HW131757   3.735   2.379   8.579  0.5927 -0.0351 -1.0604
 6708SOL    HW231758   3.642   2.268   8.595 -0.9378 -0.3412 -0.8022
 6709SOL     OW31759   4.213   0.041   4.948 -0.5037 -0.0499  0.5452
 6709SOL    HW131760   4.195   0.010   4.859 -0.5460 -2.5879  1.4500
 6709SOL    HW231761   4.204   0.134   4.926  0.6595  0.0132  0.3392
 6710SOL     OW31762   3.047   2.735  15.688 -0.2420 -0.3977 -0.0869
 6710SOL    HW131763   3.126   2.785  15.712  0.2032  0.7575 -4.0262
 6710SOL    HW231764   3.049   2.748  15.594 -1.9065  1.9602  0.2213
 6711SOL     OW31765   2.852   3.233   3.480 -0.3978 -0.1765  0.1320
 6711SOL    HW131766   2.828   3.308   3.425  1.5451 -1.7858 -2.9090
 6711SOL    HW231767   2.872   3.166   3.415  1.5134  0.3798  0.1357
 6712SOL     OW31768   3.271   3.275   8.006  0.9070  0.0947 -0.5203
 6712SOL    HW131769   3.346   3.256   8.063  0.1240 -0.5327  0.3088
 6712SOL    HW231770   3.273   3.218   7.929  2.2494 -0.2950 -0.1945
 6713SOL     OW31771   3.281   1.450   9.292  0.8769  0.3683 -0.6386
 6713SOL    HW131772   3.333   1.369   9.291  1.2770  0.6180 -0.1084
 6713SOL    HW231773   3.299   1.473   9.384 -1.1188  1.4375 -0.5206
 6714SOL     OW31774   4.357   3.185   8.666 -0.0060  0.3689 -0.1064
 6714SOL    HW131775   4.429   3.167   8.727 -0.8632 -0.2034  0.7374
 6714SOL    HW231776   4.281   3.209   8.719  0.1790  0.0782  0.2904
 6715SOL     OW31777   0.353   1.365   3.521  0.4533  0.1853  0.0673
 6715SOL    HW131778   0.309   1.449   3.527 -0.7199 -0.4052 -0.3076
 6715SOL    HW231779   0.343   1.342   3.613  0.4630 -0.2309 -0.0343
 6716SOL     OW31780   3.754   0.496   7.165 -0.5221  0.0913 -0.2705
 6716SOL    HW131781   3.821   0.427   7.173 -1.7047 -0.8328  1.4508
 6716SOL    HW231782   3.804   0.577   7.172 -0.8591  0.3974 -1.3018
 6717SOL     OW31783   1.338   1.897   3.566 -0.5929 -0.2755 -0.2182
 6717SOL    HW131784   1.312   1.815   3.525  0.2086 -0.3431 -0.5750
 6717SOL    HW231785   1.255   1.938   3.590 -1.5299 -0.8304 -2.5537
 6718SOL     OW31786   3.180   0.779  13.491  0.0678 -0.1735  0.6506
 6718SOL    HW131787   3.123   0.855  13.501 -0.1219 -0.4193  1.5230
 6718SOL    HW231788   3.139   0.708  13.541 -0.6016 -0.4971 -0.3544
 6719SOL     OW31789   2.699   4.250   5.003 -0.4703  0.1600  0.5645
 6719SOL    HW131790   2.613   4.215   5.024 -0.5516 -1.9402 -3.2676
 6719SOL    HW231791   2.756   4.173   4.997 -0.5303  0.2255 -0.9579
 6720SOL     OW31792   0.807   4.033   9.128  0.7240 -0.1231 -0.0249
 6720SOL    HW131793   0.771   4.041   9.040 -1.3261  1.8697  0.9961
 6720SOL    HW231794   0.901   4.043   9.111  0.6155  0.5974 -0.1937
 6721SOL     OW31795   0.377   2.071  16.152  0.4282 -0.2213  0.1331
 6721SOL    HW131796   0.444   2.111  16.208  0.3663  1.4787 -1.0191
 6721SOL    HW231797   0.310   2.138  16.156  1.0620  0.4928 -1.2847
 6722SOL     OW31798   2.905   3.252   9.323  0.1431 -0.1204  0.1492
 6722SOL    HW131799   2.824   3.247   9.272  1.5973  1.5256 -2.3111
 6722SOL    HW231800   2.974   3.257   9.257  0.6108  1.2284  0.7511
 6723SOL     OW31801   4.147   0.377   5.154 -0.1023 -0.3088 -0.4522
 6723SOL    HW131802   4.117   0.457   5.110 -2.1910 -0.0645  1.4222
 6723SOL    HW231803   4.195   0.334   5.083 -0.0691  0.0158 -0.6257
 6724SOL     OW31804   4.729   2.721  16.581  0.7402  0.7549  0.9391
 6724SOL    HW131805   4.663   2.718  16.651 -1.1381  0.1560 -0.8498
 6724SOL    HW231806   0.004   2.627  16.572 -1.5736  0.6580 -1.8233
 6725SOL     OW31807   3.831   3.922   4.798 -0.1734 -0.3581 -0.3205
 6725SOL    HW131808   3.768   3.937   4.727  0.5045  0.1987 -0.7981
 6725SOL    HW231809   3.816   3.828   4.813 -0.0451 -0.2846  0.2445
 6726SOL     OW31810   3.739   2.766   3.160  0.4671 -0.2151 -0.1877
 6726SOL    HW131811   3.712   2.809   3.078 -1.5245 -0.2214  0.4505
 6726SOL    HW231812   3.778   2.684   3.130  0.9019  0.0913 -0.4539
 6727SOL     OW31813   3.145   2.341   2.883  0.2949  0.1286  0.1728
 6727SOL    HW131814   3.150   2.435   2.902 -2.8678  0.5333 -1.0097
 6727SOL    HW231815   3.198   2.307   2.955  1.1242  0.7004 -0.1742
 6728SOL     OW31816   1.723   2.711  15.979 -0.2530 -0.0047  0.1176
 6728SOL    HW131817   1.805   2.663  15.974  0.0903  0.9287 -3.7562
 6728SOL    HW231818   1.666   2.646  16.020  0.5543 -0.5621  0.3394
 6729SOL     OW31819   0.480   1.682   7.144  0.2622 -0.5127 -0.3768
 6729SOL    HW131820   0.528   1.670   7.062 -0.1604  0.0207 -0.7013
 6729SOL    HW231821   0.444   1.595   7.162  0.8316 -0.4770  0.9604
 6730SOL     OW31822   0.194   2.963   3.089  0.0477 -0.3881  0.0462
 6730SOL    HW131823   0.205   3.047   3.043 -0.6907  0.8897  2.2029
 6730SOL    HW231824   0.230   2.990   3.174  0.8610  0.3137 -0.5091
 6731SOL     OW31825   0.508   1.167   8.131 -0.3192  0.4958 -0.1154
 6731SOL    HW131826   0.553   1.225   8.193 -1.8688  1.3902  0.1550
 6731SOL    HW231827   0.551   1.181   8.047 -1.0031 -0.0487 -0.5579
 6732SOL     OW31828   0.298   0.240   1.997  0.1074  0.1429  0.2784
 6732SOL    HW131829   0.291   0.180   1.922  0.5081 -0.2482  0.5575
 6732SOL    HW231830   0.391   0.261   1.997  0.5032 -1.5931  0.1924
 6733SOL     OW31831   3.736   1.424   8.059 -0.5775  0.4797 -0.0589
 6733SOL    HW131832   3.821   1.442   8.098  0.1696  0.0902 -1.5255
 6733SOL    HW231833   3.708   1.515   8.067 -0.8236  0.1955  2.2333
 6734SOL     OW31834   3.425   3.721  10.022 -0.5015  0.7251 -0.8199
 6734SOL    HW131835   3.337   3.758  10.012 -0.6941  0.1771 -1.1318
 6734SOL    HW231836   3.464   3.750   9.940 -1.8603  1.0651 -1.3444
 6735SOL     OW31837   0.706   3.334   4.218  0.0945  0.1308 -0.0662
 6735SOL    HW131838   0.783   3.287   4.251 -0.6104 -0.9459  0.0570
 6735SOL    HW231839   0.749   3.369   4.140  1.2620 -1.8900 -0.3573
 6736SOL     OW31840   4.356   1.249   7.145  0.2312  0.1153 -0.0956
 6736SOL    HW131841   4.320   1.256   7.056 -1.4514 -0.8624  0.5066
 6736SOL    HW231842   4.302   1.308   7.196 -0.7621 -1.0655  0.2167
 6737SOL     OW31843   0.876   1.580   4.439  0.6079  0.0354 -0.5077
 6737SOL    HW131844   0.907   1.618   4.356 -0.3613  1.3906 -0.2552
 6737SOL    HW231845   0.819   1.652   4.468  1.0679 -0.1092  0.7601
 6738SOL     OW31846   3.855   4.176   4.596  0.2533  0.0250 -0.7751
 6738SOL    HW131847   3.784   4.239   4.585  1.2628  1.2762 -0.1244
 6738SOL    HW231848   3.923   4.229   4.637 -1.1568  1.6480 -0.5675
 6739SOL     OW31849   1.632   3.683   2.834 -0.4132  0.1387 -0.0924
 6739SOL    HW131850   1.706   3.644   2.881  0.0695 -1.4242 -2.1117
 6739SOL    HW231851   1.587   3.603   2.807 -0.9460  1.2934 -2.6353
 6740SOL     OW31852   1.846   4.405   7.008 -1.0697  0.2670  0.1062
 6740SOL    HW131853   1.768   4.378   6.960 -1.0107 -1.1682  0.8267
 6740SOL    HW231854   1.808   4.472   7.065 -1.1283 -1.7811  2.4856
 6741SOL     OW31855   0.521   4.601   1.192 -0.3212 -0.1156 -0.8880
 6741SOL    HW131856   0.510   4.544   1.117  0.4283  0.5710 -1.5132
 6741SOL    HW231857   0.441   4.589   1.244 -0.3440  1.9553 -0.4113
 6742SOL     OW31858   1.013   4.282   5.283  0.0750  0.2136 -0.3688
 6742SOL    HW131859   1.026   4.252   5.373 -1.3629  0.5142 -0.0511
 6742SOL    HW231860   1.027   4.377   5.286  2.9119 -0.2009 -0.5230
 6743SOL     OW31861   0.511   4.132   8.710 -0.0705  0.4127  0.0256
 6743SOL    HW131862   0.446   4.173   8.767 -1.2102 -0.5043 -0.6086
 6743SOL    HW231863   0.463   4.061   8.668  2.5080 -0.1681 -1.9422
 6744SOL     OW31864   2.191   3.313   1.441  0.1445  0.0899 -0.0813
 6744SOL    HW131865   2.158   3.237   1.488  0.4924 -0.7607 -1.2239
 6744SOL    HW231866   2.127   3.327   1.371 -0.6035  1.3456  0.8352
 6745SOL     OW31867   3.686   1.081   8.372 -0.1331  0.4943  0.7307
 6745SOL    HW131868   3.642   1.029   8.305  2.7717 -0.9256 -0.0841
 6745SOL    HW231869   3.677   1.027   8.450  2.2550 -0.7923  0.1392
 6746SOL     OW31870   3.650   2.886   2.556 -0.7513  0.0706 -0.0123
 6746SOL    HW131871   3.572   2.888   2.611 -1.6165  4.4314 -1.3551
 6746SOL    HW231872   3.712   2.829   2.600 -0.1192  0.3152 -0.5901
 6747SOL     OW31873   3.173   4.248   7.016  0.0916  0.2308  0.2208
 6747SOL    HW131874   3.197   4.333   7.053  1.3201 -0.2766  0.5937
 6747SOL    HW231875   3.197   4.262   6.925  1.0973 -0.1257  0.4314
 6748SOL     OW31876   4.553   2.519   9.315  0.2287 -0.0932 -0.3808
 6748SOL    HW131877   4.486   2.450   9.319 -2.6732  2.6218 -1.7024
 6748SOL    HW231878   4.502   2.583   9.265  0.2366 -0.1005 -0.3980
 6749SOL     OW31879   3.447   1.901   3.884 -0.1374  0.4241 -0.3139
 6749SOL    HW131880   3.372   1.908   3.825  1.4519  0.8043 -2.2657
 6749SOL    HW231881   3.507   1.865   3.819 -1.3245  0.2833 -1.3365
 6750SOL     OW31882   0.903   3.712   2.194 -0.2218 -0.0773 -0.1941
 6750SOL    HW131883   0.872   3.637   2.144 -0.7891 -1.0989  1.7046
 6750SOL    HW231884   0.830   3.728   2.254 -1.3908  3.4290 -2.5592
 6751SOL     OW31885   3.806   3.625  17.610  0.3977  0.2886 -0.3657
 6751SOL    HW131886   3.809   3.720  17.600 -1.4321  0.2893 -1.0161
 6751SOL    HW231887   3.837   3.605  17.521  0.1724 -1.1261 -0.1265
 6752SOL     OW31888   4.480   2.910   5.170  0.0346  0.0615  0.1407
 6752SOL    HW131889   4.557   2.963   5.188  1.1899 -1.7288  0.4909
 6752SOL    HW231890   4.412   2.975   5.151  0.8608  0.3647 -1.7632
 6753SOL     OW31891   0.298   0.616   4.026  0.9038  0.0023  0.1627
 6753SOL    HW131892   0.297   0.629   3.932  0.6729  0.1609  0.1882
 6753SOL    HW231893   0.240   0.540   4.031  0.5431  0.3578  1.5012
 6754SOL     OW31894   0.388   2.858   3.833 -0.3944 -0.5810  0.1274
 6754SOL    HW131895   0.318   2.797   3.858 -0.7267  1.2487  3.5625
 6754SOL    HW231896   0.361   2.944   3.866  0.1969  0.6979 -2.6594
 6755SOL     OW31897   1.754   0.365   6.561 -0.0668 -0.0068  0.2064
 6755SOL    HW131898   1.844   0.388   6.583  0.0145  0.0063 -0.1396
 6755SOL    HW231899   1.709   0.429   6.617  0.7870 -0.2394  1.1435
 6756SOL     OW31900   1.699   0.582   7.747 -0.2892 -0.1620  0.1949
 6756SOL    HW131901   1.652   0.642   7.805 -0.5656 -0.5853  0.4042
 6756SOL    HW231902   1.643   0.505   7.757  1.1950 -1.3144 -0.4206
 6757SOL     OW31903   0.963   0.549  17.124 -0.3907  0.2042 -0.3641
 6757SOL    HW131904   0.879   0.560  17.079  0.0088 -0.5388 -1.2782
 6757SOL    HW231905   0.936   0.503  17.204 -1.9045 -1.2262 -1.6889
 6758SOL     OW31906   0.687   1.998   3.272  0.5659  0.1827 -0.0925
 6758SOL    HW131907   0.666   2.084   3.308  1.7200 -0.2259  1.5857
 6758SOL    HW231908   0.621   1.938   3.307 -1.5915  2.5581 -0.1385
 6759SOL     OW31909   3.916   0.690   8.840 -0.0702 -0.1102 -0.4191
 6759SOL    HW131910   3.937   0.764   8.783 -0.4789  1.8350  1.9859
 6759SOL    HW231911   3.955   0.720   8.922  3.8472 -1.5569 -1.7513
 6760SOL     OW31912   3.198   4.548   5.547 -0.2262  0.2723 -0.0887
 6760SOL    HW131913   3.250   4.495   5.486 -1.7364 -1.6407  0.2683
 6760SOL    HW231914   3.111   4.527   5.514  0.1512 -1.5193  0.0642
 6761SOL     OW31915   3.367   0.120   8.261  0.6690 -0.7568  0.1185
 6761SOL    HW131916   3.386   0.058   8.191 -0.5574  0.6618 -1.4554
 6761SOL    HW231917   3.419   0.197   8.240  0.6187 -0.8081 -0.1883
 6762SOL     OW31918   0.603   1.659   2.103  0.4058  0.2802 -0.4894
 6762SOL    HW131919   0.552   1.687   2.179 -0.1776 -1.3618 -0.2714
 6762SOL    HW231920   0.540   1.658   2.031 -1.6828  0.4300  1.3387
 6763SOL     OW31921   1.851   3.172   1.658  0.9174  0.4804 -0.1009
 6763SOL    HW131922   1.829   3.083   1.634  1.4521  0.5088 -0.7099
 6763SOL    HW231923   1.824   3.227   1.585  1.0560 -2.8619 -2.6404
 6764SOL     OW31924   2.833   3.896   1.070 -0.4179 -0.5077 -0.0441
 6764SOL    HW131925   2.842   3.801   1.082  0.7476 -0.2654  1.0471
 6764SOL    HW231926   2.856   3.933   1.156 -1.7557  0.9570 -0.3259
 6765SOL     OW31927   1.963   2.920   0.621  0.4060  0.9405  0.0532
 6765SOL    HW131928   1.925   2.971   0.550  1.6889 -0.3299 -1.5278
 6765SOL    HW231929   1.880   2.879   0.648  1.1747  0.1919  1.2479
 6766SOL     OW31930   2.362   0.214   5.281 -0.4333  0.4819 -0.2363
 6766SOL    HW131931   2.341   0.280   5.215 -2.3826  2.2772  2.2073
 6766SOL    HW231932   2.428   0.173   5.225 -2.0388 -1.8464 -0.4647
 6767SOL     OW31933   4.430   0.861   9.914  0.2987 -0.2730 -0.3965
 6767SOL    HW131934   4.514   0.886   9.953  0.6433 -0.1707 -1.2000
 6767SOL    HW231935   4.437   0.851   9.819  0.3312  0.9082 -0.5083
 6768SOL     OW31936   3.140   1.522   4.602  0.0121 -0.0965  0.7384
 6768SOL    HW131937   3.215   1.478   4.563 -0.8334 -0.4554 -0.4981
 6768SOL    HW231938   3.081   1.537   4.528  1.2022  1.1921  0.0692
 6769SOL     OW31939   2.314   3.684   7.986 -0.3766 -0.3853 -0.1350
 6769SOL    HW131940   2.291   3.771   7.952  0.5146 -1.0315 -2.4263
 6769SOL    HW231941   2.399   3.709   8.022 -0.6613 -0.8017  0.8116
 6770SOL     OW31942   3.680   3.652  15.543 -0.0590  0.0773 -0.2697
 6770SOL    HW131943   3.607   3.712  15.525 -0.8068  0.0991  2.7686
 6770SOL    HW231944   3.700   3.683  15.632 -0.4902 -0.4263  0.0051
 6771SOL     OW31945   3.044   4.062   5.398 -0.1105  0.2431  0.1430
 6771SOL    HW131946   3.111   4.021   5.343  0.3204  0.3235  0.6018
 6771SOL    HW231947   3.028   3.983   5.449  1.2650  0.7022  1.3079
 6772SOL     OW31948   0.067   0.286   7.760 -0.6638  0.2201  0.3157
 6772SOL    HW131949   0.075   0.292   7.856 -3.8093  1.3365  0.5060
 6772SOL    HW231950   0.159   0.297   7.738 -0.5095 -0.0014  0.8423
 6773SOL     OW31951   0.967   4.720  16.233  0.2218  0.0409  0.3587
 6773SOL    HW131952   0.976   4.676  16.318 -0.0728  1.5212  1.1546
 6773SOL    HW231953   0.875   4.706  16.210  0.3432  1.5420 -0.9523
 6774SOL     OW31954   3.653   1.399   5.955  0.4503 -0.4524  0.2159
 6774SOL    HW131955   3.725   1.427   6.012  0.5206 -0.8174  0.3021
 6774SOL    HW231956   3.682   1.310   5.938  0.2805 -0.1686 -1.5325
 6775SOL     OW31957   0.602   1.358   7.936 -0.0586 -0.4247 -0.4158
 6775SOL    HW131958   0.678   1.336   7.989 -0.5857  0.8649  0.8766
 6775SOL    HW231959   0.609   1.453   7.926 -1.1137 -0.4826 -1.7276
 6776SOL     OW31960   4.388   0.627   5.511 -0.0935  0.0599  0.3490
 6776SOL    HW131961   4.339   0.579   5.578  1.2527 -0.8144  0.7010
 6776SOL    HW231962   4.479   0.605   5.529  0.2879  1.5760  0.2532
 6777SOL     OW31963   4.483   4.140   7.002  0.1365  0.7882 -0.0162
 6777SOL    HW131964   4.549   4.133   7.071 -0.3795  0.8756  0.4861
 6777SOL    HW231965   4.517   4.207   6.944 -2.3644  1.6808 -0.4452
 6778SOL     OW31966   4.443   3.562   5.043  0.0778  0.4309 -0.3165
 6778SOL    HW131967   4.463   3.529   5.131 -2.4497  2.0031  0.8336
 6778SOL    HW231968   4.348   3.563   5.036  0.1404  0.8424 -1.1259
 6779SOL     OW31969   3.408   1.506   8.598 -0.6141 -0.4277  0.4083
 6779SOL    HW131970   3.332   1.562   8.614 -0.8033 -0.3730 -0.6781
 6779SOL    HW231971   3.396   1.434   8.660  2.1447 -0.2810  1.0997
 6780SOL     OW31972   0.997   0.134   3.783 -0.0953 -0.2820 -0.2858
 6780SOL    HW131973   0.922   0.093   3.826 -0.6142 -0.0341 -0.9488
 6780SOL    HW231974   0.959   0.169   3.702  0.7824  1.6301  0.1246
 6781SOL     OW31975   0.321   4.044   1.490 -0.1099  0.4289 -0.1801
 6781SOL    HW131976   0.341   3.961   1.446 -2.2751  0.4454 -1.1609
 6781SOL    HW231977   0.294   4.001   1.571 -1.7728 -0.1034 -1.0213
 6782SOL     OW31978   3.598   4.621  14.397 -0.0608  0.3228  0.2307
 6782SOL    HW131979   3.658   4.547  14.394  1.0739  1.2566  0.0690
 6782SOL    HW231980   3.558   4.613  14.483  2.0013 -0.4168  1.1148
 6783SOL     OW31981   0.204   1.588  11.532  0.0947  0.2236 -0.7135
 6783SOL    HW131982   0.232   1.539  11.609 -0.7566  0.6604 -0.1131
 6783SOL    HW231983   0.199   1.674  11.573 -0.7010 -0.1572 -0.0062
 6784SOL     OW31984   3.888   2.751   9.794 -0.0562  0.2023 -0.7148
 6784SOL    HW131985   3.977   2.786   9.800 -0.1800  0.2391  0.9075
 6784SOL    HW231986   3.839   2.815   9.845 -0.6502 -0.5098 -0.4021
 6785SOL     OW31987   1.024   1.669  15.171 -0.3377 -0.1466  0.7592
 6785SOL    HW131988   0.947   1.627  15.134  0.9551 -1.0882 -0.8618
 6785SOL    HW231989   1.068   1.604  15.226  1.0053 -0.3667 -0.5664
 6786SOL     OW31990   1.321   3.067  10.903  0.1004  0.3594  0.1552
 6786SOL    HW131991   1.398   3.122  10.919  0.5974 -0.3573  0.2658
 6786SOL    HW231992   1.253   3.123  10.867  0.8829  1.9745  1.1591
 6787SOL     OW31993   3.108   2.833   3.709  0.1762  0.2103  0.0486
 6787SOL    HW131994   3.158   2.786   3.643  1.9247 -1.2479  2.4503
 6787SOL    HW231995   3.109   2.770   3.781 -1.4116  1.1354  0.9012
 6788SOL     OW31996   0.019   0.721  15.445 -0.6349 -0.0704  0.2062
 6788SOL    HW131997   0.035   0.815  15.435 -1.9593  0.2920  1.5535
 6788SOL    HW231998   0.016   0.697  15.352 -2.2294 -1.1591  0.5434
 6789SOL     OW31999   2.339   4.139   3.482 -0.1403 -0.0112 -0.3427
 6789SOL    HW132000   2.389   4.114   3.404 -0.4733  0.0457 -0.5779
 6789SOL    HW232001   2.263   4.178   3.439  0.0069  2.7918  1.9466
 6790SOL     OW32002   1.115   1.032  16.924  0.2336 -0.2799 -0.1315
 6790SOL    HW132003   1.066   0.953  16.900 -1.3870  0.6182  0.2074
 6790SOL    HW232004   1.203   0.996  16.927 -0.2895 -1.5170  0.7713
 6791SOL     OW32005   1.646   3.067   4.344  0.4577  0.5166 -0.2096
 6791SOL    HW132006   1.662   3.011   4.268  0.5912  0.8798 -0.4491
 6791SOL    HW232007   1.651   3.000   4.412  0.2291  1.8282  1.1023
 6792SOL     OW32008   1.122   2.416   2.755  0.7901  0.4592  0.5482
 6792SOL    HW132009   1.086   2.500   2.726 -0.5201  1.4949  5.1893
 6792SOL    HW232010   1.078   2.407   2.839 -0.6179  2.4119  0.0329
 6793SOL     OW32011   2.257   4.608  10.405 -0.1661  0.0726 -0.6012
 6793SOL    HW132012   2.259   4.512  10.404  0.9376  0.0732  0.8886
 6793SOL    HW232013   2.325   4.629  10.340  3.1798 -1.6595  2.3481
 6794SOL     OW32014   1.703   4.543   1.872  0.5144 -0.2528 -0.1499
 6794SOL    HW132015   1.637   4.551   1.940  2.6213  1.5989  1.6678
 6794SOL    HW232016   1.781   4.534   1.926  0.4937 -1.2464 -0.2816
 6795SOL     OW32017   4.558   3.966  14.908  0.0744 -0.1237  0.3073
 6795SOL    HW132018   4.493   3.952  14.976  0.3409 -1.6965  0.2251
 6795SOL    HW232019   4.602   3.882  14.899  1.2928  0.5711 -0.3213
 6796SOL     OW32020   1.289   4.724   7.430 -0.1303  0.3889  0.0178
 6796SOL    HW132021   1.289   4.643   7.379 -0.4904 -0.6426  1.6610
 6796SOL    HW232022   1.237   0.049   7.383  2.7301  2.0422 -0.8967
 6797SOL     OW32023   4.407   1.358  11.477 -0.8987  0.1409  0.0649
 6797SOL    HW132024   4.383   1.436  11.427  1.1287  0.5997 -0.1784
 6797SOL    HW232025   4.502   1.366  11.470 -0.6641 -1.5489  1.5242
 6798SOL     OW32026   1.887   1.865  10.777 -0.4555  0.2933  0.9954
 6798SOL    HW132027   1.880   1.916  10.858 -2.4888  0.8963  0.4529
 6798SOL    HW232028   1.812   1.806  10.770 -0.6763  0.5161  1.4270
 6799SOL     OW32029   1.691   0.174   8.181  0.7105  0.7516 -0.4930
 6799SOL    HW132030   1.764   0.223   8.220  0.5142  0.3962  0.3298
 6799SOL    HW232031   1.623   0.171   8.248  1.3352 -1.0185  0.0685
 6800SOL     OW32032   0.506   3.985  11.811 -0.0995  0.4115 -0.0475
 6800SOL    HW132033   0.507   4.067  11.763  1.1847  0.4379  0.0077
 6800SOL    HW232034   0.588   3.946  11.781  0.0556  0.1269  0.7482
 6801SOL     OW32035   3.215   4.514   3.155  0.6576 -0.2531 -0.3734
 6801SOL    HW132036   3.251   4.426   3.154  1.2769  0.0043 -2.0609
 6801SOL    HW232037   3.263   4.548   3.230  1.9505 -1.3127 -0.7298
 6802SOL     OW32038   2.162   2.943   1.741 -0.2557  0.2328  0.2750
 6802SOL    HW132039   2.181   2.851   1.760  0.0327  0.2619  0.1215
 6802SOL    HW232040   2.117   2.972   1.820 -2.4835 -1.5206 -0.3403
 6803SOL     OW32041   3.377   2.052   1.526  0.3410  0.1548  0.0957
 6803SOL    HW132042   3.382   1.969   1.479 -0.7605 -1.8476  3.4705
 6803SOL    HW232043   3.428   2.029   1.604  0.8117  2.4725  0.4710
 6804SOL     OW32044   3.750   2.494  13.441  0.5154 -0.7463 -0.4662
 6804SOL    HW132045   3.801   2.530  13.368 -0.6718  1.2920 -0.2894
 6804SOL    HW232046   3.675   2.447  13.403 -1.1583  1.1556  0.4969
 6805SOL     OW32047   1.310   2.807   5.410 -0.3356 -0.8844 -0.5927
 6805SOL    HW132048   1.309   2.798   5.505 -0.7404 -2.7203 -0.7631
 6805SOL    HW232049   1.252   2.738   5.378 -2.0595  1.1540 -1.8491
 6806SOL     OW32050   0.004   0.784   6.239 -0.0338  0.0340 -0.3522
 6806SOL    HW132051   4.678   0.726   6.202 -0.1081 -1.3606  2.0158
 6806SOL    HW232052   0.064   0.817   6.172 -0.8482 -0.9378 -1.5572
 6807SOL     OW32053   1.863   0.441  16.307 -0.0578  0.0526  0.3217
 6807SOL    HW132054   1.831   0.434  16.397  1.5888  1.0046  0.9885
 6807SOL    HW232055   1.891   0.352  16.289  3.3486  0.9062  1.4988
 6808SOL     OW32056   0.644   0.318   5.254 -0.6592 -0.1627  0.2544
 6808SOL    HW132057   0.703   0.276   5.192 -0.3486  0.3192  0.2306
 6808SOL    HW232058   0.560   0.307   5.209 -0.0269  3.2722 -1.6942
 6809SOL     OW32059   2.726   2.851  17.428 -0.1490 -0.2444  0.9534
 6809SOL    HW132060   2.805   2.902  17.444  0.2663 -0.2584 -1.0106
 6809SOL    HW232061   2.751   2.770  17.474  0.2277  0.3629  1.8060
 6810SOL     OW32062   4.519   1.083  16.580  0.0942  0.0054  0.2605
 6810SOL    HW132063   4.554   1.135  16.508  0.1659 -0.9233 -0.3777
 6810SOL    HW232064   4.565   1.121  16.655  3.0022 -3.1387  0.0515
 6811SOL     OW32065   0.377   3.617   0.618  0.0417 -0.1078 -0.1024
 6811SOL    HW132066   0.369   3.623   0.523 -0.2644  0.5259 -0.0354
 6811SOL    HW232067   0.380   3.710   0.642 -1.0238  0.0032 -0.4014
 6812SOL     OW32068   0.483   3.674   3.955  0.2563 -0.2722 -0.0507
 6812SOL    HW132069   0.548   3.729   4.000  0.5013  0.2467 -1.0337
 6812SOL    HW232070   0.538   3.607   3.915  2.1794  1.0314  0.3901
 6813SOL     OW32071   4.563   0.407  14.173  0.2900 -0.1930  0.1261
 6813SOL    HW132072   4.526   0.384  14.088 -0.8865 -0.0297  0.5925
 6813SOL    HW232073   4.655   0.380  14.166  0.5415  0.0958  2.3413
 6814SOL     OW32074   0.367   4.594  11.707 -1.3419 -0.8797 -0.2889
 6814SOL    HW132075   0.359   4.516  11.762  1.2692  0.2889  1.7408
 6814SOL    HW232076   0.350   4.663  11.771  0.5232 -1.0962  0.4366
 6815SOL     OW32077   0.920   2.119   3.077 -0.1198  0.6030  0.5685
 6815SOL    HW132078   0.858   2.102   3.148 -0.1133 -1.1342  0.1412
 6815SOL    HW232079   0.994   2.146   3.132  1.1526  2.5341 -2.0751
 6816SOL     OW32080   1.376   3.568  12.898  0.0814  0.1983  0.1825
 6816SOL    HW132081   1.394   3.658  12.870  1.9557 -0.5296 -0.9088
 6816SOL    HW232082   1.283   3.568  12.920  0.0242  0.3210 -0.0544
 6817SOL     OW32083   1.706   3.500  16.869  0.1913 -0.3285  0.0489
 6817SOL    HW132084   1.658   3.583  16.858  2.8939  0.8701 -2.8984
 6817SOL    HW232085   1.798   3.525  16.860 -0.3081  0.1205 -3.6346
 6818SOL     OW32086   3.754   1.095   9.739  0.0513 -0.0425 -0.0602
 6818SOL    HW132087   3.818   1.163   9.758  0.6168 -0.8988  1.0664
 6818SOL    HW232088   3.744   1.103   9.644  0.9974 -1.8875 -0.3298
 6819SOL     OW32089   0.303   1.633  12.522  0.5078 -0.1587  0.2690
 6819SOL    HW132090   0.329   1.667  12.436  1.0352  1.9727  1.3002
 6819SOL    HW232091   0.216   1.598  12.502 -0.2650  1.7601  0.3532
 6820SOL     OW32092   3.308   0.415  12.390 -0.3915 -0.1002 -0.1738
 6820SOL    HW132093   3.228   0.399  12.439 -1.1538 -0.0956 -1.4091
 6820SOL    HW232094   3.265   0.416  12.304  1.3856  1.0299 -1.0642
 6821SOL     OW32095   0.409   4.377   1.957  0.1830 -0.0982  0.3618
 6821SOL    HW132096   0.474   4.443   1.933  0.6404 -0.8508 -0.4915
 6821SOL    HW232097   0.408   4.378   2.052 -1.5978 -1.0591  0.3677
 6822SOL     OW32098   4.415   2.641  15.974 -0.2798 -0.6511 -0.4335
 6822SOL    HW132099   4.464   2.713  16.013 -0.5448  0.1273 -1.5239
 6822SOL    HW232100   4.438   2.653  15.882  0.0197  0.8504 -0.1546
 6823SOL     OW32101   3.701   2.786   3.435 -0.2632  0.1269  0.0054
 6823SOL    HW132102   3.761   2.714   3.421 -0.5361 -0.1837  0.4540
 6823SOL    HW232103   3.700   2.814   3.343  2.4370 -0.1121 -0.0890
 6824SOL     OW32104   4.490   2.362  12.082 -0.2973 -0.4582  0.0050
 6824SOL    HW132105   4.461   2.422  12.014  0.5040 -0.2750 -0.1727
 6824SOL    HW232106   4.584   2.360  12.063 -0.7151  1.0312 -2.1783
 6825SOL     OW32107   3.728   4.062   8.268 -0.2329  0.3599  0.2911
 6825SOL    HW132108   3.725   4.142   8.214  0.0219  1.2878  1.6542
 6825SOL    HW232109   3.821   4.042   8.264 -0.2483  0.5279 -1.0233
 6826SOL     OW32110   3.589   3.522   5.601  0.0570  0.1495 -0.3101
 6826SOL    HW132111   3.630   3.441   5.631 -4.0904 -1.7179  0.2400
 6826SOL    HW232112   3.511   3.524   5.657  0.2435 -2.6941  0.0285
 6827SOL     OW32113   0.977   2.560   6.489 -0.0037  0.8496 -0.0309
 6827SOL    HW132114   0.946   2.550   6.579 -0.6901  3.4717  0.0214
 6827SOL    HW232115   0.947   2.651   6.485  1.1161  1.0176 -4.3099
 6828SOL     OW32116   2.739   0.529   7.979 -0.2538  0.4353  0.2909
 6828SOL    HW132117   2.744   0.438   8.008  0.9772  0.6148  0.6291
 6828SOL    HW232118   2.781   0.576   8.052  2.6378 -2.9013  0.7569
 6829SOL     OW32119   2.025   2.289   4.432  0.3499 -0.2399 -0.2223
 6829SOL    HW132120   1.935   2.261   4.448 -0.5518  1.8444 -1.7473
 6829SOL    HW232121   2.067   2.235   4.499  0.0828 -0.0141  0.1287
 6830SOL     OW32122   1.697   3.060   5.607 -0.6409 -0.5023  0.3250
 6830SOL    HW132123   1.785   3.089   5.632 -0.6611  0.2492 -0.4728
 6830SOL    HW232124   1.629   3.091   5.667  3.3815  2.9177  3.1424
 6831SOL     OW32125   1.176   3.657  11.158 -0.0801  0.2662 -0.3742
 6831SOL    HW132126   1.187   3.749  11.181  1.6847  0.0049 -0.1588
 6831SOL    HW232127   1.155   3.662  11.065 -1.5347  0.5055 -0.0450
 6832SOL     OW32128   3.648   1.321   3.190  0.2899  0.1654  0.2441
 6832SOL    HW132129   3.708   1.389   3.222  0.7848  0.7892 -2.0102
 6832SOL    HW232130   3.652   1.265   3.267  1.0631  0.2491  0.2665
 6833SOL     OW32131   3.602   2.861   6.737  0.5722 -0.2161 -0.1612
 6833SOL    HW132132   3.635   2.922   6.803  1.1953  1.0946 -1.6878
 6833SOL    HW232133   3.525   2.844   6.790 -0.1956 -0.9569 -1.5039
 6834SOL     OW32134   0.187   4.343   8.246 -0.6257  0.2403  0.1486
 6834SOL    HW132135   0.275   4.308   8.232 -0.5265  1.0528 -1.2240
 6834SOL    HW232136   0.134   4.284   8.193  1.0133 -1.3726  0.3245
 6835SOL     OW32137   1.312   4.594   4.789 -0.5542  0.2680 -0.9158
 6835SOL    HW132138   1.286   4.667   4.733  1.0326  2.6916  1.5702
 6835SOL    HW232139   1.354   4.535   4.726  0.1231  0.0384 -0.2487
 6836SOL     OW32140   2.129   3.267  11.410  0.1923 -0.1389  0.0432
 6836SOL    HW132141   2.120   3.271  11.505  0.8220  2.5663 -0.0080
 6836SOL    HW232142   2.197   3.333  11.396  1.2667 -1.0332  1.0013
 6837SOL     OW32143   2.509   3.536   2.591  0.2357  0.9354 -0.3060
 6837SOL    HW132144   2.468   3.617   2.560  0.7039  1.1765 -0.3003
 6837SOL    HW232145   2.599   3.554   2.565  0.3407  1.9927  0.7696
 6838SOL     OW32146   2.700   0.951   6.415 -0.1868 -0.1736  0.0011
 6838SOL    HW132147   2.752   0.971   6.337 -0.5352 -0.5806 -0.3418
 6838SOL    HW232148   2.753   0.993   6.482  1.7411 -3.4443  0.5036
 6839SOL     OW32149   1.364   0.139   6.219 -0.5457  0.0569  0.3779
 6839SOL    HW132150   1.403   0.051   6.216  0.1284  0.4248 -1.4831
 6839SOL    HW232151   1.363   0.157   6.313  1.3569  1.2741  0.1581
 6840SOL     OW32152   3.538   2.902  14.865 -0.3636 -0.5445  0.2370
 6840SOL    HW132153   3.599   2.949  14.922  1.2332  0.4705 -2.2745
 6840SOL    HW232154   3.589   2.825  14.842  0.8711 -0.3749  2.4464
 6841SOL     OW32155   0.494   1.479   2.373  0.0572  0.3241  0.3839
 6841SOL    HW132156   0.461   1.395   2.341  0.0919  0.2027  0.6744
 6841SOL    HW232157   0.582   1.457   2.403 -0.2066  0.2153  1.0566
 6842SOL     OW32158   2.929   2.478   5.960 -0.0353  0.4518  0.0305
 6842SOL    HW132159   2.892   2.566   5.966 -0.3926  0.3242 -0.3288
 6842SOL    HW232160   2.938   2.459   5.867 -0.1876 -0.4040  0.1878
 6843SOL     OW32161   2.332   4.427   5.270  0.3467  0.0235  0.2068
 6843SOL    HW132162   2.307   4.513   5.305  1.3192  0.7216 -0.8057
 6843SOL    HW232163   2.335   4.379   5.352 -0.5971  1.2582  0.9549
 6844SOL     OW32164   4.239   3.404  17.272 -0.3921 -0.2226  0.2854
 6844SOL    HW132165   4.266   3.440  17.187 -3.0830  1.9921  0.3815
 6844SOL    HW232166   4.262   3.311  17.264 -2.5447 -0.5766 -1.9308
 6845SOL     OW32167   1.548   0.369   7.819 -0.1181 -0.0475  0.2342
 6845SOL    HW132168   1.627   0.317   7.833 -1.1534 -1.7977 -0.4048
 6845SOL    HW232169   1.550   0.427   7.895  2.5827  0.3885 -0.1491
 6846SOL     OW32170   2.008   0.514   4.938 -0.1813 -0.1067  0.8839
 6846SOL    HW132171   1.979   0.521   5.029 -0.3112  0.3806  0.8026
 6846SOL    HW232172   1.965   0.433   4.911 -1.4154  1.2628 -1.1718
 6847SOL     OW32173   1.622   0.552   6.719  0.3828  0.1293 -0.1464
 6847SOL    HW132174   1.661   0.635   6.745 -0.1211  0.4305 -0.3416
 6847SOL    HW232175   1.606   0.513   6.805  1.5606  1.5151  0.6865
 6848SOL     OW32176   3.238   0.223   2.060  0.6349 -0.4268  0.4490
 6848SOL    HW132177   3.332   0.244   2.062  0.4258  0.7439 -1.7890
 6848SOL    HW232178   3.241   0.143   2.008  0.5044 -0.4347  0.4536
 6849SOL     OW32179   2.208   2.519   1.433 -0.2572 -0.3635 -0.2403
 6849SOL    HW132180   2.203   2.466   1.513 -1.5193  1.2270  0.7380
 6849SOL    HW232181   2.302   2.520   1.416 -0.4120 -2.9733 -1.3334
 6850SOL     OW32182   4.431   1.262   1.730  0.4699  0.0792  0.4210
 6850SOL    HW132183   4.428   1.357   1.719  3.5956 -0.1872 -2.7674
 6850SOL    HW232184   4.524   1.260   1.752  0.3824 -0.4552  0.7371
 6851SOL     OW32185   4.188   3.735   4.663 -0.0381  0.2930  0.5145
 6851SOL    HW132186   4.205   3.641   4.653 -1.2427 -0.1022  2.1743
 6851SOL    HW232187   4.123   3.743   4.594 -0.5281  0.3622  0.9870
 6852SOL     OW32188   2.978   3.260   8.016  0.2607  0.0953  0.3098
 6852SOL    HW132189   2.988   3.347   8.054 -1.3416  0.3010  0.2622
 6852SOL    HW232190   3.031   3.288   7.941  0.6490  0.9480  0.9216
 6853SOL     OW32191   4.491   0.128   4.357 -0.1288 -0.2820 -0.1144
 6853SOL    HW132192   4.549   0.070   4.308 -1.2267 -0.0952 -1.6590
 6853SOL    HW232193   4.524   0.218   4.355 -0.8978  0.0415  1.7911
 6854SOL     OW32194   4.361   2.056   9.267  0.3873  0.3883 -0.0269
 6854SOL    HW132195   4.285   2.098   9.228  1.9964  2.9053 -0.4763
 6854SOL    HW232196   4.310   2.012   9.334  0.6630  0.9913  0.5765
 6855SOL     OW32197   2.163   2.996   4.125  0.0172 -0.6321 -0.0360
 6855SOL    HW132198   2.209   2.949   4.056  0.9484 -2.7405  1.9964
 6855SOL    HW232199   2.231   3.053   4.159 -1.5395  0.9367  0.4351
 6856SOL     OW32200   4.157   4.245   4.000 -0.0188  0.0401 -0.1336
 6856SOL    HW132201   4.174   4.158   4.036 -2.2970 -0.0548  0.6991
 6856SOL    HW232202   4.063   4.244   3.987 -0.3353  0.1722  2.2433
 6857SOL     OW32203   4.262   3.404   7.247 -0.5339  0.2169  0.1316
 6857SOL    HW132204   4.230   3.321   7.212  0.9444 -0.3876  0.2361
 6857SOL    HW232205   4.199   3.414   7.319  0.0206  0.3516  0.6047
 6858SOL     OW32206   4.354   2.462   4.378 -0.1457 -0.9559  0.3749
 6858SOL    HW132207   4.434   2.411   4.369  0.7484  0.7533 -1.4232
 6858SOL    HW232208   4.284   2.398   4.363 -0.0698 -1.0884  0.5890
 6859SOL     OW32209   0.103   0.429   4.009  0.1736 -0.3182 -0.3301
 6859SOL    HW132210   0.083   0.337   3.991 -2.6863 -0.0403  1.4608
 6859SOL    HW232211   0.054   0.464   3.935  1.3418 -2.0783 -1.9476
 6860SOL     OW32212   3.407   3.893   2.044  0.0967  0.7247 -0.0909
 6860SOL    HW132213   3.419   3.892   1.949 -4.3088  2.6385 -0.6708
 6860SOL    HW232214   3.331   3.948   2.058 -0.4511  0.0778 -0.5231
 6861SOL     OW32215   1.249   1.403   5.274  0.1325 -0.2339 -0.0630
 6861SOL    HW132216   1.309   1.473   5.299  0.3688 -1.6459  3.2988
 6861SOL    HW232217   1.295   1.319   5.274 -0.5699 -0.6315 -1.2093
 6862SOL     OW32218   0.440   1.115   3.502 -0.5105 -0.3034 -0.3327
 6862SOL    HW132219   0.434   1.208   3.480  1.6045  0.0856  0.7244
 6862SOL    HW232220   0.383   1.075   3.436 -0.5688  0.3119 -0.6545
 6863SOL     OW32221   4.320   1.996  15.346 -0.1364 -0.1325  0.0025
 6863SOL    HW132222   4.235   2.039  15.338 -0.7551 -0.6602  3.7795
 6863SOL    HW232223   4.371   2.028  15.272  0.5840  0.0002  0.5607
 6864SOL     OW32224   1.227   4.658   3.142 -0.2657 -0.1965 -0.7928
 6864SOL    HW132225   1.275   0.001   3.139  1.4296 -1.1189  1.2916
 6864SOL    HW232226   1.236   4.627   3.052 -0.5191 -0.9608 -0.5552
 6865SOL     OW32227   0.417   1.274   2.956 -0.0564 -0.4451  0.3774
 6865SOL    HW132228   0.340   1.218   2.963  0.5193 -1.0700  1.6652
 6865SOL    HW232229   0.447   1.273   3.046  2.0510  1.6345 -0.3111
 6866SOL     OW32230   0.734   3.824   3.972 -0.3851  0.4079  0.9934
 6866SOL    HW132231   0.802   3.830   3.905 -1.3514 -2.8507 -0.2599
 6866SOL    HW232232   0.800   3.822   4.041 -0.5064 -0.0548  1.0927
 6867SOL     OW32233   0.032   2.281   8.732 -0.8840  0.0289 -0.5248
 6867SOL    HW132234   4.680   2.295   8.709 -0.9162  1.3491  0.4131
 6867SOL    HW232235   0.073   2.339   8.668  3.3101 -1.0030  1.1658
 6868SOL     OW32236   2.478   4.271   9.756  0.3660  0.2305 -0.0474
 6868SOL    HW132237   2.449   4.221   9.833 -1.9727  3.0150  0.8874
 6868SOL    HW232238   2.405   4.332   9.768 -0.5701 -0.6862 -1.0535
 6869SOL     OW32239   3.305   2.088   8.441  0.2343  0.3974 -0.1040
 6869SOL    HW132240   3.261   2.144   8.378 -0.9543 -0.7656 -0.2960
 6869SOL    HW232241   3.252   2.093   8.520  0.1248  2.7585 -0.3310
 6870SOL     OW32242   3.695   4.522   8.994 -0.4204  0.4486  0.1056
 6870SOL    HW132243   3.652   4.444   9.028 -2.1280  1.1897 -0.3789
 6870SOL    HW232244   3.787   4.494   9.000 -0.6689 -0.4608 -0.2989
 6871SOL     OW32245   4.190   2.432   0.462  0.1176 -0.1832  0.0704
 6871SOL    HW132246   4.102   2.403   0.439 -0.3613  0.0689  1.5803
 6871SOL    HW232247   4.247   2.357   0.446  0.7596  0.6539 -1.5455
 6872SOL     OW32248   2.402   3.567   4.806 -0.0246 -0.1140 -0.2043
 6872SOL    HW132249   2.371   3.614   4.883 -1.4248 -1.0731 -0.1938
 6872SOL    HW232250   2.326   3.516   4.778 -0.7396  0.6530  0.3427
 6873SOL     OW32251   0.828   1.194   2.900  0.1188 -0.6888  0.3136
 6873SOL    HW132252   0.864   1.191   2.812 -0.4407 -0.1666  0.0682
 6873SOL    HW232253   0.895   1.248   2.944  1.1256 -0.9085 -0.9602
 6874SOL     OW32254   3.965   0.077   6.677  0.2220 -0.5393 -0.1734
 6874SOL    HW132255   3.981   4.729   6.642  1.0575  0.0411 -1.2638
 6874SOL    HW232256   3.958   0.128   6.597 -1.3519  0.7943  0.8172
 6875SOL     OW32257   2.986   1.096   1.707 -0.0076  0.7043  0.3144
 6875SOL    HW132258   2.910   1.149   1.731 -1.2714 -0.7690 -0.3839
 6875SOL    HW232259   2.938   1.056   1.634 -3.3171  3.4544  0.9903
 6876SOL     OW32260   2.445   0.128   2.790  0.4193  0.0346 -0.2997
 6876SOL    HW132261   2.479   0.217   2.781 -1.8215  0.8325 -0.6255
 6876SOL    HW232262   2.528   0.079   2.790 -0.4506 -1.4194  0.2790
 6877SOL     OW32263   0.277   4.280  12.180 -0.0369 -0.6186 -0.1608
 6877SOL    HW132264   0.360   4.319  12.151  0.0659  0.5585  1.6774
 6877SOL    HW232265   0.308   4.190  12.193  0.3699 -0.8920 -2.8888
 6878SOL     OW32266   2.503   4.338   5.643  0.6635 -0.5553 -0.6543
 6878SOL    HW132267   2.433   4.333   5.708  1.6650 -4.3335  0.1757
 6878SOL    HW232268   2.560   4.277   5.691  1.1057  0.3644 -0.0110
 6879SOL     OW32269   3.750   3.396  13.339 -0.1182  0.0813  0.1275
 6879SOL    HW132270   3.681   3.349  13.293  0.9646  0.1309 -1.5830
 6879SOL    HW232271   3.827   3.360  13.294 -1.3416 -1.8248 -0.4197
 6880SOL     OW32272   1.818   3.938   4.971  0.2915 -0.0428 -0.1110
 6880SOL    HW132273   1.797   3.874   5.039 -0.0347  0.9173  0.6816
 6880SOL    HW232274   1.737   3.943   4.921  0.2285  4.8437  0.4928
 6881SOL     OW32275   1.411   1.388  12.848 -0.0869 -0.0919  0.3690
 6881SOL    HW132276   1.367   1.462  12.890  2.4583  1.9843 -0.5758
 6881SOL    HW232277   1.344   1.347  12.794  1.4212 -2.0112 -0.0380
 6882SOL     OW32278   0.791   3.976   6.907 -0.1714  0.7597  0.2976
 6882SOL    HW132279   0.696   3.968   6.913 -0.1452  1.2438  1.2797
 6882SOL    HW232280   0.817   3.947   6.994  1.9054 -0.9108 -0.8769
 6883SOL     OW32281   3.487   2.641  15.396  0.7305 -0.1722  0.6194
 6883SOL    HW132282   3.460   2.731  15.412  0.4922  0.0671 -1.1640
 6883SOL    HW232283   3.468   2.638  15.302 -1.5749 -0.1155  1.0850
 6884SOL     OW32284   1.718   3.769   5.943  0.6084 -0.0467  0.0047
 6884SOL    HW132285   1.727   3.689   5.891 -1.6152 -1.7792  2.3341
 6884SOL    HW232286   1.656   3.749   6.013 -0.2075  0.2351 -0.6231
 6885SOL     OW32287   4.455   0.710   8.893 -0.6180 -0.2468 -0.2855
 6885SOL    HW132288   4.445   0.748   8.980  1.4564  0.0513 -0.1879
 6885SOL    HW232289   4.498   0.627   8.914 -2.6444 -1.3772 -0.6158
 6886SOL     OW32290   4.160   2.389   6.891 -0.1265  0.9664 -0.0544
 6886SOL    HW132291   4.127   2.362   6.976 -1.3505  1.9851 -0.2041
 6886SOL    HW232292   4.081   2.419   6.847 -0.7994 -2.7015 -1.3760
 6887SOL     OW32293   3.471   0.417   5.716 -0.0199  0.1830  0.5167
 6887SOL    HW132294   3.492   0.390   5.805  1.8628  2.0570  0.6312
 6887SOL    HW232295   3.552   0.462   5.695 -0.7914  2.9617  3.5167
 6888SOL     OW32296   3.803   2.723   3.955 -0.5546  0.1848 -0.1674
 6888SOL    HW132297   3.734   2.789   3.960  0.0647  1.0868 -3.6425
 6888SOL    HW232298   3.755   2.645   3.927  0.6908  0.6925 -3.8027
 6889SOL     OW32299   0.646   1.751   5.516 -0.0196  0.4889 -0.3291
 6889SOL    HW132300   0.725   1.730   5.467  0.8686  1.9426  0.4541
 6889SOL    HW232301   0.664   1.720   5.605 -1.6819 -0.6219 -0.3807
 6890SOL     OW32302   3.516   2.754  13.141  0.3316  0.6767  0.0389
 6890SOL    HW132303   3.610   2.750  13.121 -0.2153  3.0486 -2.9495
 6890SOL    HW232304   3.495   2.661  13.153  3.4500  0.3007  2.5873
 6891SOL     OW32305   0.888   4.139   3.320  0.1736 -0.0342 -0.2333
 6891SOL    HW132306   0.924   4.148   3.231 -2.3089 -1.3937 -1.3991
 6891SOL    HW232307   0.837   4.220   3.326  0.0815  0.1695 -3.3841
 6892SOL     OW32308   1.421   1.640   7.459  0.2563  0.1955 -0.0078
 6892SOL    HW132309   1.349   1.618   7.519 -1.2283  1.1647 -1.4321
 6892SOL    HW232310   1.385   1.590   7.387  2.5892 -0.8394 -0.4527
 6893SOL     OW32311   2.058   4.634   7.601 -0.2439 -0.2466 -0.8411
 6893SOL    HW132312   2.004   4.576   7.656  0.1173  1.3290  1.1987
 6893SOL    HW232313   2.066   4.583   7.521  0.1138  0.1060 -1.0270
 6894SOL     OW32314   0.973   1.585   3.819 -0.0583 -0.5708 -0.4431
 6894SOL    HW132315   1.006   1.670   3.849 -4.0008  1.2233 -1.1189
 6894SOL    HW232316   0.964   1.612   3.727  0.6529 -2.5648 -1.0994
 6895SOL     OW32317   1.613   4.066   2.367 -0.5827 -0.5537 -0.5700
 6895SOL    HW132318   1.592   4.159   2.356 -1.4376 -0.6560  0.1937
 6895SOL    HW232319   1.527   4.028   2.352 -0.3724 -0.1897 -2.8527
 6896SOL     OW32320   0.935   2.220   4.967  0.5168  0.2185  0.4641
 6896SOL    HW132321   0.883   2.299   4.954  1.7760  0.7391 -1.3707
 6896SOL    HW232322   0.925   2.207   5.062 -2.4300 -2.3259 -0.1981
 6897SOL     OW32323   3.259   2.570   6.800  0.1310  0.2149 -0.4244
 6897SOL    HW132324   3.202   2.497   6.824 -0.9150  0.8137 -1.1178
 6897SOL    HW232325   3.249   2.571   6.705  2.4309  1.2858 -0.6580
 6898SOL     OW32326   4.418   3.806  10.250  0.0244  0.1639  0.2682
 6898SOL    HW132327   4.349   3.775  10.191  0.3077  1.8592 -0.9597
 6898SOL    HW232328   4.362   3.869  10.296  0.0577  1.3967 -1.3758
 6899SOL     OW32329   3.209   2.245   5.494 -0.5463  0.0963  0.0953
 6899SOL    HW132330   3.153   2.176   5.457  1.4161 -0.6447 -1.4910
 6899SOL    HW232331   3.274   2.192   5.540  0.2271 -0.6224 -1.8296
 6900SOL     OW32332   2.565   0.792  13.240 -0.4140  0.3826  0.0389
 6900SOL    HW132333   2.621   0.855  13.285 -0.0194  0.8533 -1.1300
 6900SOL    HW232334   2.483   0.842  13.242 -0.5181  0.1901  0.5746
 6901SOL     OW32335   0.103   4.442   4.967  0.2646 -0.7177 -0.0551
 6901SOL    HW132336   0.145   4.494   5.036 -0.8372  1.0604 -0.7084
 6901SOL    HW232337   0.185   4.412   4.928 -0.7587  1.5140 -3.9560
 6902SOL     OW32338   1.101   1.141  16.529 -0.6422  0.0589  0.4173
 6902SOL    HW132339   1.037   1.069  16.532 -0.9059  0.2961  0.4883
 6902SOL    HW232340   1.053   1.199  16.470 -2.1352 -0.2464  1.3222
 6903SOL     OW32341   1.372   0.283   8.123  0.0637  0.0076  0.1671
 6903SOL    HW132342   1.441   0.302   8.188 -0.0027 -2.5033  0.9446
 6903SOL    HW232343   1.419   0.234   8.056 -1.2857 -0.2348 -0.5813
 6904SOL     OW32344   4.058   1.697   7.968  0.2383  0.7736  0.3269
 6904SOL    HW132345   4.028   1.787   7.950 -2.0761  0.2735  1.6402
 6904SOL    HW232346   3.996   1.666   8.034  1.2318 -0.0277  0.8698
 6905SOL     OW32347   3.807   4.535  12.007 -0.3150  0.7066 -0.5907
 6905SOL    HW132348   3.844   4.478  11.940  0.5941  0.6972 -0.0728
 6905SOL    HW232349   3.788   4.606  11.945  0.2902 -0.2016 -1.8255
 6906SOL     OW32350   0.978   1.762  11.992 -0.2651 -0.1908  0.3009
 6906SOL    HW132351   1.069   1.738  12.010  0.1703  1.0680 -0.2273
 6906SOL    HW232352   0.997   1.840  11.940  0.1519 -1.2170 -1.1016
 6907SOL     OW32353   3.207   2.307   8.290 -0.5694  0.5025 -0.1497
 6907SOL    HW132354   3.123   2.302   8.336 -0.7894 -0.1404 -0.6290
 6907SOL    HW232355   3.255   2.369   8.345  1.6149 -0.2310 -1.2336
 6908SOL     OW32356   2.571   1.897  11.116  0.8677  0.2501  0.0737
 6908SOL    HW132357   2.652   1.937  11.085 -0.1322  1.3184 -1.1189
 6908SOL    HW232358   2.605   1.812  11.147 -1.1417 -0.4257  0.4075
 6909SOL     OW32359   1.088   3.499   4.195 -0.0543 -0.4811 -0.5430
 6909SOL    HW132360   1.082   3.593   4.211 -2.1668 -0.7830  0.3769
 6909SOL    HW232361   1.002   3.472   4.166 -0.4196  0.9653 -0.8153
 6910SOL     OW32362   4.459   1.478  14.618 -0.0045 -0.3987 -0.3190
 6910SOL    HW132363   4.502   1.503  14.700  0.0015 -0.0836 -0.4165
 6910SOL    HW232364   4.366   1.501  14.625 -0.0543 -0.6880 -0.0283
 6911SOL     OW32365   4.607   2.571  17.177  0.3178  0.1891  0.6808
 6911SOL    HW132366   4.682   2.628  17.198  1.9511 -2.3721  1.8997
 6911SOL    HW232367   4.548   2.585  17.251  0.9563  1.2319  0.9937
 6912SOL     OW32368   3.929   0.473  13.748  0.2639 -0.2886  0.0085
 6912SOL    HW132369   3.867   0.492  13.678  0.7285  1.3297  0.0453
 6912SOL    HW232370   3.999   0.525  13.709 -0.6670  0.3450 -0.8043
 6913SOL     OW32371   0.762   0.851   8.193  0.5690  0.1507  0.5099
 6913SOL    HW132372   0.812   0.772   8.172  0.6398  0.3762 -0.1846
 6913SOL    HW232373   0.761   0.901   8.111  1.2775  1.3435  1.2351
 6914SOL     OW32374   1.258   2.320   8.384  1.1334 -0.3171  0.0867
 6914SOL    HW132375   1.291   2.328   8.473  0.4037 -2.9256  0.6131
 6914SOL    HW232376   1.278   2.402   8.339  2.6371 -0.6882  0.0960
 6915SOL     OW32377   0.379   0.169   4.767 -0.2079 -0.2740 -0.6332
 6915SOL    HW132378   0.417   0.081   4.768  0.4908  0.1075  3.7175
 6915SOL    HW232379   0.287   0.153   4.746  0.0265 -3.0324  0.4983
 6916SOL     OW32380   3.118   2.955   9.437  0.2961 -0.1483 -0.0465
 6916SOL    HW132381   3.139   2.873   9.482 -2.6424 -1.2930 -0.7916
 6916SOL    HW232382   3.167   3.013   9.495  0.8015  0.0905 -0.7197
 6917SOL     OW32383   1.983   2.158  13.016 -0.3659 -0.5593  1.0928
 6917SOL    HW132384   1.915   2.102  13.054 -1.3608  1.8607  2.9247
 6917SOL    HW232385   2.007   2.203  13.097 -2.3943 -1.2095  2.0456
 6918SOL     OW32386   1.669   2.930   8.740 -0.4916  0.4782  0.4339
 6918SOL    HW132387   1.607   2.938   8.667 -0.7393 -2.7780  0.3103
 6918SOL    HW232388   1.756   2.928   8.701 -0.5851 -1.0246  0.3117
 6919SOL     OW32389   2.911   3.855   9.220  0.1559  0.2785 -0.5812
 6919SOL    HW132390   2.876   3.785   9.165  0.1536 -0.5876  0.5178
 6919SOL    HW232391   2.837   3.881   9.274 -1.0414 -0.3953 -1.8725
 6920SOL     OW32392   3.318   4.547  15.602  0.0243 -0.1656 -0.2184
 6920SOL    HW132393   3.278   4.619  15.552 -2.1798 -1.2959 -0.1032
 6920SOL    HW232394   3.322   4.493  15.524 -0.1055 -0.6698  0.1237
 6921SOL     OW32395   3.414   1.548  12.431  0.2500  0.4597 -0.0471
 6921SOL    HW132396   3.449   1.526  12.517 -0.3030  0.6981  0.2385
 6921SOL    HW232397   3.337   1.601  12.448  1.0440  1.1050  1.5595
 6922SOL     OW32398   2.848   2.938   0.760 -0.1392 -0.3732  0.0185
 6922SOL    HW132399   2.758   2.943   0.791 -0.5663 -0.4634 -1.2172
 6922SOL    HW232400   2.861   2.844   0.756 -2.5332 -0.7911  1.8596
 6923SOL     OW32401   4.426   4.719  16.041  0.3142  0.1271  0.2728
 6923SOL    HW132402   4.441   0.056  15.985  1.3752  0.4234  0.9562
 6923SOL    HW232403   4.412   4.646  15.980  0.9650  0.5550 -0.4026
 6924SOL     OW32404   1.625   1.117  13.154  0.4458  0.2733 -0.7002
 6924SOL    HW132405   1.542   1.070  13.146  0.1588  0.5782  0.5384
 6924SOL    HW232406   1.645   1.143  13.064  0.8750  0.2250 -0.6172
 6925SOL     OW32407   3.720   0.137   2.822 -0.1835  0.8242  0.1578
 6925SOL    HW132408   3.715   0.080   2.898  3.3124 -0.6769 -0.7460
 6925SOL    HW232409   3.709   0.074   2.751 -0.6387 -0.1156  1.0701
 6926SOL     OW32410   1.328   2.236   3.074 -0.2519 -0.5649  0.0432
 6926SOL    HW132411   1.295   2.306   3.017 -1.0834 -0.0773  1.1228
 6926SOL    HW232412   1.413   2.276   3.088 -1.8578  1.9245  2.5323
 6927SOL     OW32413   0.186   2.928   9.405 -0.2346  0.1512 -0.5233
 6927SOL    HW132414   0.203   2.868   9.477 -0.1444  1.6645  0.7086
 6927SOL    HW232415   0.110   2.882   9.366 -0.5591  2.2142 -2.3361
 6928SOL     OW32416   0.547   3.668   9.693 -0.4724  0.6480  0.1309
 6928SOL    HW132417   0.576   3.578   9.705  1.3584  1.2201 -0.0643
 6928SOL    HW232418   0.622   3.694   9.639  0.2654  0.0671  0.8797
 6929SOL     OW32419   1.609   4.388   6.840 -0.3773 -0.3832 -0.1085
 6929SOL    HW132420   1.575   4.475   6.821  0.3584 -0.0986 -0.1220
 6929SOL    HW232421   1.530   4.338   6.820  0.0303 -0.2776 -2.0352
 6930SOL     OW32422   0.119   2.819   1.210 -0.4564  0.5897  0.3050
 6930SOL    HW132423   0.123   2.747   1.273 -0.8102  0.8236  0.5925
 6930SOL    HW232424   0.036   2.855   1.241 -0.4455  0.8238  0.0569
 6931SOL     OW32425   3.954   3.965  10.886 -0.0501  0.1898 -0.3499
 6931SOL    HW132426   4.046   3.988  10.874  0.2729 -0.6187  0.5533
 6931SOL    HW232427   3.964   3.883  10.838  2.3469  0.8963 -1.0736
 6932SOL     OW32428   0.546   3.186  14.767 -0.0102  0.3099 -0.0830
 6932SOL    HW132429   0.628   3.147  14.797  1.4773  2.4395 -1.3777
 6932SOL    HW232430   0.491   3.107  14.768  0.3724  0.0533  2.0763
 6933SOL     OW32431   2.223   4.622   6.453  0.1146  0.0433  0.0451
 6933SOL    HW132432   2.129   4.639   6.456  0.1602  0.4953 -0.8918
 6933SOL    HW232433   2.249   4.677   6.379 -2.1629  1.5417  0.3604
 6934SOL     OW32434   0.064   2.891   4.275  0.4956 -0.3214  0.7744
 6934SOL    HW132435   0.153   2.857   4.279  0.1813 -1.1389  0.7575
 6934SOL    HW232436   0.094   2.982   4.279 -0.2883 -0.1514  2.6231
 6935SOL     OW32437   2.669   0.303  15.837  0.1864  0.4536  0.1775
 6935SOL    HW132438   2.590   0.355  15.822 -0.1382  0.4742  1.9438
 6935SOL    HW232439   2.686   0.271  15.749  0.7192  0.0159  0.4421
 6936SOL     OW32440   4.002   3.775   5.422 -1.0270  0.0431  0.2776
 6936SOL    HW132441   3.925   3.733   5.385 -1.0673  1.4962 -1.2961
 6936SOL    HW232442   3.974   3.865   5.407  0.7526  0.1948 -2.2964
 6937SOL     OW32443   1.867   3.879   3.562 -0.3684  0.2166 -0.2682
 6937SOL    HW132444   1.897   3.855   3.650  0.3645  1.9406 -0.0518
 6937SOL    HW232445   1.822   3.962   3.581 -1.9324 -0.9834  1.2045
 6938SOL     OW32446   3.192   2.770   0.799  0.3015 -0.2028 -0.2820
 6938SOL    HW132447   3.172   2.682   0.765 -2.1256  0.3485 -0.2462
 6938SOL    HW232448   3.275   2.752   0.844 -1.3996 -3.2094  1.6119
 6939SOL     OW32449   4.308   1.491   8.541 -0.4085  0.4662 -0.0787
 6939SOL    HW132450   4.353   1.549   8.602  1.0874 -0.8600  0.0672
 6939SOL    HW232451   4.346   1.527   8.461  0.5764 -1.6343 -0.5577
 6940SOL     OW32452   1.977   3.079  11.783 -0.5220 -0.2115  0.0981
 6940SOL    HW132453   2.018   3.066  11.697 -0.7496  0.3248 -0.0865
 6940SOL    HW232454   1.992   3.172  11.802 -0.0272 -0.1273 -0.6882
 6941SOL     OW32455   0.169   3.212  16.718 -0.0178 -0.4504 -0.5443
 6941SOL    HW132456   0.159   3.288  16.775 -4.0895 -1.3131 -0.0959
 6941SOL    HW232457   0.223   3.156  16.773 -1.4184 -1.7065 -0.4404
 6942SOL     OW32458   0.404   0.803   8.823 -0.0978 -0.1828 -0.0178
 6942SOL    HW132459   0.409   0.884   8.873 -0.6749  0.6629 -1.3515
 6942SOL    HW232460   0.420   0.832   8.733 -0.3388 -0.3501 -0.1134
 6943SOL     OW32461   3.337   1.653  11.060 -0.3173  0.4416  0.5726
 6943SOL    HW132462   3.304   1.565  11.039 -0.7367  0.5911  0.6008
 6943SOL    HW232463   3.306   1.661  11.151  2.1219  0.1485  1.4326
 6944SOL     OW32464   2.139   0.850  11.113  0.1092 -0.3813 -0.1324
 6944SOL    HW132465   2.169   0.909  11.183 -1.2821 -0.2841  0.3802
 6944SOL    HW232466   2.071   0.802  11.161  1.0387 -0.4947  1.0666
 6945SOL     OW32467   2.239   3.390   5.501 -0.2146 -0.6023  0.2162
 6945SOL    HW132468   2.219   3.299   5.519  0.1138 -1.1196 -2.0654
 6945SOL    HW232469   2.305   3.418   5.565  1.0478 -2.1706 -0.4198
 6946SOL     OW32470   0.463   1.535   4.551 -0.0066  0.4503 -0.7121
 6946SOL    HW132471   0.483   1.532   4.458 -1.6982 -0.6724 -1.0413
 6946SOL    HW232472   0.373   1.500   4.556  0.0239  0.3723 -0.7069
 6947SOL     OW32473   4.145   0.737   8.238 -0.2138 -0.1759  0.2266
 6947SOL    HW132474   4.203   0.667   8.267  0.3407 -0.3563 -1.3009
 6947SOL    HW232475   4.063   0.711   8.280 -1.4996 -0.9863 -2.8447
 6948SOL     OW32476   0.071   4.343   8.874  0.6576 -0.0464  0.6426
 6948SOL    HW132477   0.088   4.296   8.955  0.4654 -1.0007  0.1334
 6948SOL    HW232478   0.105   4.276   8.815 -0.4957 -0.8810  0.9301
 6949SOL     OW32479   0.542   2.504   5.787 -0.1643 -0.1625  0.0078
 6949SOL    HW132480   0.496   2.588   5.795  1.9910  0.9249  1.0426
 6949SOL    HW232481   0.560   2.495   5.693 -1.0693 -0.4836 -0.1411
 6950SOL     OW32482   3.610   2.262   6.121 -0.3950 -0.3623  0.0925
 6950SOL    HW132483   3.558   2.275   6.200  0.9444 -1.2352  1.1046
 6950SOL    HW232484   3.594   2.171   6.099  2.0555 -0.9917  0.9329
 6951SOL     OW32485   1.118   3.400   9.132  0.5948 -0.0194 -0.3061
 6951SOL    HW132486   1.132   3.412   9.226 -0.4932 -1.2579  0.0120
 6951SOL    HW232487   1.194   3.449   9.099  0.5588 -0.6596 -1.3171
 6952SOL     OW32488   3.959   1.067   6.935  0.2463  0.2170 -0.4963
 6952SOL    HW132489   4.004   0.983   6.923  2.5821  1.3922  0.1665
 6952SOL    HW232490   3.928   1.088   6.846  2.4717  0.7167 -1.1354
 6953SOL     OW32491   3.503   0.217   5.999  0.4044  0.2669 -0.3371
 6953SOL    HW132492   3.516   0.151   6.067 -1.6025  0.7318  0.4759
 6953SOL    HW232493   3.561   0.173   5.936  0.6514  0.5830 -0.3294
 6954SOL     OW32494   1.830   4.081   3.322  0.2543 -0.1158 -0.6787
 6954SOL    HW132495   1.738   4.090   3.297 -0.1533 -1.9054  0.1731
 6954SOL    HW232496   1.833   4.090   3.417 -1.0703 -1.4510 -0.5093
 6955SOL     OW32497   0.757   3.932   1.452  0.0067  0.0133 -0.1542
 6955SOL    HW132498   0.736   3.892   1.368  1.5980  0.1587 -0.6346
 6955SOL    HW232499   0.707   3.880   1.514 -0.6251  0.6121 -0.1583
 6956SOL     OW32500   1.976   3.966   7.029  0.2485 -0.7977 -0.0571
 6956SOL    HW132501   1.978   3.878   7.069 -0.0792 -0.3390  0.9742
 6956SOL    HW232502   2.064   4.000   7.048  0.2245 -1.1989  0.7886
 6957SOL     OW32503   0.594   0.138   6.809 -0.1582 -0.2457  0.0078
 6957SOL    HW132504   0.554   0.141   6.896  0.5490  0.0869  0.3221
 6957SOL    HW232505   0.530   0.101   6.747  2.3843 -1.1111 -2.0877
 6958SOL     OW32506   4.552   2.126  14.234 -0.3832 -0.6082  0.5067
 6958SOL    HW132507   4.472   2.139  14.285  0.7132 -1.0572  2.3451
 6958SOL    HW232508   4.547   2.213  14.194 -2.1953 -0.3932  1.1863
 6959SOL     OW32509   2.239   3.208   3.006 -0.1217 -0.2087 -0.3049
 6959SOL    HW132510   2.332   3.232   3.001 -0.1389 -0.4616 -1.8247
 6959SOL    HW232511   2.224   3.207   3.101 -2.2667  1.2684 -0.6500
 6960SOL     OW32512   1.316   0.351   1.611 -0.5229  0.3817 -0.0405
 6960SOL    HW132513   1.241   0.297   1.634  1.5489 -1.7510  1.6565
 6960SOL    HW232514   1.292   0.423   1.670 -0.7172 -1.0157  1.5885
 6961SOL     OW32515   4.113   4.548   5.035 -0.5337  0.0137 -0.2917
 6961SOL    HW132516   4.151   4.635   5.022  3.0066 -0.9686  3.3293
 6961SOL    HW232517   4.029   4.565   4.992  0.5435  3.3542 -1.0415
 6962SOL     OW32518   2.317   2.598   3.828  0.2556  0.0467  0.2424
 6962SOL    HW132519   2.328   2.583   3.734  1.7793  1.0222  0.2746
 6962SOL    HW232520   2.302   2.693   3.830 -1.5520 -0.2476  0.6709
 6963SOL     OW32521   1.306   3.853   6.816 -0.0103 -0.0826 -0.0994
 6963SOL    HW132522   1.357   3.776   6.790  2.0411  0.6175  1.8676
 6963SOL    HW232523   1.373   3.921   6.816 -0.2719  0.1657 -1.4951
 6964SOL     OW32524   2.355   2.771   8.618  0.6831  0.2452 -0.0653
 6964SOL    HW132525   2.284   2.830   8.645  0.4185 -0.2061  0.2254
 6964SOL    HW232526   2.322   2.690   8.656  1.7160 -1.5459 -3.0241
 6965SOL     OW32527   3.463   0.406  12.038  0.3836  0.1506  0.3484
 6965SOL    HW132528   3.394   0.459  12.076  0.4898  0.0219  0.7212
 6965SOL    HW232529   3.467   0.420  11.943 -1.7307 -0.2294  0.2188
 6966SOL     OW32530   0.177   1.061  17.513 -0.2572  0.2732 -0.0990
 6966SOL    HW132531   0.190   1.133  17.451 -0.3017 -0.1923 -0.6472
 6966SOL    HW232532   0.195   1.098  17.599 -2.9385  0.9501  0.1547
 6967SOL     OW32533   4.739   0.006   2.168  0.7076 -0.0333  0.3653
 6967SOL    HW132534   4.678   0.058   2.220  0.4990  1.8834 -1.7553
 6967SOL    HW232535   4.736   0.054   2.085 -1.0001 -1.2490 -0.2926
 6968SOL     OW32536   4.504   0.985   4.988 -0.0995 -0.2270  0.3950
 6968SOL    HW132537   4.492   1.068   4.942  1.7994  0.0411  0.3614
 6968SOL    HW232538   4.452   1.004   5.066 -1.0841 -4.2662  0.6922
 6969SOL     OW32539   0.456   1.930   0.550  0.3984  0.7503  1.0228
 6969SOL    HW132540   0.404   1.879   0.611  1.0232 -1.1638 -0.0471
 6969SOL    HW232541   0.536   1.941   0.600  0.6128  0.1173  0.8070
 6970SOL     OW32542   3.987   3.662   2.426 -0.2481  0.0265  0.2526
 6970SOL    HW132543   3.945   3.737   2.383  0.3253 -1.4591 -2.8813
 6970SOL    HW232544   3.972   3.678   2.519 -0.8025 -0.5553  0.2584
 6971SOL     OW32545   2.999   1.441   9.333 -0.5963 -0.0821  0.1349
 6971SOL    HW132546   3.087   1.442   9.297 -0.0740  1.0270  1.4460
 6971SOL    HW232547   2.948   1.471   9.257 -2.7920 -0.1724  1.5730
 6972SOL     OW32548   4.124   3.360   1.693  0.2990  0.6848 -0.8067
 6972SOL    HW132549   4.030   3.342   1.701  0.5643  0.3067  1.4135
 6972SOL    HW232550   4.157   3.280   1.651 -0.7991  0.2974 -0.9343
 6973SOL     OW32551   3.288   2.217  16.965 -0.2740 -0.4141  0.4283
 6973SOL    HW132552   3.218   2.273  16.998 -0.6963 -1.6195  1.5826
 6973SOL    HW232553   3.295   2.144  17.027  2.6036 -1.3977 -1.0696
 6974SOL     OW32554   4.180   3.744  17.686 -0.2135  0.0419 -0.0677
 6974SOL    HW132555   4.094   3.732  17.726 -1.4285  3.1425 -1.7560
 6974SOL    HW232556   4.206   3.829  17.720 -0.9147  0.3427 -0.2775
 6975SOL     OW32557   1.118   1.493  13.004 -0.1698 -0.1789  0.0249
 6975SOL    HW132558   1.059   1.490  12.929 -0.3430 -0.3614  0.1666
 6975SOL    HW232559   1.060   1.514  13.078  0.8676  0.7031  0.5839
 6976SOL     OW32560   2.329   4.273   8.267 -0.1870 -0.0328  0.9141
 6976SOL    HW132561   2.277   4.341   8.310 -0.8580 -1.1851  1.9256
 6976SOL    HW232562   2.371   4.246   8.348  3.4386  0.0456 -0.9228
 6977SOL     OW32563   2.214   2.363   7.281  0.0130  0.0050  0.0394
 6977SOL    HW132564   2.266   2.418   7.221  0.8562  1.7963  2.4166
 6977SOL    HW232565   2.209   2.287   7.224 -0.2657 -0.0073  0.0840
 6978SOL     OW32566   0.774   0.333   1.807  0.1434  0.0390  0.7121
 6978SOL    HW132567   0.702   0.341   1.745  0.8729 -2.0689 -0.3823
 6978SOL    HW232568   0.809   0.422   1.816  0.9175 -0.6000  3.9207
 6979SOL     OW32569   3.262   3.922   2.975 -0.3806  0.2746 -0.0499
 6979SOL    HW132570   3.343   3.875   2.956 -1.4620 -1.7122  0.2941
 6979SOL    HW232571   3.203   3.874   2.917 -2.3763  2.8845 -0.2135
 6980SOL     OW32572   1.274   0.991  12.504  0.2678  0.5695 -0.1738
 6980SOL    HW132573   1.320   0.982  12.588  1.3549  1.4577 -0.6800
 6980SOL    HW232574   1.339   0.959  12.443  0.2597 -0.6847  0.4806
 6981SOL     OW32575   4.163   1.842   2.554 -0.2081 -0.0668 -0.3323
 6981SOL    HW132576   4.110   1.781   2.504  1.6504 -2.3075  0.4621
 6981SOL    HW232577   4.132   1.928   2.526 -1.1818  1.1601  4.4253
 6982SOL     OW32578   4.494   0.483   9.937 -0.0318 -0.4804 -0.1396
 6982SOL    HW132579   4.488   0.463   9.843  2.7874 -0.5850 -0.3088
 6982SOL    HW232580   4.468   0.395   9.964  1.3632 -0.5639  0.9117
 6983SOL     OW32581   3.635   1.654   1.666 -0.1000  0.1538  0.0761
 6983SOL    HW132582   3.677   1.569   1.673 -0.6795 -0.0619  1.0172
 6983SOL    HW232583   3.670   1.687   1.583  0.2202 -1.3764 -0.3954
 6984SOL     OW32584   0.123   0.092  15.856  0.4882  0.3184  0.1127
 6984SOL    HW132585   0.105   0.168  15.801 -0.8089  0.4132  0.6726
 6984SOL    HW232586   0.052   0.030  15.843 -0.0130  1.2186 -1.4459
 6985SOL     OW32587   1.393   2.891   4.464 -0.1616 -0.2508  0.0694
 6985SOL    HW132588   1.473   2.856   4.427  0.2410 -0.4851  1.1620
 6985SOL    HW232589   1.405   2.862   4.554  0.6604  0.1294  0.0807
 6986SOL     OW32590   2.549   1.511   6.690  0.1207  0.0147  0.3275
 6986SOL    HW132591   2.546   1.512   6.594 -1.2272  2.8133  0.4259
 6986SOL    HW232592   2.627   1.457   6.704  0.9277  1.0974  0.0375
 6987SOL     OW32593   2.360   4.010   4.141  0.0039 -0.0829 -0.1850
 6987SOL    HW132594   2.452   4.002   4.168  0.3317  1.9731 -0.7253
 6987SOL    HW232595   2.348   3.936   4.082  0.5890 -1.1486  1.0250
 6988SOL     OW32596   0.785   2.751   4.946 -0.3612 -0.0157 -0.3421
 6988SOL    HW132597   0.794   2.723   5.037 -1.1833  1.2893  0.1338
 6988SOL    HW232598   0.801   2.843   4.969  1.4815 -0.1907 -0.9553
 6989SOL     OW32599   2.363   1.161   8.074 -0.4808  0.8359  0.0285
 6989SOL    HW132600   2.375   1.066   8.074  0.5645  0.9719  0.7319
 6989SOL    HW232601   2.410   1.186   8.153 -3.0737 -1.0622  2.1588
 6990SOL     OW32602   0.915   3.430   8.953  0.1824 -0.0387  0.0301
 6990SOL    HW132603   0.896   3.524   8.947  1.9727  0.4771  2.4333
 6990SOL    HW232604   0.986   3.428   9.017  0.0531  0.5873  0.1873
 6991SOL     OW32605   3.869   1.383   7.599  0.1364  0.3842  0.2520
 6991SOL    HW132606   3.850   1.303   7.551 -1.6792 -0.0549  1.6978
 6991SOL    HW232607   3.964   1.380   7.609 -0.0860 -3.2061  0.9816
 6992SOL     OW32608   1.137   4.393   8.595 -0.7365  0.1506 -0.0223
 6992SOL    HW132609   1.117   4.341   8.673 -0.4411 -1.4161 -0.9806
 6992SOL    HW232610   1.108   4.477   8.632 -0.9700  1.0284 -2.2119
 6993SOL     OW32611   3.281   2.517   5.466  0.0552 -0.6592 -0.2221
 6993SOL    HW132612   3.187   2.498   5.466  0.2325 -1.5854 -0.6143
 6993SOL    HW232613   3.307   2.428   5.440  2.1576 -0.1045 -0.0041
 6994SOL     OW32614   3.865   4.390  10.184  0.1606 -0.0291 -0.6814
 6994SOL    HW132615   3.810   4.332  10.132 -1.4647 -0.0923  1.0972
 6994SOL    HW232616   3.803   4.415  10.253  1.1158  0.0330  0.1600
 6995SOL     OW32617   2.740   2.704   0.170  0.5744  0.3525  0.2412
 6995SOL    HW132618   2.785   2.730   0.250  0.0004  1.2065  0.2847
 6995SOL    HW232619   2.794   2.628   0.148 -0.9706 -1.2325  1.7832
 6996SOL     OW32620   4.218   3.542  14.696  0.1075 -0.1883  0.3380
 6996SOL    HW132621   4.232   3.458  14.650  0.7985  1.3499 -2.2616
 6996SOL    HW232622   4.131   3.539  14.735 -0.1487  1.9431 -0.1193
 6997SOL     OW32623   1.416   4.645   8.166 -0.1683 -0.3343 -0.3457
 6997SOL    HW132624   1.487   4.673   8.109  0.2062 -0.3707  0.0983
 6997SOL    HW232625   1.343   4.696   8.132  0.1054  2.2961  3.0144
 6998SOL     OW32626   3.834   1.353  12.895  0.2532 -0.7965  0.0664
 6998SOL    HW132627   3.810   1.392  12.979 -0.7132  1.0875 -1.0695
 6998SOL    HW232628   3.860   1.430  12.844 -2.0363  1.3919  2.2388
 6999SOL     OW32629   2.029   2.515  11.379 -0.1914  0.2071  0.0840
 6999SOL    HW132630   1.958   2.577  11.363 -0.3972  0.4434  1.8789
 6999SOL    HW232631   2.094   2.572  11.420 -0.6367  1.2031 -0.5899
 7000SOL     OW32632   4.641   2.575   7.934 -0.0309 -0.3800  0.0291
 7000SOL    HW132633   4.685   2.490   7.937  1.9741  0.6289 -1.2294
 7000SOL    HW232634   4.551   2.545   7.946 -0.4205 -0.4476 -2.9441
 7001SOL     OW32635   3.085   4.324  10.638 -0.0490  0.2986 -0.2247
 7001SOL    HW132636   3.151   4.340  10.707 -1.9247  0.2474  1.5793
 7001SOL    HW232637   3.039   4.407  10.625  2.0724  1.2501 -1.6522
 7002SOL     OW32638   3.248   4.391   2.845 -0.1996  0.0355  0.0586
 7002SOL    HW132639   3.311   4.438   2.901 -1.1451  0.3516  0.8603
 7002SOL    HW232640   3.199   4.333   2.903  0.9913  1.4883  2.5679
 7003SOL     OW32641   1.764   0.829   3.264 -0.0800  0.1998  0.0955
 7003SOL    HW132642   1.798   0.870   3.184 -2.0898  1.5671 -0.0776
 7003SOL    HW232643   1.846   0.818   3.312 -1.5791 -0.7923  2.4514
 7004SOL     OW32644   1.824   0.200   8.464  0.3817 -0.1030  0.3082
 7004SOL    HW132645   1.885   0.256   8.511  2.0964 -0.9082 -0.9648
 7004SOL    HW232646   1.747   0.256   8.467  1.0139  0.7523  0.5562
 7005SOL     OW32647   1.985   4.557   8.168  0.0470 -0.5501  0.1293
 7005SOL    HW132648   2.023   4.473   8.142 -0.9980 -1.0748  0.3173
 7005SOL    HW232649   1.965   4.600   8.086  2.5187 -0.0302 -0.2053
 7006SOL     OW32650   1.982   3.854   3.200 -0.1605  0.2766  0.0786
 7006SOL    HW132651   1.925   3.930   3.210  0.5164  0.8751 -0.5761
 7006SOL    HW232652   2.060   3.873   3.252  2.3779 -1.9125 -2.8785
 7007SOL     OW32653   4.437   0.595  10.527 -0.7653  0.0477  0.0128
 7007SOL    HW132654   4.446   0.690  10.516 -2.8682  0.1668 -0.6810
 7007SOL    HW232655   4.525   0.561  10.508 -0.7923 -0.9737  1.7151
 7008SOL     OW32656   1.090   2.032   5.750 -0.2040  0.3919  0.0987
 7008SOL    HW132657   1.071   1.952   5.702  1.3068  0.7822 -1.1361
 7008SOL    HW232658   1.001   2.055   5.776 -0.4801  1.5123 -1.8574
 7009SOL     OW32659   2.683   1.827   1.634  0.4934 -0.3620 -0.4754
 7009SOL    HW132660   2.627   1.757   1.600  0.1561 -0.6101  0.5954
 7009SOL    HW232661   2.726   1.848   1.550  0.4747 -0.1216 -0.4255
 7010SOL     OW32662   0.836   0.298  10.924  0.1411  0.0582 -0.0637
 7010SOL    HW132663   0.769   0.230  10.937 -1.4515  1.5309 -0.4586
 7010SOL    HW232664   0.892   0.261  10.992  0.1387 -0.1930 -0.1967
 7011SOL     OW32665   2.106   0.726  11.922 -0.5711  0.1656  0.1044
 7011SOL    HW132666   2.106   0.637  11.957 -2.1930  0.2694  0.4021
 7011SOL    HW232667   2.035   0.767  11.971  1.1595  2.1036  0.9541
 7012SOL     OW32668   4.112   4.058   9.679  0.2565 -0.3238 -0.3510
 7012SOL    HW132669   4.077   4.072   9.767 -1.5718  2.1581 -1.4960
 7012SOL    HW232670   4.039   4.082   9.622  0.9394 -0.2790 -1.2042
 7013SOL     OW32671   0.953   4.609   1.633 -0.2377  0.0560 -0.3370
 7013SOL    HW132672   0.966   4.695   1.673 -0.6360  0.5571 -1.2781
 7013SOL    HW232673   1.018   4.614   1.563 -1.2368 -0.7082 -1.3348
 7014SOL     OW32674   3.317   1.027  10.683 -0.1125  0.3113 -0.2417
 7014SOL    HW132675   3.287   1.024  10.592  3.0258 -1.1369 -1.2186
 7014SOL    HW232676   3.360   0.943  10.692  0.7135  0.8439  0.7906
 7015SOL     OW32677   2.327   3.050   7.166 -0.3261  0.5719  0.1711
 7015SOL    HW132678   2.281   3.073   7.247  1.2584  1.4837  0.8068
 7015SOL    HW232679   2.414   3.030   7.200 -0.8793 -2.1524  0.0256
 7016SOL     OW32680   3.247   4.484   9.973  0.1309  0.1145  0.2927
 7016SOL    HW132681   3.330   4.440   9.957 -0.2538 -0.8978  1.1199
 7016SOL    HW232682   3.271   4.574   9.949  0.8482 -0.7331 -2.1529
 7017SOL     OW32683   3.283   0.754   8.819  0.0168 -0.0055  0.1844
 7017SOL    HW132684   3.217   0.722   8.757  0.0832 -2.3885  1.3557
 7017SOL    HW232685   3.354   0.763   8.756 -0.1952 -2.4465 -0.3779
 7018SOL     OW32686   2.489   1.548   8.239 -0.3317  0.8761 -0.4599
 7018SOL    HW132687   2.493   1.643   8.223 -1.0457  0.8128 -1.0054
 7018SOL    HW232688   2.533   1.511   8.162  0.7160  1.0147  0.0701
 7019SOL     OW32689   3.202   0.653   2.170 -0.1266  0.1281 -0.4949
 7019SOL    HW132690   3.145   0.578   2.188 -0.1345  0.3470  0.3879
 7019SOL    HW232691   3.260   0.616   2.104 -0.6772 -0.8206 -0.4469
 7020SOL     OW32692   0.500   2.163   7.680  0.5985 -0.1570 -0.1325
 7020SOL    HW132693   0.541   2.168   7.766  1.6217 -0.5526 -0.5895
 7020SOL    HW232694   0.559   2.102   7.636  1.1781  1.2626 -1.3606
 7021SOL     OW32695   1.334   3.773   6.253  0.7465  0.2878  0.0633
 7021SOL    HW132696   1.393   3.818   6.192  1.3312  0.3942  0.7075
 7021SOL    HW232697   1.363   3.805   6.338 -0.6526 -0.8689  0.9621
 7022SOL     OW32698   3.630   3.149   7.311 -0.5098  0.3806 -0.3411
 7022SOL    HW132699   3.551   3.182   7.353 -1.1449 -2.7753  0.9797
 7022SOL    HW232700   3.592   3.065   7.283  0.0510  0.0022  0.0291
 7023SOL     OW32701   2.742   3.213  16.330  0.1023  0.2139 -0.6635
 7023SOL    HW132702   2.805   3.231  16.399  0.2735  0.1786 -0.8122
 7023SOL    HW232703   2.655   3.219  16.370  0.8560 -0.8385  1.1136
 7024SOL     OW32704   3.084   1.256   8.401 -0.0627  0.5984 -0.0012
 7024SOL    HW132705   3.025   1.320   8.362 -1.3979 -0.5636  0.1063
 7024SOL    HW232706   3.098   1.301   8.484 -2.8684 -0.5164  1.0777
 7025SOL     OW32707   3.017   2.634  10.351 -0.5618 -0.1059  0.0213
 7025SOL    HW132708   2.990   2.544  10.332  1.2398 -0.4200 -1.0270
 7025SOL    HW232709   2.975   2.693  10.288  0.9822 -0.4363 -1.3051
 7026SOL     OW32710   2.157   1.677  13.705 -0.2845  0.1550 -0.4944
 7026SOL    HW132711   2.105   1.711  13.778  1.1583 -0.5243  0.8651
 7026SOL    HW232712   2.186   1.760  13.667 -0.2561  1.0544  1.4774
 7027SOL     OW32713   4.710   3.355  12.378  0.5053 -0.2139  0.3062
 7027SOL    HW132714   4.695   3.357  12.283  2.5289 -1.8253 -0.0460
 7027SOL    HW232715   4.626   3.390  12.407  0.5661 -0.2575  0.5299
 7028SOL     OW32716   3.176   3.218   2.137  0.1975  0.1470  0.2429
 7028SOL    HW132717   3.233   3.141   2.133 -1.2199 -0.8459 -0.8443
 7028SOL    HW232718   3.111   3.196   2.071  0.7571 -0.3619 -0.1347
 7029SOL     OW32719   1.572   1.085   1.692  0.6425 -0.2727  0.3503
 7029SOL    HW132720   1.481   1.056   1.687  0.1939  0.9905  1.3307
 7029SOL    HW232721   1.616   1.045   1.616  0.6544  2.0038 -0.8306
 7030SOL     OW32722   3.786   4.256  13.502  0.1276  0.3151  0.2344
 7030SOL    HW132723   3.802   4.343  13.536 -0.0604 -0.8860  3.3769
 7030SOL    HW232724   3.852   4.210  13.554 -0.7917 -1.0454  0.2261
 7031SOL     OW32725   2.215   4.357  15.510 -0.1831  0.1854  0.6914
 7031SOL    HW132726   2.305   4.331  15.529 -1.3081 -3.3328  1.0966
 7031SOL    HW232727   2.202   4.367  15.416 -0.2493  0.0416  0.6849
 7032SOL     OW32728   3.368   3.295   9.809 -0.1083  0.1519  0.4308
 7032SOL    HW132729   3.302   3.321   9.873  1.4506  0.9525  1.7365
 7032SOL    HW232730   3.423   3.372   9.820 -0.4299  0.7457 -2.0091
 7033SOL     OW32731   1.978   3.049  17.081  0.1211  0.9153 -0.2347
 7033SOL    HW132732   1.890   3.023  17.056  0.5403 -2.6310  2.0502
 7033SOL    HW232733   2.025   2.967  17.064 -0.8201  0.9115 -2.7428
 7034SOL     OW32734   4.084   4.654   7.705 -0.2939  0.1630 -0.2902
 7034SOL    HW132735   4.082   4.647   7.610  1.4500  0.4175 -0.3467
 7034SOL    HW232736   4.145   4.727   7.710 -0.6565  0.4737 -0.4017
 7035SOL     OW32737   0.006   0.410   2.121  0.0853 -0.1309 -0.4098
 7035SOL    HW132738   4.698   0.329   2.105 -1.4322  0.8553 -0.8132
 7035SOL    HW232739   4.674   0.473   2.121  0.7048  0.5878  1.3777
 7036SOL     OW32740   4.170   3.572   3.291 -0.0954  0.2385 -0.0261
 7036SOL    HW132741   4.096   3.531   3.245 -0.7756 -0.8093  1.9814
 7036SOL    HW232742   4.156   3.542   3.381  0.8154 -0.4568 -0.1183
 7037SOL     OW32743   0.979   4.226   2.768 -0.3032 -0.7707  0.0043
 7037SOL    HW132744   0.917   4.153   2.759 -1.5001  0.3246 -0.5349
 7037SOL    HW232745   0.991   4.214   2.863  1.4615 -0.7374 -0.2136
 7038SOL     OW32746   1.634   3.942  13.055  0.3579  0.1863  0.2400
 7038SOL    HW132747   1.627   3.846  13.056 -1.1756  0.2994  0.2340
 7038SOL    HW232748   1.576   3.954  13.130  1.7011 -0.2268  1.3435
 7039SOL     OW32749   4.131   3.480  16.556  0.1730 -0.0990 -0.3747
 7039SOL    HW132750   4.205   3.423  16.578  0.6040  0.0110 -1.5722
 7039SOL    HW232751   4.168   3.531  16.484 -0.1530  0.6687  0.0039
 7040SOL     OW32752   1.955   2.962   2.136 -0.1114 -0.0975  0.3792
 7040SOL    HW132753   1.938   2.881   2.088 -0.3257  0.6828 -0.8600
 7040SOL    HW232754   1.963   3.026   2.065 -2.4767 -0.4297 -0.2120
 7041SOL     OW32755   0.016   0.823   3.776  0.2162  0.4669  0.2613
 7041SOL    HW132756   4.667   0.788   3.772  0.0270  0.6951  2.7658
 7041SOL    HW232757   4.739   0.891   3.842 -1.0223  1.5913 -1.2149
 7042SOL     OW32758   1.375   2.805   1.244  0.6530 -1.0280  0.3890
 7042SOL    HW132759   1.438   2.871   1.214  1.2182 -1.3984  0.7732
 7042SOL    HW232760   1.414   2.787   1.329 -0.4850 -0.9767  0.9115
 7043SOL     OW32761   3.436   4.047   6.003  0.1115 -0.5419 -0.4378
 7043SOL    HW132762   3.441   4.003   6.088 -1.3672  1.0339  0.4563
 7043SOL    HW232763   3.415   3.981   5.937 -2.7706  1.1102 -1.1851
 7044SOL     OW32764   0.642   0.542   9.812  0.0813 -0.4425  0.6048
 7044SOL    HW132765   0.651   0.625   9.764 -0.1078 -0.4669  0.5302
 7044SOL    HW232766   0.587   0.496   9.749  1.5916  0.4491 -1.3800
 7045SOL     OW32767   2.382   4.070   2.227 -0.3296  0.3921 -0.2380
 7045SOL    HW132768   2.366   4.163   2.212  1.5695  0.8932  0.8491
 7045SOL    HW232769   2.430   4.042   2.149  0.5599  2.2902 -0.3708
 7046SOL     OW32770   3.171   4.252   8.072  0.3023  0.5045  0.4201
 7046SOL    HW132771   3.252   4.300   8.092 -0.2694  1.4895  0.3899
 7046SOL    HW232772   3.139   4.309   8.002  0.1416  0.2932  0.3202
 7047SOL     OW32773   1.721   3.667   2.361 -0.0282  0.3649  0.1235
 7047SOL    HW132774   1.646   3.692   2.415  0.7760  1.5102  0.7287
 7047SOL    HW232775   1.743   3.594   2.419  0.6429  0.6227  0.2042
 7048SOL     OW32776   2.584   4.737  11.884 -0.0731  0.1698  0.0506
 7048SOL    HW132777   2.539   0.046  11.953 -0.7576 -3.3395  2.0621
 7048SOL    HW232778   2.631   4.678  11.942  0.8730  2.4975  1.6449
 7049SOL     OW32779   2.346   3.760   2.617  0.5107  0.2828 -0.1929
 7049SOL    HW132780   2.274   3.780   2.678 -0.8975 -1.3735 -1.3207
 7049SOL    HW232781   2.313   3.811   2.543 -2.0356 -1.8281 -0.5046
 7050SOL     OW32782   0.749   0.395  14.654  0.0026  0.0720 -0.0107
 7050SOL    HW132783   0.676   0.448  14.622 -0.3906  0.0377  0.8466
 7050SOL    HW232784   0.818   0.438  14.603 -0.4191  0.4630 -0.2522
 7051SOL     OW32785   4.119   0.176  11.102  0.2761 -0.4021  1.0225
 7051SOL    HW132786   4.179   0.105  11.126 -2.4887 -1.6375  4.3824
 7051SOL    HW232787   4.174   0.226  11.042  1.0965 -4.3829 -1.5223
 7052SOL     OW32788   4.319   0.647  10.055  0.0106 -0.1554  0.7674
 7052SOL    HW132789   4.379   0.582  10.018  0.2588  2.1101 -2.8361
 7052SOL    HW232790   4.315   0.717   9.989  1.7229  0.0235  0.8495
 7053SOL     OW32791   2.704   2.512  12.601  0.1162 -0.2910  0.4500
 7053SOL    HW132792   2.774   2.494  12.539 -0.1937  0.8404 -0.2337
 7053SOL    HW232793   2.762   2.504  12.678 -1.3760 -0.1748  1.5908
 7054SOL     OW32794   3.198   2.306  13.774 -0.3740 -0.1313 -0.3877
 7054SOL    HW132795   3.153   2.384  13.742 -0.9593  0.3296  1.5434
 7054SOL    HW232796   3.182   2.321  13.867  0.7757 -0.1310 -0.1908
 7055SOL     OW32797   4.420   3.716   6.856 -0.7104  0.1908 -0.4287
 7055SOL    HW132798   4.358   3.655   6.815 -1.9458 -0.1274  1.9239
 7055SOL    HW232799   4.384   3.709   6.944  2.4047 -0.9297  0.7280
 7056SOL     OW32800   0.193   2.229   2.262 -0.2251  0.7406  0.3624
 7056SOL    HW132801   0.120   2.251   2.203 -1.5322 -0.9659  1.3647
 7056SOL    HW232802   0.219   2.143   2.230 -2.4087 -0.1660  0.9769
 7057SOL     OW32803   1.465   0.961   6.979 -0.9379 -0.1778  0.3887
 7057SOL    HW132804   1.555   0.988   6.964 -1.1368 -0.6002 -1.5639
 7057SOL    HW232805   1.425   0.994   6.899 -0.2052  1.6623  0.8018
 7058SOL     OW32806   2.681   3.405   6.673  0.2701  0.9360  0.4134
 7058SOL    HW132807   2.695   3.391   6.767 -0.1865 -0.8825  0.2069
 7058SOL    HW232808   2.586   3.395   6.667  0.2936  2.8048 -3.0060
 7059SOL     OW32809   2.683   1.234   2.659  0.4103 -0.1376  0.0138
 7059SOL    HW132810   2.639   1.228   2.744  0.5936 -0.4933  0.0824
 7059SOL    HW232811   2.697   1.140   2.647  2.3183  0.0915  0.3183
 7060SOL     OW32812   3.687   1.309  15.684 -0.2001 -0.5190 -0.2317
 7060SOL    HW132813   3.766   1.258  15.665 -1.3732 -1.9573 -1.2551
 7060SOL    HW232814   3.702   1.390  15.637 -2.3522 -0.3116 -0.5518
 7061SOL     OW32815   4.546   3.163   8.874  0.1181 -0.0576  0.2974
 7061SOL    HW132816   4.553   3.237   8.934  2.3386  1.1159 -1.4209
 7061SOL    HW232817   4.612   3.106   8.915 -1.1766  1.2180  4.1927
 7062SOL     OW32818   4.499   1.956  15.744 -0.1744 -1.2526  0.6948
 7062SOL    HW132819   4.428   1.986  15.799 -1.8235 -2.7241 -0.6093
 7062SOL    HW232820   4.565   1.963  15.812  0.5088 -0.1479 -0.0746
 7063SOL     OW32821   3.273   3.162   5.523  0.2840 -0.2085  0.7517
 7063SOL    HW132822   3.218   3.091   5.557  0.4245 -0.5865  0.1870
 7063SOL    HW232823   3.362   3.135   5.544  0.4724  2.0801  2.8819
 7064SOL     OW32824   2.094   1.324   3.723  0.2170 -0.1530 -0.5333
 7064SOL    HW132825   2.075   1.237   3.688 -1.1581  0.5843 -1.6262
 7064SOL    HW232826   2.017   1.369   3.687  0.2733  1.4706  1.3771
 7065SOL     OW32827   3.801   4.575  14.807  0.2481 -0.0857 -0.9204
 7065SOL    HW132828   3.793   4.489  14.766  2.6146  1.2454 -4.1125
 7065SOL    HW232829   3.713   4.587  14.842 -0.0044 -0.8376 -1.2997
 7066SOL     OW32830   0.262   1.983   9.302 -0.1504  0.0131  0.6874
 7066SOL    HW132831   0.211   2.045   9.355  0.3833  0.7324  0.3596
 7066SOL    HW232832   0.229   2.001   9.214 -1.5430 -1.0535  0.9921
 7067SOL     OW32833   1.112   1.823  14.725  0.7718  0.5250  0.0928
 7067SOL    HW132834   1.127   1.746  14.779 -0.1747  1.1770  1.2914
 7067SOL    HW232835   1.155   1.900  14.763 -1.3883  1.6133  0.3254
 7068SOL     OW32836   2.709   0.514   8.498 -0.2437  0.7173  0.4921
 7068SOL    HW132837   2.627   0.493   8.453 -0.6284 -0.6647  1.8305
 7068SOL    HW232838   2.739   0.429   8.530  0.9170  0.6831 -0.6683
 7069SOL     OW32839   0.662   1.270  14.741 -0.2052 -0.2229 -0.0047
 7069SOL    HW132840   0.634   1.187  14.780 -3.0280  0.7311  0.0058
 7069SOL    HW232841   0.622   1.333  14.801 -0.2100 -0.6797  0.4728
 7070SOL     OW32842   1.895   3.212   5.341 -0.8539 -0.3275  0.1866
 7070SOL    HW132843   1.973   3.162   5.319 -0.2082  0.2624  1.1491
 7070SOL    HW232844   1.851   3.137   5.380 -2.9114  0.9293  0.2993
 7071SOL     OW32845   2.742   4.298   7.697  0.5969  0.3284  0.3543
 7071SOL    HW132846   2.795   4.310   7.618 -2.6099 -1.9625 -2.1529
 7071SOL    HW232847   2.798   4.254   7.761  0.8132  1.9251  1.2550
 7072SOL     OW32848   4.360   0.774   9.135  0.2931  0.4360  0.2243
 7072SOL    HW132849   4.382   0.867   9.142  0.6468  0.2452  1.7138
 7072SOL    HW232850   4.404   0.745   9.215 -3.7239 -0.1458  2.2004
 7073SOL     OW32851   4.307   3.951   1.600 -0.8256  0.0119  0.0384
 7073SOL    HW132852   4.377   4.015   1.588  1.0914 -2.3465 -1.3677
 7073SOL    HW232853   4.353   3.870   1.579 -3.5260 -1.9247  1.4914
 7074SOL     OW32854   4.335   0.920   1.250 -0.1824  0.1431  0.6788
 7074SOL    HW132855   4.335   0.998   1.306  1.6792  0.8410 -0.2900
 7074SOL    HW232856   4.350   0.966   1.167  2.0050 -2.1760 -0.1977
 7075SOL     OW32857   0.023   2.311   7.967  0.9830  0.0855 -0.1841
 7075SOL    HW132858   0.076   2.328   7.889  2.3220 -2.1934  0.2268
 7075SOL    HW232859   0.083   2.291   8.038  1.3760  0.8108 -0.3145
 7076SOL     OW32860   1.725   0.498   8.434  0.4235  0.2681 -0.6576
 7076SOL    HW132861   1.691   0.543   8.511 -2.1595 -2.1459 -0.3719
 7076SOL    HW232862   1.809   0.541   8.415  0.6536  0.6317  1.2017
 7077SOL     OW32863   3.962   2.061   2.106  0.3661 -0.1532 -0.1146
 7077SOL    HW132864   3.941   2.130   2.169  2.0043 -0.4856  0.7748
 7077SOL    HW232865   4.039   2.021   2.145  0.6508  1.1816  0.7075
 7078SOL     OW32866   1.125   1.934   2.936  0.1614 -0.3472  0.0096
 7078SOL    HW132867   1.087   2.022   2.933  0.0479 -0.5146 -4.2129
 7078SOL    HW232868   1.216   1.955   2.913 -0.5192  0.9686 -1.4808
 7079SOL     OW32869   2.652   0.079   4.289  0.5174  0.1205  0.1487
 7079SOL    HW132870   2.626   0.143   4.355  0.8210  0.6595 -0.2508
 7079SOL    HW232871   2.745   0.084   4.311  0.6570 -1.2388 -0.1294
 7080SOL     OW32872   3.582   3.348  15.835 -0.3401  1.0318 -0.1607
 7080SOL    HW132873   3.532   3.423  15.805  1.8129  2.4517 -0.1601
 7080SOL    HW232874   3.575   3.357  15.930  1.9541 -0.1903  0.1338
 7081SOL     OW32875   2.925   2.457  12.415  0.0425  0.2885  0.6724
 7081SOL    HW132876   2.950   2.520  12.347  1.2065 -0.7326  0.1508
 7081SOL    HW232877   3.008   2.460  12.464  0.8059 -0.0873 -0.5986
 7082SOL     OW32878   0.215   0.745   8.407 -0.3117  0.2839  0.1161
 7082SOL    HW132879   0.149   0.814   8.420  0.2459  0.1130  3.7540
 7082SOL    HW232880   0.274   0.767   8.479  0.7283 -1.6665 -0.1393
 7083SOL     OW32881   1.285   0.552   3.781  0.2260  0.4808 -0.8143
 7083SOL    HW132882   1.298   0.457   3.785 -1.2475  0.2957 -0.0955
 7083SOL    HW232883   1.345   0.584   3.848  0.1001 -0.1165 -0.4130
 7084SOL     OW32884   3.685   0.829  11.159  0.4071 -0.0718 -0.3807
 7084SOL    HW132885   3.718   0.740  11.158 -0.9637 -0.5773 -0.5163
 7084SOL    HW232886   3.645   0.832  11.246  0.2306  0.7989 -0.4914
 7085SOL     OW32887   2.460   1.898   6.612 -0.1237  0.8859 -0.0094
 7085SOL    HW132888   2.511   1.840   6.555 -1.4247  3.7257 -4.0014
 7085SOL    HW232889   2.422   1.836   6.674 -0.4130  1.2873  0.2162
 7086SOL     OW32890   1.579   1.055   2.856 -0.0582 -0.1138 -0.0866
 7086SOL    HW132891   1.512   1.039   2.922 -0.2819 -0.6913 -0.4558
 7086SOL    HW232892   1.531   1.032   2.777  0.5323  4.7226 -1.8409
 7087SOL     OW32893   4.044   4.638   4.042  0.0608 -0.1077 -0.2386
 7087SOL    HW132894   4.078   4.584   4.113  0.9783  1.4121  0.4835
 7087SOL    HW232895   4.112   4.699   4.012  0.6073 -2.5355 -3.8836
 7088SOL     OW32896   4.181   4.595   5.510  0.6495 -0.5101  0.0407
 7088SOL    HW132897   4.108   4.656   5.504  2.2391  1.4545  0.7318
 7088SOL    HW232898   4.225   4.636   5.584  1.5178 -1.0292 -0.1782
 7089SOL     OW32899   0.993   4.516   9.128 -0.7838 -0.5574  0.2189
 7089SOL    HW132900   0.978   4.607   9.102 -1.1977 -0.9791 -0.9798
 7089SOL    HW232901   0.965   4.468   9.050 -1.7756  1.7714 -0.8492
 7090SOL     OW32902   1.644   1.803  15.594  0.3067  0.0299  0.2271
 7090SOL    HW132903   1.576   1.866  15.568 -0.7867 -0.6306  1.4529
 7090SOL    HW232904   1.662   1.841  15.680  0.0409 -1.3324  0.8756
 7091SOL     OW32905   1.193   4.358   5.598 -0.1619  0.2076 -0.2491
 7091SOL    HW132906   1.233   4.420   5.659 -1.6176  0.4490  0.4568
 7091SOL    HW232907   1.262   4.349   5.533 -0.0584 -2.2245  0.1723
 7092SOL     OW32908   4.141   4.649   8.150 -0.1508  0.8192 -0.3292
 7092SOL    HW132909   4.208   4.687   8.206 -1.5633  1.1490  1.1185
 7092SOL    HW232910   4.197   4.621   8.077  0.7655 -0.1340  0.7320
 7093SOL     OW32911   4.519   2.341  11.637 -0.2847  0.2803 -0.4968
 7093SOL    HW132912   4.592   2.364  11.580  0.3537  1.9545  0.9946
 7093SOL    HW232913   4.525   2.245  11.640 -0.1876  0.3171  0.3495
 7094SOL     OW32914   2.260   2.417   5.264  0.4470  0.5676  0.0286
 7094SOL    HW132915   2.168   2.392   5.271  0.5360  0.2075 -0.1243
 7094SOL    HW232916   2.295   2.356   5.200  0.4335  0.9288 -0.3169
 7095SOL     OW32917   0.765   4.625   5.696  0.2293 -0.1910 -0.6372
 7095SOL    HW132918   0.849   4.666   5.715 -0.0762  0.2996 -0.3618
 7095SOL    HW232919   0.710   4.703   5.699 -1.7151 -1.5747  0.3074
 7096SOL     OW32920   0.310   4.014   7.727  0.6531 -0.3540  0.2337
 7096SOL    HW132921   0.310   4.087   7.665 -0.7011  0.6017  1.3457
 7096SOL    HW232922   0.386   4.023   7.784 -1.3742 -1.7658  3.2309
 7097SOL     OW32923   2.436   1.344   7.875  0.1146  0.0076 -0.8114
 7097SOL    HW132924   2.483   1.274   7.829 -0.2391 -0.7266 -0.0723
 7097SOL    HW232925   2.402   1.291   7.948 -0.1356 -0.5294 -1.3180
 7098SOL     OW32926   0.639   0.430  17.167  0.1631  0.1054 -0.0445
 7098SOL    HW132927   0.664   0.516  17.202  0.5323 -1.0595  2.5197
 7098SOL    HW232928   0.591   0.461  17.090 -0.7392 -1.1567  0.0106
 7099SOL     OW32929   1.243   2.873   7.553 -0.2297 -0.2199 -0.2067
 7099SOL    HW132930   1.202   2.847   7.635 -0.8664 -2.3605 -1.2196
 7099SOL    HW232931   1.292   2.949   7.585 -1.5577  0.3286  0.5489
 7100SOL     OW32932   2.724   4.055   3.555  0.4309 -0.2440  0.7201
 7100SOL    HW132933   2.811   4.091   3.566  0.1582  0.8926 -0.7931
 7100SOL    HW232934   2.700   4.100   3.474  0.0514  0.2877  1.1282
 7101SOL     OW32935   3.172   2.926   0.441  0.9406  0.6555  0.0451
 7101SOL    HW132936   3.249   2.961   0.396  0.6277 -1.0338 -1.8097
 7101SOL    HW232937   3.194   2.833   0.439  0.2209  0.4179  2.6154
 7102SOL     OW32938   2.286   1.762   4.390 -0.6017  0.1620 -0.1644
 7102SOL    HW132939   2.275   1.854   4.367  0.1753 -0.0338 -1.3075
 7102SOL    HW232940   2.293   1.730   4.300  1.2763  3.5894 -1.2279
 7103SOL     OW32941   4.354   3.414  17.524 -0.0535  0.0565  0.3418
 7103SOL    HW132942   4.350   3.342  17.461  3.2579  0.0991  0.0923
 7103SOL    HW232943   4.450   3.410  17.529 -0.0584 -2.3770 -1.5175
 7104SOL     OW32944   2.432   1.543   9.102 -0.1018  0.3107  0.2585
 7104SOL    HW132945   2.513   1.520   9.057 -0.4175 -2.1782  0.9315
 7104SOL    HW232946   2.427   1.493   9.183  0.9324  0.0485  0.1629
 7105SOL     OW32947   3.618   0.341   4.777  0.1326  0.3804  0.1277
 7105SOL    HW132948   3.674   0.264   4.788 -0.7656 -0.5641 -2.0639
 7105SOL    HW232949   3.531   0.302   4.772 -0.0676  0.9050 -0.5134
 7106SOL     OW32950   0.659   3.415   1.536  0.2236 -0.3565  0.1000
 7106SOL    HW132951   0.675   3.360   1.459  1.1450  0.3919 -0.2442
 7106SOL    HW232952   0.745   3.399   1.576  1.0968  0.5659 -1.4276
 7107SOL     OW32953   1.495   0.395  16.516  0.0387  0.2418  0.3502
 7107SOL    HW132954   1.447   0.346  16.582  0.3001 -0.4277  0.0429
 7107SOL    HW232955   1.472   0.355  16.432  0.5845 -0.0298  0.3301
 7108SOL     OW32956   2.971   3.680   3.577  0.4609 -0.1347  0.0725
 7108SOL    HW132957   3.058   3.707   3.607 -0.8660  1.3804  2.4832
 7108SOL    HW232958   2.949   3.748   3.514 -1.0880 -1.8395 -1.2560
 7109SOL     OW32959   4.493   4.714  12.041 -0.3756 -0.1330 -0.4301
 7109SOL    HW132960   4.404   4.732  12.070 -0.5859 -1.9321 -0.0112
 7109SOL    HW232961   4.510   4.643  12.103  0.8575 -0.0395 -0.6536
 7110SOL     OW32962   3.012   1.312   3.183 -0.0988 -0.3240  0.3078
 7110SOL    HW132963   3.056   1.232   3.212 -1.9325 -0.9358  1.4659
 7110SOL    HW232964   3.055   1.379   3.235 -1.9192  0.7915  0.3573
 7111SOL     OW32965   3.080   0.145   4.143 -0.0979  0.1487 -0.1143
 7111SOL    HW132966   3.127   0.228   4.136 -1.7907  1.1168 -0.0331
 7111SOL    HW232967   2.999   0.169   4.187  0.5999 -0.3882  1.4536
 7112SOL     OW32968   2.424   0.088  10.804  0.4247  0.4330  0.8663
 7112SOL    HW132969   2.457   0.016  10.858  1.5570 -0.1926 -0.6444
 7112SOL    HW232970   2.361   0.124  10.867 -1.2897  1.7562 -1.5948
 7113SOL     OW32971   4.196   3.608   6.662 -0.0965  0.0693  0.9645
 7113SOL    HW132972   4.133   3.651   6.720 -0.8728 -0.1685  0.3057
 7113SOL    HW232973   4.151   3.525   6.643  3.7768 -2.2440  1.9620
 7114SOL     OW32974   3.856   2.878   9.159 -0.1258 -0.6652  0.5033
 7114SOL    HW132975   3.794   2.832   9.103  3.2814 -1.7723 -2.3351
 7114SOL    HW232976   3.921   2.905   9.093 -3.1326 -1.0773 -2.6076
 7115SOL     OW32977   1.721   2.707   7.444 -0.1969  0.0757  0.3277
 7115SOL    HW132978   1.722   2.624   7.492 -1.3675  0.1890  0.5471
 7115SOL    HW232979   1.629   2.730   7.451 -0.4245 -0.5534 -0.4946
 7116SOL     OW32980   3.287   1.742   4.671  0.4729  0.0926  0.2597
 7116SOL    HW132981   3.230   1.666   4.660  0.8922 -0.4080  1.6605
 7116SOL    HW232982   3.371   1.711   4.637  0.8524  1.3175  0.0547
 7117SOL     OW32983   0.172   0.431   1.809  0.7247 -0.1114 -0.0224
 7117SOL    HW132984   0.129   0.398   1.888 -1.1335  1.1462 -0.5146
 7117SOL    HW232985   0.249   0.375   1.805  0.9262  0.0819  1.2539
 7118SOL     OW32986   4.595   1.556   1.910 -0.4976 -0.4834 -0.2830
 7118SOL    HW132987   4.542   1.539   1.832 -2.2426  1.4364  0.4792
 7118SOL    HW232988   4.560   1.641   1.938 -1.2473 -0.7112 -0.5340
 7119SOL     OW32989   4.199   1.116   4.786  0.1169 -0.2543 -0.0449
 7119SOL    HW132990   4.258   1.068   4.728  0.9619  2.7005 -1.6001
 7119SOL    HW232991   4.124   1.058   4.777 -1.1288  1.5210 -0.9788
 7120SOL     OW32992   2.667   3.232   1.470  0.1947  0.1436 -0.2230
 7120SOL    HW132993   2.676   3.285   1.391  0.8152 -2.0846 -1.6554
 7120SOL    HW232994   2.590   3.274   1.510 -0.3118 -0.3327 -0.6956
 7121SOL     OW32995   4.713   4.143   2.996  0.5550  0.2922  0.2191
 7121SOL    HW132996   4.701   4.212   2.931  0.5917  1.1036  1.0802
 7121SOL    HW232997   4.680   4.068   2.947 -1.3495  0.6918  0.9019
 7122SOL     OW32998   1.009   4.226   7.178 -0.2913  0.5123  0.1174
 7122SOL    HW132999   0.956   4.168   7.233 -1.3742  2.0049  0.6575
 7122SOL    HW233000   1.094   4.214   7.219  0.9165  3.7915 -1.4884
 7123SOL     OW33001   3.569   1.919   6.878 -0.1336 -0.2501  0.4804
 7123SOL    HW133002   3.588   1.990   6.939  0.0995 -0.1629  0.3044
 7123SOL    HW233003   3.503   1.874   6.931  1.0490 -1.2541  1.1026
 7124SOL     OW33004   0.440   3.547   8.867  0.3418  0.0934  0.0914
 7124SOL    HW133005   0.509   3.612   8.883  0.9720 -0.0274 -2.1231
 7124SOL    HW233006   0.375   3.560   8.936 -0.3054 -0.4113 -0.4279
 7125SOL     OW33007   4.541   2.995   7.869  0.1395 -0.4592  0.0072
 7125SOL    HW133008   4.579   2.987   7.957 -0.6387 -1.0941  0.2822
 7125SOL    HW233009   4.566   2.907   7.841  1.6921 -0.1611  0.4391
 7126SOL     OW33010   1.659   2.054   2.503 -0.3233  0.3223  0.5200
 7126SOL    HW133011   1.600   2.079   2.433  2.0527 -2.0270 -2.3038
 7126SOL    HW233012   1.657   2.130   2.561 -2.4290 -1.0068  2.1861
 7127SOL     OW33013   4.718   1.460   8.079 -0.0813 -0.1330  0.7104
 7127SOL    HW133014   4.638   1.410   8.098 -0.9831  1.7162  1.7891
 7127SOL    HW233015   4.721   1.454   7.984 -1.3630  0.0558  0.6582
 7128SOL     OW33016   2.255   0.023   9.116  1.1644 -0.1462 -0.3624
 7128SOL    HW133017   2.201   4.699   9.162 -0.0383  2.3892  1.7074
 7128SOL    HW233018   2.232   0.107   9.154 -1.9559 -0.4233 -1.7117
 7129SOL     OW33019   1.482   0.266   5.336 -0.0255  0.1099  0.1026
 7129SOL    HW133020   1.410   0.264   5.399  0.4216 -2.9675  0.5122
 7129SOL    HW233021   1.534   0.186   5.348  0.5884  0.5922  0.6617
 7130SOL     OW33022   1.870   3.371   7.717 -0.1311 -0.0042 -0.3561
 7130SOL    HW133023   1.828   3.415   7.791  0.4037  0.2266 -0.1954
 7130SOL    HW233024   1.831   3.284   7.732  2.2709 -0.9940  0.0837
 7131SOL     OW33025   0.505   0.296   0.460  0.1341  0.3627 -0.1459
 7131SOL    HW133026   0.556   0.360   0.409  0.9663 -0.5495 -0.4497
 7131SOL    HW233027   0.417   0.318   0.428  1.1043  0.1620 -2.9976
 7132SOL     OW33028   4.664   1.921   6.056 -0.0147 -0.1009  0.1429
 7132SOL    HW133029   4.663   1.918   5.960 -0.2748  0.5312  0.1274
 7132SOL    HW233030   4.592   1.862   6.077  0.4626 -1.1304 -1.1296
 7133SOL     OW33031   4.452   1.484  11.867 -0.1182 -0.4196  0.3526
 7133SOL    HW133032   4.455   1.389  11.881  2.7415 -0.6289 -1.6641
 7133SOL    HW233033   4.387   1.495  11.797  0.6178 -1.3517 -0.4716
 7134SOL     OW33034   2.488   2.877   3.746  0.4418 -0.1123 -0.0903
 7134SOL    HW133035   2.404   2.901   3.706 -0.3336  1.1311  2.2862
 7134SOL    HW233036   2.532   2.821   3.682  0.9172  0.2897 -0.1135
 7135SOL     OW33037   1.083   1.384  10.958 -0.2242 -0.0750  0.6095
 7135SOL    HW133038   1.019   1.444  10.920 -2.6752 -1.7385  2.1563
 7135SOL    HW233039   1.139   1.449  11.000 -1.6011  0.6202  1.3535
 7136SOL     OW33040   0.577   0.766   3.475  0.0069  0.0553 -0.2927
 7136SOL    HW133041   0.629   0.844   3.456  0.3498  0.1686  1.1658
 7136SOL    HW233042   0.492   0.810   3.485  0.0574  0.6321 -2.2428
 7137SOL     OW33043   2.873   1.622  14.887  0.0494 -0.3364 -0.1891
 7137SOL    HW133044   2.800   1.620  14.826 -0.7416 -3.1700  0.8292
 7137SOL    HW233045   2.928   1.696  14.865  0.7274 -0.7758  0.0402
 7138SOL     OW33046   1.772   4.187   4.100  0.0801 -0.6813  0.5160
 7138SOL    HW133047   1.764   4.104   4.146  1.0285 -0.5165  0.9685
 7138SOL    HW233048   1.823   4.240   4.160 -0.5717 -0.2969  0.7363
 7139SOL     OW33049   1.480   2.077   4.398 -0.8493  0.4186  1.0623
 7139SOL    HW133050   1.413   2.038   4.454  1.1384 -0.8264  2.5858
 7139SOL    HW233051   1.490   2.010   4.329  0.3141  0.9910  0.6732
 7140SOL     OW33052   4.593   3.485   6.959 -0.7975 -0.0757  0.0959
 7140SOL    HW133053   4.522   3.529   7.005  0.0482 -0.1198  1.4490
 7140SOL    HW233054   4.627   3.560   6.910  0.8312  0.9471  2.7775
 7141SOL     OW33055   3.024   2.055   3.598 -0.3945 -0.0872 -0.7303
 7141SOL    HW133056   2.975   1.976   3.577 -0.5057 -0.4375  0.8253
 7141SOL    HW233057   2.965   2.129   3.584 -2.7566 -1.7959  0.2634
 7142SOL     OW33058   0.958   3.672   3.533  0.1795  0.2047  0.1124
 7142SOL    HW133059   0.925   3.746   3.482  0.6869 -2.1104 -3.6010
 7142SOL    HW233060   0.944   3.601   3.471  1.2383 -2.4557  2.9571
 7143SOL     OW33061   3.902   2.948   1.305 -0.2449 -0.3135  0.3225
 7143SOL    HW133062   3.841   2.973   1.236  0.8101  0.6454 -0.2567
 7143SOL    HW233063   3.937   3.032   1.335  0.3251 -0.5659  0.3670
 7144SOL     OW33064   0.710   3.483   6.547 -0.3122 -0.0206 -0.4671
 7144SOL    HW133065   0.724   3.389   6.559  2.6071  0.7932  2.6741
 7144SOL    HW233066   0.700   3.506   6.640  1.5927  0.2299 -0.3075
 7145SOL     OW33067   4.615   3.382   1.706 -0.4766 -0.2353  0.3139
 7145SOL    HW133068   4.663   3.437   1.768 -1.2959 -0.1976  0.9085
 7145SOL    HW233069   4.562   3.449   1.662 -1.3047 -0.5701  0.7972
 7146SOL     OW33070   3.168   0.537   8.054  0.1050 -0.0309 -0.3841
 7146SOL    HW133071   3.147   0.459   8.003 -0.2834  2.5983 -4.1913
 7146SOL    HW233072   3.139   0.510   8.142  2.3958  1.4297  0.8072
 7147SOL     OW33073   3.104   2.475  10.096  0.1055  0.5413  0.1378
 7147SOL    HW133074   3.076   2.419  10.169 -0.3535 -0.6158 -0.9323
 7147SOL    HW233075   3.166   2.415  10.055  1.6500  1.7414  0.7176
 7148SOL     OW33076   1.998   2.912   7.196 -0.0433  0.2430 -0.1361
 7148SOL    HW133077   1.935   2.918   7.125 -1.2577 -2.2820  0.7429
 7148SOL    HW233078   1.993   3.004   7.220  1.3849  1.0305 -2.8384
 7149SOL     OW33079   0.170   0.736   4.623 -0.1690 -0.4980  0.3198
 7149SOL    HW133080   0.256   0.766   4.653 -0.4880 -1.7202  2.4178
 7149SOL    HW233081   0.166   0.642   4.641  1.6773 -0.2358  2.0396
 7150SOL     OW33082   0.271   0.353   0.150 -0.0070 -0.2298  0.6780
 7150SOL    HW133083   0.336   0.291   0.116 -1.0507 -1.4404  0.9054
 7150SOL    HW233084   0.272   0.344   0.245 -0.0765 -2.6582  0.4604
 7151SOL     OW33085   2.528   3.670   1.093 -0.2256  0.1282 -0.2569
 7151SOL    HW133086   2.488   3.694   1.176 -1.7349  0.5420 -1.1169
 7151SOL    HW233087   2.444   3.650   1.052  0.0490  0.1291 -0.8102
 7152SOL     OW33088   2.963   2.050   7.950 -0.4707 -0.1110  0.7922
 7152SOL    HW133089   2.932   1.990   8.019  1.1698 -1.0848  0.6869
 7152SOL    HW233090   3.037   2.093   7.993 -0.2093  0.4560 -0.2382
 7153SOL     OW33091   1.747   2.150  17.469  0.7195  0.1381 -0.7360
 7153SOL    HW133092   1.712   2.165  17.556 -0.2159 -2.6097 -0.6367
 7153SOL    HW233093   1.808   2.223  17.455  1.5179 -0.5345 -0.6978
 7154SOL     OW33094   2.461   0.146  12.072  0.1640  0.9628  0.6168
 7154SOL    HW133095   2.494   0.235  12.085 -1.8167  1.9228 -0.9170
 7154SOL    HW233096   2.375   0.175  12.042 -0.5605  1.9897  3.7070
 7155SOL     OW33097   3.051   1.243   4.273 -0.2722 -0.0931 -0.5149
 7155SOL    HW133098   3.060   1.242   4.368  3.0001  2.7318 -0.7697
 7155SOL    HW233099   2.976   1.184   4.277 -1.8234  2.1509  3.3003
 7156SOL     OW33100   1.355   1.885  15.847 -0.1716 -0.2644  0.2152
 7156SOL    HW133101   1.335   1.796  15.817  0.2329 -0.3921  0.3275
 7156SOL    HW233102   1.445   1.875  15.876 -0.4386  1.4217  1.6054
 7157SOL     OW33103   3.239   2.544   9.445  0.1803  0.5959  0.1992
 7157SOL    HW133104   3.246   2.573   9.354  0.8908  0.5280  0.2327
 7157SOL    HW233105   3.236   2.628   9.491  1.6605  0.8000 -0.0694
 7158SOL     OW33106   3.465   4.258   8.704  0.1414  0.3713 -0.2721
 7158SOL    HW133107   3.406   4.291   8.637  2.5632 -1.2009 -3.1943
 7158SOL    HW233108   3.503   4.342   8.732 -0.0700 -1.1889  4.8266
 7159SOL     OW33109   0.070   3.924   9.810  0.0935  0.6407  0.6434
 7159SOL    HW133110   0.035   3.978   9.738 -1.2810 -1.8294 -0.5430
 7159SOL    HW233111   0.164   3.940   9.806  0.3355 -0.6295  1.5619
 7160SOL     OW33112   2.867   4.466   8.109  0.2838 -0.4997  0.0612
 7160SOL    HW133113   2.780   4.461   8.071  0.8593  0.0380 -1.3147
 7160SOL    HW233114   2.916   4.529   8.056  1.3861  0.7286  2.4947
 7161SOL     OW33115   4.715   3.361   4.178 -0.7700 -0.1225 -0.1847
 7161SOL    HW133116   4.690   3.341   4.088  1.9120 -1.7840 -0.5334
 7161SOL    HW233117   4.680   3.451   4.178  0.7793  0.4693 -0.6101
 7162SOL     OW33118   3.815   4.393   3.384 -0.8904 -0.4381 -0.3226
 7162SOL    HW133119   3.767   4.443   3.450  0.4233  1.4046 -0.7670
 7162SOL    HW233120   3.783   4.432   3.303  2.0001  0.1436 -1.1862
 7163SOL     OW33121   1.802   0.832   7.139 -0.3389 -0.3512  0.0541
 7163SOL    HW133122   1.834   0.921   7.153 -2.3342  0.8702 -3.3594
 7163SOL    HW233123   1.764   0.818   7.226 -1.5321 -0.7972 -0.5489
 7164SOL     OW33124   3.540   4.290   1.205  0.0132 -0.1546  1.0981
 7164SOL    HW133125   3.463   4.336   1.239 -1.2272 -1.4820  0.0660
 7164SOL    HW233126   3.611   4.331   1.254 -0.2940  1.1193  0.4681
 7165SOL     OW33127   2.772   1.565   5.400  0.4784 -0.4714 -0.1469
 7165SOL    HW133128   2.830   1.512   5.454  3.2876 -0.5795 -3.2534
 7165SOL    HW233129   2.689   1.568   5.449  1.1751  0.4420  0.9872
 7166SOL     OW33130   2.967   4.624   0.240  0.2152 -0.1188  0.8428
 7166SOL    HW133131   3.022   4.608   0.163 -1.6403  0.8775 -0.7030
 7166SOL    HW233132   2.917   4.544   0.252 -0.3081 -0.0076 -0.6747
 7167SOL     OW33133   0.629   2.810  10.313 -0.0298  0.9066  0.6062
 7167SOL    HW133134   0.605   2.754  10.239 -1.2392  1.5909  0.4790
 7167SOL    HW233135   0.703   2.766  10.354  0.0026  0.4651  0.0698
 7168SOL     OW33136   4.129   3.331   6.648 -0.1510  0.3386  0.0742
 7168SOL    HW133137   4.193   3.317   6.717  0.7909 -1.4345 -1.1601
 7168SOL    HW233138   4.045   3.308   6.687 -0.3928  0.0759 -0.5930
 7169SOL     OW33139   1.656   3.761   1.611 -0.1821 -0.0988 -0.1614
 7169SOL    HW133140   1.745   3.731   1.629  0.1662  1.3513  0.5321
 7169SOL    HW233141   1.613   3.744   1.695  0.8911  1.2434  0.6638
 7170SOL     OW33142   2.687   0.348   6.800 -0.5188  0.0974  0.5787
 7170SOL    HW133143   2.756   0.342   6.866 -2.3089 -1.1756  2.3409
 7170SOL    HW233144   2.745   0.343   6.724  3.3456 -0.9074  3.5655
 7171SOL     OW33145   1.854   0.616   0.211 -0.0917 -0.0537 -0.0640
 7171SOL    HW133146   1.872   0.578   0.297  1.2692  2.0764  0.5872
 7171SOL    HW233147   1.768   0.579   0.189 -0.8157  0.8821  1.2342
 7172SOL     OW33148   2.512   0.175   9.299 -0.2558  0.3136 -0.1984
 7172SOL    HW133149   2.562   0.256   9.308  0.4549 -0.1906  0.3744
 7172SOL    HW233150   2.424   0.196   9.332 -0.0831 -1.3088  1.2924
 7173SOL     OW33151   3.297   2.488  15.508  0.4339  0.0505 -0.1039
 7173SOL    HW133152   3.378   2.533  15.486  1.0088 -1.1693 -0.4828
 7173SOL    HW233153   3.235   2.560  15.495 -0.5998 -0.7178  0.4817
 7174SOL     OW33154   4.038   4.300   4.767 -1.0146 -0.3457 -0.5242
 7174SOL    HW133155   3.988   4.350   4.832  0.8213  0.0980  0.5703
 7174SOL    HW233156   4.030   4.222   4.822 -0.1395 -0.9176 -1.2057
 7175SOL     OW33157   1.787   2.881   4.165  0.4925  0.1003  0.0436
 7175SOL    HW133158   1.800   2.803   4.110  0.5617  0.3061 -0.2312
 7175SOL    HW233159   1.865   2.933   4.150  0.6590 -0.0446  0.4144
 7176SOL     OW33160   4.314   1.180  14.581  0.1903  0.0318 -0.6302
 7176SOL    HW133161   4.333   1.274  14.587  0.5284  0.0220 -1.5534
 7176SOL    HW233162   4.402   1.147  14.597 -0.0106 -0.7757 -1.1680
 7177SOL     OW33163   2.074   2.118  17.745 -0.2590  0.3592 -0.0595
 7177SOL    HW133164   2.007   2.082   0.047  1.0761 -1.7935  0.1233
 7177SOL    HW233165   2.151   2.132   0.044 -0.4097 -2.4506  0.8344
 7178SOL     OW33166   3.798   3.222   4.293 -0.4149  0.3577  0.5364
 7178SOL    HW133167   3.770   3.207   4.203  1.9837 -1.3108  0.0978
 7178SOL    HW233168   3.825   3.314   4.291 -0.4466  0.3674  0.5513
 7179SOL     OW33169   3.357   0.006   5.416 -0.2686  0.2588 -0.0204
 7179SOL    HW133170   3.337   0.095   5.447  2.3001  0.3889  1.2610
 7179SOL    HW233171   3.365   4.698   5.498 -0.1554 -1.1749 -0.8712
 7180SOL     OW33172   1.308   3.742   3.495  0.0769 -0.9939  0.3270
 7180SOL    HW133173   1.264   3.722   3.578  1.1114  0.9678  1.3301
 7180SOL    HW233174   1.266   3.688   3.427  0.9652  0.6555 -1.5449
 7181SOL     OW33175   1.451   1.035   9.139 -0.2019  0.0065 -0.4222
 7181SOL    HW133176   1.462   0.948   9.177 -1.5121  0.6525  1.4423
 7181SOL    HW233177   1.542   1.066   9.132 -0.5299  1.3606  1.1888
 7182SOL     OW33178   3.179   0.881   1.411  0.1596 -0.1499 -0.0643
 7182SOL    HW133179   3.217   0.800   1.378  0.2230  1.3278 -3.5428
 7182SOL    HW233180   3.145   0.851   1.496  1.4948  0.0046  0.5197
 7183SOL     OW33181   1.683   0.203  11.996  0.1707 -0.0706  0.4864
 7183SOL    HW133182   1.757   0.147  12.020  0.4710  0.1411  0.0582
 7183SOL    HW233183   1.641   0.185  12.081 -1.0683  0.4486 -0.0154
 7184SOL     OW33184   1.052   3.652   6.971 -0.3506  0.1403 -0.0542
 7184SOL    HW133185   0.980   3.604   7.012 -0.8129  1.1149  0.2814
 7184SOL    HW233186   1.024   3.657   6.879  2.4192  2.5371 -0.7449
 7185SOL     OW33187   3.006   2.619   5.289 -0.2391  0.3254  0.5240
 7185SOL    HW133188   3.062   2.693   5.312  0.9202 -0.7790  1.2930
 7185SOL    HW233189   2.943   2.624   5.361 -2.0769 -0.5534 -1.0247
 7186SOL     OW33190   0.705   3.351   5.540  0.0475 -0.2413  0.0814
 7186SOL    HW133191   0.640   3.323   5.476 -1.9665  0.0716  1.9949
 7186SOL    HW233192   0.785   3.331   5.492  0.7963 -0.4901  1.4403
 7187SOL     OW33193   3.115   3.287   9.975 -0.1987 -0.3407 -0.3425
 7187SOL    HW133194   3.036   3.236   9.989  0.3235 -1.0437  0.0561
 7187SOL    HW233195   3.183   3.243  10.026  0.2435  1.0423  0.2757
 7188SOL     OW33196   3.289   2.166   7.447  0.2115  0.0016 -0.2066
 7188SOL    HW133197   3.194   2.163   7.447  0.1939  0.4025  1.1012
 7188SOL    HW233198   3.320   2.089   7.496  0.7564 -0.6164 -1.5369
 7189SOL     OW33199   2.170   1.419   4.189 -0.2147  0.3706 -0.0391
 7189SOL    HW133200   2.148   1.406   4.097 -0.3497 -1.5119  0.2646
 7189SOL    HW233201   2.213   1.335   4.205  0.9255  0.5652 -2.1492
 7190SOL     OW33202   0.513   2.872   7.454 -0.9517  0.0667  0.0431
 7190SOL    HW133203   0.454   2.806   7.492  1.4883 -1.1599  1.6671
 7190SOL    HW233204   0.597   2.826   7.454 -0.4458  1.0067  0.5495
 7191SOL     OW33205   1.275   0.975   1.495 -0.2545 -0.4488  0.8207
 7191SOL    HW133206   1.206   0.909   1.492 -0.8254  0.4037 -4.7145
 7191SOL    HW233207   1.303   0.949   1.583 -1.9211 -0.9782  1.1918
 7192SOL     OW33208   2.295   2.006   3.000  0.0560  0.0690  0.4914
 7192SOL    HW133209   2.296   2.011   2.904  1.8145 -1.1727  0.4491
 7192SOL    HW233210   2.339   2.089   3.020  1.1711 -0.8021  1.5991
 7193SOL     OW33211   4.363   0.796   3.179  0.1727  0.1188 -0.3308
 7193SOL    HW133212   4.382   0.885   3.210  1.2705 -0.7636  1.5587
 7193SOL    HW233213   4.316   0.816   3.099 -0.9389  0.6187  0.4393
 7194SOL     OW33214   0.130   0.096   7.200 -0.4735  0.2002  0.0945
 7194SOL    HW133215   0.055   0.067   7.148 -1.2168  1.7420  0.2929
 7194SOL    HW233216   0.109   0.190   7.199 -3.0504 -0.3706 -0.4235
 7195SOL     OW33217   4.352   4.387   3.905 -0.0578  0.0429 -0.5146
 7195SOL    HW133218   4.301   4.431   3.837 -2.0875  1.6804  2.0233
 7195SOL    HW233219   4.287   4.329   3.944  2.2654 -1.1414  1.6069
 7196SOL     OW33220   0.265   0.274   5.756 -0.1937  0.1393 -0.8486
 7196SOL    HW133221   0.329   0.224   5.808 -2.2771  0.2335  1.7720
 7196SOL    HW233222   0.295   0.363   5.773 -0.1921  0.0375 -0.3175
 7197SOL     OW33223   2.972   3.714   2.545 -0.2094 -0.0417 -0.1356
 7197SOL    HW133224   2.883   3.751   2.544  0.0761  0.5883 -1.3776
 7197SOL    HW233225   2.986   3.702   2.452  0.8929 -1.8731  0.2611
 7198SOL     OW33226   2.279   2.601  10.922  0.0899 -0.6812  0.0068
 7198SOL    HW133227   2.251   2.514  10.894 -1.0616 -0.8504  1.6848
 7198SOL    HW233228   2.250   2.662  10.854  0.6811 -2.5138 -1.8883
 7199SOL     OW33229   1.559   1.825   2.693  0.1905 -0.2890  0.7634
 7199SOL    HW133230   1.500   1.775   2.637  0.5892 -1.4719  1.3947
 7199SOL    HW233231   1.550   1.913   2.657 -2.2188 -0.8208  0.0726
 7200SOL     OW33232   0.012   0.095   6.235 -0.1270  0.1311  0.1725
 7200SOL    HW133233   4.719   0.008   6.216  0.7728  0.3837 -2.4582
 7200SOL    HW233234   0.013   0.129   6.146 -1.8493 -1.5599 -0.4865
 7201SOL     OW33235   4.579   0.538   9.084  0.2159  0.0061 -0.3683
 7201SOL    HW133236   4.661   0.491   9.099  0.5406  1.5120  2.4991
 7201SOL    HW233237   4.587   0.603   9.153  0.1630  0.2606 -0.5980
 7202SOL     OW33238   4.642   3.053   2.702 -0.0741 -0.5659  0.7670
 7202SOL    HW133239   4.692   2.995   2.759 -0.1197 -2.2757 -0.9305
 7202SOL    HW233240   4.552   3.027   2.722 -1.1263  1.5524 -1.1232
 7203SOL     OW33241   3.537   2.239   8.204  0.0718  0.2712 -0.3556
 7203SOL    HW133242   3.621   2.274   8.232  0.5836 -0.6434 -0.7550
 7203SOL    HW233243   3.479   2.275   8.271 -2.4607 -2.2888 -1.1430
 7204SOL     OW33244   3.839   0.488   0.270  0.6910  0.3827  0.1564
 7204SOL    HW133245   3.901   0.543   0.318 -0.1771 -0.7847  2.5817
 7204SOL    HW233246   3.764   0.540   0.239 -1.2605 -1.5492  1.6175
 7205SOL     OW33247   1.147   2.873   6.492  0.2206  0.2838  0.3199
 7205SOL    HW133248   1.092   2.902   6.419 -0.6274 -0.5224  0.6373
 7205SOL    HW233249   1.233   2.881   6.450  0.4809 -1.0040  0.6105
 7206SOL     OW33250   2.899   0.400   7.700 -0.3515 -0.2566  0.0487
 7206SOL    HW133251   2.900   0.307   7.676 -0.7868 -0.4540  0.7810
 7206SOL    HW233252   2.939   0.380   7.784  0.5775  1.0518 -0.0839
 7207SOL     OW33253   2.985   2.075   5.897  0.6506  0.4354 -0.0156
 7207SOL    HW133254   3.061   2.016   5.904 -1.2023 -1.7122  1.7983
 7207SOL    HW233255   3.036   2.156   5.887 -1.2618  1.5189 -0.8289
 7208SOL     OW33256   1.144   4.467   4.964  0.1449  0.6390 -0.2250
 7208SOL    HW133257   1.192   4.478   4.882  0.4776  0.2164 -0.0893
 7208SOL    HW233258   1.219   4.435   5.014 -0.2067 -2.0338 -1.4070
 7209SOL     OW33259   2.759   2.474   3.694 -0.3119 -0.1040  0.5167
 7209SOL    HW133260   2.792   2.408   3.756 -2.6838  0.5990  2.5125
 7209SOL    HW233261   2.830   2.483   3.631 -1.1652  3.9245  0.1635
 7210SOL     OW33262   0.173   0.992   8.046 -0.3533 -0.6362 -0.2461
 7210SOL    HW133263   0.158   1.063   8.108 -1.7811 -1.2016  0.0455
 7210SOL    HW233264   0.088   0.948   8.045 -0.2157 -0.9510  2.2647
 7211SOL     OW33265   1.377   3.257   2.424  0.2915  0.2299  0.1467
 7211SOL    HW133266   1.352   3.336   2.376  1.0427  0.1855 -0.3224
 7211SOL    HW233267   1.462   3.239   2.382  0.5438  1.9930 -0.1074
 7212SOL     OW33268   2.733   4.371  10.726  0.0069  0.0807 -0.1782
 7212SOL    HW133269   2.798   4.435  10.697  2.4093 -2.5870 -0.8198
 7212SOL    HW233270   2.773   4.287  10.702  0.9880 -0.2830  2.7085
 7213SOL     OW33271   0.140   0.483   4.283 -0.8801  0.0588 -0.4313
 7213SOL    HW133272   0.128   0.449   4.194 -0.8706 -0.9669 -0.0369
 7213SOL    HW233273   0.053   0.464   4.319 -0.4813 -0.2323  0.3776
 7214SOL     OW33274   2.348   4.416   2.881 -0.3792 -0.8251 -0.2128
 7214SOL    HW133275   2.413   4.459   2.937 -0.0785 -0.2811 -0.9795
 7214SOL    HW233276   2.267   4.467   2.876 -0.5649 -0.8616  2.2087
 7215SOL     OW33277   0.820   0.474  16.877 -0.1568 -0.0469  0.1105
 7215SOL    HW133278   0.727   0.492  16.887 -0.1560 -0.7517  1.4127
 7215SOL    HW233279   0.825   0.383  16.904  0.6204  0.0608  0.3268
 7216SOL     OW33280   0.381   2.377   5.357 -0.3558 -0.2823  0.3114
 7216SOL    HW133281   0.338   2.448   5.404  0.6214 -0.4931  1.5216
 7216SOL    HW233282   0.331   2.367   5.276  2.7702  0.9541 -1.7677
 7217SOL     OW33283   3.715   3.495   8.284  0.4681  0.1212 -0.1380
 7217SOL    HW133284   3.795   3.548   8.284  0.2075  0.5163 -0.9806
 7217SOL    HW233285   3.750   3.410   8.310  0.9594  0.0036 -1.1629
 7218SOL     OW33286   2.941   2.801   2.330  0.1716  0.1304 -0.3212
 7218SOL    HW133287   2.934   2.828   2.239 -0.1273  0.6728 -0.1336
 7218SOL    HW233288   3.029   2.763   2.326 -0.6646 -1.7379 -1.3106
 7219SOL     OW33289   2.272   2.992   3.627  0.2228  0.1961  0.4779
 7219SOL    HW133290   2.262   2.941   3.547 -2.5309  2.0206 -0.3232
 7219SOL    HW233291   2.276   3.081   3.592 -1.1544 -0.8453 -2.3052
 7220SOL     OW33292   4.044   3.580   8.188 -0.0267  0.1455 -0.3452
 7220SOL    HW133293   4.026   3.597   8.096  0.3335  1.2550 -0.2129
 7220SOL    HW233294   4.102   3.650   8.217 -0.6494 -0.1394  1.5882
 7221SOL     OW33295   4.318   1.815  12.503  0.2140  0.1453 -0.7615
 7221SOL    HW133296   4.226   1.793  12.489 -0.3398  0.5638  2.2348
 7221SOL    HW233297   4.351   1.828  12.415  1.6735  0.7308 -0.1247
 7222SOL     OW33298   4.100   3.369   2.817 -0.3901  0.3602  0.0842
 7222SOL    HW133299   4.018   3.389   2.772 -0.9641 -2.8119 -0.2579
 7222SOL    HW233300   4.130   3.292   2.769 -0.7813  1.0424 -1.2508
 7223SOL     OW33301   2.353   2.602   2.512 -0.3396  0.1955  0.0412
 7223SOL    HW133302   2.374   2.531   2.573 -0.0146  0.5745  0.3738
 7223SOL    HW233303   2.410   2.666   2.556 -1.1732  0.2896  0.9844
 7224SOL     OW33304   1.349   3.715   4.634 -0.2303 -0.2898 -0.2918
 7224SOL    HW133305   1.319   3.665   4.558 -0.1553 -2.6732  1.2193
 7224SOL    HW233306   1.317   3.802   4.611 -0.9231 -0.3479  0.4275
 7225SOL     OW33307   0.752   0.093  15.319  0.4123  0.6082 -0.2681
 7225SOL    HW133308   0.706   0.063  15.241 -0.8095 -0.6565  0.9472
 7225SOL    HW233309   0.698   0.058  15.389 -0.6235 -0.2353 -1.4814
 7226SOL     OW33310   2.963   2.208   6.444  0.3363 -0.6739 -0.3069
 7226SOL    HW133311   2.876   2.187   6.479 -0.7408 -0.9363 -3.0922
 7226SOL    HW233312   2.932   2.269   6.377  3.5576 -0.8595 -1.9525
 7227SOL     OW33313   0.672   3.685   4.896  0.2927  0.3432 -0.4002
 7227SOL    HW133314   0.705   3.675   4.807 -1.3030 -2.7668 -0.6508
 7227SOL    HW233315   0.747   3.658   4.948 -1.3441 -2.5584  0.4575
 7228SOL     OW33316   4.229   0.087   6.468  0.0624  0.0065 -0.8202
 7228SOL    HW133317   4.232   0.106   6.374  0.1313  1.3260 -0.5482
 7228SOL    HW233318   4.149   0.036   6.483 -0.5241  0.6025 -1.8470
 7229SOL     OW33319   1.482   3.033  12.405  0.2380  0.4515 -0.5079
 7229SOL    HW133320   1.390   3.054  12.418  0.2642  0.1588  0.1339
 7229SOL    HW233321   1.506   3.117  12.366 -1.1156  0.9989 -0.1284
 7230SOL     OW33322   0.265   2.143   1.697  0.3213 -0.3302 -0.3177
 7230SOL    HW133323   0.211   2.206   1.745 -0.6078 -1.3288 -0.0538
 7230SOL    HW233324   0.316   2.113   1.771 -1.3392 -1.4856  0.3663
 7231SOL     OW33325   0.072   2.274  16.839  0.0569  0.2517 -0.0078
 7231SOL    HW133326   0.018   2.334  16.890  0.5904  1.9210 -1.4270
 7231SOL    HW233327   0.063   2.194  16.890 -0.2105  0.6317  0.5404
 7232SOL     OW33328   2.577   1.493   3.194  0.1277 -0.0747  0.1939
 7232SOL    HW133329   2.541   1.518   3.279  0.7422  0.5389  0.2705
 7232SOL    HW233330   2.577   1.578   3.149 -0.7101  0.8166  1.9125
 7233SOL     OW33331   2.048   2.069  16.237 -0.1095  0.2727  0.5828
 7233SOL    HW133332   1.990   2.145  16.237  0.5311  0.7595 -0.6399
 7233SOL    HW233333   2.050   2.050  16.143 -0.4496 -3.2183  1.2905
 7234SOL     OW33334   1.359   1.054   4.219  0.8776 -0.1591 -0.3634
 7234SOL    HW133335   1.282   1.094   4.179  0.0067 -0.8495  0.6405
 7234SOL    HW233336   1.344   0.960   4.203 -2.3922  0.3987 -0.6100
 7235SOL     OW33337   4.728   4.180  14.548  0.0470 -0.2115 -0.0592
 7235SOL    HW133338   0.077   4.146  14.533  1.4092  3.1520  0.2016
 7235SOL    HW233339   4.676   4.101  14.565  1.5425 -1.4287 -1.1436
 7236SOL     OW33340   4.181   0.240   3.077 -0.0296  0.4619 -0.2914
 7236SOL    HW133341   4.164   0.190   2.997  1.7601 -1.1719  0.3467
 7236SOL    HW233342   4.126   0.318   3.070  1.4565  1.3355 -2.2838
 7237SOL     OW33343   1.526   3.544   7.668 -0.4493  0.1126  0.2144
 7237SOL    HW133344   1.566   3.589   7.593  1.5523  0.3842  1.4601
 7237SOL    HW233345   1.436   3.574   7.654 -0.5970 -0.1984  0.5013
 7238SOL     OW33346   4.238   0.304   8.285 -0.1064 -0.3259  0.3647
 7238SOL    HW133347   4.278   0.313   8.372 -0.1105  0.5756  0.2714
 7238SOL    HW233348   4.284   0.376   8.242 -0.8205  0.4992  0.9856
 7239SOL     OW33349   3.364   0.293   9.019 -0.7370  0.2949  0.7699
 7239SOL    HW133350   3.367   0.267   9.111  0.3108  1.5494  1.0850
 7239SOL    HW233351   3.353   0.212   8.968 -1.7286  0.3905  0.8307
 7240SOL     OW33352   0.048   4.658   2.608  0.3878  0.5833 -0.2966
 7240SOL    HW133353   4.729   4.583   2.614  0.4629  0.5320 -0.2091
 7240SOL    HW233354   0.106   4.637   2.534 -0.2637 -0.2565 -0.5618
 7241SOL     OW33355   1.938   2.758   2.724  0.1641  0.3366 -0.4631
 7241SOL    HW133356   1.883   2.692   2.681  0.6829  1.0278 -2.1833
 7241SOL    HW233357   1.877   2.800   2.784  2.1549  3.0831 -0.3832
 7242SOL     OW33358   1.425   3.433   8.089 -0.3504 -0.1698 -0.1912
 7242SOL    HW133359   1.468   3.460   8.171  1.0357 -1.9097 -0.3462
 7242SOL    HW233360   1.477   3.354   8.074 -1.4023 -0.6471 -1.3067
 7243SOL     OW33361   2.674   2.407   0.799  0.2106 -0.3811  0.2049
 7243SOL    HW133362   2.661   2.318   0.832  0.0431 -0.0744  0.9588
 7243SOL    HW233363   2.673   2.461   0.878  0.8102 -0.6832  0.4189
 7244SOL     OW33364   2.442   4.216   6.183 -0.5717 -0.1352 -0.7473
 7244SOL    HW133365   2.507   4.161   6.226 -1.3569 -1.8715 -1.7741
 7244SOL    HW233366   2.398   4.251   6.261  0.3789 -0.3519 -0.1115
 7245SOL     OW33367   1.765   1.731   5.277 -0.0730  0.7358 -0.7394
 7245SOL    HW133368   1.768   1.742   5.372 -0.1579  0.5620 -0.7158
 7245SOL    HW233369   1.803   1.815   5.254  1.6795 -0.0514 -0.7481
 7246SOL     OW33370   0.088   3.411   2.932  0.1901 -0.2595 -0.3643
 7246SOL    HW133371   0.027   3.482   2.911  1.2544  1.0980  1.1238
 7246SOL    HW233372   0.081   3.365   2.848 -1.0995 -1.4885  0.4080
 7247SOL     OW33373   1.950   3.799   6.077  0.4035 -0.4184  0.1138
 7247SOL    HW133374   1.863   3.803   6.038  0.3214 -0.8930  0.2439
 7247SOL    HW233375   1.962   3.704   6.073  1.5933 -0.2277 -1.0679
 7248SOL     OW33376   1.307   0.933   1.764 -0.1498 -0.0969 -0.1076
 7248SOL    HW133377   1.326   1.007   1.821 -0.7849 -0.1397  0.1590
 7248SOL    HW233378   1.218   0.912   1.791 -0.3764 -1.5558 -1.9095
 7249SOL     OW33379   2.972   4.510   8.687  0.0827  0.1511  0.7086
 7249SOL    HW133380   3.025   4.522   8.765 -0.4307  0.1103  1.0666
 7249SOL    HW233381   2.968   4.414   8.681  0.0690  0.2038 -0.1916
 7250SOL     OW33382   4.352   1.802   6.321  0.5545 -0.2689 -0.1939
 7250SOL    HW133383   4.361   1.820   6.228 -0.0347 -0.3297 -0.2637
 7250SOL    HW233384   4.413   1.730   6.338  1.1371  0.6626  1.6622
 7251SOL     OW33385   2.224   1.792   5.872  0.2394 -0.3708 -0.5676
 7251SOL    HW133386   2.188   1.779   5.784 -0.1566  1.6779 -0.7006
 7251SOL    HW233387   2.265   1.878   5.865  2.0039 -1.0904  0.8158
 7252SOL     OW33388   1.441   1.134   7.239 -0.3517 -0.0783 -0.4780
 7252SOL    HW133389   1.370   1.083   7.279 -0.7808  0.3086 -0.7485
 7252SOL    HW233390   1.442   1.095   7.152 -2.2850 -0.1943 -0.4338
 7253SOL     OW33391   1.805   0.757   1.285 -0.0443 -0.2387  0.0386
 7253SOL    HW133392   1.742   0.783   1.353  0.5871  0.4129  0.3772
 7253SOL    HW233393   1.810   0.835   1.230  1.1086 -1.1886 -1.2060
 7254SOL     OW33394   3.369   3.600   0.178 -0.4977  0.4277  0.0794
 7254SOL    HW133395   3.410   3.544   0.112  0.6276  0.6032  0.6495
 7254SOL    HW233396   3.362   3.679   0.125 -0.2629 -1.2930 -2.5436
 7255SOL     OW33397   3.122   2.314   4.450 -0.0153  0.0366 -0.5550
 7255SOL    HW133398   3.050   2.335   4.391 -1.9296 -2.8407  0.7326
 7255SOL    HW233399   3.198   2.320   4.392  0.6193 -0.8644  0.1741
 7256SOL     OW33400   0.114   1.159   3.832 -0.1863  0.6535 -0.1398
 7256SOL    HW133401   0.038   1.100   3.836  0.7058 -0.4561  0.6408
 7256SOL    HW233402   0.082   1.221   3.766  2.4872  0.6927 -1.3915
 7257SOL     OW33403   1.215   0.598  11.234 -0.0830 -0.1225  0.4366
 7257SOL    HW133404   1.208   0.572  11.142 -2.8489  0.4258  0.5122
 7257SOL    HW233405   1.310   0.590  11.245 -0.1555 -0.0767  1.0582
 7258SOL     OW33406   1.831   4.642   8.557  0.9180 -0.0970  0.2475
 7258SOL    HW133407   1.892   4.707   8.524  2.2162 -1.2012  0.4959
 7258SOL    HW233408   1.810   4.691   8.637 -0.6581 -0.8938  0.3459
 7259SOL     OW33409   4.424   1.947  10.176  0.4806 -0.6103  0.1321
 7259SOL    HW133410   4.351   1.963  10.236  0.9258  2.6208 -0.1813
 7259SOL    HW233411   4.444   2.040  10.165  1.1614 -0.6379  1.1140
 7260SOL     OW33412   2.565   2.186   9.494  0.2958 -0.1912 -0.2533
 7260SOL    HW133413   2.515   2.171   9.414  1.5974 -0.6148 -0.9920
 7260SOL    HW233414   2.509   2.141   9.557 -1.4636  2.0178 -0.2576
 7261SOL     OW33415   1.180   1.980  12.300  0.0559 -0.1811 -0.5794
 7261SOL    HW133416   1.085   1.987  12.308 -0.0643 -0.1235 -2.1000
 7261SOL    HW233417   1.216   2.063  12.270  2.5640 -0.6337  1.1333
 7262SOL     OW33418   0.658   2.243  11.043  0.4470  0.0161 -0.1268
 7262SOL    HW133419   0.575   2.214  11.080 -0.1450  0.2040 -1.2998
 7262SOL    HW233420   0.685   2.307  11.108  0.9993 -2.1549  1.8113
 7263SOL     OW33421   1.829   2.689   3.521 -0.1268 -0.5413 -0.2982
 7263SOL    HW133422   1.889   2.660   3.590 -1.0813 -2.4617 -0.2764
 7263SOL    HW233423   1.814   2.782   3.538 -0.9782 -0.5514 -1.0250
 7264SOL     OW33424   2.126   2.809  11.319 -0.8732  1.1614 -0.3536
 7264SOL    HW133425   2.202   2.805  11.260 -0.4623 -1.6221  0.3972
 7264SOL    HW233426   2.082   2.891  11.295  0.0809  1.7395 -0.1448
 7265SOL     OW33427   0.681   3.356   2.912  0.3964 -0.0336 -0.1471
 7265SOL    HW133428   0.611   3.293   2.930 -1.4930  2.0046 -0.2450
 7265SOL    HW233429   0.688   3.353   2.817  0.3517  1.2734 -0.1893
 7266SOL     OW33430   3.864   3.448   2.729 -1.2234  0.3761  0.8639
 7266SOL    HW133431   3.864   3.543   2.718 -0.7104  0.5013  1.9091
 7266SOL    HW233432   3.771   3.431   2.717 -0.8155 -0.6352 -0.8220
 7267SOL     OW33433   3.630   3.834  14.161 -0.5307  0.4489  0.0738
 7267SOL    HW133434   3.641   3.890  14.084  0.3385  2.5290  1.6878
 7267SOL    HW233435   3.576   3.767  14.121  1.0994 -0.6828 -0.2499
 7268SOL     OW33436   4.134   3.983   2.403 -0.3705  0.0542 -0.5740
 7268SOL    HW133437   4.053   4.005   2.450 -0.6545  0.4263 -1.2384
 7268SOL    HW233438   4.143   4.057   2.343 -0.0683  1.4054  1.1391
 7269SOL     OW33439   1.027   2.741  14.845  0.1927 -0.0011 -0.2072
 7269SOL    HW133440   0.957   2.728  14.908  0.0848  3.5569  0.4047
 7269SOL    HW233441   1.038   2.650  14.818 -1.5639  0.4934 -2.6094
 7270SOL     OW33442   4.215   2.365  11.561 -0.0729  0.6812 -0.6106
 7270SOL    HW133443   4.304   2.362  11.528  1.0383  0.9719  2.3657
 7270SOL    HW233444   4.173   2.312  11.493 -0.9469  0.2618  0.2391
 7271SOL     OW33445   1.086   2.488   2.253 -0.6053  0.0628 -0.0528
 7271SOL    HW133446   1.124   2.563   2.299  1.7590 -0.7666 -0.6954
 7271SOL    HW233447   1.085   2.423   2.324  1.6518  0.0834 -0.0087
 7272SOL     OW33448   2.217   4.085  11.806  0.5398 -0.4759 -0.2295
 7272SOL    HW133449   2.206   4.110  11.714  2.2219  3.2236  0.5608
 7272SOL    HW233450   2.278   4.011  11.796  3.2336  2.0595 -2.6960
 7273SOL     OW33451   4.654   0.094   7.687 -0.4135 -0.5029  0.7613
 7273SOL    HW133452   4.702   0.167   7.727  0.0975  0.0980 -0.9657
 7273SOL    HW233453   4.627   0.127   7.601  2.7318  1.2117  0.4601
 7274SOL     OW33454   4.525   0.325   2.499 -0.7379 -0.2177 -0.3649
 7274SOL    HW133455   4.571   0.410   2.500 -0.1772 -0.5467  1.0543
 7274SOL    HW233456   4.473   0.346   2.576 -1.0545 -1.1244 -0.3406
 7275SOL     OW33457   3.928   0.124   6.961 -0.2772 -0.0363 -0.2149
 7275SOL    HW133458   3.919   0.110   6.867 -1.1866 -0.6307 -0.0402
 7275SOL    HW233459   3.843   0.105   7.000 -0.6602  2.3071  0.0777
 7276SOL     OW33460   4.384   0.470   8.135  0.1957  0.1457  0.6471
 7276SOL    HW133461   4.446   0.541   8.123  1.2552 -0.7253  0.9026
 7276SOL    HW233462   4.339   0.479   8.051 -0.7125  2.5481  1.3942
 7277SOL     OW33463   4.400   4.359   5.566  0.3661 -0.3092  0.3559
 7277SOL    HW133464   4.417   4.270   5.596  2.2917 -0.0359  0.0772
 7277SOL    HW233465   4.371   4.337   5.477 -1.8859  0.3262  0.9536
 7278SOL     OW33466   4.588   0.133   6.483  0.1937 -0.6385  0.2707
 7278SOL    HW133467   4.628   0.101   6.402 -1.3138 -0.3517 -0.6031
 7278SOL    HW233468   4.582   0.228   6.468  1.4359 -0.7590 -0.9729
 7279SOL     OW33469   4.341   0.333   6.590  0.3220 -0.1598  0.4161
 7279SOL    HW133470   4.323   0.240   6.575  0.7024 -0.0644 -0.6462
 7279SOL    HW233471   4.272   0.337   6.656 -0.4430 -0.8900 -0.3336
 7280SOL     OW33472   4.460   1.798  11.433  0.4882 -0.3293  0.7435
 7280SOL    HW133473   4.388   1.737  11.446  0.7088 -0.6474  0.4689
 7280SOL    HW233474   4.461   1.812  11.339  1.8617 -0.6210  0.7037
 7281SOL     OW33475   3.651   4.101   7.750  0.2976  0.3900  0.5526
 7281SOL    HW133476   3.661   4.053   7.667 -3.1140  0.6524 -0.0093
 7281SOL    HW233477   3.715   4.052   7.801 -0.2856 -0.3804  0.5556
 7282SOL     OW33478   4.171   0.052   9.202 -0.0233 -0.1497  0.4529
 7282SOL    HW133479   4.245   0.098   9.162 -1.6721  0.8981 -1.3441
 7282SOL    HW233480   4.123   0.010   9.131  0.9852  0.0126 -0.3359
 7283SOL     OW33481   3.760   3.302   9.700  0.2058 -0.3355 -0.5519
 7283SOL    HW133482   3.835   3.310   9.641  1.3043 -1.9618  0.6294
 7283SOL    HW233483   3.698   3.254   9.644  0.6104  3.0842 -3.9217
 7284SOL     OW33484   2.531   0.535   6.233 -0.1102  0.3713 -0.0749
 7284SOL    HW133485   2.616   0.506   6.201 -0.2116 -1.3599  1.2532
 7284SOL    HW233486   2.544   0.529   6.327 -0.8718 -0.6630 -0.0318
 7285SOL     OW33487   0.110   4.123   4.758  0.5761 -0.1439 -0.2150
 7285SOL    HW133488   0.135   4.032   4.775  1.5064  0.3914  1.1944
 7285SOL    HW233489   0.105   4.158   4.847  0.4859  2.0631 -1.0818
 7286SOL     OW33490   1.171   3.259   8.707 -0.0487  0.0259  0.2739
 7286SOL    HW133491   1.195   3.351   8.699  2.0078 -0.7197 -2.1468
 7286SOL    HW233492   1.246   3.218   8.751  0.2690  0.9900  0.6401
 7287SOL     OW33493   2.340   2.180   4.801  0.4016  0.4218 -0.0618
 7287SOL    HW133494   2.396   2.108   4.771  2.2059  1.7230  0.2275
 7287SOL    HW233495   2.411   2.243   4.810  0.5124  0.3634 -0.5232
 7288SOL     OW33496   2.479   4.383  13.770  0.0835 -0.0146 -1.3830
 7288SOL    HW133497   2.448   4.429  13.692  1.7489  1.3303 -1.2721
 7288SOL    HW233498   2.458   4.290  13.758 -0.8565 -0.0327  0.4038
 7289SOL     OW33499   0.052   0.835   7.542 -0.0661  0.4944 -0.3505
 7289SOL    HW133500   0.005   0.843   7.459 -0.4693 -2.6658 -0.4411
 7289SOL    HW233501   0.052   0.743   7.567 -1.1545 -0.0787 -2.4175
 7290SOL     OW33502   2.326   3.489   1.788  0.6746  0.1023 -0.2815
 7290SOL    HW133503   2.390   3.532   1.845  2.9957 -1.9250 -1.3370
 7290SOL    HW233504   2.248   3.484   1.844  0.9541 -0.0685  0.0910
 7291SOL     OW33505   2.699   0.358   2.072  0.0475  0.3553  0.1724
 7291SOL    HW133506   2.753   0.321   2.002 -1.3884 -2.2140  0.4040
 7291SOL    HW233507   2.676   0.282   2.126  2.6596  1.6192  3.0560
 7292SOL     OW33508   3.193   0.414   4.125  0.1136  0.0917  0.7178
 7292SOL    HW133509   3.258   0.436   4.192  0.5871  1.9746 -0.3608
 7292SOL    HW233510   3.116   0.467   4.144  0.0518 -0.0660  0.9066
 7293SOL     OW33511   0.491   1.808   7.426 -0.4882  0.0689  0.3012
 7293SOL    HW133512   0.502   1.748   7.352  2.0652  1.1270 -0.1817
 7293SOL    HW233513   0.419   1.863   7.394  1.0000 -0.4160 -3.8739
 7294SOL     OW33514   1.237   2.906   3.730  0.2713 -0.1535 -0.2239
 7294SOL    HW133515   1.215   2.839   3.794  1.9949 -3.8226 -3.5108
 7294SOL    HW233516   1.332   2.914   3.733  0.2479 -0.4299  1.3577
 7295SOL     OW33517   4.583   3.712   3.553 -0.5283 -0.2385  0.4833
 7295SOL    HW133518   4.589   3.762   3.471 -0.3621 -2.6866 -0.9846
 7295SOL    HW233519   4.667   3.727   3.598 -1.9712 -1.4908  3.5380
 7296SOL     OW33520   2.429   3.000   9.107 -0.0874  1.0367  0.1922
 7296SOL    HW133521   2.509   2.984   9.157 -0.4596 -0.6440  0.2342
 7296SOL    HW233522   2.469   2.992   9.021 -1.0797  0.1401 -0.1875
 7297SOL     OW33523   4.259   3.336   6.878  0.0777  0.0821  0.0255
 7297SOL    HW133524   4.182   3.296   6.918  0.6543 -0.0374  1.0005
 7297SOL    HW233525   4.232   3.427   6.890  2.2251  0.6928  0.2111
 7298SOL     OW33526   3.580   1.533   4.836 -0.2436 -0.5029 -0.0584
 7298SOL    HW133527   3.555   1.468   4.771 -2.9367  0.8458 -0.3797
 7298SOL    HW233528   3.624   1.475   4.898  3.0313  1.6186 -0.4053
 7299SOL     OW33529   2.363   2.095  16.065 -0.4147  0.3556 -0.3105
 7299SOL    HW133530   2.362   2.098  16.160  0.7802 -2.4006 -0.2136
 7299SOL    HW233531   2.457   2.086  16.049  0.2056  2.3674  2.1974
 7300SOL     OW33532   3.881   3.010   6.767  0.6357 -0.1828 -0.6368
 7300SOL    HW133533   3.961   3.027   6.816 -0.0776  1.2016  0.0361
 7300SOL    HW233534   3.813   2.997   6.833 -1.2998 -3.0794 -3.1843
 7301SOL     OW33535   3.950   4.501   7.323 -0.2422 -0.3504  0.1021
 7301SOL    HW133536   3.996   4.418   7.341  0.0748 -0.6291 -2.0382
 7301SOL    HW233537   4.007   4.566   7.364  0.4844 -1.0213  0.1565
 7302SOL     OW33538   1.084   2.073   7.792  0.1593  0.9407  0.1032
 7302SOL    HW133539   1.096   2.086   7.698  1.5203  1.7304  0.3786
 7302SOL    HW233540   0.990   2.061   7.801  0.4264 -1.2308 -0.0810
 7303SOL     OW33541   4.470   0.206   3.566  0.3995 -0.1871 -0.2676
 7303SOL    HW133542   4.390   0.242   3.528 -0.1430  0.7633  1.7837
 7303SOL    HW233543   4.443   0.114   3.565 -0.2663 -0.0111  1.4811
 7304SOL     OW33544   3.658   0.205   2.430  0.1334 -0.3462 -0.1590
 7304SOL    HW133545   3.574   0.181   2.391 -1.4253  1.4606  2.0784
 7304SOL    HW233546   3.634   0.288   2.471  0.3859 -1.3707  2.0890
 7305SOL     OW33547   3.639   4.522   5.649 -0.1108  0.5445 -0.0085
 7305SOL    HW133548   3.706   4.455   5.664 -0.0417 -0.0845 -3.1814
 7305SOL    HW233549   3.598   4.482   5.572  1.0435  2.1337 -1.4408
 7306SOL     OW33550   1.952   2.919   5.969 -0.1378 -0.1404  0.3829
 7306SOL    HW133551   1.978   2.840   5.920  3.9760  0.6725  1.2448
 7306SOL    HW233552   2.034   2.969   5.961 -1.5518  2.0461 -0.5035
 7307SOL     OW33553   4.428   3.506   1.550 -0.2348  0.2397 -0.6972
 7307SOL    HW133554   4.388   3.556   1.622 -2.0123 -2.8572  0.4399
 7307SOL    HW233555   4.455   3.585   1.502  0.7338  0.5528  0.3524
 7308SOL     OW33556   2.589   4.206   1.404 -0.3255 -0.4158 -0.1938
 7308SOL    HW133557   2.607   4.122   1.445  1.4175  1.0189  2.0053
 7308SOL    HW233558   2.500   4.234   1.427 -0.8249 -2.1543 -0.0346
 7309SOL     OW33559   3.533   3.293  13.173  0.0966  0.4592 -0.8647
 7309SOL    HW133560   3.484   3.352  13.230  1.3549  1.8339 -1.2336
 7309SOL    HW233561   3.521   3.208  13.217  2.8087  0.9813  0.8475
 7310SOL     OW33562   4.332   0.976   2.912  0.1834 -0.5930  0.3069
 7310SOL    HW133563   4.273   0.994   2.839 -0.0755  1.5229  1.0474
 7310SOL    HW233564   4.415   0.966   2.866  0.2550 -0.2650  0.3667
 7311SOL     OW33565   2.206   4.721   2.312 -0.0112  0.0509 -0.3004
 7311SOL    HW133566   2.282   4.672   2.343 -0.5352 -0.7804 -0.3202
 7311SOL    HW233567   2.135   4.709   2.375 -0.9471 -0.6179 -1.4566
 7312SOL     OW33568   1.704   2.093  15.494  0.4803  0.2600 -0.2038
 7312SOL    HW133569   1.758   2.149  15.438 -1.7087  1.2670 -1.3315
 7312SOL    HW233570   1.655   2.148  15.556  0.2165 -0.8425  0.5646
 7313SOL     OW33571   1.851   2.894   7.661 -0.2246  0.4565 -0.0811
 7313SOL    HW133572   1.836   2.838   7.737 -1.3764 -0.0769 -0.7153
 7313SOL    HW233573   1.869   2.831   7.592  0.4900 -0.4449  0.9257
 7314SOL     OW33574   1.132   4.624  13.027  0.1280  0.4836 -0.5769
 7314SOL    HW133575   1.066   4.558  13.047  0.2196  0.6690  0.3864
 7314SOL    HW233576   1.142   4.605  12.934  0.4110 -1.2112 -0.1856
 7315SOL     OW33577   2.101   3.196   6.294  0.1332  0.4828 -0.8853
 7315SOL    HW133578   2.061   3.202   6.381 -0.1488  2.5202 -1.1537
 7315SOL    HW233579   2.030   3.226   6.238 -2.0580 -2.4004  0.3368
 7316SOL     OW33580   1.957   3.154  12.783  0.0487  0.3187  0.0834
 7316SOL    HW133581   1.884   3.215  12.788  1.0889  1.5629  0.1295
 7316SOL    HW233582   2.009   3.183  12.708  0.4462 -0.0856  0.1985
 7317SOL     OW33583   2.856   1.540  11.897  0.4156  0.0721 -0.6814
 7317SOL    HW133584   2.865   1.633  11.916 -2.5954  0.4873 -1.3223
 7317SOL    HW233585   2.912   1.500  11.963  0.5983  1.1504 -0.1830
 7318SOL     OW33586   4.721   1.554  10.078 -0.0280 -0.1301 -0.2372
 7318SOL    HW133587   4.664   1.610  10.132  1.7563  1.3145  0.1480
 7318SOL    HW233588   4.671   1.544   9.997 -0.2416  0.2155 -0.1536
 7319SOL     OW33589   0.870   0.789   3.540  0.3892 -0.1298 -0.0674
 7319SOL    HW133590   0.853   0.703   3.577 -0.4349 -0.1172 -0.4160
 7319SOL    HW233591   0.885   0.849   3.613 -0.5984  1.8668 -1.5068
 7320SOL     OW33592   4.515   2.051  11.542  0.4866 -0.1440 -0.0671
 7320SOL    HW133593   4.446   2.101  11.497  0.8109  1.2150  0.9609
 7320SOL    HW233594   4.495   1.959  11.526  3.4461 -1.1324  2.0456
 7321SOL     OW33595   3.405   0.397   2.760  0.3801 -0.4731  0.2757
 7321SOL    HW133596   3.334   0.450   2.795 -0.1587 -0.0059 -1.4854
 7321SOL    HW233597   3.369   0.365   2.677 -0.3147  2.5633 -0.5893
 7322SOL     OW33598   2.383   0.739   4.726  0.1946  0.6026 -0.1942
 7322SOL    HW133599   2.297   0.700   4.709  1.5848 -2.1208 -1.0043
 7322SOL    HW233600   2.431   0.656   4.721 -0.0581  0.3336  2.1171
 7323SOL     OW33601   1.608   2.979   1.727 -0.3782  0.2014  0.1374
 7323SOL    HW133602   1.647   2.923   1.660 -2.9681 -0.3872 -0.8582
 7323SOL    HW233603   1.596   2.907   1.789  0.4563 -0.8023 -0.8669
 7324SOL     OW33604   1.255   0.487   7.752  0.1305 -0.0619 -0.8789
 7324SOL    HW133605   1.260   0.514   7.660  0.4006 -1.2090 -1.1906
 7324SOL    HW233606   1.323   0.421   7.757  0.9893  1.1076  2.6726
 7325SOL     OW33607   2.690   1.797  12.241  0.2965 -0.0224 -0.3496
 7325SOL    HW133608   2.696   1.842  12.157  1.9355  0.9333  0.2773
 7325SOL    HW233609   2.701   1.702  12.232 -1.2697 -0.0757 -1.6893
 7326SOL     OW33610   3.140   1.458   1.771 -0.0970 -0.9428 -0.4997
 7326SOL    HW133611   3.113   1.446   1.862  2.0019  0.8479  0.3503
 7326SOL    HW233612   3.085   1.394   1.725  0.3992 -0.8263 -1.2520
 7327SOL     OW33613   0.529   3.141   9.188 -0.2905  0.1927  0.3998
 7327SOL    HW133614   0.441   3.105   9.176 -1.0295  1.9933  0.4154
 7327SOL    HW233615   0.570   3.069   9.236  1.5304  1.6762  1.0357
 7328SOL     OW33616   4.171   2.255  14.505  0.4052  0.0816 -0.4493
 7328SOL    HW133617   4.139   2.345  14.513 -1.2598 -0.6704  1.4097
 7328SOL    HW233618   4.203   2.229  14.591  0.2684  2.3151  0.2748
 7329SOL     OW33619   3.141   3.570   0.900  0.1425 -0.0252 -0.3045
 7329SOL    HW133620   3.089   3.532   0.829 -0.0433 -1.7421  0.7489
 7329SOL    HW233621   3.106   3.531   0.980  0.2436  2.2582  0.8377
 7330SOL     OW33622   2.477   0.020   6.686 -0.2399 -0.0523 -0.5038
 7330SOL    HW133623   2.505   4.739   6.597  0.8029 -1.6079  0.1878
 7330SOL    HW233624   2.408   4.695   6.699  0.1091  0.0703  1.8375
 7331SOL     OW33625   2.659   0.285   8.059  0.3566 -0.3991 -0.0132
 7331SOL    HW133626   2.583   0.229   8.077 -0.2723  0.0576 -1.1720
 7331SOL    HW233627   2.723   0.229   8.015 -0.3674 -1.8446  0.7640
 7332SOL     OW33628   2.196   2.736   4.224  0.3842  0.1294 -0.8809
 7332SOL    HW133629   2.151   2.712   4.305  0.9094  0.0109 -0.6268
 7332SOL    HW233630   2.173   2.828   4.208 -1.1361  0.1153  1.1724
 7333SOL     OW33631   3.946   4.475   7.044  0.4921 -0.6137  0.3958
 7333SOL    HW133632   3.949   4.481   7.140  1.5404 -2.5150  0.4957
 7333SOL    HW233633   3.853   4.454   7.039  0.7428 -2.0967  1.7638
 7334SOL     OW33634   2.781   1.774   7.653  0.2037  0.0496  0.5709
 7334SOL    HW133635   2.867   1.769   7.611 -0.3197 -0.5440 -0.4395
 7334SOL    HW233636   2.769   1.869   7.653 -1.2106 -0.1435 -1.4042
 7335SOL     OW33637   2.244   3.253   3.926  0.2385 -0.5083 -0.0146
 7335SOL    HW133638   2.198   3.248   3.842  1.5218  0.9736 -0.8012
 7335SOL    HW233639   2.244   3.348   3.936 -0.6505 -0.5719  0.5609
 7336SOL     OW33640   1.927   4.240  16.724 -0.2977  0.5420  0.6527
 7336SOL    HW133641   1.925   4.295  16.646 -0.0923 -0.2881  0.0687
 7336SOL    HW233642   1.999   4.280  16.772  2.3204 -0.5113 -2.3934
 7337SOL     OW33643   1.831   2.647   4.007  0.2854  0.5225  0.1602
 7337SOL    HW133644   1.773   2.580   3.969  0.0382 -0.8885  3.0364
 7337SOL    HW233645   1.922   2.619   3.998  0.2569  0.2384  0.7556
 7338SOL     OW33646   3.709   2.152   2.456 -0.6213  0.5711 -0.1009
 7338SOL    HW133647   3.636   2.171   2.515 -3.7599 -1.6257 -3.2603
 7338SOL    HW233648   3.649   2.115   2.392  2.1019 -2.5403 -0.8648
 7339SOL     OW33649   0.727   0.921   0.451 -0.2954  0.1423  0.4995
 7339SOL    HW133650   0.712   0.879   0.535 -0.6980  2.6235  1.6695
 7339SOL    HW233651   0.813   0.889   0.426  0.1295  0.7381  1.2254
 7340SOL     OW33652   3.408   0.922   3.033  0.2204 -0.5009 -0.0765
 7340SOL    HW133653   3.381   0.886   3.118  0.0202 -0.5160 -0.1459
 7340SOL    HW233654   3.322   0.941   2.996  0.0131 -1.2539  0.0085
 7341SOL     OW33655   2.635   2.703  10.232 -0.2481  0.4546  0.3019
 7341SOL    HW133656   2.648   2.623  10.283  0.0870 -0.7680 -1.7209
 7341SOL    HW233657   2.611   2.766  10.300 -1.2375  0.5119 -0.0922
 7342SOL     OW33658   3.470   2.405   9.809  0.3115 -0.2488 -0.5435
 7342SOL    HW133659   3.448   2.475   9.871 -1.0137 -1.1232 -0.0370
 7342SOL    HW233660   3.423   2.334   9.853  0.3369  0.5731  0.7900
 7343SOL     OW33661   2.805   1.153   5.143  0.5719 -0.2160 -0.0974
 7343SOL    HW133662   2.730   1.096   5.128 -0.0765  0.6120 -0.0063
 7343SOL    HW233663   2.795   1.197   5.059 -0.8315 -1.1314 -0.4156
 7344SOL     OW33664   1.620   0.229   2.430  0.4245  0.1886  0.2132
 7344SOL    HW133665   1.624   0.153   2.487 -0.5580 -1.0019 -1.3253
 7344SOL    HW233666   1.554   0.193   2.372  1.6818 -1.2248 -0.3110
 7345SOL     OW33667   1.126   1.951  11.508 -0.2148 -0.7046 -0.0566
 7345SOL    HW133668   1.032   1.951  11.527 -0.2322  0.9523 -0.1488
 7345SOL    HW233669   1.125   1.899  11.427 -0.5527 -0.3843 -0.2616
 7346SOL     OW33670   1.528   0.129   7.313 -0.1630  0.5236 -0.0837
 7346SOL    HW133671   1.508   0.209   7.361 -0.3445  0.7751 -0.5726
 7346SOL    HW233672   1.464   0.061   7.332  1.1904 -1.8210 -3.8021
 7347SOL     OW33673   0.357   0.380   4.419  0.1996  0.5811  0.0954
 7347SOL    HW133674   0.280   0.347   4.466 -0.4788 -0.9204 -2.0619
 7347SOL    HW233675   0.313   0.438   4.357  3.2429  1.5909 -1.1061
 7348SOL     OW33676   2.204   4.146  17.641 -0.0916  0.4107 -0.0873
 7348SOL    HW133677   2.192   4.240  17.653  0.9066  0.3589  1.2987
 7348SOL    HW233678   2.120   4.127  17.600  0.2978 -0.4000 -0.5068
 7349SOL     OW33679   0.150   0.995   3.109 -0.2041  0.2435 -0.4864
 7349SOL    HW133680   0.208   0.923   3.135  0.7319  0.8862 -0.8092
 7349SOL    HW233681   0.068   0.948   3.100 -0.0607 -0.1558  0.2312
 7350SOL     OW33682   3.467   4.083   7.453 -0.4353  0.4411 -0.8868
 7350SOL    HW133683   3.534   4.034   7.501 -2.3819  0.7881  2.1700
 7350SOL    HW233684   3.482   4.165   7.500 -1.3072  0.9100 -1.4317
 7351SOL     OW33685   4.346   2.096  13.890  0.1382  0.8263 -0.1645
 7351SOL    HW133686   4.440   2.110  13.899 -0.1334  1.3498  1.9044
 7351SOL    HW233687   4.337   2.038  13.966  0.5923 -1.3661 -1.8032
 7352SOL     OW33688   0.449   4.194  14.205 -0.3086  0.2976 -1.1534
 7352SOL    HW133689   0.439   4.120  14.146  0.6026  0.3081 -1.3185
 7352SOL    HW233690   0.533   4.174  14.245 -1.3554  0.1323  0.9782
 7353SOL     OW33691   0.849   2.797   3.093  0.2485 -0.2854 -0.1159
 7353SOL    HW133692   0.851   2.879   3.044  3.0764 -0.4108 -0.2340
 7353SOL    HW233693   0.894   2.822   3.174  1.0986 -2.0329 -0.0497
 7354SOL     OW33694   2.997   4.059   3.569 -0.5095  0.1246  0.6346
 7354SOL    HW133695   3.004   4.024   3.657 -0.0368  0.6852  0.8266
 7354SOL    HW233696   3.008   3.981   3.514  0.7532  1.5255 -1.1296
 7355SOL     OW33697   0.734   4.650   5.364  0.1038 -0.3663  0.4045
 7355SOL    HW133698   0.763   4.605   5.285 -2.4769 -0.0783 -0.7183
 7355SOL    HW233699   0.739   4.575   5.423 -1.3958 -0.8080 -0.0100
 7356SOL     OW33700   1.184   2.667  11.524  0.3519 -0.2153 -0.1483
 7356SOL    HW133701   1.245   2.686  11.452  2.0731 -1.5739  0.9484
 7356SOL    HW233702   1.195   2.572  11.530 -0.4569 -0.3239 -0.3469
 7357SOL     OW33703   0.897   4.086   4.926  0.0306 -0.0046 -0.1261
 7357SOL    HW133704   0.927   3.996   4.913  0.6380  0.1639  0.1449
 7357SOL    HW233705   0.970   4.112   4.981  1.2659  0.4512 -1.9682
 7358SOL     OW33706   0.051   2.918   5.457 -0.2177 -0.0575 -0.0407
 7358SOL    HW133707   0.051   2.945   5.549  0.7777 -1.8836  0.5031
 7358SOL    HW233708   0.126   2.960   5.416 -1.0373  0.1469 -1.3235
 7359SOL     OW33709   2.238   4.691   8.222 -0.7020  0.3854  0.4228
 7359SOL    HW133710   2.227   4.667   8.130 -0.3615 -2.2626  1.0813
 7359SOL    HW233711   2.201   4.613   8.264  2.0971 -2.5434 -2.5406
 7360SOL     OW33712   3.791   1.149   7.476 -0.5358  0.2689 -0.0886
 7360SOL    HW133713   3.876   1.113   7.454 -0.7066  0.2690 -0.7471
 7360SOL    HW233714   3.734   1.075   7.457 -0.1591 -0.0808  0.1508
 7361SOL     OW33715   1.895   4.468   3.782  0.1325 -0.2938 -0.0225
 7361SOL    HW133716   1.852   4.412   3.847 -0.8142 -0.7644 -1.0477
 7361SOL    HW233717   1.976   4.480   3.830 -0.9860 -0.2516  1.8488
 7362SOL     OW33718   0.856   1.746   4.192  0.4366  0.1945  0.3322
 7362SOL    HW133719   0.802   1.738   4.114 -1.8360  1.2383  1.8290
 7362SOL    HW233720   0.806   1.808   4.245 -1.7343 -0.0327 -1.4712
 7363SOL     OW33721   0.910   1.311  13.835  0.3433 -0.2265  0.3981
 7363SOL    HW133722   0.924   1.234  13.889 -1.3313 -0.4426  0.5258
 7363SOL    HW233723   0.870   1.366  13.902  0.3785  0.2320  0.0465
 7364SOL     OW33724   2.947   4.100  15.704  0.1221 -0.7798 -0.2211
 7364SOL    HW133725   3.019   4.060  15.654 -0.4688 -1.3573 -0.6106
 7364SOL    HW233726   2.914   4.163  15.640 -0.0402 -1.1152 -0.4682
 7365SOL     OW33727   3.975   2.315   2.246  0.0109  0.2344  0.1467
 7365SOL    HW133728   3.964   2.328   2.340  0.3784  1.0747  0.0735
 7365SOL    HW233729   3.946   2.399   2.209 -2.2250 -0.7203 -0.2601
 7366SOL     OW33730   3.067   4.192   5.838  1.0596 -0.0462  0.1023
 7366SOL    HW133731   3.011   4.263   5.807  0.7129 -1.0403 -1.5519
 7366SOL    HW233732   3.129   4.233   5.898  0.6018  0.9181 -0.0952
 7367SOL     OW33733   0.513   0.905   9.504 -0.4682  0.3472  0.2782
 7367SOL    HW133734   0.459   0.859   9.568  0.6978  0.4593  1.3539
 7367SOL    HW233735   0.468   0.896   9.420 -0.9427 -0.5111  0.6202
 7368SOL     OW33736   4.022   3.566  15.971  0.8225 -0.5609 -0.2295
 7368SOL    HW133737   4.005   3.587  16.063  0.7756  0.9479 -0.5781
 7368SOL    HW233738   4.114   3.539  15.979  1.3606  1.6265  1.0794
 7369SOL     OW33739   0.564   2.220   1.716 -0.4436 -0.1181  0.0882
 7369SOL    HW133740   0.475   2.214   1.681  0.4470 -0.0940 -2.2102
 7369SOL    HW233741   0.567   2.138   1.763 -0.3215  0.9296  1.8991
 7370SOL     OW33742   4.677   4.099   8.614  0.0165  0.0966 -0.0545
 7370SOL    HW133743   4.649   4.066   8.529 -0.6713  0.4540  0.0393
 7370SOL    HW233744   4.597   4.120   8.662 -0.8779 -1.5888 -0.7964
 7371SOL     OW33745   2.275   4.318   6.391  0.6028  0.3569  0.3246
 7371SOL    HW133746   2.181   4.329   6.382  0.7066 -0.2711 -1.6101
 7371SOL    HW233747   2.294   4.407   6.421  1.6730 -0.1388  1.1041
 7372SOL     OW33748   3.517   2.277  15.301  0.5166  0.8519 -0.1918
 7372SOL    HW133749   3.553   2.197  15.266  2.1959  1.2525  0.6290
 7372SOL    HW233750   3.495   2.326  15.222  0.9936  0.6591 -0.4414
 7373SOL     OW33751   4.671   3.499   9.042  0.3906  0.5345 -0.1213
 7373SOL    HW133752   0.003   3.562   9.051  0.6870  0.8166 -4.4289
 7373SOL    HW233753   4.695   3.468   8.955  1.2312  1.0702 -0.0817
 7374SOL     OW33754   3.218   4.739   6.750 -0.0157 -0.2095 -0.1354
 7374SOL    HW133755   3.293   0.057   6.733 -0.7394  1.0545  0.9717
 7374SOL    HW233756   3.217   4.706   6.660  0.2640 -0.9890  0.1506
 7375SOL     OW33757   2.799   1.802  16.934  0.2973  0.5595  0.9120
 7375SOL    HW133758   2.866   1.794  17.002  0.9104  0.2912  0.2692
 7375SOL    HW233759   2.724   1.784  16.991 -0.1222 -0.1653  0.1238
 7376SOL     OW33760   1.046   2.870  14.258 -0.6577  0.4471  0.2340
 7376SOL    HW133761   1.076   2.918  14.336 -0.0909  0.3365  0.0821
 7376SOL    HW233762   1.123   2.885  14.204 -0.8573 -1.1371 -0.4734
 7377SOL     OW33763   0.431   4.234   6.245 -0.2114  0.3882  0.5311
 7377SOL    HW133764   0.514   4.264   6.207 -0.8863 -0.2487 -1.4394
 7377SOL    HW233765   0.369   4.278   6.187  0.7941  0.8826 -0.1758
 7378SOL     OW33766   0.185   1.472   8.811  0.0950 -0.1415  0.3467
 7378SOL    HW133767   0.257   1.533   8.825  0.7167 -0.8521  0.2469
 7378SOL    HW233768   0.145   1.522   8.739 -0.9387  0.5047  1.3829
 7379SOL     OW33769   3.774   1.494  12.534 -0.1561  0.4170 -0.1049
 7379SOL    HW133770   3.773   1.584  12.501  0.2597 -0.0792 -1.4888
 7379SOL    HW233771   3.750   1.446  12.455  0.1992  0.4789 -0.2504
 7380SOL     OW33772   3.775   0.357   8.157  0.1312  0.8760  0.3803
 7380SOL    HW133773   3.864   0.338   8.128 -0.0291  1.0778 -0.2250
 7380SOL    HW233774   3.779   0.323   8.247  0.7480 -0.7014 -0.2347
 7381SOL     OW33775   2.097   2.512  16.959  0.0315  0.3233  0.0802
 7381SOL    HW133776   2.185   2.547  16.951 -0.0509  0.6993  0.8825
 7381SOL    HW233777   2.063   2.558  16.882 -0.1713  1.6422  0.9493
 7382SOL     OW33778   1.690   0.814  12.291 -0.8862 -0.6154 -1.0486
 7382SOL    HW133779   1.681   0.872  12.367  0.9317 -0.5070 -0.9253
 7382SOL    HW233780   1.605   0.770  12.288 -0.0612 -2.4132  3.7792
 7383SOL     OW33781   3.458   3.331  15.556 -0.2311  0.0654 -0.0543
 7383SOL    HW133782   3.423   3.373  15.478 -1.4257 -0.1881  0.3429
 7383SOL    HW233783   3.456   3.409  15.610  0.3599 -1.3698  2.0647
 7384SOL     OW33784   2.275   0.314   3.232 -0.8572 -0.1874 -0.2597
 7384SOL    HW133785   2.251   0.258   3.158 -2.6554  0.4784 -0.2043
 7384SOL    HW233786   2.272   0.245   3.298  0.6240 -0.6614 -0.6902
 7385SOL     OW33787   0.633   2.395   6.144  0.5699 -0.2564 -0.4814
 7385SOL    HW133788   0.697   2.327   6.164  0.8074  0.1419  0.1370
 7385SOL    HW233789   0.598   2.407   6.232  0.0716 -0.3442 -0.6718
 7386SOL     OW33790   3.547   0.502  11.719 -0.3973 -0.1734  0.1027
 7386SOL    HW133791   3.492   0.578  11.701 -1.7872 -1.0164  0.7925
 7386SOL    HW233792   3.594   0.484  11.638 -1.2096 -1.0406 -0.1836
 7387SOL     OW33793   0.777   1.210   0.822 -0.0221  0.2263 -1.4323
 7387SOL    HW133794   0.849   1.269   0.799 -0.5292  0.9555 -1.1636
 7387SOL    HW233795   0.812   1.121   0.823 -0.8967 -0.0774  3.0287
 7388SOL     OW33796   2.138   4.685   7.284  0.3332  0.1300  0.5836
 7388SOL    HW133797   2.179   4.601   7.264  0.9772  0.6634 -0.3502
 7388SOL    HW233798   2.165   4.735   7.207 -1.7865 -0.8006 -0.7857
 7389SOL     OW33799   3.266   3.415  16.089  0.2882  0.0550 -0.0587
 7389SOL    HW133800   3.233   3.346  16.031 -1.4824 -2.1543  3.5752
 7389SOL    HW233801   3.345   3.378  16.128  0.0875  0.4617  0.7273
 7390SOL     OW33802   2.870   2.186  12.335 -0.3830  0.3306  0.0124
 7390SOL    HW133803   2.881   2.280  12.346 -0.7534  0.5557 -1.5320
 7390SOL    HW233804   2.873   2.164  12.429  4.1179  1.1947  0.0762
 7391SOL     OW33805   0.590   2.735  14.508  0.3700 -0.2729  0.3597
 7391SOL    HW133806   0.547   2.733  14.423  2.9254  0.0249 -0.9251
 7391SOL    HW233807   0.551   2.658  14.551  1.7307 -1.3943 -0.3932
 7392SOL     OW33808   1.342   4.031   8.267 -0.0227  0.7260 -0.5495
 7392SOL    HW133809   1.395   4.110   8.253  0.8932  0.3177  0.6605
 7392SOL    HW233810   1.378   3.969   8.204 -0.2560 -1.0781  1.0948
 7393SOL     OW33811   4.080   3.447   4.826  0.1721  0.0295  0.2733
 7393SOL    HW133812   4.060   3.354   4.831  1.2825 -0.2616 -0.7930
 7393SOL    HW233813   4.106   3.453   4.734 -0.5878  0.1824  0.0683
 7394SOL     OW33814   0.820   3.037   8.588 -0.0217  0.4316  0.0081
 7394SOL    HW133815   0.905   3.016   8.549  1.1407  2.2065  1.5875
 7394SOL    HW233816   0.845   3.107   8.648 -1.2560 -0.7090  1.8277
 7395SOL     OW33817   3.802   2.228   3.082 -0.4096  0.3521  0.6973
 7395SOL    HW133818   3.775   2.210   2.992  0.2391  1.2695  0.3109
 7395SOL    HW233819   3.825   2.137   3.102  0.4594  0.8693  2.0366
 7396SOL     OW33820   3.985   1.573   7.335  0.6929  0.5792  0.2328
 7396SOL    HW133821   4.017   1.606   7.250  2.4214 -1.1817  0.2146
 7396SOL    HW233822   4.038   1.494   7.336  0.9855  0.7701 -0.1909
 7397SOL     OW33823   0.562   2.406   3.570 -0.4789  0.8995  0.6945
 7397SOL    HW133824   0.558   2.358   3.487  1.0749 -1.6818  2.1131
 7397SOL    HW233825   0.483   2.459   3.556 -0.7119 -0.0928 -1.7239
 7398SOL     OW33826   1.439   1.010  15.317 -1.0395  0.3314  0.2372
 7398SOL    HW133827   1.421   0.991  15.225 -0.3673  0.3005  0.1108
 7398SOL    HW233828   1.461   0.921  15.347 -2.0031 -0.3329 -1.0375
 7399SOL     OW33829   0.101   3.815   6.053  0.1365 -0.3783  0.0855
 7399SOL    HW133830   0.161   3.815   5.979  1.8712  3.1043  1.4640
 7399SOL    HW233831   0.071   3.724   6.052  2.0383 -0.9962 -0.8518
 7400SOL     OW33832   4.064   2.230   7.108 -0.4722  0.3962  0.4574
 7400SOL    HW133833   4.007   2.243   7.184 -0.0435  2.4279  0.4390
 7400SOL    HW233834   4.014   2.183   7.042 -0.1053  2.3266 -1.1883
 7401SOL     OW33835   4.384   3.646  16.612  0.3670  0.1327  0.4073
 7401SOL    HW133836   4.383   3.551  16.623 -2.0962  0.1125  0.0850
 7401SOL    HW233837   4.296   3.664  16.580 -0.7364 -1.4498  2.5310
 7402SOL     OW33838   2.046   3.739   5.355  0.0870  0.1910 -0.4056
 7402SOL    HW133839   2.052   3.652   5.395 -0.3899 -0.4367 -1.7065
 7402SOL    HW233840   1.975   3.775   5.408  0.7387  0.3429  0.3802
 7403SOL     OW33841   0.505   3.106   4.517 -0.3784  0.1559 -0.5348
 7403SOL    HW133842   0.454   3.117   4.437 -2.1994 -0.6845  0.4960
 7403SOL    HW233843   0.547   3.192   4.521  0.5512 -0.2576 -1.5230
 7404SOL     OW33844   0.877   0.424  11.623 -0.6022 -0.0234 -0.6001
 7404SOL    HW133845   0.862   0.347  11.569 -1.3655  0.2622 -0.8044
 7404SOL    HW233846   0.965   0.446  11.593 -0.0244 -1.3518  0.1259
 7405SOL     OW33847   1.409   0.795  12.766  0.0039  0.2391 -0.2833
 7405SOL    HW133848   1.366   0.736  12.704 -0.8887  0.9681 -0.3690
 7405SOL    HW233849   1.400   0.739  12.843 -2.2226  0.5816 -0.2799
 7406SOL     OW33850   3.086   0.641  11.233  0.0728  0.1042  0.3482
 7406SOL    HW133851   3.066   0.734  11.224  1.4740  0.4123  0.4224
 7406SOL    HW233852   3.000   0.601  11.219 -0.2880  0.5031  1.4312
 7407SOL     OW33853   1.875   2.246   6.845 -0.3301 -0.5533  0.3900
 7407SOL    HW133854   1.824   2.281   6.917  1.2914  0.2606  1.1393
 7407SOL    HW233855   1.964   2.255   6.880  0.2198 -0.5038 -1.0175
 7408SOL     OW33856   1.060   3.170   7.661 -0.1406 -0.1849 -0.1553
 7408SOL    HW133857   1.154   3.158   7.651 -0.5244 -4.1240  1.0757
 7408SOL    HW233858   1.065   3.201   7.751 -3.8391 -1.7556  0.5982
 7409SOL     OW33859   1.724   0.535   2.645  0.2234 -0.7081 -0.3641
 7409SOL    HW133860   1.658   0.492   2.699 -1.3679  1.2132 -0.7575
 7409SOL    HW233861   1.761   0.457   2.603  1.1608 -1.3236  1.5921
 7410SOL     OW33862   0.981   4.008  14.821 -0.0126 -0.0366  0.3107
 7410SOL    HW133863   0.887   4.025  14.820 -0.2529 -1.4245 -2.1253
 7410SOL    HW233864   0.992   3.992  14.915  0.0211  1.4781  0.5652
 7411SOL     OW33865   3.920   2.800   4.201 -0.2098 -0.0538 -0.4245
 7411SOL    HW133866   3.854   2.771   4.139 -0.4006  0.3463 -0.4125
 7411SOL    HW233867   3.959   2.721   4.238  0.9612  0.1316 -1.2583
 7412SOL     OW33868   0.278   4.533   1.353  0.2581  0.7784 -0.1958
 7412SOL    HW133869   0.288   4.483   1.434  0.0825 -0.8727 -1.2109
 7412SOL    HW233870   0.189   4.565   1.368  0.2056 -0.1124  1.3343
 7413SOL     OW33871   3.509   3.063   1.330 -0.2640 -0.1083 -0.5850
 7413SOL    HW133872   3.464   2.988   1.290  0.0926 -0.9192  0.5475
 7413SOL    HW233873   3.594   3.067   1.286 -0.9174 -2.0482 -2.0368
 7414SOL     OW33874   4.002   4.290   5.219  0.0772 -0.0602 -0.1819
 7414SOL    HW133875   4.054   4.247   5.150 -0.6458 -0.9454 -0.1848
 7414SOL    HW233876   3.955   4.358   5.171  0.3670  0.6950  0.6148
 7415SOL     OW33877   0.864   0.309   5.486 -0.5070 -0.4587  0.7185
 7415SOL    HW133878   0.920   0.234   5.468 -0.4470 -0.0935 -0.6177
 7415SOL    HW233879   0.899   0.336   5.570  2.3834  0.8013 -0.9256
 7416SOL     OW33880   1.154   3.785  17.690  1.0593  0.0697  0.2833
 7416SOL    HW133881   1.246   3.813  17.683  0.4996  2.2318  1.6113
 7416SOL    HW233882   1.149   3.692  17.668  0.4365  0.0841  0.3606
 7417SOL     OW33883   0.399   1.728   9.071 -0.0027  0.0845 -0.7646
 7417SOL    HW133884   0.328   1.738   9.133  1.5575 -1.7700  1.3070
 7417SOL    HW233885   0.421   1.638   9.098  1.7118  0.4194 -1.0107
 7418SOL     OW33886   0.756   0.863  11.702  0.2768 -0.1750 -0.2744
 7418SOL    HW133887   0.731   0.776  11.730  1.7053 -1.0060 -1.5752
 7418SOL    HW233888   0.798   0.848  11.617 -0.2845  1.7715 -0.9132
 7419SOL     OW33889   1.435   3.510   6.362  0.6947  0.0061 -0.6412
 7419SOL    HW133890   1.429   3.602   6.335 -2.5321 -0.1264 -0.3627
 7419SOL    HW233891   1.512   3.481   6.314  0.6767  1.0872 -1.3166
 7420SOL     OW33892   0.121   1.400   4.798  0.2100 -0.6050 -0.9133
 7420SOL    HW133893   0.200   1.407   4.852  0.0088 -1.5601 -0.4974
 7420SOL    HW233894   0.078   1.336   4.853 -0.7478  1.7577  1.0855
 7421SOL     OW33895   2.726   0.976   1.893 -0.2394  0.6648 -0.1615
 7421SOL    HW133896   2.818   0.972   1.918 -0.4697 -2.1011  0.2483
 7421SOL    HW233897   2.745   1.001   1.803 -1.6368  1.4415 -0.2379
 7422SOL     OW33898   1.543   0.707   3.120  0.5487  0.2324 -0.1924
 7422SOL    HW133899   1.564   0.615   3.134 -1.8049 -0.2598  0.2150
 7422SOL    HW233900   1.593   0.751   3.189 -1.2347  1.0938  0.5738
 7423SOL     OW33901   2.037   1.249   7.376 -0.4945 -0.0197  0.0911
 7423SOL    HW133902   2.131   1.233   7.365  0.1427  3.5867  0.4573
 7423SOL    HW233903   2.043   1.262   7.471  0.3417 -0.2428  0.0647
 7424SOL     OW33904   4.124   3.516  13.886  0.1751 -0.4460  0.1500
 7424SOL    HW133905   4.082   3.453  13.945  2.0616  1.9834  4.1078
 7424SOL    HW233906   4.201   3.473  13.850  1.3473  2.3884 -0.6692
 7425SOL     OW33907   1.997   1.885  16.922  0.7932  1.1016  0.9920
 7425SOL    HW133908   1.939   1.809  16.922  0.2182  1.5718 -1.4670
 7425SOL    HW233909   2.065   1.871  16.989 -1.0745 -2.1772  2.2025
 7426SOL     OW33910   3.824   1.890   8.764  0.3305 -0.0687  0.5628
 7426SOL    HW133911   3.818   1.801   8.799 -2.2437  0.0930  0.5796
 7426SOL    HW233912   3.743   1.932   8.796 -0.2668  0.1512 -1.2771
 7427SOL     OW33913   3.174   3.634   4.902 -0.7305  0.1535  0.0529
 7427SOL    HW133914   3.142   3.701   4.842  2.4242  1.1517 -0.5234
 7427SOL    HW233915   3.110   3.568   4.876 -1.2096 -0.0567  1.7608
 7428SOL     OW33916   2.194   4.693   4.725 -0.3448  0.2518  0.7342
 7428SOL    HW133917   2.180   4.613   4.775  1.5471 -0.1480  0.6427
 7428SOL    HW233918   2.105   4.713   4.696 -0.2163  2.1670  1.6860
 7429SOL     OW33919   3.343   0.684   2.842 -0.0608 -0.6753  0.1856
 7429SOL    HW133920   3.338   0.749   2.772 -0.5104 -1.1019 -0.1828
 7429SOL    HW233921   3.437   0.692   2.855 -0.2869  0.0876  1.3216
 7430SOL     OW33922   0.684   1.808  11.960  0.4036 -0.1510  0.5778
 7430SOL    HW133923   0.769   1.765  11.955  0.8686  0.9290 -0.7699
 7430SOL    HW233924   0.707   1.877  12.023 -1.0620  0.7746  0.0941
 7431SOL     OW33925   2.508   4.352  10.132 -0.1933  0.1846 -0.2194
 7431SOL    HW133926   2.504   4.257  10.119  0.1262  0.3184 -1.3149
 7431SOL    HW233927   2.598   4.366  10.104 -0.7031 -2.7821 -3.3462
 7432SOL     OW33928   1.287   0.624  16.096 -0.1807 -0.2835  0.2012
 7432SOL    HW133929   1.355   0.689  16.115 -1.9484  1.7387 -0.4272
 7432SOL    HW233930   1.251   0.657  16.014 -1.5342 -1.3794  0.3692
 7433SOL     OW33931   0.088   3.403  13.362 -0.0511  0.0073 -0.5066
 7433SOL    HW133932   0.140   3.372  13.288  0.9653  1.9467 -0.6033
 7433SOL    HW233933   0.126   3.491  13.358 -0.1779  0.0947  0.1727
 7434SOL     OW33934   0.148   1.677   5.955 -0.0160 -0.0810 -0.2836
 7434SOL    HW133935   0.106   1.728   6.025  2.0705  0.5520  0.5162
 7434SOL    HW233936   0.238   1.711   5.962  0.6212 -2.2305  2.0258
 7435SOL     OW33937   2.085   0.171   5.269 -0.0253 -0.2729  0.0924
 7435SOL    HW133938   2.093   0.116   5.190  1.0650 -0.2292  0.1701
 7435SOL    HW233939   2.178   0.179   5.290 -0.6860  0.5089  2.6554
 7436SOL     OW33940   2.292   3.214  14.397 -0.1274  0.0396 -0.1606
 7436SOL    HW133941   2.225   3.155  14.430 -0.9321  0.6870 -0.6246
 7436SOL    HW233942   2.249   3.285  14.348  0.4139  1.7512  1.8356
 7437SOL     OW33943   1.352   2.519  14.720 -0.4741  0.5610  0.6525
 7437SOL    HW133944   1.332   2.546  14.630 -1.5878 -0.4250  0.6100
 7437SOL    HW233945   1.416   2.451  14.700 -0.6783  0.3487  0.7285
 7438SOL     OW33946   4.004   0.383   9.581 -0.2944 -0.6029  0.2012
 7438SOL    HW133947   4.066   0.312   9.566 -0.8231 -1.1184  0.4722
 7438SOL    HW233948   3.934   0.321   9.601  0.4803 -1.5052  0.1016
 7439SOL     OW33949   0.643   0.437  11.985  0.7262  0.3709  0.2248
 7439SOL    HW133950   0.566   0.382  11.999  2.7568 -2.7161 -0.8741
 7439SOL    HW233951   0.694   0.416  12.063 -0.2784  0.7724  0.9925
 7440SOL     OW33952   0.701   2.184   6.740  0.2738  0.1672 -0.7923
 7440SOL    HW133953   0.642   2.125   6.786  2.5665 -0.0658  1.8270
 7440SOL    HW233954   0.646   2.219   6.670  0.8854  1.8699 -0.4330
 7441SOL     OW33955   2.384   1.127   9.462 -1.1378 -1.0771 -0.0691
 7441SOL    HW133956   2.378   1.134   9.558 -0.0480 -0.9981 -0.0124
 7441SOL    HW233957   2.440   1.051   9.449  0.9135  0.4636 -0.0999
 7442SOL     OW33958   1.543   2.334   7.795 -0.1262  0.6234 -0.6413
 7442SOL    HW133959   1.629   2.371   7.812  0.8990 -2.1878  0.3258
 7442SOL    HW233960   1.561   2.261   7.735 -4.0908  0.0676 -1.1410
 7443SOL     OW33961   1.007   4.025   1.549 -0.0463  0.1489 -0.2347
 7443SOL    HW133962   0.918   4.009   1.517  0.1430 -1.1656 -0.0906
 7443SOL    HW233963   0.999   4.105   1.600 -0.3043 -1.1273  1.7096
 7444SOL     OW33964   1.359   1.241   6.942 -0.2921 -0.2685  0.4810
 7444SOL    HW133965   1.266   1.237   6.966 -0.2460 -0.6743  0.5903
 7444SOL    HW233966   1.354   1.330   6.907  0.0191 -0.1736  0.6811
 7445SOL     OW33967   3.130   1.629   8.298 -0.2458  0.4556  0.0768
 7445SOL    HW133968   3.034   1.622   8.295 -0.2333 -0.5957  2.1523
 7445SOL    HW233969   3.148   1.721   8.275  0.7116  0.2663  0.0716
 7446SOL     OW33970   1.124   2.735   3.020  0.1383 -0.0126 -0.1830
 7446SOL    HW133971   1.033   2.747   3.049 -0.6452 -0.8444 -2.2905
 7446SOL    HW233972   1.112   2.744   2.925  0.3311  0.1703 -0.1900
 7447SOL     OW33973   1.951   2.254   3.002 -0.1619 -0.6118  0.4631
 7447SOL    HW133974   1.967   2.160   2.997  0.2772 -0.5086  0.0342
 7447SOL    HW233975   1.856   2.263   2.998 -0.0509  0.4998  0.4349
 7448SOL     OW33976   3.571   4.252  15.894  0.1193  0.5004  0.0346
 7448SOL    HW133977   3.485   4.277  15.926  1.2572  1.9474  1.9840
 7448SOL    HW233978   3.598   4.335  15.854  0.0035  0.3927 -0.2650
 7449SOL     OW33979   2.251   1.797   1.639 -0.2176  0.4671  0.4473
 7449SOL    HW133980   2.336   1.780   1.598 -0.6308 -2.6890  0.9016
 7449SOL    HW233981   2.280   1.794   1.730  2.5722  1.2766 -0.4120
 7450SOL     OW33982   2.703   4.514   3.290 -0.2026 -0.0859 -0.6280
 7450SOL    HW133983   2.772   4.543   3.231  0.0528 -0.9868 -0.7769
 7450SOL    HW233984   2.761   4.482   3.359 -2.3401  0.0384  1.2208
 7451SOL     OW33985   3.190   4.128  12.030 -0.4246  0.2500  0.0265
 7451SOL    HW133986   3.190   4.224  12.021  1.0997  0.3625  1.1981
 7451SOL    HW233987   3.110   4.108  12.078 -0.1673  0.0293  0.3588
 7452SOL     OW33988   2.166   1.535   1.533  0.2557  0.0810 -0.0986
 7452SOL    HW133989   2.193   1.463   1.590 -0.6693 -0.3949 -0.2529
 7452SOL    HW233990   2.134   1.602   1.593  0.4967  0.5105 -0.4503
 7453SOL     OW33991   1.889   0.744   5.444  0.0185  0.2470  0.4181
 7453SOL    HW133992   1.831   0.682   5.489 -0.8793  1.4802  0.9533
 7453SOL    HW233993   1.830   0.819   5.439 -0.3908 -0.0177  1.2603
 7454SOL     OW33994   2.182   2.932  11.617  0.1159  0.3462  0.0424
 7454SOL    HW133995   2.135   2.879  11.681 -2.3463  2.1877 -0.2125
 7454SOL    HW233996   2.241   2.865  11.583 -0.1895 -0.4493  1.0944
 7455SOL     OW33997   2.560   3.242   9.487  0.1309 -0.2191  0.2881
 7455SOL    HW133998   2.588   3.170   9.543  1.1083 -0.1920 -0.1579
 7455SOL    HW233999   2.608   3.309   9.535  1.4336 -1.8841  1.3025
 7456SOL     OW34000   4.475   2.154   2.465 -0.2089 -0.0428  0.0653
 7456SOL    HW134001   4.545   2.090   2.471 -0.6146 -0.0906  4.1702
 7456SOL    HW234002   4.516   2.215   2.404 -1.9201  0.2893 -0.7723
 7457SOL     OW34003   3.100   1.721   3.331 -0.4183  0.3342  0.0836
 7457SOL    HW134004   3.018   1.678   3.308 -0.0237 -0.3832  0.0094
 7457SOL    HW234005   3.093   1.805   3.285 -0.5977  0.5904  0.5889
 7458SOL     OW34006   4.651   0.895   7.301 -0.3625 -0.0608  0.3396
 7458SOL    HW134007   4.567   0.940   7.302 -1.1523 -1.5347  0.5923
 7458SOL    HW234008   4.610   0.808   7.301  1.5064 -0.9430  3.1588
 7459SOL     OW34009   2.346   1.430   5.954  0.1319  0.2367 -0.5294
 7459SOL    HW134010   2.386   1.493   5.894  1.4424 -1.0499 -0.9933
 7459SOL    HW234011   2.380   1.345   5.926 -2.1558 -0.8644  0.0622
 7460SOL     OW34012   2.418   1.296   7.118  0.0614 -0.3249 -0.5587
 7460SOL    HW134013   2.429   1.388   7.095 -0.9343  0.1162  0.7274
 7460SOL    HW234014   2.372   1.260   7.041  0.4959 -0.8375 -0.5806
 7461SOL     OW34015   3.842   2.772   4.628 -0.1141 -0.2094 -0.3118
 7461SOL    HW134016   3.790   2.837   4.581  1.1405 -0.7987 -2.5127
 7461SOL    HW234017   3.800   2.766   4.714 -1.2824  0.7934 -0.8165
 7462SOL     OW34018   1.819   3.888   4.197  0.3010 -1.1729 -0.1211
 7462SOL    HW134019   1.820   3.946   4.274  2.2741  0.3940 -1.3397
 7462SOL    HW234020   1.900   3.838   4.205 -0.4733 -2.0723  2.0750
 7463SOL     OW34021   2.701   4.532  12.399  0.1062  0.3601 -0.0327
 7463SOL    HW134022   2.785   4.515  12.442  0.4841 -0.3220 -1.0450
 7463SOL    HW234023   2.713   4.622  12.368 -1.1723 -0.3649 -2.6466
 7464SOL     OW34024   3.649   4.055  15.163 -0.2286 -0.0209 -0.4555
 7464SOL    HW134025   3.708   3.993  15.121  0.0689 -0.0545  0.0031
 7464SOL    HW234026   3.708   4.129  15.179 -0.3516 -0.0838  0.3022
 7465SOL     OW34027   3.374   2.837   5.774 -0.8093 -0.3641 -0.0464
 7465SOL    HW134028   3.459   2.802   5.802 -1.0443 -1.4057 -0.6700
 7465SOL    HW234029   3.375   2.821   5.680  4.2240  2.9538 -0.5699
 7466SOL     OW34030   4.145   0.494   4.701  0.1685  0.5361  0.1773
 7466SOL    HW134031   4.079   0.430   4.676  1.2467 -0.4486 -0.1774
 7466SOL    HW234032   4.090   0.571   4.684 -0.3573  0.5191  1.8467
 7467SOL     OW34033   1.783   0.848   3.717  0.0324 -0.0625  0.5253
 7467SOL    HW134034   1.847   0.892   3.662 -0.9782  1.0785  0.2766
 7467SOL    HW234035   1.805   0.897   3.796 -0.2780  1.5209 -0.3808
 7468SOL     OW34036   2.251   2.083   3.868  0.2472  0.4584 -0.4322
 7468SOL    HW134037   2.209   2.148   3.924  3.6358  0.7421  1.7789
 7468SOL    HW234038   2.240   2.006   3.925 -1.4677  0.3611 -0.9246
 7469SOL     OW34039   3.857   2.881  17.262  0.2544  0.3939 -0.3345
 7469SOL    HW134040   3.845   2.945  17.191  1.3841  0.2414 -0.6555
 7469SOL    HW234041   3.946   2.910  17.283 -0.0055  0.3648  0.7899
 7470SOL     OW34042   2.035   0.478  12.009 -0.5598  0.2579  0.1346
 7470SOL    HW134043   2.047   0.405  11.948 -0.5519 -0.0612  0.5213
 7470SOL    HW234044   1.943   0.469  12.035 -0.7549 -1.8110 -1.2745
 7471SOL     OW34045   2.421   2.464   7.563 -0.1896  0.1018 -0.1918
 7471SOL    HW134046   2.374   2.544   7.590  0.7681 -0.0749  1.9859
 7471SOL    HW234047   2.484   2.497   7.499 -0.7063 -1.3793 -1.4567
 7472SOL     OW34048   4.519   3.733   5.517 -0.0757 -0.2203  0.6115
 7472SOL    HW134049   4.534   3.780   5.599 -0.0449  0.3860  0.2572
 7472SOL    HW234050   4.424   3.745   5.519 -0.1852 -0.9958 -0.2595
 7473SOL     OW34051   0.028   4.604   1.451 -0.1922  0.3770  0.3522
 7473SOL    HW134052   0.032   4.684   1.503 -0.9595  0.0168  0.9764
 7473SOL    HW234053   0.010   4.548   1.526  1.9937 -1.8284 -0.7925
 7474SOL     OW34054   3.047   1.397   6.489 -0.5162  0.0910 -0.2440
 7474SOL    HW134055   3.117   1.383   6.553 -1.2765 -0.1440  0.5486
 7474SOL    HW234056   3.034   1.313   6.445 -0.0012  0.6441 -1.4493
 7475SOL     OW34057   0.202   1.043   4.858 -0.2134  0.1699 -0.0515
 7475SOL    HW134058   0.208   1.027   4.764 -0.3969  2.7252 -0.5073
 7475SOL    HW234059   0.124   1.099   4.854  0.2482  0.6993 -1.5922
 7476SOL     OW34060   0.706   4.620   4.756  0.0022  0.2446 -0.1247
 7476SOL    HW134061   0.783   4.599   4.810 -0.2068 -1.3014 -0.4457
 7476SOL    HW234062   0.717   4.713   4.735  0.8655 -0.0678 -1.0641
 7477SOL     OW34063   1.410   1.167  15.979  0.0936  0.9872  0.4862
 7477SOL    HW134064   1.499   1.132  15.977 -0.3605 -0.1056 -0.9227
 7477SOL    HW234065   1.406   1.204  16.067 -0.1783  2.9570 -0.3776
 7478SOL     OW34066   2.122   1.311   0.893  0.4955 -0.2559  0.1660
 7478SOL    HW134067   2.028   1.321   0.908  0.6683  0.5928  0.6755
 7478SOL    HW234068   2.131   1.216   0.886  0.3538 -0.2710  0.1921
 7479SOL     OW34069   3.263   4.033   0.833 -0.3423 -0.3354 -0.2563
 7479SOL    HW134070   3.294   4.064   0.918  0.6656 -2.3925  0.1398
 7479SOL    HW234071   3.169   4.021   0.844 -0.4142 -0.6960 -1.2239
 7480SOL     OW34072   1.850   0.367  14.064 -0.1208  0.0218  0.2517
 7480SOL    HW134073   1.843   0.274  14.041 -1.1390  0.3613 -0.8148
 7480SOL    HW234074   1.808   0.406  13.987 -0.2491  1.7375  1.1915
 7481SOL     OW34075   3.829   0.641   3.272 -0.3844 -0.7083  0.2724
 7481SOL    HW134076   3.874   0.709   3.221 -1.2223 -1.7020 -1.7683
 7481SOL    HW234077   3.739   0.653   3.243 -0.8018  0.1698  1.8846
 7482SOL     OW34078   4.284   2.147  11.758  0.2414 -0.6841  0.7755
 7482SOL    HW134079   4.277   2.088  11.683  1.1152  0.0869  0.0714
 7482SOL    HW234080   4.274   2.235  11.720  2.4630 -0.2127  1.2887
 7483SOL     OW34081   3.431   2.961   4.153 -0.4936  1.0001 -0.2372
 7483SOL    HW134082   3.352   2.928   4.196  0.0603 -1.1942 -0.9210
 7483SOL    HW234083   3.404   3.053   4.162 -2.0410  0.6576 -1.3854
 7484SOL     OW34084   1.141   4.563   7.159  0.1975  0.1939 -0.5644
 7484SOL    HW134085   1.233   4.550   7.180  0.3529 -0.7887 -1.8765
 7484SOL    HW234086   1.141   4.516   7.076  0.7110 -1.8315  0.6063
 7485SOL     OW34087   4.383   0.968   7.254 -0.1828  0.3144  0.3094
 7485SOL    HW134088   4.338   1.045   7.220 -0.8225  0.5479  1.6763
 7485SOL    HW234089   4.319   0.897   7.255  0.2275 -0.0635 -0.2061
 7486SOL     OW34090   2.816   0.054  15.252  0.0792 -0.1188 -0.1381
 7486SOL    HW134091   2.742   0.025  15.304  1.1842 -1.0613  0.9252
 7486SOL    HW234092   2.777   0.103  15.180  0.7022 -0.4265 -0.6794
 7487SOL     OW34093   4.441   2.942   6.868  0.4197  0.2986 -0.4086
 7487SOL    HW134094   4.483   2.856   6.865 -0.5498 -0.1600 -0.8297
 7487SOL    HW234095   4.437   2.947   6.964  1.7967 -0.7803 -0.2957
 7488SOL     OW34096   4.724   3.071  15.933 -0.7868 -0.2578 -0.2233
 7488SOL    HW134097   4.645   3.075  15.878  0.4562  0.3587 -1.9699
 7488SOL    HW234098   0.038   3.010  15.883  0.7100  0.0992  0.9581
 7489SOL     OW34099   4.732   3.422   5.513  0.7057 -0.3404 -0.3914
 7489SOL    HW134100   4.664   3.450   5.451 -0.5967 -1.2651  0.6214
 7489SOL    HW234101   4.732   3.494   5.575  0.4368 -0.0769 -0.6943
 7490SOL     OW34102   2.530   0.400   2.779  0.5921  0.0665  0.1817
 7490SOL    HW134103   2.458   0.447   2.821  0.0683 -1.4373  0.9629
 7490SOL    HW234104   2.597   0.465   2.801  0.4082  0.4253 -0.3078
 7491SOL     OW34105   2.695   3.391  17.119 -0.3872  0.1828 -0.0610
 7491SOL    HW134106   2.660   3.310  17.156  0.3969  0.4154  1.1738
 7491SOL    HW234107   2.778   3.403  17.165 -0.4036 -1.2215  0.3302
 7492SOL     OW34108   1.345   3.035   0.968 -0.4005 -0.5549 -0.0312
 7492SOL    HW134109   1.326   3.035   0.874  2.7090  1.7116 -0.6533
 7492SOL    HW234110   1.331   2.945   0.998 -0.1425 -0.2286  1.0715
 7493SOL     OW34111   0.964   0.707   8.537 -0.3710 -0.4846  0.5038
 7493SOL    HW134112   0.999   0.653   8.465 -0.5980  2.2649 -1.6749
 7493SOL    HW234113   1.039   0.765   8.554 -1.4425  0.0825  3.3327
 7494SOL     OW34114   1.099   4.150  11.285  0.3558  0.4396 -0.2639
 7494SOL    HW134115   1.009   4.133  11.310  0.8145  2.1148  2.5306
 7494SOL    HW234116   1.138   4.169  11.371 -4.8936 -2.4838  2.7185
 7495SOL     OW34117   0.980   1.207   9.992 -0.4186  0.9132  0.2211
 7495SOL    HW134118   0.894   1.222  10.033 -0.2827  1.1964  0.4041
 7495SOL    HW234119   1.037   1.192  10.068 -0.9285 -3.8561 -0.3810
 7496SOL     OW34120   4.264   2.626   8.936  0.6714 -0.3954  0.1510
 7496SOL    HW134121   4.296   2.552   8.885  1.2463 -0.0498  0.0111
 7496SOL    HW234122   4.187   2.657   8.890  0.6333 -0.8674 -0.1028
 7497SOL     OW34123   0.705   1.720   5.788 -0.0273  0.1122  0.2227
 7497SOL    HW134124   0.625   1.675   5.812  1.4565 -3.9924 -2.4491
 7497SOL    HW234125   0.768   1.679   5.847  0.4596 -0.2730 -0.5555
 7498SOL     OW34126   3.732   2.962   4.349 -0.2435  0.0226  0.4106
 7498SOL    HW134127   3.772   3.049   4.345 -0.0213 -0.0722  0.5702
 7498SOL    HW234128   3.783   2.905   4.292  1.5903  1.4026  0.6693
 7499SOL     OW34129   0.212   3.292   5.680 -0.0662 -0.2681  0.1049
 7499SOL    HW134130   0.128   3.309   5.723  1.1972  0.1400  2.4051
 7499SOL    HW234131   0.239   3.373   5.635 -1.8100 -0.4079 -1.1700
 7500SOL     OW34132   2.956   0.005   5.412  0.0611  0.2573  1.4158
 7500SOL    HW134133   2.904   4.678   5.457  0.4164 -1.5292 -0.8287
 7500SOL    HW234134   2.905   0.081   5.440  0.1558  0.7790  0.1583
 7501SOL     OW34135   2.899   0.438  14.889  0.1621  0.0687  0.2665
 7501SOL    HW134136   2.948   0.407  14.813 -1.2615 -1.9434  0.1681
 7501SOL    HW234137   2.806   0.424  14.869 -0.3459 -0.0606  2.7064
 7502SOL     OW34138   0.473   3.281   6.842 -0.1929 -0.0215  0.3597
 7502SOL    HW134139   0.518   3.360   6.809 -2.4648  0.5544 -1.3425
 7502SOL    HW234140   0.518   3.266   6.925 -0.1497  1.9349  0.7029
 7503SOL     OW34141   1.244   3.708   1.630  0.0563  0.0920  0.4248
 7503SOL    HW134142   1.273   3.776   1.569  0.0220  1.3702  1.8208
 7503SOL    HW234143   1.319   3.713   1.689 -1.0480 -0.2815  1.8707
 7504SOL     OW34144   4.052   1.151   7.926  0.0132 -0.7754  0.5586
 7504SOL    HW134145   4.060   1.233   7.974 -0.8053 -0.5101  0.2402
 7504SOL    HW234146   4.110   1.089   7.971  0.3301 -0.4316  0.6228
 7505SOL     OW34147   0.489   2.592   2.994  0.2973 -0.2237  0.4438
 7505SOL    HW134148   0.553   2.578   3.064 -0.2434  0.5373  1.0895
 7505SOL    HW234149   0.513   2.674   2.952  1.6965 -1.1565 -0.5753
 7506SOL     OW34150   4.195   2.127   2.468 -0.4288 -0.1126 -0.0435
 7506SOL    HW134151   4.290   2.134   2.456 -0.6993  0.3944 -1.8740
 7506SOL    HW234152   4.168   2.213   2.501 -4.3437 -0.8253 -1.3358
 7507SOL     OW34153   1.829   2.725   0.775  0.0012  0.6801  0.6016
 7507SOL    HW134154   1.811   2.713   0.868 -0.2597 -2.0253  0.1807
 7507SOL    HW234155   1.924   2.712   0.769 -0.1933  0.0110 -0.8866
 7508SOL     OW34156   3.940   1.069  10.348 -0.1217  0.3772 -0.4659
 7508SOL    HW134157   3.865   1.085  10.406 -0.4331 -0.0391 -0.7572
 7508SOL    HW234158   3.903   1.034  10.267 -0.8637 -2.4601  1.1028
 7509SOL     OW34159   2.057   1.112   5.115  0.1015  0.7414  0.3282
 7509SOL    HW134160   2.031   1.023   5.139  0.7055  0.3529 -0.4373
 7509SOL    HW234161   1.999   1.140   5.044  0.6174  0.6979 -0.1186
 7510SOL     OW34162   4.549   0.336  17.627 -0.0715 -0.6954  0.6202
 7510SOL    HW134163   4.638   0.329  17.662 -0.6255  0.0645  2.2066
 7510SOL    HW234164   4.565   0.414  17.575  0.3279 -0.5465  0.9679
 7511SOL     OW34165   1.589   2.524   6.400 -0.9217  0.1865 -0.7955
 7511SOL    HW134166   1.521   2.566   6.453 -2.3673  0.2719 -2.7108
 7511SOL    HW234167   1.632   2.465   6.462 -2.8248  0.7272  1.0558
 7512SOL     OW34168   1.140   0.593  10.075 -0.4012  0.2131 -0.2633
 7512SOL    HW134169   1.142   0.529  10.145  0.6026 -0.3093 -0.7596
 7512SOL    HW234170   1.048   0.620  10.076 -0.4437  0.0118  1.1892
 7513SOL     OW34171   3.643   0.450   2.520  0.4446 -0.2244  0.2468
 7513SOL    HW134172   3.651   0.471   2.613  1.7162 -1.3618  0.3964
 7513SOL    HW234173   3.653   0.536   2.480 -4.1296  0.7150  1.1097
 7514SOL     OW34174   0.159   1.316   1.074 -0.0306 -0.0293  0.3960
 7514SOL    HW134175   0.153   1.253   1.146  1.0607  0.1354  0.6276
 7514SOL    HW234176   0.073   1.358   1.081 -0.6509 -1.8546  3.9043
 7515SOL     OW34177   0.264   3.508   3.674  0.0493 -0.2693  0.2295
 7515SOL    HW134178   0.263   3.433   3.734 -0.5622  0.7485  1.4800
 7515SOL    HW234179   0.267   3.465   3.588 -0.3276  0.2222 -0.0279
 7516SOL     OW34180   2.585   3.776   6.877  0.1148 -0.2561 -0.0673
 7516SOL    HW134181   2.520   3.720   6.918 -1.9898  2.7743  0.7386
 7516SOL    HW234182   2.548   3.862   6.895  0.7450 -0.1786  0.8732
 7517SOL     OW34183   1.322   2.562   0.853  0.0431 -0.1837  0.1408
 7517SOL    HW134184   1.396   2.502   0.840 -0.2565 -0.3938 -0.5957
 7517SOL    HW234185   1.270   2.492   0.894 -0.6794 -0.2019 -0.8230
 7518SOL     OW34186   2.834   3.473  11.752 -0.2675  0.1867  0.2361
 7518SOL    HW134187   2.789   3.396  11.719  1.0036 -0.2067 -0.5559
 7518SOL    HW234188   2.848   3.457  11.845 -0.1760 -0.2877  0.1387
 7519SOL     OW34189   4.381   3.126   5.806  0.5223  0.2040 -0.0726
 7519SOL    HW134190   4.301   3.161   5.765  1.0139  0.1583 -1.0776
 7519SOL    HW234191   4.373   3.031   5.802  1.0828  0.1699 -0.4307
 7520SOL     OW34192   4.365   3.872   9.288  0.3908  0.1252 -0.1870
 7520SOL    HW134193   4.338   3.820   9.364  1.6310  0.2120  0.3144
 7520SOL    HW234194   4.451   3.833   9.273  0.8380  0.6616  0.9396
 7521SOL     OW34195   1.703   3.315   6.359  0.2764 -0.1083  0.2210
 7521SOL    HW134196   1.680   3.227   6.330  4.3862 -0.4181 -2.0887
 7521SOL    HW234197   1.717   3.358   6.275  1.3859 -0.5259  0.1888
 7522SOL     OW34198   0.736   4.435   5.522 -0.3291 -0.1407  0.0268
 7522SOL    HW134199   0.736   4.505   5.588  2.3220  0.2542 -0.3947
 7522SOL    HW234200   0.823   4.398   5.538  0.4094  1.4467 -0.2279
 7523SOL     OW34201   2.843   3.742  11.239 -0.0563 -0.3781  0.1343
 7523SOL    HW134202   2.787   3.751  11.316  0.7653  0.2437  0.6617
 7523SOL    HW234203   2.797   3.680  11.183 -0.9975 -0.1857  0.6933
 7524SOL     OW34204   0.382   3.595   9.148 -0.0998  0.6472 -0.2827
 7524SOL    HW134205   0.307   3.536   9.160 -0.0602  0.4068 -1.1759
 7524SOL    HW234206   0.458   3.550   9.186  0.1038  2.5287  1.4954
 7525SOL     OW34207   0.192   4.036  11.794  0.1738  0.9466  0.1627
 7525SOL    HW134208   0.277   3.993  11.792 -0.6470 -0.6477 -0.7308
 7525SOL    HW234209   0.145   3.982  11.858 -0.3903 -1.5779 -2.4037
 7526SOL     OW34210   1.258   4.670   6.507 -0.0821 -0.0575 -0.0714
 7526SOL    HW134211   1.250   4.576   6.525 -0.3071  0.1554  0.9623
 7526SOL    HW234212   1.192   4.665   6.438  0.1070 -0.5874 -0.2130
 7527SOL     OW34213   4.636   0.494   3.259  0.0067  0.1197 -0.3484
 7527SOL    HW134214   4.547   0.467   3.236 -0.3275  2.5665 -1.9123
 7527SOL    HW234215   4.621   0.574   3.311 -0.2742 -0.0026 -0.2397
 7528SOL     OW34216   4.587   1.861  12.557  0.0976  0.1237  0.1124
 7528SOL    HW134217   4.513   1.817  12.599 -0.6758  0.8314 -0.5028
 7528SOL    HW234218   4.550   1.941  12.520 -0.9759 -0.2090  0.4667
 7529SOL     OW34219   4.734   3.009   1.818  0.0572  0.0597 -0.0045
 7529SOL    HW134220   4.720   2.917   1.839  0.7003 -0.0171  0.0720
 7529SOL    HW234221   4.671   3.053   1.876  0.5040  3.7944 -2.3156
 7530SOL     OW34222   1.413   3.384   5.971  0.2623  0.2353 -0.2500
 7530SOL    HW134223   1.331   3.377   6.021  0.6024  2.0065  0.5410
 7530SOL    HW234224   1.389   3.459   5.917 -0.1507 -2.2225 -3.4365
 7531SOL     OW34225   1.671   1.136   6.978 -0.3394 -0.2167 -0.2690
 7531SOL    HW134226   1.722   1.181   7.045 -1.2017  2.4134 -1.3468
 7531SOL    HW234227   1.592   1.190   6.981  0.3657  0.7159  1.1444
 7532SOL     OW34228   1.557   3.936   4.112  0.4885 -0.1022 -0.3395
 7532SOL    HW134229   1.542   3.887   4.031 -2.3813  3.4853 -1.9588
 7532SOL    HW234230   1.649   3.925   4.137  0.4741 -0.1095 -0.2901
 7533SOL     OW34231   4.593   4.538  16.447 -0.1840  0.4266 -0.3140
 7533SOL    HW134232   4.574   4.627  16.474 -1.7598 -0.4537  1.4184
 7533SOL    HW234233   4.651   4.559  16.373 -0.6226  0.8556 -0.5334
 7534SOL     OW34234   4.519   0.067   9.335 -0.2575  0.3175  0.1348
 7534SOL    HW134235   4.542   0.060   9.242  0.0964 -0.1059  0.2536
 7534SOL    HW234236   4.532   0.161   9.351  1.5719  0.0772  0.0687
 7535SOL     OW34237   3.230   2.991   7.130 -0.1499 -0.0464 -0.3080
 7535SOL    HW134238   3.321   2.962   7.130 -0.0537  0.2611 -0.3496
 7535SOL    HW234239   3.250   3.079   7.101 -0.5725  0.0413 -0.3429
 7536SOL     OW34240   0.352   1.274   6.240  1.0129 -0.2582  0.6346
 7536SOL    HW134241   0.386   1.282   6.329 -0.5180  0.7495  1.1094
 7536SOL    HW234242   0.377   1.183   6.221  0.3001 -0.6670  1.7063
 7537SOL     OW34243   4.570   4.447   5.268 -1.1670 -0.2542 -0.0700
 7537SOL    HW134244   4.542   4.387   5.199  2.9823  0.1140 -2.0794
 7537SOL    HW234245   4.486   4.487   5.291 -0.4121  1.8953 -0.9732
 7538SOL     OW34246   0.004   0.739   9.207  0.1772  0.1579 -0.7116
 7538SOL    HW134247   4.722   0.792   9.130 -0.4566 -0.4196 -0.9261
 7538SOL    HW234248   0.099   0.735   9.199  0.4844  3.1244  1.1344
 7539SOL     OW34249   2.680   4.103   0.943  0.1387  0.4974  0.4424
 7539SOL    HW134250   2.685   4.032   1.007 -0.2358  0.7658  0.7682
 7539SOL    HW234251   2.653   4.052   0.866 -0.1456  2.5001 -0.7793
 7540SOL     OW34252   2.426   1.479   6.932  0.3733 -0.1761  0.3348
 7540SOL    HW134253   2.481   1.506   6.859 -1.5289 -0.1382 -1.0728
 7540SOL    HW234254   2.380   1.404   6.896 -0.7534 -1.3079  4.1346
 7541SOL     OW34255   4.216   1.970   3.616  0.0116  0.0386  0.4736
 7541SOL    HW134256   4.132   1.945   3.577  0.3276 -0.9815  0.4478
 7541SOL    HW234257   4.198   2.051   3.665 -1.6540 -0.3213  0.4517
 7542SOL     OW34258   1.929   0.720   7.994  0.5026  0.6289 -0.6064
 7542SOL    HW134259   1.880   0.772   7.931 -2.6415  0.0775  1.3662
 7542SOL    HW234260   1.936   0.783   8.065  0.1984  0.8672 -0.7884
 7543SOL     OW34261   1.708   0.731   6.898  0.2748  0.2431 -0.6826
 7543SOL    HW134262   1.626   0.684   6.911  0.3082  0.3186 -0.1966
 7543SOL    HW234263   1.719   0.771   6.985 -0.6948  0.4271 -0.6436
 7544SOL     OW34264   1.628   0.723   8.696  0.5154  0.2412 -0.8975
 7544SOL    HW134265   1.616   0.768   8.612 -0.3084  0.6256 -0.5702
 7544SOL    HW234266   1.642   0.790   8.762  0.9730 -0.4502 -0.2997
 7545SOL     OW34267   2.832   2.357   7.806 -0.8043 -0.1285 -0.1970
 7545SOL    HW134268   2.877   2.349   7.722  3.0412  2.8511  1.5955
 7545SOL    HW234269   2.893   2.413   7.854 -2.1437  0.1613  1.1454
 7546SOL     OW34270   1.342   0.160   3.213  0.1751  0.2984  0.1704
 7546SOL    HW134271   1.422   0.166   3.160  1.4900 -2.4491  1.8389
 7546SOL    HW234272   1.376   0.176   3.301 -0.2633 -1.8154  0.7366
 7547SOL     OW34273   0.303   1.298   1.576 -0.8429 -0.1381  0.1473
 7547SOL    HW134274   0.249   1.232   1.533 -0.7006 -1.1570  1.5268
 7547SOL    HW234275   0.354   1.321   1.497 -1.1539 -0.0316 -0.0211
 7548SOL     OW34276   2.729   1.347   6.887 -0.4145  0.0996 -0.1346
 7548SOL    HW134277   2.676   1.271   6.910 -0.8349  0.6794  0.8239
 7548SOL    HW234278   2.718   1.386   6.974  3.3025  2.1521 -0.6110
 7549SOL     OW34279   2.887   2.838   0.401 -0.1265  0.1063 -0.7603
 7549SOL    HW134280   2.974   2.870   0.377 -0.7394  1.5287 -1.0720
 7549SOL    HW234281   2.868   2.884   0.483 -1.4525 -0.6971 -0.6045
 7550SOL     OW34282   1.632   0.753   0.466 -0.2187 -0.7123  0.1443
 7550SOL    HW134283   1.679   0.831   0.493 -2.2920  0.7560 -0.4714
 7550SOL    HW234284   1.700   0.687   0.474 -0.8404 -1.3737  0.0225
 7551SOL     OW34285   0.259   1.556   1.751  0.0841  0.2003  0.1566
 7551SOL    HW134286   0.229   1.602   1.672 -1.5836 -0.6201  0.3101
 7551SOL    HW234287   0.249   1.465   1.725  1.4143  0.6499 -1.9352
 7552SOL     OW34288   1.313   3.165   7.138 -0.3420  0.0556  0.5981
 7552SOL    HW134289   1.237   3.138   7.189 -1.2158  1.1836 -0.1348
 7552SOL    HW234290   1.308   3.113   7.058 -0.3580 -1.4226  1.5541
 7553SOL     OW34291   1.250   4.159  12.606 -0.0674  0.1050 -0.3659
 7553SOL    HW134292   1.233   4.198  12.521  0.7577  1.3285  0.0340
 7553SOL    HW234293   1.251   4.065  12.586 -1.5664  0.2635 -1.1997
 7554SOL     OW34294   2.044   3.756   4.238  0.4664  0.0891 -0.3489
 7554SOL    HW134295   2.098   3.730   4.313 -1.6243 -4.0161 -0.2822
 7554SOL    HW234296   2.048   3.682   4.178  0.6446  1.2083 -1.7234
 7555SOL     OW34297   0.305   1.842  11.762 -0.6138 -0.4603  0.0912
 7555SOL    HW134298   0.299   1.844  11.857 -3.7943 -0.3197 -0.0998
 7555SOL    HW234299   0.330   1.934  11.749  1.0101 -1.0022 -0.5873
 7556SOL     OW34300   1.771   0.416  16.555  0.9144  0.0644 -0.1889
 7556SOL    HW134301   1.676   0.419  16.545  0.6242  0.9822  2.6619
 7556SOL    HW234302   1.778   0.408  16.650 -2.4146  0.2715  0.0697
 7557SOL     OW34303   2.749   3.877  15.628 -0.4332 -0.1377 -0.2095
 7557SOL    HW134304   2.656   3.887  15.648 -0.2341 -1.1084  1.1688
 7557SOL    HW234305   2.787   3.905  15.711 -0.5066 -1.6775  0.3302
 7558SOL     OW34306   2.951   3.406   5.279 -0.6534  0.1870  0.3720
 7558SOL    HW134307   2.961   3.318   5.316  2.5988  1.3144  2.1606
 7558SOL    HW234308   2.976   3.461   5.354  0.4157 -1.1629  1.0006
 7559SOL     OW34309   0.414   4.138   9.163 -0.3501  0.2978 -0.1158
 7559SOL    HW134310   0.426   4.044   9.177 -1.3599 -0.0318 -1.4758
 7559SOL    HW234311   0.456   4.158   9.247 -0.3055  0.4131 -0.1645
 7560SOL     OW34312   1.659   4.545   3.602  0.6597 -0.2414  0.3851
 7560SOL    HW134313   1.618   4.459   3.595 -0.9822  0.5840  0.0618
 7560SOL    HW234314   1.621   4.590   3.527  2.4953 -0.7683 -0.8679
 7561SOL     OW34315   3.036   2.655   4.526  0.4598 -0.5447 -0.1239
 7561SOL    HW134316   3.124   2.688   4.545 -0.8357  2.5590  0.5900
 7561SOL    HW234317   3.051   2.565   4.499  0.8307 -1.0032  1.5815
 7562SOL     OW34318   1.564   3.475   9.787 -0.2139 -0.3107 -0.2055
 7562SOL    HW134319   1.614   3.448   9.710 -0.0387 -0.5547 -0.0041
 7562SOL    HW234320   1.616   3.446   9.862  0.8920  0.7711 -0.5492
 7563SOL     OW34321   3.748   2.264   1.745  0.3711 -1.4792 -0.3495
 7563SOL    HW134322   3.750   2.203   1.818  0.2647 -2.4126 -1.1319
 7563SOL    HW234323   3.659   2.300   1.746  0.9553 -0.0538  1.9952
 7564SOL     OW34324   3.424   2.555  10.170 -0.5527 -0.0280  0.3167
 7564SOL    HW134325   3.357   2.617  10.198 -0.9410 -0.3678  0.1244
 7564SOL    HW234326   3.395   2.471  10.205 -0.6152 -0.4261 -0.6959
 7565SOL     OW34327   1.150   1.554  16.497  0.4544 -0.7149  0.0123
 7565SOL    HW134328   1.107   1.636  16.472  0.5085 -0.9043 -0.7007
 7565SOL    HW234329   1.177   1.519  16.412  1.2908  0.9444 -0.4207
 7566SOL     OW34330   1.609   0.139  17.001 -0.1931 -0.0958  0.1016
 7566SOL    HW134331   1.649   0.064  17.045 -1.1818  0.3543  1.7533
 7566SOL    HW234332   1.679   0.205  17.005 -0.5635  0.1985  1.8843
 7567SOL     OW34333   1.292   2.228   2.194  0.1868  0.5782 -0.1822
 7567SOL    HW134334   1.316   2.275   2.114 -2.0901  0.0512 -1.1909
 7567SOL    HW234335   1.267   2.143   2.160 -1.4833  0.8015  0.4620
 7568SOL     OW34336   2.821   3.511  15.936 -0.2123  0.2545  0.2329
 7568SOL    HW134337   2.770   3.477  16.010  1.8166  0.1006  1.5757
 7568SOL    HW234338   2.881   3.438  15.919 -2.0685 -0.6373 -2.3778
 7569SOL     OW34339   3.835   4.314   6.411  0.2049 -0.3357  0.3013
 7569SOL    HW134340   3.745   4.328   6.380  0.9832  1.8257 -0.9669
 7569SOL    HW234341   3.851   4.237   6.355  1.1025 -0.1178  0.2641
 7570SOL     OW34342   1.080   1.047   1.263 -0.1842 -0.3611  0.1687
 7570SOL    HW134343   1.104   1.049   1.355  0.2226 -2.1269  0.0987
 7570SOL    HW234344   1.143   0.989   1.220 -2.7598 -3.9417  1.1565
 7571SOL     OW34345   3.778   2.724   2.756  0.2530  0.0098 -0.2307
 7571SOL    HW134346   3.728   2.642   2.757  2.4454 -1.3547 -2.0525
 7571SOL    HW234347   3.864   2.692   2.782  1.0327  0.4064 -2.3292
 7572SOL     OW34348   3.352   0.995  13.740 -0.1120  0.1155 -0.2631
 7572SOL    HW134349   3.288   1.061  13.714 -1.0966 -0.4047  0.8786
 7572SOL    HW234350   3.380   0.968  13.652 -0.9985 -1.0552 -0.1848
 7573SOL     OW34351   0.214   3.901   2.854  0.0162  0.0609 -0.3768
 7573SOL    HW134352   0.168   3.855   2.925  0.5973  1.5572  0.9694
 7573SOL    HW234353   0.264   3.968   2.900  0.4819 -0.4098 -0.2000
 7574SOL     OW34354   0.902   3.096   4.242  0.3166  0.5109  0.3442
 7574SOL    HW134355   0.840   3.076   4.312  0.3813  1.5162  0.6849
 7574SOL    HW234356   0.986   3.079   4.286 -0.7103 -0.9729  1.7506
 7575SOL     OW34357   4.122   2.242   4.996 -0.0779 -0.1242 -0.3635
 7575SOL    HW134358   4.057   2.196   4.943 -0.3914 -1.6762  1.3656
 7575SOL    HW234359   4.205   2.196   4.990 -0.0306 -0.1107  0.1368
 7576SOL     OW34360   0.684   4.566  16.427 -0.1777 -0.5547  0.4024
 7576SOL    HW134361   0.678   4.602  16.338 -0.6624  1.2071  1.1430
 7576SOL    HW234362   0.776   4.541  16.437  0.1259  0.6647  0.6076
 7577SOL     OW34363   3.194   3.541   2.609 -0.2987 -0.5288  0.4232
 7577SOL    HW134364   3.198   3.463   2.553  0.7814  0.0503 -0.2904
 7577SOL    HW234365   3.100   3.562   2.612 -0.3393 -0.7012  0.3934
 7578SOL     OW34366   1.566   2.704   5.313 -0.1212  0.1376  0.0656
 7578SOL    HW134367   1.544   2.631   5.370  1.3566  1.2446  2.0962
 7578SOL    HW234368   1.505   2.770   5.347  0.1430  0.3581  0.1236
 7579SOL     OW34369   3.096   2.720   7.528 -0.0541 -0.4784  0.0996
 7579SOL    HW134370   3.074   2.656   7.460  0.1313 -0.8417  0.3779
 7579SOL    HW234371   3.023   2.776   7.551 -0.9160 -2.5576  2.4909
 7580SOL     OW34372   1.046   0.920   1.801 -0.0413  0.0031  0.6101
 7580SOL    HW134373   0.988   0.916   1.877  0.6629 -1.4199  1.0720
 7580SOL    HW234374   1.010   1.002   1.768 -0.9227 -0.2480  0.9487
 7581SOL     OW34375   2.783   1.269   1.814  0.4454  0.3797  0.2809
 7581SOL    HW134376   2.692   1.293   1.833  0.0613 -1.5885  0.9388
 7581SOL    HW234377   2.828   1.285   1.897 -1.5721  0.8127  1.2980
 7582SOL     OW34378   3.148   0.053   5.692 -1.0080 -0.0672  0.0784
 7582SOL    HW134379   3.144   4.725   5.624 -0.5227 -1.5656  1.5279
 7582SOL    HW234380   3.199   0.120   5.647 -1.4687  0.8643  0.9637
 7583SOL     OW34381   0.309   4.055   9.794  0.2317 -0.6756  0.1336
 7583SOL    HW134382   0.363   4.113   9.741 -0.9007  2.2794  2.2315
 7583SOL    HW234383   0.373   3.985   9.807 -0.3777 -0.6893  3.1001
 7584SOL     OW34384   2.607   2.486   5.913  0.4474 -0.6692 -0.1885
 7584SOL    HW134385   2.649   2.572   5.906  0.6001 -0.4004  4.4182
 7584SOL    HW234386   2.613   2.471   6.007 -2.6446  1.0387  0.2873
 7585SOL     OW34387   3.959   1.376   2.354 -0.0481  0.1931  0.2955
 7585SOL    HW134388   3.891   1.429   2.313  0.0798 -0.3792 -0.6473
 7585SOL    HW234389   4.039   1.415   2.320  1.5724 -4.7378 -1.5661
 7586SOL     OW34390   0.449   1.389   9.487 -0.4238 -0.2389  0.2957
 7586SOL    HW134391   0.480   1.309   9.530 -1.1017 -0.8175 -0.2834
 7586SOL    HW234392   0.505   1.387   9.409 -0.5173 -2.2171  0.2779
 7587SOL     OW34393   2.230   4.711   8.629  0.1532 -0.1021  0.0649
 7587SOL    HW134394   2.157   4.707   8.567  0.8730  1.6682 -0.8728
 7587SOL    HW234395   2.300   0.003   8.572 -0.2956  1.1103  0.2001
 7588SOL     OW34396   1.292   4.152  10.036  0.1135  0.0584  0.0662
 7588SOL    HW134397   1.295   4.213   9.962  1.5244 -0.4306 -0.2732
 7588SOL    HW234398   1.383   4.125  10.038 -0.5361 -1.9293  2.5229
 7589SOL     OW34399   3.709   4.633  16.670  0.2026 -0.2983  0.4270
 7589SOL    HW134400   3.772   4.685  16.719 -0.5973  0.2597  0.8649
 7589SOL    HW234401   3.757   4.565  16.621 -1.4415 -2.3372  1.6212
 7590SOL     OW34402   0.562   1.608   6.878  0.0409 -0.2516  0.1902
 7590SOL    HW134403   0.644   1.657   6.870 -0.1013 -0.1859 -0.8745
 7590SOL    HW234404   0.545   1.573   6.790 -1.5433 -0.8792  0.7586
 7591SOL     OW34405   3.793   2.467   9.857 -0.0905 -0.6340 -0.2655
 7591SOL    HW134406   3.811   2.559   9.839 -1.3933 -0.6016 -1.4499
 7591SOL    HW234407   3.882   2.436   9.842 -0.4587 -1.3576 -0.9427
 7592SOL     OW34408   2.880   3.812   0.652  0.0307 -0.1245  0.2784
 7592SOL    HW134409   2.914   3.734   0.608  1.3038  1.2641 -1.1901
 7592SOL    HW234410   2.830   3.766   0.720  0.5071  1.5359  1.7681
 7593SOL     OW34411   4.210   2.408   5.648 -0.4298  0.4304 -0.0653
 7593SOL    HW134412   4.174   2.454   5.724  1.0390 -0.4101  1.1154
 7593SOL    HW234413   4.263   2.485   5.623  0.3837  0.2996  1.2881
 7594SOL     OW34414   3.336   1.055   8.829  0.2641  0.2832  0.0637
 7594SOL    HW134415   3.252   1.018   8.800  1.6806 -1.5191 -1.7362
 7594SOL    HW234416   3.344   1.023   8.919  1.7709  0.2707 -0.0817
 7595SOL     OW34417   3.403   3.923   9.487 -0.1258  0.4700  0.3780
 7595SOL    HW134418   3.442   3.837   9.503 -0.8765 -0.2342 -1.5904
 7595SOL    HW234419   3.319   3.917   9.442 -0.1774  1.8477  0.2826
 7596SOL     OW34420   1.901   1.595   1.914  0.5929 -0.2987 -0.4460
 7596SOL    HW134421   1.987   1.605   1.955 -0.0281 -1.1428  1.0559
 7596SOL    HW234422   1.902   1.500   1.911  1.6360 -0.2800 -1.1184
 7597SOL     OW34423   3.039   2.411  11.524 -0.5476  0.1959  0.1500
 7597SOL    HW134424   3.065   2.503  11.522 -1.4202  0.4339 -0.5177
 7597SOL    HW234425   3.106   2.372  11.580 -0.3238  3.4621  2.1537
 7598SOL     OW34426   1.200   4.735   9.191 -0.7404  0.2948 -0.2075
 7598SOL    HW134427   1.288   0.018   9.219 -0.4518 -1.0356 -0.0283
 7598SOL    HW234428   1.207   0.005   9.096  1.8917  0.4940  0.0061
 7599SOL     OW34429   3.803   2.083   0.303 -0.1480 -0.0993  0.4045
 7599SOL    HW134430   3.754   2.163   0.281  0.6879 -0.1512 -1.6960
 7599SOL    HW234431   3.837   2.109   0.388 -2.2122  4.3078 -0.1069
 7600SOL     OW34432   0.707   3.919   4.367 -0.5292  0.0408  0.2155
 7600SOL    HW134433   0.700   3.948   4.276 -0.2368 -2.5981 -0.6557
 7600SOL    HW234434   0.632   3.961   4.409 -0.3222  0.2437  0.3871
 7601SOL     OW34435   4.393   1.467   4.813 -0.1150 -0.5035 -0.5615
 7601SOL    HW134436   4.408   1.490   4.904  0.9775 -3.2831 -0.0158
 7601SOL    HW234437   4.444   1.532   4.764  1.6993 -0.9465  0.7166
 7602SOL     OW34438   3.163   2.912   3.108  0.3006 -0.3539 -0.1925
 7602SOL    HW134439   3.241   2.857   3.110  0.8902  0.4874 -0.1376
 7602SOL    HW234440   3.195   2.997   3.137 -3.1655  1.5977 -2.0639
 7603SOL     OW34441   1.242   3.093  14.235  0.0856  0.2428 -0.4103
 7603SOL    HW134442   1.170   3.143  14.197 -0.3375  0.7276  1.0160
 7603SOL    HW234443   1.261   3.146  14.312  0.5151  1.7899 -1.5899
 7604SOL     OW34444   2.336   1.547   3.516 -1.2008 -0.1758  0.1687
 7604SOL    HW134445   2.339   1.642   3.528 -0.3513 -0.2340  0.4195
 7604SOL    HW234446   2.365   1.512   3.600 -1.0488  1.0502  0.6313
 7605SOL     OW34447   3.593   2.519   6.390  0.2851  0.7575  0.1965
 7605SOL    HW134448   3.570   2.574   6.315 -1.6144  0.5542  0.6309
 7605SOL    HW234449   3.585   2.428   6.360 -1.2630  0.1701  2.3449
 7606SOL     OW34450   2.343   2.239   5.095 -0.0064 -0.0473 -0.0334
 7606SOL    HW134451   2.295   2.248   5.013  0.4572  2.8414  0.0403
 7606SOL    HW234452   2.431   2.224   5.061 -0.8753 -0.7799 -1.9372
 7607SOL     OW34453   4.258   0.563   8.423  1.0206  0.1566  0.7996
 7607SOL    HW134454   4.176   0.564   8.474  0.0568  2.1832 -0.8197
 7607SOL    HW234455   4.317   0.520   8.486  1.6011 -1.7021 -1.0289
 7608SOL     OW34456   0.578   2.968   1.612 -0.3718  0.0220 -0.2336
 7608SOL    HW134457   0.562   3.049   1.564  2.0673  0.5818 -0.1234
 7608SOL    HW234458   0.541   2.990   1.697 -1.6014 -0.5957 -0.6100
 7609SOL     OW34459   0.851   4.524   2.798  0.0312 -0.1623 -0.7760
 7609SOL    HW134460   0.797   4.584   2.849 -0.8272 -0.5719 -1.2001
 7609SOL    HW234461   0.786   4.455   2.781 -1.7112  1.0618  0.8243
 7610SOL     OW34462   2.568   2.840   7.995 -0.0614  0.1591  0.3472
 7610SOL    HW134463   2.559   2.909   7.930 -0.6942  1.0290  1.3415
 7610SOL    HW234464   2.539   2.763   7.947  0.4043  1.4944 -2.0352
 7611SOL     OW34465   3.324   3.247   7.086 -1.3405 -0.1441  0.5429
 7611SOL    HW134466   3.253   3.296   7.128 -1.3834 -0.3779  0.7426
 7611SOL    HW234467   3.391   3.274   7.148  0.9003 -0.1186 -1.9159
 7612SOL     OW34468   1.844   4.688   8.898 -0.2652 -0.7751  0.2742
 7612SOL    HW134469   1.783   0.005   8.850  1.3929  1.1996  0.4589
 7612SOL    HW234470   1.821   4.715   8.987 -0.0331 -3.3443  1.1066
 7613SOL     OW34471   2.120   1.211   2.512 -0.6961 -0.2598  0.1827
 7613SOL    HW134472   2.040   1.238   2.466  1.1294  0.3467 -2.6284
 7613SOL    HW234473   2.138   1.274   2.581  0.9949  0.4215 -0.8809
 7614SOL     OW34474   2.112   3.718   7.469 -0.1581  0.6165  0.2120
 7614SOL    HW134475   2.107   3.661   7.547  0.1941  1.8580  1.1345
 7614SOL    HW234476   2.047   3.786   7.485 -1.7886 -1.0516  0.8413
 7615SOL     OW34477   0.548   1.318   0.724  0.1661  0.0657  0.3558
 7615SOL    HW134478   0.505   1.307   0.809  0.0001  0.5931  0.3379
 7615SOL    HW234479   0.635   1.297   0.759  1.1140  3.0495 -0.2514
 7616SOL     OW34480   0.116   1.436  10.859  0.1232 -0.1869  0.2157
 7616SOL    HW134481   0.197   1.460  10.814 -0.4471 -1.9470 -1.7268
 7616SOL    HW234482   0.093   1.354  10.817 -0.1870 -0.4580  0.9113
 7617SOL     OW34483   0.262   1.430  11.773 -0.2183  0.8667  0.1359
 7617SOL    HW134484   0.302   1.398  11.854  1.0355  0.6104 -0.5890
 7617SOL    HW234485   0.168   1.421  11.787 -0.1194  1.6698  1.3229
 7618SOL     OW34486   2.071   2.504   2.627 -0.6600 -0.4951 -0.2072
 7618SOL    HW134487   2.123   2.585   2.631  0.5163 -1.3445  1.3874
 7618SOL    HW234488   2.095   2.477   2.538  1.0256 -2.6341  0.9231
 7619SOL     OW34489   0.920   1.346   5.478  0.1449 -0.1607  0.3617
 7619SOL    HW134490   0.913   1.386   5.392  3.0365 -2.2798 -0.8779
 7619SOL    HW234491   0.976   1.270   5.462 -1.5963 -1.3478 -0.0194
 7620SOL     OW34492   1.873   0.956  13.529 -0.0789  0.1837 -0.0184
 7620SOL    HW134493   1.968   0.949  13.535  0.0662  2.4047  0.4807
 7620SOL    HW234494   1.861   1.044  13.564  1.3354  0.5362 -0.4380
 7621SOL     OW34495   3.431   3.640   2.161 -0.4745 -0.4211  0.3785
 7621SOL    HW134496   3.434   3.718   2.104  0.8622 -0.5010  0.3333
 7621SOL    HW234497   3.411   3.578   2.090 -0.0314 -1.6817  1.3741
 7622SOL     OW34498   3.120   3.012   0.676 -0.9173 -0.0341  0.1255
 7622SOL    HW134499   3.107   2.926   0.718 -2.9882 -0.3316 -1.1302
 7622SOL    HW234500   3.147   2.985   0.589 -0.9897 -1.6319  0.5876
 7623SOL     OW34501   2.649   0.891   4.794  0.5613 -0.3602  0.1931
 7623SOL    HW134502   2.583   0.835   4.834  0.8857 -0.1135  1.0657
 7623SOL    HW234503   2.599   0.972   4.799  0.8111 -0.2881  1.5710
 7624SOL     OW34504   2.657   2.664   3.873  0.2364  0.4777 -0.1490
 7624SOL    HW134505   2.689   2.595   3.815  0.1457 -0.2514  0.6775
 7624SOL    HW234506   2.586   2.703   3.822  0.5261  0.6428 -0.4306
 7625SOL     OW34507   2.715   2.602   6.739  0.2591  0.1530 -0.0791
 7625SOL    HW134508   2.798   2.645   6.761  0.9322 -0.8439 -0.6678
 7625SOL    HW234509   2.667   2.682   6.758  0.0856  0.1181 -0.3626
 7626SOL     OW34510   4.299   0.415   7.067 -0.4652  0.2193 -0.8770
 7626SOL    HW134511   4.212   0.446   7.090 -0.4964 -0.0873 -0.5815
 7626SOL    HW234512   4.286   0.384   6.977  0.9507  3.3888 -2.1636
 7627SOL     OW34513   4.622   2.665  13.079 -0.1526  0.0115 -0.0850
 7627SOL    HW134514   4.580   2.597  13.026  0.0087  0.3735 -0.6718
 7627SOL    HW234515   4.591   2.649  13.168  0.9365  2.1524  0.6880
 7628SOL     OW34516   1.243   4.138   2.014  0.3287  0.4200  0.7444
 7628SOL    HW134517   1.333   4.170   2.006  0.5474 -0.5998 -0.9919
 7628SOL    HW234518   1.195   4.202   1.962  0.7785  0.1661  0.0103
 7629SOL     OW34519   1.300   3.202  12.530  0.0844  0.5493  0.7556
 7629SOL    HW134520   1.287   3.117  12.573  2.4941  0.0135  0.3897
 7629SOL    HW234521   1.385   3.236  12.556 -0.2807  1.2020  1.1089
 7630SOL     OW34522   2.552   1.285  15.587  0.2398 -0.4782  0.3415
 7630SOL    HW134523   2.632   1.256  15.631  0.1510 -0.7718  0.3114
 7630SOL    HW234524   2.571   1.378  15.599 -0.0964 -0.4557  0.6791
 7631SOL     OW34525   1.290   3.121   9.090 -0.5880 -0.2223  0.2863
 7631SOL    HW134526   1.296   3.047   9.149  0.7993 -1.0236 -0.8409
 7631SOL    HW234527   1.265   3.188   9.153 -0.1225  0.6797 -0.4692
 7632SOL     OW34528   1.902   3.700  17.153  0.0181 -0.5948  0.3350
 7632SOL    HW134529   1.975   3.643  17.132  0.8383  0.9317 -0.9635
 7632SOL    HW234530   1.857   3.722  17.072  1.6336  1.2059 -0.0809
 7633SOL     OW34531   4.571   2.001   4.147 -0.6380  0.0698 -0.0726
 7633SOL    HW134532   4.549   2.078   4.093 -3.1104  0.5700  1.6586
 7633SOL    HW234533   4.615   2.043   4.221 -1.1320 -0.2854  0.4206
 7634SOL     OW34534   1.967   3.348  17.049  0.3095  0.0655  0.5294
 7634SOL    HW134535   2.019   3.267  17.044  2.6905  1.6606 -0.7914
 7634SOL    HW234536   1.932   3.346  17.138 -0.4721  0.4255  0.2297
 7635SOL     OW34537   3.405   2.382   7.561 -0.1319  0.5212  0.3070
 7635SOL    HW134538   3.361   2.304   7.526  0.8243  1.0282 -2.0102
 7635SOL    HW234539   3.357   2.389   7.644 -0.5159 -0.5685  0.1814
 7636SOL     OW34540   3.418   3.649   8.842 -0.0540  0.5281  0.6189
 7636SOL    HW134541   3.452   3.610   8.923 -1.9720  0.8309  1.5785
 7636SOL    HW234542   3.481   3.614   8.779 -3.2946 -0.7589 -1.9083
 7637SOL     OW34543   3.803   0.102   1.876  0.0808 -0.1080  0.5624
 7637SOL    HW134544   3.884   0.132   1.834 -0.8209  0.7702 -0.5492
 7637SOL    HW234545   3.761   0.187   1.867 -1.0576 -0.9380 -2.0437
 7638SOL     OW34546   1.449   4.625   6.264  0.4607 -0.2095 -0.2661
 7638SOL    HW134547   1.544   4.611   6.268  0.0545 -3.1266 -0.5704
 7638SOL    HW234548   1.425   4.533   6.252  2.3649 -0.9086  1.2648
 7639SOL     OW34549   1.315   4.114   8.520  0.2707  0.6338 -0.3449
 7639SOL    HW134550   1.329   4.205   8.493  0.6607  0.5109 -0.5600
 7639SOL    HW234551   1.335   4.071   8.437 -2.5368  0.6375 -1.0441
 7640SOL     OW34552   0.968   1.626  15.503 -0.6930  0.2527 -0.3667
 7640SOL    HW134553   1.041   1.687  15.496  0.0434 -0.6975 -1.0094
 7640SOL    HW234554   1.001   1.550  15.455 -0.9072 -1.1868  1.7150
 7641SOL     OW34555   2.769   4.634   8.308 -0.0667 -0.5971  0.4778
 7641SOL    HW134556   2.827   4.572   8.263 -0.6655 -0.0134 -1.0974
 7641SOL    HW234557   2.719   4.678   8.239  1.8598  0.6227 -0.1583
 7642SOL     OW34558   0.165   0.371   3.721 -0.3377  0.0391  0.3221
 7642SOL    HW134559   0.226   0.420   3.665  1.4645 -1.9782  0.4887
 7642SOL    HW234560   0.223   0.306   3.761  0.9472  0.4467 -0.8596
 7643SOL     OW34561   4.159   0.918   3.612 -0.3077  0.4766  0.3510
 7643SOL    HW134562   4.070   0.900   3.583  0.7835 -1.8341 -1.5209
 7643SOL    HW234563   4.156   0.903   3.707 -0.2831 -0.7442  0.1557
 7644SOL     OW34564   1.832   1.902   6.948 -0.0840 -0.1730 -0.1648
 7644SOL    HW134565   1.853   1.996   6.950 -0.9101  0.0499 -1.7919
 7644SOL    HW234566   1.768   1.901   6.877 -0.2733  1.7801 -0.0380
 7645SOL     OW34567   3.085   3.409   8.378  0.3640 -1.0491  0.0641
 7645SOL    HW134568   3.174   3.396   8.410  0.4644  0.8263  0.5780
 7645SOL    HW234569   3.040   3.327   8.398 -0.5323 -0.1856  1.6139
 7646SOL     OW34570   1.546   2.604  14.350 -0.3677 -0.1167 -0.0977
 7646SOL    HW134571   1.641   2.609  14.358 -0.7020  5.3446  0.5346
 7646SOL    HW234572   1.529   2.675  14.288  0.2411  1.7878  1.9046
 7647SOL     OW34573   4.274   3.305   3.774 -0.1831 -0.1869 -0.0443
 7647SOL    HW134574   4.336   3.275   3.707 -1.3584 -0.7806 -0.8592
 7647SOL    HW234575   4.241   3.229   3.822  2.0156  0.0796  1.9071
 7648SOL     OW34576   2.766   3.200  10.938 -0.0585  0.2171 -0.4544
 7648SOL    HW134577   2.803   3.226  11.023 -0.8448 -0.8409  0.1973
 7648SOL    HW234578   2.682   3.168  10.970 -0.7087 -0.5652 -3.0106
 7649SOL     OW34579   3.909   0.574   6.874 -0.0841  0.1602  0.5621
 7649SOL    HW134580   3.922   0.554   6.782 -1.1860 -0.8957  0.6464
 7649SOL    HW234581   3.816   0.569   6.896 -0.6783  0.5503 -1.8904
 7650SOL     OW34582   4.510   2.579   5.838  0.1249  0.3391  0.1137
 7650SOL    HW134583   4.586   2.526   5.862  0.5134  0.9791  0.2908
 7650SOL    HW234584   4.517   2.640   5.912 -0.6448  2.5814 -1.6775
 7651SOL     OW34585   0.843   2.047   8.742  0.3174 -0.0474 -0.0953
 7651SOL    HW134586   0.850   2.071   8.834  0.0053 -1.2787  0.2573
 7651SOL    HW234587   0.928   2.007   8.722 -1.0764 -2.2825 -1.5265
 7652SOL     OW34588   1.505   4.611   6.635  0.1634 -0.7748  0.1524
 7652SOL    HW134589   1.428   4.627   6.581 -1.5142 -0.6053  2.6037
 7652SOL    HW234590   1.555   4.692   6.637  0.0500 -0.7465  1.3704
 7653SOL     OW34591   0.937   3.811   3.756 -0.3577 -0.1056  0.1184
 7653SOL    HW134592   0.902   3.870   3.690 -0.9410 -1.2263 -0.5599
 7653SOL    HW234593   0.937   3.730   3.705 -0.8346  1.8142 -2.9217
 7654SOL     OW34594   2.264   1.513   2.540 -0.8502  0.4328 -0.3554
 7654SOL    HW134595   2.336   1.450   2.539 -2.0614 -1.0220  1.9753
 7654SOL    HW234596   2.273   1.552   2.627  0.7495  1.5259 -1.0147
 7655SOL     OW34597   2.846   1.585  14.280  0.1490 -0.5784 -0.4562
 7655SOL    HW134598   2.790   1.572  14.204 -1.6039  0.7465  0.6152
 7655SOL    HW234599   2.915   1.645  14.252 -1.4035  1.0552 -0.7635
 7656SOL     OW34600   4.686   4.166   7.221 -0.3832 -0.2075  0.0363
 7656SOL    HW134601   4.735   4.084   7.216 -2.2456 -1.3261  0.0463
 7656SOL    HW234602   0.015   4.231   7.207  0.4904 -1.2962 -0.7166
 7657SOL     OW34603   2.887   3.652   8.368 -0.5369 -0.2345  0.4385
 7657SOL    HW134604   2.801   3.639   8.328 -1.5087  2.7996  1.5577
 7657SOL    HW234605   2.925   3.570   8.337  0.7455  0.8831 -0.9862
 7658SOL     OW34606   0.798   2.775   6.502 -0.6051 -0.6133  0.3576
 7658SOL    HW134607   0.715   2.730   6.492 -1.4626  1.3659 -1.3954
 7658SOL    HW234608   0.771   2.839   6.568  0.1124  0.7792 -0.7037
 7659SOL     OW34609   2.378   2.233  15.788  0.3800 -0.6847  0.2946
 7659SOL    HW134610   2.362   2.153  15.838  0.6703 -0.6207  0.4832
 7659SOL    HW234611   2.471   2.237  15.767  0.4948  0.8057  1.0796
 7660SOL     OW34612   0.955   2.213   6.830 -0.1678  0.2769 -0.5901
 7660SOL    HW134613   0.875   2.187   6.784  0.0232  1.2952 -1.4907
 7660SOL    HW234614   0.915   2.216   6.917  1.3221 -0.9595  0.1291
 7661SOL     OW34615   1.898   4.049   7.988 -0.2388 -0.7022 -0.3642
 7661SOL    HW134616   1.914   3.957   7.966 -1.7647 -0.4179 -2.6115
 7661SOL    HW234617   1.822   4.036   8.044  0.0975 -1.6174 -0.1178
 7662SOL     OW34618   3.583   2.581   8.560 -0.1550  0.0234  0.7474
 7662SOL    HW134619   3.545   2.668   8.549 -2.9249 -1.3144 -0.2632
 7662SOL    HW234620   3.658   2.580   8.501  0.1522  0.1019  1.1342
 7663SOL     OW34621   0.931   3.176   3.870 -0.1785  0.1521 -0.3725
 7663SOL    HW134622   0.972   3.101   3.913  2.2638  2.0409  0.6362
 7663SOL    HW234623   0.871   3.120   3.822  0.6192 -0.0108 -1.1812
 7664SOL     OW34624   4.720   3.342   3.656  0.3911  0.0009  0.8419
 7664SOL    HW134625   4.734   3.431   3.623 -3.3948 -0.2115 -1.2656
 7664SOL    HW234626   4.635   3.306   3.633  0.4346  0.5859 -0.2439
 7665SOL     OW34627   3.809   2.227   8.282  0.2573  0.1833  0.1949
 7665SOL    HW134628   3.787   2.243   8.374  1.6219 -2.0649  0.8928
 7665SOL    HW234629   3.901   2.203   8.289  0.9250  2.0272 -1.9543
 7666SOL     OW34630   3.579   1.815  15.042 -0.4271  0.7251  0.2151
 7666SOL    HW134631   3.652   1.781  14.990 -1.0086  1.7132 -1.2511
 7666SOL    HW234632   3.541   1.737  15.084 -0.8084  0.6703 -0.2336
 7667SOL     OW34633   1.905   3.970  11.099 -0.4876  0.7138 -0.0186
 7667SOL    HW134634   1.871   3.893  11.053  0.4332 -1.0336  2.2238
 7667SOL    HW234635   1.967   4.008  11.036 -2.2604  0.7816 -1.7276
 7668SOL     OW34636   1.025   2.695   9.671  0.0495 -0.6518 -0.0069
 7668SOL    HW134637   0.977   2.770   9.637  1.8472 -0.1145 -1.4292
 7668SOL    HW234638   1.004   2.629   9.604  0.1575 -0.6185 -0.0747
 7669SOL     OW34639   2.578   0.665   1.878  0.6468  0.0247 -0.0521
 7669SOL    HW134640   2.564   0.598   1.812 -2.1341 -0.1889  0.7877
 7669SOL    HW234641   2.582   0.751   1.836 -0.3987 -0.4376 -1.0867
 7670SOL     OW34642   0.903   0.625   5.999 -0.2663 -0.9694  0.6353
 7670SOL    HW134643   0.827   0.626   6.057 -0.9195  1.0623 -0.2650
 7670SOL    HW234644   0.928   0.533   5.989 -1.4268 -1.3731  1.3178
 7671SOL     OW34645   3.640   0.449   5.033  0.1013  0.1217  0.2735
 7671SOL    HW134646   3.673   0.429   4.946  0.4896  0.0671  0.4288
 7671SOL    HW234647   3.583   0.374   5.052 -0.2274  1.0217  2.9335
 7672SOL     OW34648   3.104   1.942   9.372 -0.2036  0.1935 -0.0347
 7672SOL    HW134649   3.159   1.992   9.432  2.1387 -1.0560 -1.1289
 7672SOL    HW234650   3.086   1.869   9.431 -0.3876  0.3182  0.0641
 7673SOL     OW34651   1.740   2.055   9.749 -0.9976 -0.3733 -0.0413
 7673SOL    HW134652   1.710   2.047   9.840  1.8694  2.3507  1.1240
 7673SOL    HW234653   1.787   1.972   9.741 -0.1038  0.1454 -0.1368
 7674SOL     OW34654   2.442   2.125   8.259 -0.2884  0.2826  0.3564
 7674SOL    HW134655   2.509   2.071   8.218 -0.6795  0.1587 -0.1201
 7674SOL    HW234656   2.364   2.070   8.253 -0.0544 -0.0814  0.6627
 7675SOL     OW34657   3.348   2.313   7.852 -0.6206  0.1784  0.6172
 7675SOL    HW134658   3.306   2.272   7.928  1.6562 -0.1911  1.6622
 7675SOL    HW234659   3.435   2.274   7.856 -2.1825 -3.4582 -0.7684
 7676SOL     OW34660   2.452   2.435   5.524  0.3747 -0.2541  0.6012
 7676SOL    HW134661   2.449   2.406   5.433  1.3908  1.0921  0.1412
 7676SOL    HW234662   2.393   2.510   5.530 -0.6395 -0.9928 -0.2488
 7677SOL     OW34663   0.290   1.875   9.994 -0.5502  0.0777  0.4612
 7677SOL    HW134664   0.316   1.923  10.072 -0.2681 -1.9024  1.6097
 7677SOL    HW234665   0.373   1.835   9.969 -0.7000 -0.2540  0.4890
 7678SOL     OW34666   3.675   4.334   8.448  0.0323 -0.0685  0.8259
 7678SOL    HW134667   3.605   4.400   8.449 -0.8416 -1.0110  1.0858
 7678SOL    HW234668   3.643   4.285   8.524  2.4289 -2.0445  0.5604
 7679SOL     OW34669   3.431   2.923   7.719  0.1596 -0.3963 -0.2831
 7679SOL    HW134670   3.410   3.015   7.733 -0.4855 -1.0103  2.8348
 7679SOL    HW234671   3.355   2.884   7.764  0.0426  0.3697  0.1738
 7680SOL     OW34672   0.962   1.188   2.655 -0.3123  0.4539 -1.2031
 7680SOL    HW134673   0.918   1.272   2.642 -1.7654 -0.1351 -0.0845
 7680SOL    HW234674   1.029   1.194   2.587  2.0168  0.7743  1.1648
 7681SOL     OW34675   4.169   1.461   1.914  0.1350  0.1566 -0.1394
 7681SOL    HW134676   4.202   1.396   1.852  1.5637  0.6874  0.0419
 7681SOL    HW234677   4.105   1.411   1.964 -0.3938  0.3580 -0.6253
 7682SOL     OW34678   2.005   1.483   5.792  0.0889 -0.0714 -0.5935
 7682SOL    HW134679   1.995   1.401   5.744  1.0692  0.3044 -1.4482
 7682SOL    HW234680   2.029   1.448   5.878  0.7669 -1.3658 -1.3148
 7683SOL     OW34681   1.335   4.556   5.245 -0.9536 -0.3703 -0.1682
 7683SOL    HW134682   1.374   4.512   5.320  1.2666 -0.8216 -1.5875
 7683SOL    HW234683   1.357   4.494   5.175 -0.8335  0.9446 -1.3024
 7684SOL     OW34684   2.708   1.209   7.240 -0.1454  0.0190 -1.0363
 7684SOL    HW134685   2.655   1.142   7.196  0.4741 -1.5065  0.5474
 7684SOL    HW234686   2.643   1.277   7.255  0.9840  1.0734 -0.8502
 7685SOL     OW34687   2.303   0.768   7.259  0.5984  0.1705 -0.7701
 7685SOL    HW134688   2.295   0.829   7.332  2.2975 -0.3952 -0.0878
 7685SOL    HW234689   2.242   0.806   7.196  1.3272 -0.7027 -2.0056
 7686SOL     OW34690   1.764   1.825   4.687 -0.2017  0.3232 -0.0693
 7686SOL    HW134691   1.783   1.918   4.695 -1.3994  0.4468  1.1592
 7686SOL    HW234692   1.800   1.790   4.769  2.1221 -2.3107 -2.1991
 7687SOL     OW34693   4.050   4.632   1.182  0.3965 -0.2078 -0.5975
 7687SOL    HW134694   4.116   4.631   1.251 -0.5234  0.6354  0.2869
 7687SOL    HW234695   4.095   4.590   1.108 -0.6790 -4.1475  0.9851
 7688SOL     OW34696   2.163   4.084   3.774  0.2405  0.1718  0.4688
 7688SOL    HW134697   2.155   4.010   3.834 -1.1366 -0.1303 -0.0977
 7688SOL    HW234698   2.155   4.037   3.690  0.3328  1.2620 -0.1525
 7689SOL     OW34699   3.951   2.894   6.538  0.1716  0.1349  0.7993
 7689SOL    HW134700   3.891   2.820   6.540 -0.1237  0.3634  0.3504
 7689SOL    HW234701   3.927   2.940   6.619  1.2892  1.6948  0.2424
 7690SOL     OW34702   2.813   2.393  15.407  0.0796  0.0030 -0.2552
 7690SOL    HW134703   2.763   2.465  15.369  0.9219 -0.0259 -1.4105
 7690SOL    HW234704   2.777   2.392  15.496  0.5689 -0.3595 -0.0608
 7691SOL     OW34705   0.870   2.159   1.630  0.0962  0.4768 -0.0282
 7691SOL    HW134706   0.908   2.202   1.553  2.5562  0.0665  0.9886
 7691SOL    HW234707   0.788   2.139   1.584  0.2751  1.4112 -0.7422
 7692SOL     OW34708   0.094   3.744   4.118 -0.7536  0.1588  0.2847
 7692SOL    HW134709   0.036   3.722   4.191 -0.2522  0.2070  0.6973
 7692SOL    HW234710   0.139   3.661   4.100 -1.0596 -0.1963  1.1929
 7693SOL     OW34711   1.833   4.260  15.028  0.1670  0.1398  0.1857
 7693SOL    HW134712   1.767   4.201  15.065  0.6539 -0.1054  0.6494
 7693SOL    HW234713   1.886   4.283  15.104  0.6766 -1.7108  0.3759
 7694SOL     OW34714   2.915   4.036   8.905  0.2437 -0.1808 -0.1491
 7694SOL    HW134715   2.912   3.953   8.953  0.2375  0.2170  0.5261
 7694SOL    HW234716   2.975   4.019   8.832 -1.2698  0.4655 -1.5444
 7695SOL     OW34717   0.482   1.854   5.078  0.6256 -0.3461 -0.5520
 7695SOL    HW134718   0.459   1.822   4.990  2.2293 -3.0574  0.0251
 7695SOL    HW234719   0.549   1.789   5.099  0.6503 -0.9715 -2.5546
 7696SOL     OW34720   4.706   3.156   4.886  0.0192  0.4817 -0.1584
 7696SOL    HW134721   0.060   3.169   4.873 -0.3779  2.7028 -0.8861
 7696SOL    HW234722   4.666   3.234   4.847  0.2036  0.6630  0.0126
 7697SOL     OW34723   4.005   3.678  16.217 -0.0594  0.0047  0.0886
 7697SOL    HW134724   4.003   3.749  16.281  1.2422 -2.2764  2.6087
 7697SOL    HW234725   4.078   3.634  16.260 -0.3202 -0.8962 -0.3842
 7698SOL     OW34726   2.314   1.500  16.165 -0.4311 -0.0299 -0.3349
 7698SOL    HW134727   2.406   1.488  16.188 -1.1369  0.3033  2.6905
 7698SOL    HW234728   2.290   1.411  16.141  1.0153 -0.7170  0.8161
 7699SOL     OW34729   4.144   1.871  13.819 -0.4346 -0.0241  0.6205
 7699SOL    HW134730   4.056   1.895  13.848 -1.2612 -2.3489  0.0588
 7699SOL    HW234731   4.189   1.955  13.821 -0.7270  0.1937 -2.1743
 7700SOL     OW34732   4.437   1.350   8.108  0.6032  0.0886  0.1751
 7700SOL    HW134733   4.346   1.375   8.095  1.3307  2.0958 -1.1741
 7700SOL    HW234734   4.451   1.297   8.030 -0.5197  0.5418 -0.3307
 7701SOL     OW34735   2.989   1.140   7.843 -0.1197  0.4237  0.2469
 7701SOL    HW134736   2.923   1.202   7.812  1.1817  1.2469 -0.9091
 7701SOL    HW234737   3.001   1.080   7.769 -1.7181 -0.6818  0.8907
 7702SOL     OW34738   2.826   4.607   6.605  0.1873  0.1994 -0.0654
 7702SOL    HW134739   2.868   4.596   6.690  0.3579  1.3525  0.0076
 7702SOL    HW234740   2.853   4.525   6.564 -0.6369 -1.0099  1.8423
 7703SOL     OW34741   3.813   3.368   1.751  0.2307  0.6181 -0.0554
 7703SOL    HW134742   3.775   3.407   1.673  2.6510  0.0572 -1.5144
 7703SOL    HW234743   3.753   3.408   1.815  2.1582  4.8735 -0.8629
 7704SOL     OW34744   0.880   0.380   8.855  0.5656  0.3260  0.0434
 7704SOL    HW134745   0.825   0.458   8.865 -0.1363 -0.1457 -0.0601
 7704SOL    HW234746   0.966   0.407   8.824  1.9771 -0.9442  2.9375
 7705SOL     OW34747   3.425   0.969   4.967 -0.6082  0.4167  0.3695
 7705SOL    HW134748   3.480   0.921   5.029 -2.4357 -2.8111 -0.5417
 7705SOL    HW234749   3.342   0.938   5.003  0.2928 -0.8248  1.3775
 7706SOL     OW34750   3.531   3.799  16.595  0.1693  0.0205 -0.2692
 7706SOL    HW134751   3.514   3.892  16.612 -1.7124 -0.3805  0.0409
 7706SOL    HW234752   3.516   3.800  16.500 -0.0819  1.4020 -0.2244
 7707SOL     OW34753   3.422   0.973   1.924  0.6983 -0.0222 -0.6559
 7707SOL    HW134754   3.497   1.032   1.913 -1.4322  2.3929 -2.2100
 7707SOL    HW234755   3.353   1.016   1.873 -1.2093  0.5722  2.4534
 7708SOL     OW34756   1.365   1.499   0.655  0.2760 -0.0309  0.2322
 7708SOL    HW134757   1.291   1.438   0.666  1.0155 -1.0015 -0.1367
 7708SOL    HW234758   1.417   1.472   0.731  1.3053  2.2798  0.3342
 7709SOL     OW34759   2.827   2.400   9.177  0.0338 -0.0094  0.2773
 7709SOL    HW134760   2.832   2.305   9.177 -3.3913 -0.1809 -0.3965
 7709SOL    HW234761   2.921   2.406   9.160  0.0860 -2.4063 -0.2687
 7710SOL     OW34762   2.094   4.200   1.281  0.1294  0.2413  0.1716
 7710SOL    HW134763   2.031   4.247   1.336 -2.1429 -0.6594 -1.7091
 7710SOL    HW234764   2.062   4.111   1.296 -2.1803  1.0897  0.3080
 7711SOL     OW34765   1.902   1.697  17.285 -0.5550  0.3742 -0.0239
 7711SOL    HW134766   1.871   1.784  17.309  2.4875  0.7527  2.5527
 7711SOL    HW234767   1.992   1.714  17.258 -0.8226 -0.9383 -1.7089
 7712SOL     OW34768   2.082   1.884   3.648  0.1317  0.8643 -0.0349
 7712SOL    HW134769   2.063   1.848   3.562 -1.9686 -0.9320  1.1652
 7712SOL    HW234770   2.088   1.979   3.640  0.0778  0.8246 -0.5282
 7713SOL     OW34771   2.482   1.256   6.366  0.2052  0.3451  1.0274
 7713SOL    HW134772   2.536   1.240   6.443  0.0519 -1.9112  0.6609
 7713SOL    HW234773   2.397   1.225   6.398  0.0381  0.5247  0.7613
 7714SOL     OW34774   0.157   3.127  10.351  0.3997  0.2373 -0.1833
 7714SOL    HW134775   0.156   3.042  10.307  1.1530  1.2283 -2.0900
 7714SOL    HW234776   0.120   3.184  10.284  1.8715  1.2406 -0.1336
 7715SOL     OW34777   2.931   0.960   3.445 -0.0767  0.8990  0.0228
 7715SOL    HW134778   2.851   1.010   3.463 -1.3762 -0.4923 -1.8905
 7715SOL    HW234779   2.959   0.949   3.536  3.2011  0.4096 -1.0671
 7716SOL     OW34780   0.033   4.330   7.578 -0.0262 -0.1553  0.0629
 7716SOL    HW134781   4.720   4.404   7.611  1.8130 -0.0010  2.5710
 7716SOL    HW234782   4.702   4.290   7.527  0.0254 -1.2113  0.8224
 7717SOL     OW34783   1.567   0.903   8.477 -0.2904 -0.6251 -0.0025
 7717SOL    HW134784   1.556   0.988   8.522 -2.2660 -1.8831  1.9100
 7717SOL    HW234785   1.499   0.908   8.410 -2.1010 -0.6756  1.8309
 7718SOL     OW34786   4.604   2.575   1.804  0.0269 -0.1696  0.2636
 7718SOL    HW134787   4.600   2.568   1.709  0.9265  0.9754  0.1507
 7718SOL    HW234788   4.599   2.480   1.813  2.8137 -0.1402  2.2115
 7719SOL     OW34789   2.385   3.637   0.764  0.1389 -0.0275 -0.4454
 7719SOL    HW134790   2.385   3.586   0.683  0.2372  0.5988 -0.8390
 7719SOL    HW234791   2.391   3.719   0.716 -0.6354 -0.0149 -0.5117
 7720SOL     OW34792   4.517   1.571   6.775 -0.2449 -0.1637  0.0457
 7720SOL    HW134793   4.427   1.592   6.802  0.8618  3.0817  1.1770
 7720SOL    HW234794   4.539   1.654   6.733 -1.5757 -1.2318 -2.7610
 7721SOL     OW34795   2.111   0.031  16.050  0.3060  0.3925  0.5563
 7721SOL    HW134796   2.041   0.070  15.998  0.3626  0.5091  0.5676
 7721SOL    HW234797   2.184   0.031  15.988 -0.5997  1.8395 -0.5023
 7722SOL     OW34798   3.648   1.447   7.774 -0.3976  0.0776  0.1335
 7722SOL    HW134799   3.730   1.423   7.731 -0.8478  2.8256 -2.3128
 7722SOL    HW234800   3.670   1.451   7.867  1.4338 -0.5879 -0.2684
 7723SOL     OW34801   3.922   4.542  12.239 -0.0644  0.6443  0.4578
 7723SOL    HW134802   3.903   4.531  12.145  0.0334  0.5397  0.4511
 7723SOL    HW234803   3.976   4.463  12.246 -2.2993 -0.9927 -0.8499
 7724SOL     OW34804   1.047   1.794  17.662  0.4830 -0.8826 -0.1624
 7724SOL    HW134805   1.132   1.754  17.643  0.8117  0.8984 -2.4195
 7724SOL    HW234806   1.034   1.789   0.001 -0.7354 -0.0784 -0.2842
 7725SOL     OW34807   3.592   4.577  15.983 -0.4227  0.3671 -0.3432
 7725SOL    HW134808   3.675   4.561  15.939  0.2191 -0.0561  1.0369
 7725SOL    HW234809   3.540   4.579  15.902 -1.3123  0.2183  0.2185
 7726SOL     OW34810   2.078   3.971   1.971  0.1016 -0.4756  0.1110
 7726SOL    HW134811   2.030   3.923   2.038 -2.8124  1.6309 -0.4256
 7726SOL    HW234812   2.071   4.064   1.995  1.4982 -0.2960 -0.1534
 7727SOL     OW34813   3.043   4.110   2.767 -0.6351 -0.0491  0.2028
 7727SOL    HW134814   3.038   4.160   2.849  1.4162 -1.1341  1.0013
 7727SOL    HW234815   3.099   4.037   2.792 -0.0355  0.1674 -0.5241
 7728SOL     OW34816   1.822   4.391   4.996 -0.5094 -0.3543 -0.7029
 7728SOL    HW134817   1.894   4.369   4.938  0.4887 -0.2606  0.5077
 7728SOL    HW234818   1.815   4.486   4.986 -2.2787 -0.4144  0.0082
 7729SOL     OW34819   0.346   3.291   1.319 -0.0394 -0.2849 -0.2703
 7729SOL    HW134820   0.343   3.314   1.226  1.3399  1.0117  0.0040
 7729SOL    HW234821   0.436   3.260   1.325 -0.0048  0.1636  1.4490
 7730SOL     OW34822   4.289   0.019   1.738  0.8674 -0.9061  0.4437
 7730SOL    HW134823   4.337   4.711   1.670  1.7270  2.3789 -1.2805
 7730SOL    HW234824   4.260   4.687   1.793  1.4814 -2.0550 -0.7295
 7731SOL     OW34825   3.923   4.466   1.956 -0.1563 -0.7353  0.6616
 7731SOL    HW134826   3.888   4.380   1.979  2.6576 -1.7036  1.3218
 7731SOL    HW234827   3.848   4.487   1.901 -0.2081  0.1168  1.0666
 7732SOL     OW34828   4.621   2.206   5.756 -0.2354  0.3095 -0.4716
 7732SOL    HW134829   4.649   2.129   5.707  1.0083  0.9936 -0.8642
 7732SOL    HW234830   4.699   2.260   5.740 -0.6535  0.4772 -1.9622
 7733SOL     OW34831   2.958   3.432   4.398  0.1342 -0.0076 -0.3934
 7733SOL    HW134832   2.977   3.344   4.432 -1.2054  0.3813  1.3817
 7733SOL    HW234833   2.942   3.406   4.308  1.5860  3.2616 -1.5919
 7734SOL     OW34834   2.836   3.003  11.231 -0.5849  0.2783 -0.0008
 7734SOL    HW134835   2.816   3.096  11.228 -0.9956  0.3441  4.4164
 7734SOL    HW234836   2.908   3.007  11.294 -0.0365 -1.2703 -0.5125
 7735SOL     OW34837   0.706   4.005   1.755  0.1080 -0.2653 -0.0044
 7735SOL    HW134838   0.636   3.958   1.708  0.7471 -0.9632 -0.2721
 7735SOL    HW234839   0.738   4.066   1.688 -0.8312  1.1716  0.8634
 7736SOL     OW34840   3.549   1.030  10.198  0.0222  0.2479  0.1550
 7736SOL    HW134841   3.632   1.077  10.189  0.2666 -0.2115  0.0289
 7736SOL    HW234842   3.581   0.940  10.199 -3.2869 -0.9073  1.7346
 7737SOL     OW34843   1.151   0.065  14.185 -0.8224 -0.0816  0.1796
 7737SOL    HW134844   1.203   0.046  14.263 -2.5944 -1.1714  1.1065
 7737SOL    HW234845   1.080   0.115  14.226 -0.9851  0.6535 -0.9992
 7738SOL     OW34846   0.662   0.904   1.379 -0.5920  0.3990  0.0771
 7738SOL    HW134847   0.658   0.811   1.404  1.1657  1.0158  2.5465
 7738SOL    HW234848   0.584   0.940   1.421 -0.4128 -0.5275  1.2118
 7739SOL     OW34849   3.678   2.161   3.862  0.3843 -0.1813 -0.5955
 7739SOL    HW134850   3.677   2.201   3.949 -0.9581 -1.3176 -0.0929
 7739SOL    HW234851   3.681   2.237   3.803 -0.2242  0.7029  0.5237
 7740SOL     OW34852   3.459   4.014   9.142 -0.1479  0.5939  0.1760
 7740SOL    HW134853   3.398   3.956   9.096 -0.9392  1.8992 -0.4387
 7740SOL    HW234854   3.396   4.040   9.209 -1.1317 -1.2353 -0.0314
 7741SOL     OW34855   1.828   0.954   9.448  0.3444  0.5084  0.0095
 7741SOL    HW134856   1.852   1.043   9.423 -1.4709  1.2527  0.9665
 7741SOL    HW234857   1.881   0.900   9.389  1.3364  1.4311  0.0655
 7742SOL     OW34858   0.711   0.207   7.825 -0.1223 -0.0248  0.4339
 7742SOL    HW134859   0.753   0.158   7.754  2.5404  0.4509  1.6501
 7742SOL    HW234860   0.626   0.180   7.791 -0.2926 -1.2390  1.8255
 7743SOL     OW34861   3.940   3.645   6.245  0.0848  0.0706  0.7690
 7743SOL    HW134862   3.845   3.652   6.249  0.1711  0.5308  1.9811
 7743SOL    HW234863   3.933   3.576   6.310  0.3184 -1.5307 -0.9268
 7744SOL     OW34864   3.870   2.629   6.194 -0.0601  0.2943  0.1249
 7744SOL    HW134865   3.847   2.589   6.109 -1.1481  1.7859 -0.2725
 7744SOL    HW234866   3.950   2.583   6.221 -1.3721 -2.9707 -1.5688
 7745SOL     OW34867   3.901   2.338   9.000  0.1857  0.1571 -0.7191
 7745SOL    HW134868   3.956   2.259   9.007 -0.5141 -0.2599  0.0721
 7745SOL    HW234869   3.883   2.336   8.906 -1.5134  0.0094 -0.3816
 7746SOL     OW34870   0.886   0.326  15.325  0.7385  0.1920 -0.0358
 7746SOL    HW134871   0.840   0.244  15.345  0.9253 -0.3549 -1.8680
 7746SOL    HW234872   0.903   0.317  15.232  1.0029 -1.3411  0.1613
 7747SOL     OW34873   0.254   3.321   4.452 -0.1328 -0.1370  0.1692
 7747SOL    HW134874   0.306   3.356   4.524  0.2536 -0.0700 -0.1369
 7747SOL    HW234875   0.277   3.390   4.389  1.8215 -1.9333 -1.1008
 7748SOL     OW34876   2.780   3.032   7.524  0.0293  0.0433 -0.7812
 7748SOL    HW134877   2.779   2.939   7.546 -0.1295  0.4768  1.0506
 7748SOL    HW234878   2.827   3.082   7.590  1.1676  1.1571 -2.4155
 7749SOL     OW34879   0.882   3.584   9.841 -0.2243 -1.0320  0.0106
 7749SOL    HW134880   0.949   3.600   9.773 -0.6590 -0.2198 -0.2258
 7749SOL    HW234881   0.922   3.640   9.907 -0.0426 -1.3335  0.1569
 7750SOL     OW34882   0.616   0.201   8.356  0.3062  0.1187 -0.4827
 7750SOL    HW134883   0.566   0.243   8.286 -0.4709  0.9311  0.5619
 7750SOL    HW234884   0.665   0.140   8.301  1.2621  2.4247 -2.1826
 7751SOL     OW34885   1.337   4.481   5.783  0.0778  0.2309  0.4819
 7751SOL    HW134886   1.414   4.535   5.766  0.9887 -1.3557 -0.4557
 7751SOL    HW234887   1.338   4.470   5.878  0.5908  0.6775  0.5269
 7752SOL     OW34888   1.676   2.018  14.718  1.1569 -0.1888 -0.4513
 7752SOL    HW134889   1.750   2.056  14.671 -1.0269  1.6980 -2.3831
 7752SOL    HW234890   1.630   1.981  14.643  1.9516  0.0990 -1.0822
 7753SOL     OW34891   3.165   1.214   2.049  0.1320  0.0888 -0.3492
 7753SOL    HW134892   3.190   1.174   2.132  1.3516  1.3928 -0.0879
 7753SOL    HW234893   3.213   1.296   2.047  0.6477 -0.2177 -0.5128
 7754SOL     OW34894   4.226   2.454   2.591 -0.6664 -0.3096  0.3416
 7754SOL    HW134895   4.299   2.487   2.539 -1.7332  1.3160 -0.0849
 7754SOL    HW234896   4.155   2.497   2.544 -0.4720  0.0931  0.4217
 7755SOL     OW34897   1.380   4.655   6.900 -0.2075 -0.5550  0.3155
 7755SOL    HW134898   1.464   4.694   6.924  0.3897 -0.4450 -1.9641
 7755SOL    HW234899   1.330   4.734   6.878 -0.5839 -1.0513 -0.6344
 7756SOL     OW34900   1.030   2.942   1.992  0.0700  0.4624  0.4107
 7756SOL    HW134901   0.987   2.931   1.907 -2.8088 -0.1747  1.9494
 7756SOL    HW234902   0.957   2.981   2.039 -0.7907  0.7854 -1.1671
 7757SOL     OW34903   3.303   3.283  17.671  0.1736  0.4917  0.0081
 7757SOL    HW134904   3.266   3.218  17.731  0.2598  1.2340  0.8733
 7757SOL    HW234905   3.388   3.245  17.651 -0.0745 -1.4154  2.6227
 7758SOL     OW34906   1.327   2.707   9.900  0.2651 -0.4694  0.6727
 7758SOL    HW134907   1.386   2.780   9.881  1.1024 -1.2652  0.1743
 7758SOL    HW234908   1.313   2.727   9.992  0.4992  0.1828  0.5636
 7759SOL     OW34909   4.206   4.029  13.506 -0.1880  0.2533  0.5548
 7759SOL    HW134910   4.220   3.992  13.593  0.0418  0.4507  0.6001
 7759SOL    HW234911   4.299   4.037  13.487  0.3788 -1.6580  2.5425
 7760SOL     OW34912   0.283   1.841   0.779 -0.3136 -0.2885 -0.1588
 7760SOL    HW134913   0.311   1.749   0.780 -0.8831 -0.4402  1.6148
 7760SOL    HW234914   0.298   1.870   0.869 -1.3852  1.3936 -0.5289
 7761SOL     OW34915   3.900   3.561   6.714  0.8729 -0.1751 -0.8215
 7761SOL    HW134916   3.894   3.478   6.762 -1.8436  0.7016  0.3059
 7761SOL    HW234917   3.832   3.548   6.649 -0.1529  1.6148 -0.1244
 7762SOL     OW34918   0.745   2.000  12.198 -0.1691  0.0243 -0.3387
 7762SOL    HW134919   0.827   2.009  12.247 -0.3337  1.0342 -0.2628
 7762SOL    HW234920   0.681   1.998  12.269  0.8067 -3.1853  0.4890
 7763SOL     OW34921   3.538   0.276  12.260 -0.2075 -0.3973 -0.3758
 7763SOL    HW134922   3.469   0.307  12.319  0.0155 -1.1638  0.2733
 7763SOL    HW234923   3.491   0.285  12.177  1.5675 -0.0431 -1.3367
 7764SOL     OW34924   0.598   3.243  12.790 -0.1006  0.7561  0.0827
 7764SOL    HW134925   0.679   3.293  12.796  0.8750 -0.9129  0.8456
 7764SOL    HW234926   0.629   3.163  12.746  0.7855  0.4037  1.3555
 7765SOL     OW34927   2.342   3.868  11.522  0.0704  0.3708  0.4761
 7765SOL    HW134928   2.401   3.794  11.527 -1.5136 -1.0373 -1.7097
 7765SOL    HW234929   2.404   3.938  11.502  0.1540  0.2794  0.4170
 7766SOL     OW34930   4.729   1.650   8.664 -0.2137 -0.5281 -0.2088
 7766SOL    HW134931   4.674   1.575   8.640 -1.6871  0.2761  0.6385
 7766SOL    HW234932   0.002   1.702   8.585  0.8888  1.7105  1.4485
 7767SOL     OW34933   3.587   0.739   1.932  0.0568  0.3990 -0.6257
 7767SOL    HW134934   3.668   0.791   1.933  1.0515 -1.1988  0.8487
 7767SOL    HW234935   3.512   0.799   1.931  0.9477  1.4932 -1.5232
 7768SOL     OW34936   4.023   1.799  12.510 -0.2128 -0.1040 -0.2889
 7768SOL    HW134937   4.018   1.831  12.600 -2.7835 -3.6997  0.8157
 7768SOL    HW234938   3.939   1.761  12.483 -0.1116 -0.0359 -0.7125
 7769SOL     OW34939   2.113   4.105  13.710 -0.3179 -0.0549 -0.4099
 7769SOL    HW134940   2.077   4.070  13.628 -0.6196 -2.2357  0.6530
 7769SOL    HW234941   2.185   4.049  13.738  1.6970  3.1306  0.7746
 7770SOL     OW34942   1.520   1.954  15.293  0.0173  0.1439 -0.1317
 7770SOL    HW134943   1.442   2.009  15.286  0.0081  0.2558  0.8307
 7770SOL    HW234944   1.571   1.989  15.366  1.2847 -0.2763 -0.8030
 7771SOL     OW34945   0.701   4.333   1.004 -0.2275 -0.0939 -0.0704
 7771SOL    HW134946   0.791   4.343   1.035 -1.2488  1.0962  2.4523
 7771SOL    HW234947   0.712   4.258   0.945 -0.5173  0.3484 -0.6853
 7772SOL     OW34948   2.999   2.317  10.608 -0.8470 -0.0623 -0.2882
 7772SOL    HW134949   3.046   2.273  10.538 -2.3593 -1.5018 -0.3900
 7772SOL    HW234950   3.024   2.409  10.595 -0.8560 -0.1365 -0.8085
 7773SOL     OW34951   2.503   4.456   7.639 -0.0282 -0.2829  0.0396
 7773SOL    HW134952   2.427   4.455   7.697 -1.1128  2.1091 -1.3698
 7773SOL    HW234953   2.577   4.448   7.699 -0.1491 -1.7807 -0.0102
 7774SOL     OW34954   3.730   1.730  13.604  0.0068  0.1213 -0.1743
 7774SOL    HW134955   3.761   1.679  13.529 -0.4008 -2.3376  1.3184
 7774SOL    HW234956   3.654   1.677  13.628 -0.7882  1.9630  1.3700
 7775SOL     OW34957   1.933   3.300   7.001 -0.2327 -0.1472  0.0234
 7775SOL    HW134958   1.907   3.344   6.920 -0.1456  1.7415  1.0163
 7775SOL    HW234959   1.844   3.287   7.033 -0.1451  1.6600  0.9560
 7776SOL     OW34960   0.384   3.474   2.847  0.0238  0.0738 -0.4746
 7776SOL    HW134961   0.387   3.387   2.807  0.3330  0.1962 -0.7182
 7776SOL    HW234962   0.296   3.503   2.824  0.4735 -0.0660 -2.3849
 7777SOL     OW34963   2.258   4.468   7.187  0.2619 -0.5836  0.1806
 7777SOL    HW134964   2.352   4.470   7.173  0.2716 -1.0243  0.1764
 7777SOL    HW234965   2.227   4.512   7.108  0.9385 -1.2446 -0.4559
 7778SOL     OW34966   1.620   2.765   3.104  0.6976 -0.7882  0.1924
 7778SOL    HW134967   1.630   2.709   3.182  1.2956  0.8107  1.2596
 7778SOL    HW234968   1.533   2.804   3.113  2.0467  2.1647  0.1971
 7779SOL     OW34969   1.796   3.243   8.082 -0.4099 -0.9524  0.0237
 7779SOL    HW134970   1.787   3.194   8.000  0.9576  1.3224 -1.4923
 7779SOL    HW234971   1.751   3.185   8.144  0.4130 -2.3959 -0.7482
 7780SOL     OW34972   4.046   4.165   5.788 -0.5004 -0.3380  0.0621
 7780SOL    HW134973   3.972   4.104   5.779 -0.0134 -0.7578 -1.0941
 7780SOL    HW234974   4.117   4.118   5.746  0.0175 -0.3462  0.9343
 7781SOL     OW34975   4.167   3.945   0.685 -0.0548 -0.0268 -0.0453
 7781SOL    HW134976   4.171   3.855   0.653 -0.3370 -0.2053  0.4310
 7781SOL    HW234977   4.142   3.992   0.605 -0.0228  1.9054  1.0683
 7782SOL     OW34978   0.592   4.004   4.137  0.5717 -0.1610  0.7043
 7782SOL    HW134979   0.619   3.942   4.070 -0.6913  1.0569 -0.9327
 7782SOL    HW234980   0.512   4.041   4.098  0.7312 -0.9965 -0.3887
 7783SOL     OW34981   0.442   1.742   2.333 -0.3022  0.2995  0.0826
 7783SOL    HW134982   0.455   1.652   2.361 -0.8227  0.6988  1.5959
 7783SOL    HW234983   0.352   1.746   2.365  0.4489 -2.3677  2.5672
 7784SOL     OW34984   0.254   3.751   7.703  0.0722 -0.3545 -0.3653
 7784SOL    HW134985   0.307   3.750   7.623  0.0855 -2.4683 -0.3356
 7784SOL    HW234986   0.257   3.845   7.718  0.4439 -0.8820  3.0492
 7785SOL     OW34987   3.334   2.511   3.308 -0.1188  0.4797  0.8638
 7785SOL    HW134988   3.415   2.492   3.354 -0.2289  0.1460  0.9202
 7785SOL    HW234989   3.371   2.504   3.220 -3.4025 -0.3506 -0.4529
 7786SOL     OW34990   2.079   2.431   2.355  0.5428 -0.2178  0.1822
 7786SOL    HW134991   2.004   2.372   2.352  0.8549 -0.6125  0.1516
 7786SOL    HW234992   2.052   2.509   2.307 -1.5784 -0.7378  0.5292
 7787SOL     OW34993   1.254   3.124   2.869 -0.5164  0.0825 -0.1805
 7787SOL    HW134994   1.336   3.125   2.819 -0.5641 -0.2996 -0.2697
 7787SOL    HW234995   1.293   3.075   2.941 -1.9591 -0.6346  0.1055
 7788SOL     OW34996   0.449   3.857   2.724 -0.2487  0.1952  0.2001
 7788SOL    HW134997   0.463   3.785   2.785 -0.3169  0.0662  0.0636
 7788SOL    HW234998   0.369   3.898   2.758 -0.1145 -0.1049  0.8764
 7789SOL     OW34999   4.310   3.310   3.346  0.3619 -0.6212  0.1239
 7789SOL    HW135000   4.373   3.380   3.360  0.2049 -0.0557 -2.0702
 7789SOL    HW235001   4.237   3.343   3.398 -0.6104 -2.9088  0.2274
 7790SOL     OW35002   4.091   2.524   8.048 -0.1686 -0.0132 -0.1073
 7790SOL    HW135003   4.074   2.573   7.968  1.9318  0.7882 -0.0535
 7790SOL    HW235004   4.142   2.449   8.017  1.4606  1.6234 -1.4446
 7791SOL     OW35005   1.237   3.637   5.386  0.5117  0.3911  0.2648
 7791SOL    HW135006   1.217   3.729   5.404  1.1889  0.9926 -1.9759
 7791SOL    HW235007   1.207   3.593   5.465  1.6190 -1.8529 -0.5567
 7792SOL     OW35008   1.843   4.513  13.643  0.2061  0.2039  0.9809
 7792SOL    HW135009   1.752   4.542  13.648 -0.0487 -0.2664 -0.9434
 7792SOL    HW235010   1.879   4.581  13.700  1.5846  1.5382 -1.4394
 7793SOL     OW35011   4.255   3.732  11.878 -0.1197  0.2526 -0.0030
 7793SOL    HW135012   4.311   3.792  11.828  0.4083 -1.7757 -1.8417
 7793SOL    HW235013   4.299   3.730  11.963  1.4354 -0.8810 -0.8368
 7794SOL     OW35014   1.939   2.088  15.795 -0.4591 -0.1663  0.1582
 7794SOL    HW135015   1.990   2.056  15.870  1.0082  2.2540  0.1858
 7794SOL    HW235016   1.924   2.176  15.828  1.1830  0.1065  0.1822
 7795SOL     OW35017   1.415   0.945   3.043  0.3115  0.0632  0.1236
 7795SOL    HW135018   1.401   0.983   3.130 -1.0297 -0.2903  0.0616
 7795SOL    HW235019   1.440   0.855   3.065  0.8511  0.0258 -0.6478
 7796SOL     OW35020   1.346   3.135   7.601  0.5970  0.4124 -0.5425
 7796SOL    HW135021   1.409   3.180   7.657 -1.7020  1.4769  1.1560
 7796SOL    HW235022   1.396   3.141   7.519  1.1609  1.1310 -0.1445
 7797SOL     OW35023   3.704   0.270  11.756  0.0204 -0.2464  0.0714
 7797SOL    HW135024   3.775   0.311  11.806  1.0826 -1.2309 -0.6060
 7797SOL    HW235025   3.650   0.347  11.742 -1.0261 -1.2522 -1.4791
 7798SOL     OW35026   0.919   1.607  17.480 -0.1023 -0.0930  0.0772
 7798SOL    HW135027   0.962   1.672  17.534  2.0184 -1.2438 -0.1988
 7798SOL    HW235028   0.874   1.557  17.548  2.6172 -0.6545  1.4535
 7799SOL     OW35029   1.031   3.911   2.485  0.3230  0.8337 -0.1787
 7799SOL    HW135030   1.058   4.003   2.478  1.0629  0.7270  1.1814
 7799SOL    HW235031   1.027   3.890   2.392  3.4680  1.9979 -0.5770
 7800SOL     OW35032   2.202   1.619   8.977  0.0733  0.4122  0.0256
 7800SOL    HW135033   2.198   1.630   8.882  1.8208 -1.3898 -0.2656
 7800SOL    HW235034   2.297   1.610   8.982  0.1251  0.3834 -0.9532
 7801SOL     OW35035   2.957   3.447   0.737  0.1750  0.0447  0.1753
 7801SOL    HW135036   2.928   3.374   0.682 -3.1041  0.0712  1.8145
 7801SOL    HW235037   2.961   3.508   0.664 -0.0377 -0.0384  0.0933
 7802SOL     OW35038   2.236   3.002  16.036  0.0963  0.2559  0.2994
 7802SOL    HW135039   2.311   2.950  16.007  0.9074  0.4272  2.1468
 7802SOL    HW235040   2.211   2.953  16.114 -3.1022 -1.9417 -2.1075
 7803SOL     OW35041   1.113   2.655   5.230 -0.1136  0.1645 -0.1572
 7803SOL    HW135042   1.139   2.690   5.145  1.1163  1.0305  0.5704
 7803SOL    HW235043   1.023   2.685   5.238 -0.4972 -1.1442  0.4612
 7804SOL     OW35044   2.386   2.580   2.241  0.5070 -0.4641  0.6144
 7804SOL    HW135045   2.363   2.487   2.240  2.1257 -0.8508 -0.3548
 7804SOL    HW235046   2.384   2.594   2.336 -0.1877  0.3860  0.4764
 7805SOL     OW35047   0.469   2.281   8.916 -0.3676 -0.4602  0.2376
 7805SOL    HW135048   0.381   2.253   8.940 -0.7872 -0.7564 -1.6491
 7805SOL    HW235049   0.481   2.240   8.830  2.6550  0.1511  0.3591
 7806SOL     OW35050   2.009   2.057  10.618  0.1433  0.2600 -0.5423
 7806SOL    HW135051   1.966   1.985  10.665  0.9715 -0.1139 -0.3507
 7806SOL    HW235052   2.083   2.010  10.579  1.5439  1.9861  0.0649
 7807SOL     OW35053   3.364   4.628   1.495 -0.2369 -0.0646 -0.3956
 7807SOL    HW135054   3.371   4.557   1.432  0.7321  1.9107 -2.5204
 7807SOL    HW235055   3.282   4.602   1.538 -0.0165 -0.1633 -0.0330
 7808SOL     OW35056   2.589   4.331   1.915  0.0821 -0.1922  1.0552
 7808SOL    HW135057   2.569   4.256   1.859  0.7659 -0.5657  1.3136
 7808SOL    HW235058   2.683   4.330   1.898 -0.4248  0.7607 -1.7806
 7809SOL     OW35059   0.759   0.430   4.179 -0.4515 -0.4381 -0.3394
 7809SOL    HW135060   0.710   0.461   4.103  0.3679 -1.1533 -1.1549
 7809SOL    HW235061   0.725   0.487   4.248  0.6997 -1.1106  0.7618
 7810SOL     OW35062   0.952   1.384   0.711  0.8253 -0.2502  0.4029
 7810SOL    HW135063   0.933   1.411   0.621 -0.5390  1.7107  1.2754
 7810SOL    HW235064   1.038   1.347   0.693  0.5634 -0.7077  0.1015
 7811SOL     OW35065   4.548   3.449   7.860 -0.2159  0.0116  0.4958
 7811SOL    HW135066   4.584   3.360   7.864 -2.3596 -0.8139  0.9897
 7811SOL    HW235067   4.620   3.480   7.805  0.1379  2.2418  2.2365
 7812SOL     OW35068   4.195   0.664  17.227  0.2473  0.7164 -0.4570
 7812SOL    HW135069   4.163   0.748  17.260 -1.3522 -1.0266  2.3954
 7812SOL    HW235070   4.113   0.634  17.188  0.2532  0.4977 -0.2946
 7813SOL     OW35071   3.404   4.671  12.319 -0.9199 -0.6724 -0.2001
 7813SOL    HW135072   3.362   4.585  12.313  0.6836 -1.2787 -2.4117
 7813SOL    HW235073   3.492   4.645  12.346 -0.3193  1.3645 -0.2063
 7814SOL     OW35074   1.296   0.758   0.861  0.7616  0.0166 -0.4038
 7814SOL    HW135075   1.367   0.777   0.799  1.1934  0.5768  0.2606
 7814SOL    HW235076   1.240   0.686   0.835 -2.8984  1.6014  3.1178
 7815SOL     OW35077   4.399   3.980   5.826 -0.8577  0.6667 -0.1376
 7815SOL    HW135078   4.477   3.985   5.882  0.4712 -3.2292 -1.6831
 7815SOL    HW235079   4.440   4.008   5.744 -0.8424 -1.8847 -0.9806
 7816SOL     OW35080   3.396   2.877   1.572  0.3765 -0.0127  0.6261
 7816SOL    HW135081   3.407   2.956   1.520  0.5817 -0.9095 -0.6882
 7816SOL    HW235082   3.354   2.910   1.651 -0.4068 -2.1271  1.0821
 7817SOL     OW35083   2.063   3.313  14.570  0.3689  0.0082 -0.1915
 7817SOL    HW135084   2.072   3.220  14.546  1.5199  0.0592  0.0567
 7817SOL    HW235085   2.063   3.352  14.482  2.4236 -0.3883 -0.3727
 7818SOL     OW35086   3.398   2.340  12.535 -0.1478  0.0771  0.0871
 7818SOL    HW135087   3.386   2.312  12.626  1.7650  0.9983  0.6336
 7818SOL    HW235088   3.491   2.317  12.529  0.1751  1.1613  0.9029
 7819SOL     OW35089   2.675   1.873  11.935  0.3439 -0.3862 -0.1055
 7819SOL    HW135090   2.753   1.819  11.949  1.4852  0.9165 -1.2895
 7819SOL    HW235091   2.703   1.939  11.871  0.0401  0.4255  0.5983
 7820SOL     OW35092   1.214   0.374  13.065  0.5255 -0.3337 -0.2709
 7820SOL    HW135093   1.136   0.400  13.115 -0.1021  0.1946 -1.5384
 7820SOL    HW235094   1.276   0.343  13.132 -0.2089  0.5245  0.7938
 7821SOL     OW35095   1.540   2.162  14.133 -0.2843  0.2009 -0.2374
 7821SOL    HW135096   1.506   2.245  14.168 -0.2468  0.7696 -1.5466
 7821SOL    HW235097   1.472   2.145  14.068 -0.9592  1.8837  0.0115
 7822SOL     OW35098   3.520   0.494   0.281 -0.0372 -0.8021  0.6547
 7822SOL    HW135099   3.508   0.469   0.372 -0.5155  1.4080  1.1779
 7822SOL    HW235100   3.441   0.458   0.241 -0.3815  0.5996  0.0858
 7823SOL     OW35101   0.326   0.525   3.545 -0.0288 -0.2090  0.3584
 7823SOL    HW135102   0.271   0.540   3.469  1.0715  0.4387 -0.3088
 7823SOL    HW235103   0.409   0.517   3.498 -1.0315 -1.3581 -1.2292
 7824SOL     OW35104   0.573   3.548   6.028  1.1244  0.6726 -0.4527
 7824SOL    HW135105   0.621   3.491   5.967  0.7647  1.2916 -1.3124
 7824SOL    HW235106   0.624   3.535   6.108  0.2380 -3.3005 -0.5491
 7825SOL     OW35107   3.756   0.642   8.130  0.4499  0.5197 -0.1448
 7825SOL    HW135108   3.711   0.560   8.148 -0.9234  1.0529 -1.1546
 7825SOL    HW235109   3.795   0.647   8.217  0.8238  0.5726 -0.3144
 7826SOL     OW35110   4.237   4.260   6.274 -0.1631  0.2236  0.1827
 7826SOL    HW135111   4.220   4.221   6.360 -0.9403  0.0981 -0.0297
 7826SOL    HW235112   4.168   4.237   6.212  1.3471 -0.1236 -1.3657
 7827SOL     OW35113   1.006   0.046  13.938 -0.1952  0.2743 -0.0023
 7827SOL    HW135114   0.915   0.056  13.968 -0.4321 -0.3418 -0.5117
 7827SOL    HW235115   1.049   0.084  14.015 -0.3944  0.3269  0.0855
 7828SOL     OW35116   3.361   0.838   7.768 -0.3392 -0.4482 -0.3891
 7828SOL    HW135117   3.332   0.924   7.800 -0.2810  0.9268 -4.0444
 7828SOL    HW235118   3.285   0.782   7.784  0.6240 -1.2190  1.4362
 7829SOL     OW35119   0.858   1.819   3.033  0.0427 -0.3211  0.1092
 7829SOL    HW135120   0.949   1.821   3.003  0.0103 -2.1840 -0.0891
 7829SOL    HW235121   0.835   1.912   3.029 -1.8533 -0.7113  1.7383
 7830SOL     OW35122   4.459   3.696  12.661  0.1527  0.5484  0.1010
 7830SOL    HW135123   4.452   3.710  12.567  1.8517  2.6580  0.2849
 7830SOL    HW235124   4.551   3.675  12.677 -0.2383 -1.9947 -1.0085
 7831SOL     OW35125   0.056   2.080  10.260  0.6471  0.0156 -0.1694
 7831SOL    HW135126   0.036   2.171  10.281 -0.0903 -1.1257  4.0819
 7831SOL    HW235127   0.006   2.065  10.180 -0.4291  2.6398  0.0040
 7832SOL     OW35128   2.834   3.718   1.856  0.1570  0.5969 -0.2230
 7832SOL    HW135129   2.876   3.635   1.834 -1.5258 -0.4239  0.3495
 7832SOL    HW235130   2.746   3.706   1.820  0.6144  0.8082 -1.4152
 7833SOL     OW35131   2.777   1.150   2.306  0.7659  0.1557 -0.6965
 7833SOL    HW135132   2.729   1.076   2.269  1.5279 -0.2975 -0.7755
 7833SOL    HW235133   2.730   1.224   2.267 -1.4812  0.3157  2.3082
 7834SOL     OW35134   0.785   1.553   9.138 -0.2532 -0.3721  0.0901
 7834SOL    HW135135   0.821   1.525   9.222  0.1624 -1.6331 -0.5055
 7834SOL    HW235136   0.693   1.548   9.162 -0.2300  0.5442  0.3644
 7835SOL     OW35137   3.802   3.550   8.858  0.0590 -0.6639  0.3102
 7835SOL    HW135138   3.875   3.592   8.812  0.1124 -1.4458 -0.3198
 7835SOL    HW235139   3.850   3.513   8.932 -0.5059  0.4991  1.2578
 7836SOL     OW35140   2.828   2.068   0.880 -0.2561  0.0366 -0.1807
 7836SOL    HW135141   2.834   2.150   0.929 -0.2392 -0.0504 -0.0365
 7836SOL    HW235142   2.735   2.045   0.888 -0.3480  0.0799 -1.1481
 7837SOL     OW35143   3.168   2.180  12.282  0.0224 -0.2492 -0.0811
 7837SOL    HW135144   3.087   2.228  12.301 -1.1591 -2.1409 -0.3471
 7837SOL    HW235145   3.164   2.176  12.187 -3.3761 -0.5284  0.0816
 7838SOL     OW35146   0.659   0.758   5.783 -0.0841 -0.4519 -0.1410
 7838SOL    HW135147   0.723   0.742   5.713  1.2615 -3.2781  1.7887
 7838SOL    HW235148   0.717   0.785   5.854  0.3777 -2.1198  0.1023
 7839SOL     OW35149   1.785   3.233   8.549 -0.3032  0.4866 -0.5162
 7839SOL    HW135150   1.841   3.310   8.564 -0.2746  0.4259 -0.3092
 7839SOL    HW235151   1.734   3.228   8.629  0.4429  1.4811  0.0224
 7840SOL     OW35152   1.727   4.163   5.120  0.1030  0.9750 -0.5546
 7840SOL    HW135153   1.751   4.094   5.057 -1.0056  0.7312 -0.7133
 7840SOL    HW235154   1.758   4.247   5.086  1.0366 -0.5033 -3.3442
 7841SOL     OW35155   3.814   3.483   4.600 -0.1424 -0.0337  0.5872
 7841SOL    HW135156   3.785   3.474   4.510 -0.6966 -1.1976  0.8873
 7841SOL    HW235157   3.907   3.469   4.579 -0.4472 -1.5627  0.2723
 7842SOL     OW35158   1.870   3.097   3.335 -0.4532  0.5432  0.8304
 7842SOL    HW135159   1.824   3.148   3.269  0.4450 -1.7584 -1.5605
 7842SOL    HW235160   1.950   3.076   3.287 -0.5222  1.4352  0.3319
 7843SOL     OW35161   1.500   1.837   0.375  0.0311  0.9416 -0.2493
 7843SOL    HW135162   1.414   1.801   0.353  0.1810  0.6008 -0.2863
 7843SOL    HW235163   1.521   1.775   0.444  2.3056 -0.6286 -2.3166
 7844SOL     OW35164   0.990   0.029   7.279 -0.2832  0.5471 -0.0482
 7844SOL    HW135165   1.036   4.693   7.244 -0.5768 -0.1753  1.1374
 7844SOL    HW235166   1.062   0.079   7.317  1.4215 -2.8120  1.1326
 7845SOL     OW35167   2.344   4.046  15.016 -0.1676 -0.0598 -0.3411
 7845SOL    HW135168   2.379   4.129  15.049  1.5844  0.1819 -2.7999
 7845SOL    HW235169   2.251   4.051  15.037 -0.6150 -0.3126 -2.2117
 7846SOL     OW35170   3.565   0.975  10.955  0.7466 -0.3808  0.0917
 7846SOL    HW135171   3.637   0.956  11.015  1.8560 -1.6824 -1.6743
 7846SOL    HW235172   3.493   0.928  10.998  1.0535 -1.5131 -0.6433
 7847SOL     OW35173   0.221   0.483   4.759 -0.0826 -0.6341 -0.3374
 7847SOL    HW135174   0.315   0.485   4.741 -0.0535  1.7423  0.0987
 7847SOL    HW235175   0.213   0.524   4.845 -1.1977 -0.8258 -0.3522
 7848SOL     OW35176   4.032   1.723   9.681 -0.5053  0.2209 -0.8921
 7848SOL    HW135177   3.991   1.763   9.604  0.7741  0.3313 -1.5058
 7848SOL    HW235178   4.124   1.750   9.680 -0.2712 -0.5206  2.5206
 7849SOL     OW35179   1.402   1.966   2.913 -0.3596 -0.4224 -0.1432
 7849SOL    HW135180   1.444   2.050   2.893 -0.1843 -0.5929 -0.4792
 7849SOL    HW235181   1.449   1.902   2.860  0.9335  0.6450 -0.2936
 7850SOL     OW35182   1.493   1.749   5.006 -0.1060 -0.8390  0.1242
 7850SOL    HW135183   1.442   1.741   4.925  0.1624  0.7421 -0.1916
 7850SOL    HW235184   1.495   1.657   5.033 -0.0931 -0.5863  0.9877
 7851SOL     OW35185   1.346   1.634   4.732 -0.2468  0.5351 -0.4696
 7851SOL    HW135186   1.416   1.650   4.668  1.0166  0.7216  0.9307
 7851SOL    HW235187   1.308   1.721   4.744  0.3185  1.0299 -2.2264
 7852SOL     OW35188   4.477   0.645  17.236  0.6493 -0.4466  0.2590
 7852SOL    HW135189   4.382   0.651  17.231  0.8768  3.1235 -0.1327
 7852SOL    HW235190   4.501   0.589  17.162  1.5367  0.9369 -0.5082
 7853SOL     OW35191   2.462   2.863   5.906  0.3295 -0.1454  0.0540
 7853SOL    HW135192   2.408   2.820   5.972 -0.4723 -1.4018 -1.4265
 7853SOL    HW235193   2.439   2.805   5.833 -0.3663  0.2519 -0.0433
 7854SOL     OW35194   1.162   0.018   8.120  0.5923 -0.2839  0.4258
 7854SOL    HW135195   1.106   0.094   8.134  1.0721  0.0202  0.6961
 7854SOL    HW235196   1.158   0.029   8.025 -2.7027  3.2758  0.9655
 7855SOL     OW35197   3.267   3.563   7.304 -0.2054  0.3706 -0.0697
 7855SOL    HW135198   3.215   3.643   7.292  2.7330  2.6748  2.6953
 7855SOL    HW235199   3.225   3.497   7.248 -0.4039  0.2767  0.1934
 7856SOL     OW35200   0.699   4.489   1.366  0.0582  0.1703  0.4190
 7856SOL    HW135201   0.645   4.528   1.297  1.0144  1.5262  0.4366
 7856SOL    HW235202   0.655   4.404   1.357 -0.2067  0.4161 -0.5980
 7857SOL     OW35203   0.103   2.699   5.707  0.2016  0.2100 -0.3900
 7857SOL    HW135204   0.041   2.676   5.637 -1.0623  1.9122  0.1813
 7857SOL    HW235205   0.081   2.787   5.738 -0.7428 -0.9435  2.1892
 7858SOL     OW35206   1.205   0.358   8.333  0.4366 -0.6573 -0.3327
 7858SOL    HW135207   1.128   0.305   8.351  0.4860 -0.6117  0.0183
 7858SOL    HW235208   1.259   0.298   8.281  2.1832  1.3543 -0.8732
 7859SOL     OW35209   3.469   4.177   9.399 -0.4603  0.4149 -0.2364
 7859SOL    HW135210   3.386   4.213   9.432 -0.0952  0.8644  0.1911
 7859SOL    HW235211   3.470   4.085   9.425  1.0114  0.8013  1.0591
 7860SOL     OW35212   1.009   1.935  15.095 -0.3414 -0.3087 -0.0127
 7860SOL    HW135213   1.004   1.846  15.130  0.1047  0.5480  2.1768
 7860SOL    HW235214   1.085   1.927  15.038 -0.5607 -2.0842 -0.0699
 7861SOL     OW35215   1.153   0.153  10.661  0.5065 -0.0906  0.0533
 7861SOL    HW135216   1.180   0.099  10.586 -0.8817 -0.3764 -0.2362
 7861SOL    HW235217   1.144   0.085  10.728 -0.3468  2.7668  2.8224
 7862SOL     OW35218   1.303   3.527  12.625  0.0185 -0.3897 -0.9570
 7862SOL    HW135219   1.228   3.570  12.667  0.7720 -0.7514  0.7512
 7862SOL    HW235220   1.375   3.541  12.686  0.0152  1.3492 -1.3425
 7863SOL     OW35221   0.772   3.510   2.092  0.1649 -0.3308  0.1699
 7863SOL    HW135222   0.759   3.469   2.006 -0.0925  1.3708 -0.5922
 7863SOL    HW235223   0.746   3.438   2.151  0.9668 -0.0558  0.8589
 7864SOL     OW35224   4.081   3.141   1.369  0.1277  0.0247  0.6305
 7864SOL    HW135225   4.127   3.222   1.349 -0.8665  0.4618  0.1161
 7864SOL    HW235226   4.143   3.109   1.434  1.1007 -1.6059 -1.0944
 7865SOL     OW35227   2.061   2.554   6.227  0.1557 -0.1904 -0.0461
 7865SOL    HW135228   1.966   2.559   6.222  0.1679 -1.0648 -1.1467
 7865SOL    HW235229   2.078   2.610   6.303  0.1426 -1.6252  1.0028
 7866SOL     OW35230   4.699   1.215   1.712 -0.0228  0.0353  0.1636
 7866SOL    HW135231   4.704   1.143   1.650 -1.6775 -1.1848  1.4522
 7866SOL    HW235232   4.722   1.179   1.797 -0.1071  1.4957  0.8123
 7867SOL     OW35233   0.020   0.220   5.462  0.0752  0.0826 -0.2211
 7867SOL    HW135234   0.091   0.166   5.496  1.1432  1.4632 -0.2625
 7867SOL    HW235235   0.050   0.257   5.379  1.5317 -3.2486 -1.2050
 7868SOL     OW35236   1.553   1.584   2.904 -0.2673  0.5092 -0.1981
 7868SOL    HW135237   1.562   1.492   2.881 -2.7616  1.0993 -3.5393
 7868SOL    HW235238   1.523   1.622   2.822 -1.5851 -0.0739  0.0130
 7869SOL     OW35239   2.289   1.106  15.174 -0.4759 -1.0151  0.5594
 7869SOL    HW135240   2.256   1.136  15.259 -1.8284  1.2321 -0.7560
 7869SOL    HW235241   2.377   1.143  15.185 -1.3952  1.5469 -0.6791
 7870SOL     OW35242   2.582   3.169   0.710  0.2562 -0.3911 -0.1275
 7870SOL    HW135243   2.673   3.195   0.698 -0.1096  1.7920  1.8413
 7870SOL    HW235244   2.552   3.247   0.756 -0.7097 -1.5081  1.1148
 7871SOL     OW35245   4.057   1.831   2.799  0.2722  0.1538  0.2684
 7871SOL    HW135246   4.121   1.877   2.852 -0.4408  1.5514 -0.0873
 7871SOL    HW235247   4.119   1.799   2.733  1.6212  1.0932  1.1143
 7872SOL     OW35248   0.672   0.040  10.825 -0.1233  0.7429  0.4509
 7872SOL    HW135249   0.753   0.002  10.859 -1.2735 -1.3015  0.8823
 7872SOL    HW235250   0.633   4.699  10.791  1.4735  0.5063 -0.7993
 7873SOL     OW35251   3.518   3.686   9.573 -0.5089 -0.1020 -0.7575
 7873SOL    HW135252   3.601   3.643   9.595 -1.1036  0.9307  3.4327
 7873SOL    HW235253   3.502   3.667   9.480  1.2497  0.9726 -1.2775
 7874SOL     OW35254   4.444   1.842   5.822  0.0769 -0.7742  0.4035
 7874SOL    HW135255   4.383   1.774   5.796  0.9034 -1.0319 -0.8636
 7874SOL    HW235256   4.387   1.896   5.877  1.1431  2.4300 -1.6036
 7875SOL     OW35257   3.377   2.297   5.109 -0.4500 -0.3350  0.0286
 7875SOL    HW135258   3.382   2.301   5.014 -1.6862 -0.3729 -0.0315
 7875SOL    HW235259   3.315   2.369   5.122 -0.2832 -0.3666  1.0065
 7876SOL     OW35260   0.060   1.114   1.944 -0.4102 -0.1177  0.2130
 7876SOL    HW135261   0.110   1.194   1.954  0.4142 -0.1440 -3.4801
 7876SOL    HW235262   0.115   1.042   1.974 -0.7036 -0.2568  0.4146
 7877SOL     OW35263   0.993   3.550   9.428 -0.1660  0.3324 -0.4380
 7877SOL    HW135264   0.970   3.457   9.422  3.6286 -0.5670 -1.2216
 7877SOL    HW235265   1.021   3.568   9.518  1.6539 -0.6040 -0.8207
 7878SOL     OW35266   0.552   2.235   7.024  0.5270  0.5007  0.2296
 7878SOL    HW135267   0.537   2.182   7.102  2.4063 -0.5198 -0.0910
 7878SOL    HW235268   0.647   2.252   7.020  0.5122  0.3385 -0.7520
 7879SOL     OW35269   0.709   1.403  10.708  0.7271 -0.4550 -0.1577
 7879SOL    HW135270   0.706   1.308  10.696  0.7969 -0.5559  0.5775
 7879SOL    HW235271   0.646   1.411  10.780  0.3252 -0.4866 -0.5120
 7880SOL     OW35272   1.965   1.514   4.342 -0.0821 -0.8052 -0.0547
 7880SOL    HW135273   2.046   1.505   4.291  0.7384 -1.8182  1.4422
 7880SOL    HW235274   1.908   1.447   4.304  0.6582 -2.0460  1.0604
 7881SOL     OW35275   3.283   2.902   9.886  0.6113  0.0300  0.1194
 7881SOL    HW135276   3.291   2.964   9.958 -0.8814 -0.6691  0.8844
 7881SOL    HW235277   3.367   2.913   9.842 -0.5732 -0.9476 -2.3784
 7882SOL     OW35278   4.730   1.867   8.862  0.3406  0.1228 -0.4427
 7882SOL    HW135279   4.671   1.909   8.799 -2.0191 -1.6997  0.5543
 7882SOL    HW235280   0.017   1.796   8.803 -2.8149 -1.2326 -0.2465
 7883SOL     OW35281   4.407   0.549   9.668  0.8039  0.3197 -0.5422
 7883SOL    HW135282   4.339   0.587   9.725 -0.1012  0.1982 -1.5279
 7883SOL    HW235283   4.367   0.560   9.582  1.0246 -2.1147 -0.9535
 7884SOL     OW35284   0.202   3.639   6.925 -0.1547  0.4635  0.3260
 7884SOL    HW135285   0.205   3.546   6.900 -0.5737  0.4815  0.2198
 7884SOL    HW235286   0.110   3.662   6.913 -0.7030 -1.2257  1.3174
 7885SOL     OW35287   2.627   0.266  10.746 -0.0253  0.4604 -0.1839
 7885SOL    HW135288   2.617   0.309  10.832  1.4199 -1.3502  0.8753
 7885SOL    HW235289   2.552   0.207  10.754  1.2412 -0.8594  1.9603
 7886SOL     OW35290   0.014   1.766   3.055  0.2653 -0.0702 -0.3665
 7886SOL    HW135291   4.695   1.713   3.001 -0.6350  0.6543 -0.1082
 7886SOL    HW235292   0.073   1.812   2.995 -1.3985  0.8877 -1.3010
 7887SOL     OW35293   0.296   4.516   1.691  0.8106 -0.2303 -0.1823
 7887SOL    HW135294   0.316   4.433   1.648  0.2040  1.1126 -3.0258
 7887SOL    HW235295   0.375   4.558   1.657  1.4901 -1.6400 -0.3682
 7888SOL     OW35296   2.416   4.086   4.471  0.3714  0.2359  0.0547
 7888SOL    HW135297   2.435   4.112   4.561 -0.3727 -1.5962  0.7396
 7888SOL    HW235298   2.457   3.999   4.472 -0.0572  0.0522  1.9198
 7889SOL     OW35299   3.579   3.978   3.294 -0.1271  0.1075  0.0671
 7889SOL    HW135300   3.565   3.965   3.388  0.0707  1.2792  0.2565
 7889SOL    HW235301   3.486   3.990   3.271 -0.4252 -1.4189  0.4183
 7890SOL     OW35302   4.660   0.886   2.384 -0.8960 -0.4837  0.1476
 7890SOL    HW135303   4.607   0.965   2.394 -1.2032 -0.7658  0.7288
 7890SOL    HW235304   4.710   0.896   2.303 -0.6411 -2.0017  0.1058
 7891SOL     OW35305   0.902   0.193  11.491 -0.0986  0.2579  0.1413
 7891SOL    HW135306   0.962   0.142  11.544 -3.0445 -2.9148  0.3950
 7891SOL    HW235307   0.942   0.192  11.404  0.3551  3.2134  0.3028
 7892SOL     OW35308   3.046   2.946   7.884  0.3257 -0.1602  0.2893
 7892SOL    HW135309   3.016   2.910   7.967 -3.4305  0.2664 -0.8759
 7892SOL    HW235310   3.106   2.878   7.853  0.2202  0.6858 -1.8046
 7893SOL     OW35311   2.587   0.965   4.335  0.2167 -0.1607  0.0709
 7893SOL    HW135312   2.663   1.019   4.354 -0.4155 -0.3599  3.1288
 7893SOL    HW235313   2.519   1.032   4.349 -0.2930 -0.9366  1.2639
 7894SOL     OW35314   0.047   1.670   5.016  0.4247  0.6831  0.7044
 7894SOL    HW135315   0.102   1.735   5.059  2.0365  0.1608 -0.6164
 7894SOL    HW235316   4.738   1.629   5.088  0.2303 -0.7121 -0.2209
 7895SOL     OW35317   0.652   4.232   9.868  0.3438 -0.4987  0.5054
 7895SOL    HW135318   0.585   4.213   9.803 -0.4135  0.2938  1.0487
 7895SOL    HW235319   0.733   4.211   9.821  0.4182  0.1153  0.3570
 7896SOL     OW35320   3.891   2.375  10.197  0.2795 -0.2791  0.3558
 7896SOL    HW135321   3.858   2.362  10.286  1.5586  2.0557  1.1427
 7896SOL    HW235322   3.802   2.379  10.159  1.9479 -0.9078 -3.6629
 7897SOL     OW35323   4.673   1.945   2.507 -0.4571  0.3838  0.0574
 7897SOL    HW135324   0.014   1.915   2.549 -0.0463 -0.3826 -1.2818
 7897SOL    HW235325   4.612   1.872   2.520 -2.8438  2.2508 -0.8094
 7898SOL     OW35326   1.263   3.232   1.153  0.2623 -0.2257 -0.2024
 7898SOL    HW135327   1.236   3.301   1.092 -2.6042 -1.0623  0.1153
 7898SOL    HW235328   1.276   3.161   1.090  1.0174 -0.9622  0.7921
 7899SOL     OW35329   1.953   2.817   8.646 -0.5330  0.1534  0.4867
 7899SOL    HW135330   2.022   2.878   8.671  1.9862 -2.9632  1.1041
 7899SOL    HW235331   1.944   2.765   8.726 -0.6035  0.2002  0.5089
 7900SOL     OW35332   3.779   4.678  16.217 -0.7423  0.0351 -0.1456
 7900SOL    HW135333   3.840   4.713  16.282  0.2373  0.9030 -1.5645
 7900SOL    HW235334   3.767   0.020  16.169  0.1827  0.1088 -0.2565
 7901SOL     OW35335   0.959   1.461   5.210 -0.2996  0.2205 -0.2274
 7901SOL    HW135336   0.965   1.452   5.115 -0.5922 -1.6276 -0.0681
 7901SOL    HW235337   1.046   1.437   5.243 -0.5143 -0.9779 -0.5295
 7902SOL     OW35338   4.545   4.165   4.148  0.3855 -0.3721 -0.4138
 7902SOL    HW135339   4.500   4.241   4.186  1.2350  0.2575 -0.6621
 7902SOL    HW235340   4.639   4.183   4.160  0.5945 -1.5231 -0.3523
 7903SOL     OW35341   0.689   1.070  12.599  0.4826  0.0095 -0.6866
 7903SOL    HW135342   0.649   1.142  12.549 -0.6085  0.2397  0.5390
 7903SOL    HW235343   0.781   1.095  12.591  0.1804  1.3179 -0.0727
 7904SOL     OW35344   3.283   0.914  11.100 -0.0191 -0.2258  0.3472
 7904SOL    HW135345   3.196   0.936  11.067  1.1056 -0.1338 -2.5602
 7904SOL    HW235346   3.304   0.995  11.146 -1.1507  0.1366  0.2430
 7905SOL     OW35347   4.034   2.604   5.181  0.7015  0.2337  0.0959
 7905SOL    HW135348   4.032   2.690   5.138 -1.4340  0.3712  0.4953
 7905SOL    HW235349   4.129   2.600   5.195  0.9114 -0.3462 -1.4631
 7906SOL     OW35350   0.457   0.494   9.391 -0.0799 -0.1405 -0.7509
 7906SOL    HW135351   0.552   0.503   9.394 -0.0661 -0.6983  1.1213
 7906SOL    HW235352   0.440   0.442   9.470 -1.3554  0.3158 -0.7157
 7907SOL     OW35353   4.263   0.425  16.711 -0.2940  0.9279  0.0483
 7907SOL    HW135354   4.265   0.520  16.704 -2.5878  0.7449 -3.0777
 7907SOL    HW235355   4.177   0.410  16.672 -1.0583 -0.1989  2.2212
 7908SOL     OW35356   0.417   0.113  14.985  0.2679  0.1641 -0.3423
 7908SOL    HW135357   0.379   0.177  15.046 -1.3513 -0.5001 -0.6339
 7908SOL    HW235358   0.391   0.158  14.905  1.1887  1.6863  0.2176
 7909SOL     OW35359   4.651   1.661   3.546  1.0401 -0.1072  0.4933
 7909SOL    HW135360   4.609   1.746   3.530  1.2301 -0.0424  0.3299
 7909SOL    HW235361   4.606   1.614   3.476 -1.5928 -0.8337  2.7106
 7910SOL     OW35362   0.382   1.259   2.247  0.0123 -0.3658 -0.0156
 7910SOL    HW135363   0.447   1.189   2.235 -0.6041 -0.9339 -0.0766
 7910SOL    HW235364   0.369   1.251   2.341 -2.8622  2.2401 -0.1901
 7911SOL     OW35365   0.798   3.412  13.068 -0.6391 -0.0710  0.1780
 7911SOL    HW135366   0.831   3.502  13.077 -2.3515  0.7184 -1.4941
 7911SOL    HW235367   0.809   3.402  12.973 -1.2915 -0.1436  0.1137
 7912SOL     OW35368   0.215   2.718   4.613 -0.0197  0.5469  0.4995
 7912SOL    HW135369   0.135   2.680   4.576 -1.1651  1.1695  2.3146
 7912SOL    HW235370   0.276   2.663   4.565  0.2310 -1.2727  2.9182
 7913SOL     OW35371   0.675   0.564  14.870  0.4542 -0.1508  0.4020
 7913SOL    HW135372   0.676   0.549  14.965  0.0474 -0.5354  0.3448
 7913SOL    HW235373   0.677   0.475  14.833  1.8337 -0.0221  0.1620
 7914SOL     OW35374   1.750   4.662  10.855  0.3483 -0.0565 -0.5262
 7914SOL    HW135375   1.800   4.617  10.786  2.2851  0.5949  0.4439
 7914SOL    HW235376   1.826   4.677  10.911  0.4085 -1.9944 -0.0639
 7915SOL     OW35377   3.817   1.047  11.324  0.3875  0.1967 -0.3269
 7915SOL    HW135378   3.813   0.970  11.267  0.0204 -0.2019  0.2338
 7915SOL    HW235379   3.733   1.042  11.370 -1.5398  0.8211 -3.7192
 7916SOL     OW35380   4.281   0.245   7.397 -0.0283 -0.1996 -0.0545
 7916SOL    HW135381   4.266   0.204   7.482  1.2662  0.0760  0.2970
 7916SOL    HW235382   4.190   0.265   7.375 -0.0006 -0.3552 -0.3129
 7917SOL     OW35383   1.165   4.361  16.254 -1.1311  0.7333  0.4009
 7917SOL    HW135384   1.197   4.327  16.338  0.3228  1.9351  0.3368
 7917SOL    HW235385   1.205   4.289  16.204 -0.3384  0.7914  0.9509
 7918SOL     OW35386   2.308   3.723   5.962 -0.2473 -0.1274  0.1899
 7918SOL    HW135387   2.296   3.719   6.057 -3.5638  1.7600 -0.1316
 7918SOL    HW235388   2.401   3.743   5.955 -1.2899  3.5133 -3.0362
 7919SOL     OW35389   0.368   4.109  17.275  0.1353 -0.2947 -0.3266
 7919SOL    HW135390   0.317   4.189  17.292 -1.2975 -1.0311 -1.1211
 7919SOL    HW235391   0.458   4.136  17.292 -0.2276 -1.3148  3.1490
 7920SOL     OW35392   0.109   2.126  12.079 -0.3514  0.0585 -0.6254
 7920SOL    HW135393   0.082   2.165  12.162  0.7337 -2.1450  0.7705
 7920SOL    HW235394   0.068   2.040  12.092 -0.5801  0.4675  1.4228
 7921SOL     OW35395   3.541   2.974   9.804  0.7429 -0.3859  1.0151
 7921SOL    HW135396   3.591   2.986   9.723 -3.4800 -1.2580 -1.6938
 7921SOL    HW235397   3.555   3.058   9.847 -2.4403  1.4099 -1.5531
 7922SOL     OW35398   1.144   2.585   1.955  0.1444  0.0345  0.2767
 7922SOL    HW135399   1.116   2.648   2.022  1.8771  0.1107  0.9293
 7922SOL    HW235400   1.081   2.588   1.883  0.1996 -0.5638  0.2046
 7923SOL     OW35401   2.005   3.534  12.290 -0.0881  0.4478  0.0972
 7923SOL    HW135402   2.003   3.458  12.349 -2.5237  0.5574  0.1476
 7923SOL    HW235403   2.019   3.602  12.357 -0.3545 -0.7065  1.3205
 7924SOL     OW35404   1.893   2.790   9.757  0.3782  0.8870  0.4515
 7924SOL    HW135405   1.878   2.879   9.724  0.7744  1.0848  0.8178
 7924SOL    HW235406   1.985   2.790   9.734  0.1679  0.9760 -0.3875
 7925SOL     OW35407   1.950   4.500   7.328  0.2387  0.1436 -0.1018
 7925SOL    HW135408   2.010   4.574   7.335  0.3638 -0.0533  0.9685
 7925SOL    HW235409   1.957   4.490   7.233 -0.7584  1.1146 -0.2652
 7926SOL     OW35410   3.452   4.183  15.321 -0.6077  0.0519 -0.2729
 7926SOL    HW135411   3.532   4.168  15.271 -0.6887  0.1514 -0.4310
 7926SOL    HW235412   3.467   4.142  15.407  1.7794  2.4933  0.4673
 7927SOL     OW35413   3.622   0.513   6.866  0.4663  0.1140 -0.1120
 7927SOL    HW135414   3.624   0.418   6.873  1.7454  0.2458  1.4558
 7927SOL    HW235415   3.539   0.535   6.908 -0.3073  1.0040 -2.1019
 7928SOL     OW35416   0.173   0.344   8.023 -0.2380 -0.0561  0.2587
 7928SOL    HW135417   0.209   0.255   8.022 -0.8333 -0.2864 -0.6634
 7928SOL    HW235418   0.118   0.342   8.101 -0.8148 -2.0233 -0.1973
 7929SOL     OW35419   0.822   3.767   5.393  0.0057 -0.0435  0.2863
 7929SOL    HW135420   0.880   3.691   5.398  0.0464 -0.0574 -0.4079
 7929SOL    HW235421   0.885   3.835   5.416 -2.1924  1.7341  1.0666
 7930SOL     OW35422   3.662   2.956   5.181  0.1843  0.3048  0.4198
 7930SOL    HW135423   3.705   2.953   5.267  0.1446 -2.8564  0.3503
 7930SOL    HW235424   3.738   2.952   5.123 -0.7634  0.5409 -0.8386
 7931SOL     OW35425   2.215   0.203   1.722  0.0983 -0.5441 -0.2391
 7931SOL    HW135426   2.163   0.283   1.721  0.6311 -0.1946  0.5902
 7931SOL    HW235427   2.299   0.248   1.727  0.8300 -1.8987 -0.4373
 7932SOL     OW35428   3.249   2.600  14.939  0.1722 -0.4793 -0.5304
 7932SOL    HW135429   3.236   2.673  14.879  0.2865 -1.0343 -1.2380
 7932SOL    HW235430   3.322   2.632  14.992  0.2909  0.7522 -1.4633
 7933SOL     OW35431   4.614   3.343  13.491 -0.4724  0.3649  0.0098
 7933SOL    HW135432   4.606   3.400  13.567  3.1120  0.1368  0.5468
 7933SOL    HW235433   4.696   3.368  13.449  0.5435 -2.5797  0.2331
 7934SOL     OW35434   3.915   1.841   6.598  0.1234  0.0550 -0.0978
 7934SOL    HW135435   4.001   1.821   6.634 -0.5240 -0.6984  1.0110
 7934SOL    HW235436   3.952   1.905   6.537  0.7211 -0.1402  0.0666
 7935SOL     OW35437   3.630   3.391   6.344 -0.1080  0.0073 -0.1587
 7935SOL    HW135438   3.623   3.486   6.344 -0.6988 -0.0406 -0.8113
 7935SOL    HW235439   3.689   3.375   6.418 -1.9887 -0.7279  1.1734
 7936SOL     OW35440   2.207   1.053   3.945  0.1996 -1.0216 -0.4164
 7936SOL    HW135441   2.228   0.960   3.953  1.1399 -0.8658 -1.2117
 7936SOL    HW235442   2.203   1.064   3.850 -0.7721 -2.6775 -0.5706
 7937SOL     OW35443   3.562   0.971   5.660  0.1568  0.8747 -0.8548
 7937SOL    HW135444   3.636   0.913   5.642  1.1672  2.2781 -1.2190
 7937SOL    HW235445   3.575   1.021   5.580  1.1264 -0.0728 -1.2984
 7938SOL     OW35446   3.361   1.026   9.999 -0.3665 -0.0110 -0.5849
 7938SOL    HW135447   3.296   0.961  10.026  0.2163  1.3067  4.0481
 7938SOL    HW235448   3.422   1.031  10.073 -1.3795  1.9335  0.1013
 7939SOL     OW35449   1.378   0.869   2.404  0.6533  0.0249  0.2413
 7939SOL    HW135450   1.418   0.936   2.349  0.1191 -0.4582 -0.7318
 7939SOL    HW235451   1.371   0.789   2.351 -2.0159  0.8396 -0.6595
 7940SOL     OW35452   4.414   1.412   0.095  0.1973  0.2584 -0.1703
 7940SOL    HW135453   4.360   1.435   0.019 -3.2868  0.2772  2.3179
 7940SOL    HW235454   4.364   1.442   0.171  0.2572 -1.9105  0.7218
 7941SOL     OW35455   1.677   1.488   4.623 -0.0162  0.1994 -0.0962
 7941SOL    HW135456   1.687   1.516   4.714 -0.3748  1.0223 -0.3036
 7941SOL    HW235457   1.759   1.442   4.605  0.0083 -0.4302  1.6866
 7942SOL     OW35458   0.054   1.256   4.397  0.1356 -0.4366 -0.1683
 7942SOL    HW135459   0.086   1.211   4.319 -0.2355 -1.3641  0.2184
 7942SOL    HW235460   4.723   1.312   4.366 -0.6286 -0.3643  1.7136
 7943SOL     OW35461   2.317   1.252   7.403 -0.3236 -0.2346 -0.1285
 7943SOL    HW135462   2.345   1.283   7.318 -0.3622  0.3096  0.0590
 7943SOL    HW235463   2.361   1.316   7.459  1.0653 -1.1788 -0.1275
 7944SOL     OW35464   0.563   2.156   4.876 -0.3182  0.0713  0.4350
 7944SOL    HW135465   0.580   2.231   4.932  0.6478 -1.0807  1.6573
 7944SOL    HW235466   0.487   2.122   4.922  0.1288  0.4712  1.4619
 7945SOL     OW35467   4.458   3.435   5.749 -0.4932 -0.3801  0.0214
 7945SOL    HW135468   4.457   3.522   5.789 -1.7363 -0.3180 -0.1447
 7945SOL    HW235469   4.402   3.394   5.816  3.1807 -1.7531  2.2752
 7946SOL     OW35470   3.965   1.891   9.477  0.1717 -0.1838  0.1766
 7946SOL    HW135471   3.950   1.891   9.383 -2.0100  2.8300  0.5219
 7946SOL    HW235472   3.943   1.978   9.510  0.4618 -1.5130  3.8993
 7947SOL     OW35473   1.080   4.645  10.775 -0.1401 -0.2746  0.1885
 7947SOL    HW135474   1.023   4.654  10.851 -1.6775 -2.3007 -0.7179
 7947SOL    HW235475   1.034   4.597  10.706  0.7354 -0.3545 -0.3365
 7948SOL     OW35476   0.868   1.187   6.286  0.4842  1.0288 -0.5084
 7948SOL    HW135477   0.855   1.096   6.312 -0.7310  1.1517 -0.6488
 7948SOL    HW235478   0.877   1.242   6.364 -1.7702 -0.8326  1.0681
 7949SOL     OW35479   0.783   3.711   4.653 -0.6660  0.2614 -0.2619
 7949SOL    HW135480   0.846   3.777   4.681 -1.9261  1.3988 -0.1187
 7949SOL    HW235481   0.763   3.740   4.564 -0.9845  0.3292 -0.1646
 7950SOL     OW35482   3.764   0.239   5.793 -0.3671  0.2725  0.3308
 7950SOL    HW135483   3.729   0.315   5.747 -1.2086  1.1314  2.4167
 7950SOL    HW235484   3.780   0.172   5.726  1.4913  0.1810  0.8680
 7951SOL     OW35485   0.473   3.331   3.351 -0.1584 -0.5654 -0.1403
 7951SOL    HW135486   0.524   3.267   3.302 -0.8523 -0.5597 -0.8600
 7951SOL    HW235487   0.470   3.406   3.291 -1.2807 -0.2716  0.2868
 7952SOL     OW35488   2.153   0.976   5.460  0.2933  0.0587 -0.2046
 7952SOL    HW135489   2.134   0.882   5.468  1.1120 -0.1894 -1.1855
 7952SOL    HW235490   2.199   0.987   5.543  0.0644  1.9649 -0.3296
 7953SOL     OW35491   0.964   2.634   0.863 -0.6806  0.0341  0.2981
 7953SOL    HW135492   0.909   2.673   0.794 -2.2979 -1.0274  0.9959
 7953SOL    HW235493   0.989   2.549   0.826  0.6247 -0.3809  2.1655
 7954SOL     OW35494   0.222   1.122  16.703  0.4597  0.0548 -0.4657
 7954SOL    HW135495   0.154   1.155  16.645 -0.3277  1.2965  1.1685
 7954SOL    HW235496   0.282   1.195  16.718  1.5968 -1.3480  1.8208
 7955SOL     OW35497   3.253   2.255   9.955  0.1033 -0.1959  0.5210
 7955SOL    HW135498   3.279   2.176  10.002 -2.3718  0.0579  2.3420
 7955SOL    HW235499   3.177   2.222   9.906  1.3894  1.0003 -2.2685
 7956SOL     OW35500   1.642   3.810   5.484  0.0458  0.5060  0.3821
 7956SOL    HW135501   1.738   3.810   5.492  0.1251 -1.4481 -0.4826
 7956SOL    HW235502   1.637   3.737   5.423  0.2722 -0.4589  1.5139
 7957SOL     OW35503   2.040   4.360  15.246  0.4750  0.3680  0.4859
 7957SOL    HW135504   2.005   4.432  15.298  1.4574  0.6000  0.8351
 7957SOL    HW235505   2.113   4.398  15.196 -0.7029  0.2349 -1.3345
 7958SOL     OW35506   4.173   0.315   2.564 -0.4572  0.0579  0.3364
 7958SOL    HW135507   4.206   0.228   2.544 -0.4032 -0.2150  1.6752
 7958SOL    HW235508   4.080   0.293   2.575 -0.8231  2.0152  1.1397
 7959SOL     OW35509   1.449   2.710   7.489  0.0971  0.0617  0.1230
 7959SOL    HW135510   1.402   2.668   7.417 -1.0580  1.2393  0.1755
 7959SOL    HW235511   1.378   2.764   7.524 -0.3176 -1.3132  1.3876
 7960SOL     OW35512   0.916   1.655   8.473 -0.3738  0.1197  0.3240
 7960SOL    HW135513   0.849   1.695   8.528 -1.2650  2.0077 -2.1492
 7960SOL    HW235514   0.882   1.566   8.460 -0.1232  0.2094 -0.9897
 7961SOL     OW35515   0.816   2.451   8.225 -0.2451  0.6895 -0.5121
 7961SOL    HW135516   0.773   2.465   8.309 -0.3577  1.9709 -0.7807
 7961SOL    HW235517   0.899   2.423   8.262  0.3284 -0.2411 -2.4990
 7962SOL     OW35518   0.997   0.899   0.967  0.0294 -0.3755 -0.3114
 7962SOL    HW135519   0.947   0.885   1.047 -1.3276 -0.7324 -1.2251
 7962SOL    HW235520   1.085   0.891   1.004  0.7264  0.2919 -1.8369
 7963SOL     OW35521   2.726   1.590   7.062 -0.1441 -0.0912 -0.3061
 7963SOL    HW135522   2.645   1.625   7.028 -0.4896 -1.4378 -0.8762
 7963SOL    HW235523   2.792   1.651   7.031  0.0382 -0.9109 -1.5394
 7964SOL     OW35524   3.788   3.552   2.159  0.0910  0.9042 -0.2925
 7964SOL    HW135525   3.763   3.618   2.224  1.2176 -1.0572  2.1187
 7964SOL    HW235526   3.875   3.585   2.134  0.0497  0.1922 -1.3704
 7965SOL     OW35527   0.476   1.734   6.259  0.3064 -0.1564  0.0738
 7965SOL    HW135528   0.467   1.826   6.284  1.1230  0.0033 -0.2424
 7965SOL    HW235529   0.503   1.692   6.341  1.7161 -0.1501 -0.3948
 7966SOL     OW35530   1.896   4.319   2.262 -0.3743  0.9604  0.9522
 7966SOL    HW135531   1.960   4.348   2.328 -0.2226  1.1711  0.7123
 7966SOL    HW235532   1.824   4.379   2.284  0.5642  2.6015 -0.5198
 7967SOL     OW35533   1.452   1.087   0.894 -0.1967  0.6633  0.5406
 7967SOL    HW135534   1.532   1.137   0.908 -0.1463  1.0172 -0.9495
 7967SOL    HW235535   1.495   1.014   0.849  0.1432  0.0409  1.8873
 7968SOL     OW35536   0.950   0.751   5.664 -0.2672  0.5631  0.1190
 7968SOL    HW135537   0.947   0.843   5.690  3.8239 -0.0532  2.7448
 7968SOL    HW235538   1.033   0.755   5.616 -0.8352  1.2968 -0.8141
 7969SOL     OW35539   2.956   4.522   4.775 -0.1456 -0.4124 -0.2867
 7969SOL    HW135540   2.864   4.496   4.782 -0.4566  0.7365 -0.0905
 7969SOL    HW235541   2.947   4.602   4.723  0.1668  0.4232  0.9336
 7970SOL     OW35542   3.777   2.586   7.747 -0.0711  0.3027  0.1866
 7970SOL    HW135543   3.872   2.592   7.756 -0.2191  0.7700  1.3062
 7970SOL    HW235544   3.754   2.677   7.728  0.1152  0.1888 -0.6067
 7971SOL     OW35545   2.200   1.032   2.759 -0.1884  0.0754  0.1408
 7971SOL    HW135546   2.143   1.030   2.682  1.1329 -0.2256 -0.8311
 7971SOL    HW235547   2.282   1.048   2.712  0.6450 -0.9752  1.2569
 7972SOL     OW35548   3.627   1.889   6.366  0.3987 -0.8916  0.2629
 7972SOL    HW135549   3.602   1.808   6.412  2.5458 -1.0923  1.0806
 7972SOL    HW235550   3.660   1.933   6.445  1.2187  1.1915 -1.2458
 7973SOL     OW35551   2.931   2.528   7.994 -0.3305  0.0667  0.3013
 7973SOL    HW135552   2.950   2.597   7.931 -1.7238  1.3215  1.2654
 7973SOL    HW235553   3.009   2.535   8.049  0.2835  2.0808 -0.8035
 7974SOL     OW35554   2.485   0.264   1.700 -0.2869  0.3701 -0.0904
 7974SOL    HW135555   2.519   0.224   1.620  1.2731  1.6671 -0.0747
 7974SOL    HW235556   2.518   0.352   1.684  0.2398  0.1628 -0.1457
 7975SOL     OW35557   3.546   2.999  13.313 -0.0044  0.3605 -0.3995
 7975SOL    HW135558   3.463   3.022  13.355 -1.3750 -0.6198 -2.5759
 7975SOL    HW235559   3.504   2.926  13.268  0.4971 -0.6002  0.7063
 7976SOL     OW35560   3.843   3.145   2.798  0.4898 -0.1226 -0.0958
 7976SOL    HW135561   3.928   3.111   2.772 -0.0064  0.2745 -2.1898
 7976SOL    HW235562   3.794   3.165   2.719 -0.5959 -1.8103  0.1414
 7977SOL     OW35563   3.435   0.157   6.704 -0.1831  0.4394 -0.8285
 7977SOL    HW135564   3.478   0.207   6.773 -0.9696 -0.8924  0.6400
 7977SOL    HW235565   3.382   0.227   6.666 -2.0520 -1.0636 -1.0149
 7978SOL     OW35566   0.274   2.156   7.904 -0.5820  0.0260  0.3040
 7978SOL    HW135567   0.233   2.075   7.874 -1.2436 -0.7627  3.3658
 7978SOL    HW235568   0.322   2.120   7.978  0.7295 -0.0575 -0.5882
 7979SOL     OW35569   2.915   3.315   4.110 -0.2287  0.1921 -0.1671
 7979SOL    HW135570   2.968   3.298   4.032  0.5663  0.9923  0.2018
 7979SOL    HW235571   2.845   3.252   4.096 -0.3874  0.3813 -0.2156
 7980SOL     OW35572   3.620   4.132  13.689  0.1836 -0.3261 -0.8198
 7980SOL    HW135573   3.649   4.180  13.612 -1.3796  0.9386 -0.6288
 7980SOL    HW235574   3.525   4.130  13.678 -0.0192 -1.9594  1.1627
 7981SOL     OW35575   3.326   3.190   3.649 -0.0399 -0.2803  0.0261
 7981SOL    HW135576   3.301   3.129   3.719 -1.9391 -1.5100 -1.7232
 7981SOL    HW235577   3.285   3.147   3.575 -3.4768  0.0791  1.7189
 7982SOL     OW35578   3.206   4.125  16.423 -0.2629 -0.1726 -0.4085
 7982SOL    HW135579   3.173   4.212  16.400  0.8124 -0.1399 -1.8151
 7982SOL    HW235580   3.231   4.097  16.335  0.1498  1.6321 -0.8536
 7983SOL     OW35581   2.086   3.530   9.434 -0.8186  0.2759 -0.3632
 7983SOL    HW135582   2.069   3.475   9.358  0.9553  1.1526 -1.4065
 7983SOL    HW235583   2.058   3.472   9.505 -1.0059 -1.8865 -2.1855
 7984SOL     OW35584   3.116   4.491  13.294  0.0666 -0.1181 -0.4552
 7984SOL    HW135585   3.167   4.449  13.364  1.9020  1.8970 -0.5804
 7984SOL    HW235586   3.175   4.479  13.220 -1.7254 -4.1763 -1.2252
 7985SOL     OW35587   4.249   4.374  10.958 -0.1574 -0.1254  0.1557
 7985SOL    HW135588   4.290   4.361  11.044 -1.4107 -1.6218  0.5157
 7985SOL    HW235589   4.326   4.373  10.900 -0.2892 -0.3363 -0.0165
 7986SOL     OW35590   0.712   0.574   6.920  0.6253  0.3770  0.5350
 7986SOL    HW135591   0.732   0.599   7.011 -0.4926  1.9262  0.3555
 7986SOL    HW235592   0.617   0.588   6.924  0.6633  0.3649  1.6164
 7987SOL     OW35593   2.125   0.596   7.395 -0.2997  0.5663 -0.3766
 7987SOL    HW135594   2.199   0.649   7.366  1.3557 -1.3421  0.3135
 7987SOL    HW235595   2.100   0.639   7.477 -1.4631  0.3930 -0.6375
 7988SOL     OW35596   0.106   2.020   8.614  0.0682 -0.3379  0.0343
 7988SOL    HW135597   0.040   1.952   8.597 -1.0000  0.7328 -0.0895
 7988SOL    HW235598   0.055   2.096   8.642  1.1445  0.6261 -0.6231
 7989SOL     OW35599   0.693   4.336   4.353  0.0753 -0.1780  0.2625
 7989SOL    HW135600   0.658   4.406   4.408 -0.0259  0.5298 -0.6969
 7989SOL    HW235601   0.636   4.324   4.276 -1.8272  0.5310  1.5543
 7990SOL     OW35602   0.717   4.538  13.573 -0.3467 -0.2551  0.1232
 7990SOL    HW135603   0.702   4.611  13.632  2.1695 -1.1780  1.9182
 7990SOL    HW235604   0.731   4.464  13.632  1.4252 -0.0144  0.0111
 7991SOL     OW35605   4.426   1.198   7.866  0.1995 -0.3086  0.4201
 7991SOL    HW135606   4.422   1.104   7.884  1.7601 -0.3418  0.6257
 7991SOL    HW235607   4.512   1.194   7.824 -0.1378  0.8386 -0.3682
 7992SOL     OW35608   3.926   0.689  14.029  0.2136  0.1265 -0.0997
 7992SOL    HW135609   3.879   0.606  14.018  0.0853  0.3016 -0.8792
 7992SOL    HW235610   3.880   0.726  14.105  0.0824  0.5941 -0.4028
 7993SOL     OW35611   1.327   2.155   4.049  0.0700  0.1424 -0.4130
 7993SOL    HW135612   1.376   2.218   4.102  2.1686 -1.9052  0.0768
 7993SOL    HW235613   1.294   2.100   4.120 -0.3934  1.2974  0.2672
 7994SOL     OW35614   3.792   4.631   8.237 -0.4315 -0.1963 -0.3025
 7994SOL    HW135615   3.777   4.721   8.266  0.1171 -1.0724  2.8011
 7994SOL    HW235616   3.887   4.629   8.252 -0.0625 -1.6753 -3.0017
 7995SOL     OW35617   2.470   3.571  14.427 -0.1805  0.0177  0.4265
 7995SOL    HW135618   2.464   3.508  14.499  1.6039 -0.2027  0.3780
 7995SOL    HW235619   2.551   3.610  14.459 -1.1363  3.1626 -1.0486
 7996SOL     OW35620   3.718   4.570   1.774 -0.2223  0.6833  0.1439
 7996SOL    HW135621   3.631   4.542   1.803 -0.6332  0.4333 -1.3202
 7996SOL    HW235622   3.716   4.664   1.787  1.5196  0.8967 -1.1403
 7997SOL     OW35623   3.224   2.860   8.579 -0.2383  0.6219  0.3516
 7997SOL    HW135624   3.140   2.853   8.623  0.3751  0.1150  1.4399
 7997SOL    HW235625   3.203   2.929   8.516  0.5831 -0.8177 -1.4916
 7998SOL     OW35626   2.556   4.349   4.605 -0.0533  0.0532  0.7957
 7998SOL    HW135627   2.508   4.299   4.670  0.2046 -0.5385  0.5276
 7998SOL    HW235628   2.613   4.280   4.572 -1.2281 -0.6258  0.1940
 7999SOL     OW35629   1.483   3.156   7.369 -0.0784 -0.1844 -0.0961
 7999SOL    HW135630   1.452   3.189   7.285 -0.6369 -1.6393 -0.4683
 7999SOL    HW235631   1.512   3.069   7.338 -0.0959  0.7951 -2.8794
 8000SOL     OW35632   1.145   0.270   6.456  0.5585 -0.2030  0.3623
 8000SOL    HW135633   1.140   0.358   6.418 -1.0431 -0.5280 -0.1678
 8000SOL    HW235634   1.060   0.260   6.497  0.5313  0.3306  0.4382
 8001SOL     OW35635   1.569   3.254   1.757 -0.2826 -0.3505  0.3653
 8001SOL    HW135636   1.607   3.167   1.753  1.8888  0.6199  0.1497
 8001SOL    HW235637   1.474   3.240   1.764 -0.6128  1.2792 -0.9316
 8002SOL     OW35638   3.113   4.587   8.916  0.1396  0.2010 -0.2766
 8002SOL    HW135639   3.154   4.645   8.979  0.0799 -2.6107  2.3488
 8002SOL    HW235640   3.095   4.504   8.959  3.3080  0.3492  1.2917
 8003SOL     OW35641   2.041   1.419   9.209  0.2542  0.0741  0.1732
 8003SOL    HW135642   2.079   1.392   9.126  2.4980  1.0556  0.8710
 8003SOL    HW235643   1.975   1.476   9.170 -0.8507  0.0798  2.0407
 8004SOL     OW35644   3.175   3.818  10.307 -0.0110 -0.5041 -0.2394
 8004SOL    HW135645   3.125   3.769  10.372 -1.2519  1.7370  0.5253
 8004SOL    HW235646   3.125   3.794  10.229 -0.1563  0.9400 -0.6024
 8005SOL     OW35647   1.757   4.102  13.903  0.0133  0.1747 -0.4584
 8005SOL    HW135648   1.839   4.060  13.928  0.4855  0.9942 -0.6330
 8005SOL    HW235649   1.792   4.162  13.837 -0.4003 -0.6634 -1.4491
 8006SOL     OW35650   1.011   0.083   3.267 -0.1016  0.1376 -0.0394
 8006SOL    HW135651   1.056   0.116   3.345  1.7068 -1.4634 -0.3977
 8006SOL    HW235652   1.091   0.073   3.215  0.5844  0.5241  0.9321
 8007SOL     OW35653   4.160   0.677   1.978 -0.2278 -0.2246 -0.5484
 8007SOL    HW135654   4.099   0.731   2.027 -0.6497 -0.5253 -0.7398
 8007SOL    HW235655   4.101   0.604   1.961  0.8570 -1.1901 -0.1769
 8008SOL     OW35656   0.436   0.696   6.928 -0.4993 -0.3712 -0.0385
 8008SOL    HW135657   0.441   0.742   7.012  0.6548 -3.0762  1.3687
 8008SOL    HW235658   0.360   0.638   6.932 -0.3203 -0.7432 -2.1258
 8009SOL     OW35659   2.105   0.456   3.395 -0.3552  0.2873 -0.2124
 8009SOL    HW135660   2.160   0.483   3.469  0.8265  1.3219 -1.4856
 8009SOL    HW235661   2.169   0.435   3.327 -1.2178  1.4634 -1.3930
 8010SOL     OW35662   1.765   0.313  17.200  0.0813  0.1320 -0.2761
 8010SOL    HW135663   1.827   0.385  17.189 -0.3237  0.5294  0.0496
 8010SOL    HW235664   1.792   0.270  17.119 -0.3323 -0.6364 -0.0052
 8011SOL     OW35665   1.161   2.403   9.305 -0.6458  0.6504 -0.1392
 8011SOL    HW135666   1.223   2.333   9.326 -1.9687 -0.4579  0.0445
 8011SOL    HW235667   1.132   2.384   9.217  2.8126  1.3268 -1.4520
 8012SOL     OW35668   2.402   4.286   3.215 -0.0884 -0.1286 -0.1219
 8012SOL    HW135669   2.341   4.238   3.159 -0.7749  0.5104  0.0702
 8012SOL    HW235670   2.348   4.337   3.276 -1.5952 -1.1677 -0.5736
 8013SOL     OW35671   2.505   1.856   0.454 -0.2802 -0.2781  0.6020
 8013SOL    HW135672   2.517   1.883   0.544  2.0385  0.8036 -0.0378
 8013SOL    HW235673   2.413   1.833   0.440  0.0221  0.3331 -2.5719
 8014SOL     OW35674   2.568   0.848  16.891 -0.5629 -0.3411  0.4478
 8014SOL    HW135675   2.537   0.925  16.938  0.6592 -0.5136  1.5110
 8014SOL    HW235676   2.654   0.833  16.929 -1.1263 -0.5958  1.6038
 8015SOL     OW35677   3.193   1.069   7.324 -0.0225 -0.2424 -0.0483
 8015SOL    HW135678   3.244   1.065   7.405 -0.1860 -2.1685 -0.0540
 8015SOL    HW235679   3.157   1.157   7.334  0.6947  0.0646 -0.1116
 8016SOL     OW35680   1.244   0.268   5.515 -0.1125 -0.3313  0.3147
 8016SOL    HW135681   1.309   0.307   5.575 -0.6006  0.1185  0.5544
 8016SOL    HW235682   1.265   0.176   5.530  1.4569  0.0436  0.4443
 8017SOL     OW35683   3.241   1.797   5.762  0.1827  0.9142 -0.2418
 8017SOL    HW135684   3.212   1.707   5.744 -0.0203  1.0394 -0.5369
 8017SOL    HW235685   3.253   1.800   5.857  0.9496 -0.3615 -0.3001
 8018SOL     OW35686   3.453   0.898  15.234  0.3500  0.3389 -0.0103
 8018SOL    HW135687   3.445   0.848  15.153  1.6251  0.9674 -0.5212
 8018SOL    HW235688   3.361   0.925  15.246 -0.1276 -1.6285  0.6579
 8019SOL     OW35689   0.733   2.816   1.392  0.6895  0.2034 -0.2025
 8019SOL    HW135690   0.675   2.886   1.424  0.2274 -0.7109  0.9760
 8019SOL    HW235691   0.671   2.754   1.352 -1.7549  2.1825  0.5146
 8020SOL     OW35692   0.662   2.910   8.126 -0.2659 -0.2641 -0.4360
 8020SOL    HW135693   0.609   2.989   8.114 -0.3109 -0.3928 -1.0749
 8020SOL    HW235694   0.650   2.881   8.035  1.9574 -0.5324 -0.6386
 8021SOL     OW35695   1.710   0.576  11.725  0.2108 -0.2347 -0.2672
 8021SOL    HW135696   1.791   0.615  11.757  0.4481  0.1882 -1.3548
 8021SOL    HW235697   1.754   0.515  11.666 -0.6076 -1.4094  0.3555
 8022SOL     OW35698   4.360   0.287   9.564 -0.0866 -0.4707  0.0659
 8022SOL    HW135699   4.375   0.354   9.631  0.7412  0.0390 -0.6372
 8022SOL    HW235700   4.415   0.335   9.502 -1.0169  1.5077  0.7575
 8023SOL     OW35701   0.566   0.965   3.217 -0.4938  0.5055  0.5634
 8023SOL    HW135702   0.630   0.973   3.287 -1.7438  0.6873  1.6830
 8023SOL    HW235703   0.491   0.920   3.257  0.0086 -1.2796 -0.5030
 8024SOL     OW35704   3.738   0.251   9.304  0.0333 -0.4422 -0.1840
 8024SOL    HW135705   3.724   0.183   9.238  0.5944 -0.7538  0.0218
 8024SOL    HW235706   3.821   0.292   9.281 -0.2698 -0.3444 -1.0971
 8025SOL     OW35707   4.021   1.320   8.937 -0.4573  0.0786  1.0846
 8025SOL    HW135708   3.949   1.358   8.986  0.7387  2.1749  1.1811
 8025SOL    HW235709   3.977   1.314   8.851 -0.4364  0.8134  1.0290
 8026SOL     OW35710   1.716   2.419   3.592 -0.4368 -1.0542 -0.6054
 8026SOL    HW135711   1.629   2.399   3.560 -0.9091  1.0003 -0.5841
 8026SOL    HW235712   1.738   2.507   3.563 -0.1525 -1.3260 -1.2057
 8027SOL     OW35713   0.928   0.804   2.246  0.1053  0.2664  0.0390
 8027SOL    HW135714   0.895   0.715   2.261 -0.4063  0.1565 -1.8070
 8027SOL    HW235715   0.975   0.820   2.328  0.0517  0.0043  0.1215
 8028SOL     OW35716   3.523   2.084   5.246 -0.5427  0.0791 -0.2827
 8028SOL    HW135717   3.496   2.088   5.154 -1.4172 -1.7577 -0.1111
 8028SOL    HW235718   3.475   2.158   5.282 -1.5276  0.4595 -2.3704
 8029SOL     OW35719   2.882   2.278   1.022 -0.0961 -0.5343  0.1914
 8029SOL    HW135720   2.880   2.371   1.046 -0.1434 -0.4689 -0.0652
 8029SOL    HW235721   2.888   2.239   1.109  0.1058 -1.2677 -0.1526
 8030SOL     OW35722   0.021   0.063  16.506  0.2227 -0.0711  0.0526
 8030SOL    HW135723   4.736   0.073  16.598 -0.1136 -2.1688  0.1842
 8030SOL    HW235724   0.009   0.155  16.480 -2.5389  0.2273  2.3214
 8031SOL     OW35725   4.289   1.626   8.962  0.1701  0.0760 -0.5013
 8031SOL    HW135726   4.380   1.655   8.969  0.3701 -0.6109 -0.3175
 8031SOL    HW235727   4.289   1.532   8.947 -0.7050  0.0188 -0.1283
 8032SOL     OW35728   2.057   3.033   8.017 -0.2794  0.1589  0.0927
 8032SOL    HW135729   2.040   3.004   8.106 -0.3725 -0.8936 -0.2721
 8032SOL    HW235730   2.086   3.123   8.035  0.5475  0.2360 -1.6153
 8033SOL     OW35731   2.983   0.496   2.456 -0.0690  0.6290 -0.1846
 8033SOL    HW135732   3.003   0.427   2.392 -0.6645  0.2591  0.0283
 8033SOL    HW235733   2.968   0.443   2.534 -0.5406  0.2687 -0.5178
 8034SOL     OW35734   2.775   3.012   2.423 -0.2550 -0.2773  0.4657
 8034SOL    HW135735   2.805   3.083   2.366  1.2336 -0.3495  1.1489
 8034SOL    HW235736   2.819   2.943   2.373 -1.0509 -0.0965 -0.4724
 8035SOL     OW35737   2.251   0.472   3.640 -0.4693  0.2835 -0.6259
 8035SOL    HW135738   2.203   0.391   3.622 -1.7548  1.0688 -0.7254
 8035SOL    HW235739   2.289   0.449   3.725  0.1687  1.4226 -0.6006
 8036SOL     OW35740   4.454   2.056  12.131  0.2144  0.1428  0.4797
 8036SOL    HW135741   4.388   2.106  12.084  1.1293  0.8918 -0.0238
 8036SOL    HW235742   4.513   2.038  12.057 -0.5335 -2.1133  0.4564
 8037SOL     OW35743   0.125   1.169   2.893  0.1129 -0.4188  0.8844
 8037SOL    HW135744   0.110   1.107   2.821 -1.8303 -0.3298  1.2249
 8037SOL    HW235745   0.140   1.107   2.965 -0.0104 -1.4261  0.0488
 8038SOL     OW35746   0.444   0.414   9.668 -0.2219  0.1066 -0.0514
 8038SOL    HW135747   0.499   0.344   9.635 -2.5116 -1.9903  0.5403
 8038SOL    HW235748   0.429   0.387   9.759  0.7238  0.1298  0.1086
 8039SOL     OW35749   3.832   1.021   8.914 -0.1892 -0.8990  0.1033
 8039SOL    HW135750   3.922   1.027   8.946 -0.1235 -1.9804  0.1245
 8039SOL    HW235751   3.848   0.968   8.835 -0.6661  1.1158 -1.3380
 8040SOL     OW35752   3.314   1.734   1.041 -0.2500 -0.1489  0.3375
 8040SOL    HW135753   3.249   1.703   0.978  0.4393  0.5691 -0.7126
 8040SOL    HW235754   3.372   1.791   0.992 -1.9557 -0.0923 -1.6325
 8041SOL     OW35755   0.777   1.717   0.498  0.2707  0.4619 -0.4519
 8041SOL    HW135756   0.705   1.683   0.551  0.4216 -0.9107 -1.1127
 8041SOL    HW235757   0.728   1.755   0.426 -2.1306 -1.1521  0.3280
 8042SOL     OW35758   0.859   1.034   9.789  0.7389  0.4700  0.0287
 8042SOL    HW135759   0.912   1.064   9.862  1.6603 -1.2326  0.0631
 8042SOL    HW235760   0.856   1.112   9.734  0.0629  0.7306  0.4336
 8043SOL     OW35761   1.151   3.558   8.541  0.1141  0.5637  0.0534
 8043SOL    HW135762   1.199   3.563   8.624  1.0653 -1.0708 -0.3943
 8043SOL    HW235763   1.195   3.629   8.494 -1.8173  1.8947  0.2920
 8044SOL     OW35764   2.029   4.695   0.229  0.1986  0.8885 -0.3387
 8044SOL    HW135765   2.104   4.683   0.286 -0.0929  0.6195 -0.0171
 8044SOL    HW235766   2.075   4.712   0.146  0.7568  1.8595  0.1728
 8045SOL     OW35767   2.396   1.880   4.002 -0.1746  0.0191  0.2596
 8045SOL    HW135768   2.459   1.876   4.074  1.7578 -0.2402 -1.4389
 8045SOL    HW235769   2.332   1.816   4.034 -1.7554  1.7858  0.6590
 8046SOL     OW35770   3.075   0.055  12.571  0.8248 -0.6850 -0.4843
 8046SOL    HW135771   3.164   0.068  12.605  0.1451 -0.2870  1.1438
 8046SOL    HW235772   3.030   0.129  12.612  0.7113 -0.2078 -1.4710
 8047SOL     OW35773   1.324   0.739   6.903 -0.1235  0.1185 -0.0113
 8047SOL    HW135774   1.383   0.804   6.942 -1.1165  0.4855  0.8934
 8047SOL    HW235775   1.272   0.807   6.861  1.6509 -0.0574 -2.5378
 8048SOL     OW35776   0.096   4.688  14.940  0.0458  0.1347  0.1342
 8048SOL    HW135777   0.170   4.636  14.908 -0.4886 -0.1632 -0.6026
 8048SOL    HW235778   0.082   0.012  14.871 -2.4620 -0.6186 -0.0442
 8049SOL     OW35779   3.586   2.679   5.206  0.1297  0.1744 -0.1086
 8049SOL    HW135780   3.515   2.655   5.146 -2.2576  1.7424  2.1399
 8049SOL    HW235781   3.616   2.759   5.163 -2.3030  0.3318 -1.5590
 8050SOL     OW35782   1.584   4.056   4.869 -0.4024 -0.1254  0.0748
 8050SOL    HW135783   1.585   4.148   4.894 -0.6116 -0.6016  1.7821
 8050SOL    HW235784   1.493   4.039   4.892 -0.9461  0.8717 -1.3023
 8051SOL     OW35785   3.768   1.740   8.081  0.0272 -0.1535 -0.1201
 8051SOL    HW135786   3.731   1.742   7.993  0.3397  0.7798 -0.2346
 8051SOL    HW235787   3.734   1.822   8.117 -0.3330  0.3783 -1.6382
 8052SOL     OW35788   3.189   4.675   3.975 -0.3093 -0.4988 -0.0303
 8052SOL    HW135789   3.190   0.008   4.037 -4.7627 -1.7441  1.5048
 8052SOL    HW235790   3.266   4.634   4.015  1.1573  2.0718 -0.1919
 8053SOL     OW35791   3.286   1.402   8.178  0.1699 -0.0183 -0.0802
 8053SOL    HW135792   3.243   1.331   8.130 -4.2091  1.8937  1.0367
 8053SOL    HW235793   3.238   1.409   8.260 -2.5812 -0.8825 -1.6282
 8054SOL     OW35794   3.376   2.237  15.549  0.1095 -0.2898 -0.5539
 8054SOL    HW135795   3.415   2.238  15.462  1.6570 -0.7748  0.1489
 8054SOL    HW235796   3.356   2.331  15.557 -0.5145 -0.5652  1.1788
 8055SOL     OW35797   4.454   3.358   8.487  0.4343 -0.2684  0.2059
 8055SOL    HW135798   4.458   3.298   8.413 -1.0773  1.1768 -1.0635
 8055SOL    HW235799   4.418   3.297   8.552  1.0328  1.2463  1.9743
 8056SOL     OW35800   2.012   1.511  12.073  0.3977  0.9051  0.5189
 8056SOL    HW135801   2.039   1.539  12.161  2.3689 -0.9511  0.5259
 8056SOL    HW235802   2.091   1.532  12.025  0.0998  0.2181 -0.2711
 8057SOL     OW35803   3.155   4.344   9.028  0.1803 -0.7076  0.3398
 8057SOL    HW135804   3.195   4.307   8.950 -0.1232  1.5708 -0.9108
 8057SOL    HW235805   3.153   4.270   9.088  0.8625 -1.8247 -1.0317
 8058SOL     OW35806   1.517   3.926  11.016 -0.4420  0.0148  0.0555
 8058SOL    HW135807   1.423   3.939  11.032 -0.5827  0.7937 -1.3360
 8058SOL    HW235808   1.559   3.923  11.101  1.2828  1.6043 -0.7444
 8059SOL     OW35809   2.580   3.929   0.761 -0.0174 -0.4985  0.0681
 8059SOL    HW135810   2.604   3.840   0.788 -0.5640 -0.2311  1.4156
 8059SOL    HW235811   2.528   3.920   0.681 -1.8660  0.9718  1.1048
 8060SOL     OW35812   1.143   3.563   6.223 -0.4814 -0.0284 -0.2003
 8060SOL    HW135813   1.204   3.636   6.232 -0.2288 -0.4645  1.7092
 8060SOL    HW235814   1.116   3.570   6.315  2.0663 -0.6726  0.5945
 8061SOL     OW35815   3.286   4.412   1.315  0.4150 -0.3560  0.2401
 8061SOL    HW135816   3.274   4.324   1.351 -0.0767  0.4210  2.0149
 8061SOL    HW235817   3.211   4.416   1.256  0.4046 -1.9393  0.1553
 8062SOL     OW35818   4.277   4.627   3.748 -0.2271  0.0147 -0.0195
 8062SOL    HW135819   4.334   4.640   3.672 -1.4817  0.1879 -0.9425
 8062SOL    HW235820   4.199   4.600   3.700  0.4614  0.2226 -1.2671
 8063SOL     OW35821   0.239   4.064   6.663 -0.7113 -0.0460  0.0290
 8063SOL    HW135822   0.193   4.045   6.745 -3.1380  1.6628 -0.9142
 8063SOL    HW235823   0.160   4.060   6.609  0.6626  1.4362 -2.1006
 8064SOL     OW35824   3.081   1.678  16.582  0.0053  0.3359 -0.2501
 8064SOL    HW135825   3.088   1.595  16.535  0.8679 -0.4706  1.3034
 8064SOL    HW235826   3.028   1.725  16.517 -0.3744 -0.4950 -0.5495
 8065SOL     OW35827   0.359   2.068   3.222 -0.2217 -0.4118 -0.7464
 8065SOL    HW135828   0.326   2.068   3.312 -1.1061 -0.3375 -1.0706
 8065SOL    HW235829   0.377   1.975   3.207 -1.1238 -1.0632  2.2038
 8066SOL     OW35830   2.957   2.423   6.843  0.1334 -0.1943 -0.6405
 8066SOL    HW135831   3.004   2.383   6.917  0.3628  0.2261 -0.5576
 8066SOL    HW235832   2.926   2.508   6.875  1.3763 -1.3782  3.7404
 8067SOL     OW35833   4.428   0.871   8.274  0.9095 -0.0879  0.1933
 8067SOL    HW135834   4.487   0.796   8.275 -0.4879 -1.2055 -1.3296
 8067SOL    HW235835   4.369   0.843   8.204 -0.5559  3.7266 -0.1096
 8068SOL     OW35836   2.669   4.727   9.204  0.2435 -1.0038 -0.4240
 8068SOL    HW135837   2.654   4.675   9.283 -1.3825  0.7042  0.3923
 8068SOL    HW235838   2.611   0.058   9.229  2.5883  0.0692  1.9554
 8069SOL     OW35839   1.079   3.664  15.091  0.6739 -0.0079  0.0486
 8069SOL    HW135840   1.143   3.713  15.143  0.7150 -0.9261  0.8641
 8069SOL    HW235841   1.136   3.628  15.022  1.3523  1.5204 -0.1920
 8070SOL     OW35842   1.076   0.551   6.654 -0.0589  0.0422  0.0257
 8070SOL    HW135843   1.169   0.559   6.633  0.6178  0.7192  3.2436
 8070SOL    HW235844   1.089   0.502   6.736 -2.3506 -3.6366 -1.7609
 8071SOL     OW35845   0.365   0.755  11.779  0.4200  0.3664 -0.6243
 8071SOL    HW135846   0.386   0.750  11.872 -1.1593 -1.0335 -0.3377
 8071SOL    HW235847   0.388   0.844  11.752  2.1557  0.2584  0.4705
 8072SOL     OW35848   4.411   4.208   8.085 -0.3272  0.0720  0.1510
 8072SOL    HW135849   4.354   4.225   8.010  0.7856  0.5505 -0.5777
 8072SOL    HW235850   4.486   4.263   8.067  0.8062 -1.2034  1.0027
 8073SOL     OW35851   1.207   3.754   5.885 -0.3551  0.6378 -0.2783
 8073SOL    HW135852   1.162   3.699   5.821 -1.0094  1.8801 -0.9038
 8073SOL    HW235853   1.241   3.820   5.825 -0.4980  0.8060 -0.1755
 8074SOL     OW35854   3.457   4.727   8.489 -0.3313 -0.1549  0.2854
 8074SOL    HW135855   3.495   0.054   8.547 -1.0209 -2.3595  3.3151
 8074SOL    HW235856   3.400   0.048   8.442  0.1303 -1.2979 -1.7224
 8075SOL     OW35857   3.716   3.770  15.818 -0.1075  0.0148 -0.2067
 8075SOL    HW135858   3.686   3.720  15.894  1.9570  1.0326  1.2796
 8075SOL    HW235859   3.675   3.856  15.828  1.6208  0.6657  1.3791
 8076SOL     OW35860   2.912   2.233  11.974  0.0807  0.4163 -0.0968
 8076SOL    HW135861   2.913   2.251  12.068 -1.1869 -0.9495  0.1848
 8076SOL    HW235862   3.005   2.217  11.964 -0.1666 -2.0027  1.3250
 8077SOL     OW35863   2.835   0.047   1.063  0.4750 -0.0114 -0.5412
 8077SOL    HW135864   2.745   0.078   1.052 -0.3685 -2.2332  0.1651
 8077SOL    HW235865   2.827   4.693   1.047  0.6941 -0.2207  0.5726
 8078SOL     OW35866   2.393   2.403   9.572  0.0893 -0.1874 -0.4251
 8078SOL    HW135867   2.448   2.335   9.532 -1.3696 -2.8418  2.1325
 8078SOL    HW235868   2.456   2.465   9.609  1.7195 -1.9758 -0.2007
 8079SOL     OW35869   2.393   3.596   6.945  0.2375  0.2328 -0.2172
 8079SOL    HW135870   2.336   3.633   6.878  0.6058  0.8185 -0.2082
 8079SOL    HW235871   2.326   3.574   7.010  0.1145  0.1272 -0.3801
 8080SOL     OW35872   3.345   3.388   2.001  0.0039 -0.3027  0.0326
 8080SOL    HW135873   3.282   3.319   2.022  0.0580  0.0588  1.3451
 8080SOL    HW235874   3.429   3.366   2.042  0.1057 -1.0436 -0.5698
 8081SOL     OW35875   4.620   2.075   1.793 -0.6363  0.2182 -0.2589
 8081SOL    HW135876   4.602   2.085   1.699 -0.3946 -0.6676 -0.3994
 8081SOL    HW235877   4.584   1.988   1.806  0.3905 -0.5246 -2.2869
 8082SOL     OW35878   4.454   1.083   1.049  0.1538  0.5689  0.3797
 8082SOL    HW135879   4.498   1.107   0.968 -3.4522 -0.0771 -1.7852
 8082SOL    HW235880   4.416   1.001   1.017  1.7042  0.4124 -1.0730
 8083SOL     OW35881   1.983   3.432   4.607  0.1954  0.0437  0.3612
 8083SOL    HW135882   2.026   3.427   4.692 -1.6341 -0.9634  1.2043
 8083SOL    HW235883   1.919   3.503   4.614 -0.7514 -0.8637  0.8661
 8084SOL     OW35884   1.860   2.792   7.937 -0.6210 -0.4222  0.2301
 8084SOL    HW135885   1.888   2.729   7.870 -0.2936 -0.0029 -0.0295
 8084SOL    HW235886   1.882   2.745   8.017  0.5954  0.9554  0.7066
 8085SOL     OW35887   1.173   2.695   3.917 -0.0416  0.0522 -0.6142
 8085SOL    HW135888   1.079   2.712   3.926 -0.2278 -0.5560 -1.3625
 8085SOL    HW235889   1.178   2.614   3.967 -0.8666  0.5879  0.3328
 8086SOL     OW35890   2.562   2.815   6.693 -0.5587  0.3333  0.2346
 8086SOL    HW135891   2.561   2.905   6.662  3.4259 -0.0603 -1.0264
 8086SOL    HW235892   2.470   2.800   6.717 -1.6332  2.6042 -2.4396
 8087SOL     OW35893   1.940   0.845  15.266 -0.7072 -0.7136  0.0805
 8087SOL    HW135894   1.945   0.797  15.349  3.0025 -0.2768  0.1285
 8087SOL    HW235895   1.875   0.912  15.289  0.0734 -0.1815  0.7153
 8088SOL     OW35896   4.276   0.693  16.753  0.4382  0.3567  0.4148
 8088SOL    HW135897   4.318   0.751  16.816  2.3357  1.4355 -1.8225
 8088SOL    HW235898   4.312   0.711  16.666 -0.8515 -1.3143 -0.4609
 8089SOL     OW35899   3.973   4.648   8.480 -0.0123 -0.7510  0.3740
 8089SOL    HW135900   4.062   4.666   8.511  0.4659  1.5378 -2.3522
 8089SOL    HW235901   3.921   4.710   8.531  0.0572 -0.5488  0.1956
 8090SOL     OW35902   3.978   2.454   4.896 -0.3962 -0.3249  0.1407
 8090SOL    HW135903   4.042   2.396   4.937  0.4194 -1.0316 -2.1091
 8090SOL    HW235904   3.906   2.450   4.959  0.9484 -1.7816  1.5762
 8091SOL     OW35905   0.944   1.636   0.860 -0.2938 -0.0360 -0.2549
 8091SOL    HW135906   0.944   1.554   0.810 -0.0266  0.5773 -1.2606
 8091SOL    HW235907   0.973   1.618   0.949 -0.2622  0.0237 -0.2535
 8092SOL     OW35908   4.164   2.115   0.673  0.6161 -0.2255 -0.0790
 8092SOL    HW135909   4.152   2.054   0.747 -0.1241 -0.9093 -0.7613
 8092SOL    HW235910   4.166   2.202   0.713 -2.1795 -1.3800  2.6151
 8093SOL     OW35911   1.540   0.652  11.521  0.0663 -0.0097  0.4928
 8093SOL    HW135912   1.591   0.641  11.602  3.1151 -0.4685 -1.4759
 8093SOL    HW235913   1.467   0.591  11.530 -2.8506  3.3861 -0.0666
 8094SOL     OW35914   1.328   2.809   1.518 -0.3132  0.2286 -0.5201
 8094SOL    HW135915   1.403   2.800   1.577 -1.0833 -0.2032  0.3802
 8094SOL    HW235916   1.262   2.743   1.541  1.9092 -2.0878 -0.6862
 8095SOL     OW35917   3.810   0.796  14.514  0.0297 -0.3254 -0.2027
 8095SOL    HW135918   3.815   0.701  14.525 -0.2200 -0.2645  0.4701
 8095SOL    HW235919   3.780   0.829  14.599  2.8231 -0.4270  0.8152
 8096SOL     OW35920   2.757   3.346   0.183 -0.0547 -0.4996 -0.6405
 8096SOL    HW135921   2.702   3.362   0.259  3.6347 -2.9523  2.5332
 8096SOL    HW235922   2.819   3.419   0.173 -1.8573  1.2797  1.4164
 8097SOL     OW35923   2.925   1.066  17.119 -0.4751  0.8226  0.0923
 8097SOL    HW135924   2.913   1.049  17.212 -0.9034 -1.5909 -0.4032
 8097SOL    HW235925   2.871   1.004  17.070 -0.3251  0.6273  0.1734
 8098SOL     OW35926   3.665   3.323   8.598 -0.6010 -0.3347 -0.0283
 8098SOL    HW135927   3.664   3.418   8.609  0.4926 -0.3603  0.3719
 8098SOL    HW235928   3.697   3.327   8.508  0.8757  0.3918  0.5246
 8099SOL     OW35929   2.857   1.165   5.731 -0.2365  0.1410  0.1039
 8099SOL    HW135930   2.940   1.128   5.700  0.2394  1.9328 -0.7588
 8099SOL    HW235931   2.790   1.097   5.717  0.3277 -0.1907 -1.0227
 8100SOL     OW35932   0.653   4.169   9.319  0.1667 -0.3121 -0.4614
 8100SOL    HW135933   0.707   4.248   9.331 -1.1709  0.5408 -0.0352
 8100SOL    HW235934   0.696   4.129   9.244  0.2072  1.3035 -1.3091
 8101SOL     OW35935   1.937   1.001   8.125  0.5549  0.3883 -0.0099
 8101SOL    HW135936   1.869   1.033   8.066  1.4245  0.3470 -1.0460
 8101SOL    HW235937   1.920   1.062   8.196 -1.7652  0.6088 -0.7712
 8102SOL     OW35938   0.979   1.877   7.034 -0.0925 -0.0462  0.0243
 8102SOL    HW135939   1.031   1.929   6.972  0.4673 -0.2166  0.3557
 8102SOL    HW235940   0.914   1.944   7.058 -1.0341 -1.3747  1.1384
 8103SOL     OW35941   2.710   4.167   4.518  0.0930  0.1430  0.1951
 8103SOL    HW135942   2.797   4.201   4.495  0.5851 -1.5867 -0.4794
 8103SOL    HW235943   2.737   4.085   4.559  1.1842 -1.2958 -3.3986
 8104SOL     OW35944   3.930   3.208   8.802  0.0242  0.4028  0.1515
 8104SOL    HW135945   3.858   3.217   8.740  0.1765 -0.9852 -0.2218
 8104SOL    HW235946   3.977   3.286   8.771 -0.7601  0.9784  0.4043
 8105SOL     OW35947   0.619   3.738   1.880 -0.4643 -0.1517  0.4117
 8105SOL    HW135948   0.595   3.697   1.963  1.3244 -1.0010  0.5043
 8105SOL    HW235949   0.646   3.824   1.915 -0.8516 -0.0748  0.5268
 8106SOL     OW35950   2.744   3.860   2.475  0.0643  0.3406  0.4436
 8106SOL    HW135951   2.688   3.872   2.552  0.5304 -1.1015  0.9917
 8106SOL    HW235952   2.678   3.813   2.424 -1.1190  3.1657 -0.6324
 8107SOL     OW35953   0.805   2.315   8.640  0.1587 -0.0091  0.4959
 8107SOL    HW135954   0.885   2.264   8.628  1.4623  1.7194  1.9527
 8107SOL    HW235955   0.814   2.336   8.733 -1.8422 -1.3951  1.0025
 8108SOL     OW35956   0.111   2.684   1.873 -0.0665  0.1556  0.1488
 8108SOL    HW135957   0.028   2.644   1.850  0.6213 -1.6683  0.8227
 8108SOL    HW235958   0.129   2.749   1.805  0.1858 -0.3540 -0.2788
 8109SOL     OW35959   0.376   3.335  10.303 -0.1044 -1.1227  0.0107
 8109SOL    HW135960   0.328   3.344  10.220 -3.1534  2.1463  2.1311
 8109SOL    HW235961   0.377   3.241  10.321  2.3818 -0.9121  0.9516
 8110SOL     OW35962   2.586   0.124  10.219  0.2233  0.0600  0.4019
 8110SOL    HW135963   2.565   0.047  10.167  0.3529  0.6626 -0.5336
 8110SOL    HW235964   2.506   0.132  10.270 -0.7909  1.1464 -1.3772
 8111SOL     OW35965   0.830   4.162   5.864 -0.0122  0.2588  0.0867
 8111SOL    HW135966   0.882   4.176   5.943 -0.3956 -0.7257  0.5127
 8111SOL    HW235967   0.752   4.218   5.872 -0.2406 -0.0254 -0.1669
 8112SOL     OW35968   1.001   4.431   3.042 -0.6304  0.1712  0.6904
 8112SOL    HW135969   0.934   4.468   3.098 -1.6755 -1.2942  0.4121
 8112SOL    HW235970   1.004   4.487   2.964  1.1541 -2.9186 -1.4823
 8113SOL     OW35971   4.412   3.217  12.275  0.2030  0.3886 -0.5450
 8113SOL    HW135972   4.352   3.195  12.204 -0.7675 -1.3460  0.7995
 8113SOL    HW235973   4.352   3.266  12.332 -1.3201  0.9462 -2.6407
 8114SOL     OW35974   0.740   1.905   0.940 -0.1280 -0.1800 -0.0450
 8114SOL    HW135975   0.834   1.904   0.920 -0.0889  0.6244  0.1059
 8114SOL    HW235976   0.745   1.977   1.002 -0.3119  1.3022 -1.7409
 8115SOL     OW35977   4.271   1.185  12.602 -0.0280 -0.2886 -0.2578
 8115SOL    HW135978   4.207   1.180  12.673 -0.5392  0.0767 -0.6915
 8115SOL    HW235979   4.348   1.191  12.659 -2.1986  0.0374  2.6156
 8116SOL     OW35980   3.333   3.628   5.136  0.2082 -0.1178 -0.3055
 8116SOL    HW135981   3.285   3.601   5.058 -0.9555 -0.1994  0.4362
 8116SOL    HW235982   3.363   3.717   5.117  0.9204 -0.6145 -1.4828
 8117SOL     OW35983   3.431   3.612  16.745 -0.2085 -0.6257  0.3299
 8117SOL    HW135984   3.474   3.561  16.677 -0.6605 -0.5670 -0.0019
 8117SOL    HW235985   3.462   3.698  16.718  0.3391 -0.8096  0.3783
 8118SOL     OW35986   3.183   1.740   8.579  0.7322 -0.0448 -0.1509
 8118SOL    HW135987   3.155   1.705   8.494  0.8025  0.4356 -0.3714
 8118SOL    HW235988   3.226   1.819   8.548  1.9571 -0.3639  0.7441
 8119SOL     OW35989   3.307   2.302   6.224 -0.7507  0.0352  0.0940
 8119SOL    HW135990   3.322   2.379   6.169  0.7945 -1.2693 -1.2872
 8119SOL    HW235991   3.213   2.319   6.233 -0.9635 -0.8359 -0.5359
 8120SOL     OW35992   1.141   4.048   3.383 -0.0944  0.1943 -0.0775
 8120SOL    HW135993   1.048   4.057   3.367 -0.2974 -0.1619  0.8572
 8120SOL    HW235994   1.135   3.953   3.388 -0.8494  0.2077 -0.8017
 8121SOL     OW35995   3.711   0.161   4.960  0.5097  0.1068 -0.1522
 8121SOL    HW135996   3.706   0.176   5.055 -1.1548 -1.9781  0.0837
 8121SOL    HW235997   3.653   0.088   4.940  0.5498 -0.4497  1.7283
 8122SOL     OW35998   0.233   0.728   9.052 -0.0402 -0.3360  0.7220
 8122SOL    HW135999   0.192   0.670   8.989 -0.8083 -0.0036  0.9149
 8122SOL    HW236000   0.285   0.779   8.990  0.7522 -0.5229  1.2297
 8123SOL     OW36001   3.556   3.233   5.179 -0.1380 -0.4355 -0.2758
 8123SOL    HW136002   3.621   3.175   5.138  1.9063  0.9730  0.9679
 8123SOL    HW236003   3.576   3.244   5.272  1.6465 -1.3809 -0.5430
 8124SOL     OW36004   0.111   0.056   2.874  0.0568 -0.2201 -0.3410
 8124SOL    HW136005   0.133   0.143   2.842 -0.9240  0.3583  0.5506
 8124SOL    HW236006   0.086   0.013   2.792  1.2159  1.4658 -1.5754
 8125SOL     OW36007   4.076   3.218  11.865  0.3565  0.3879  0.0074
 8125SOL    HW136008   3.995   3.223  11.814  0.6607  2.6820 -0.2634
 8125SOL    HW236009   4.109   3.307  11.857 -0.3818  0.6115 -0.5888
 8126SOL     OW36010   4.704   0.176  11.778 -0.4368 -0.0980 -0.7870
 8126SOL    HW136011   4.734   0.086  11.765 -2.7346 -0.7274 -1.6916
 8126SOL    HW236012   0.047   0.215  11.807 -0.9098  0.0866  0.2992
 8127SOL     OW36013   2.427   0.468  11.657 -1.1386 -0.5926 -0.4945
 8127SOL    HW136014   2.336   0.442  11.671 -1.2195  0.8087  1.6396
 8127SOL    HW236015   2.472   0.391  11.692  1.0354  0.4828 -0.8832
 8128SOL     OW36016   2.870   3.953   4.087 -0.2331 -0.3167  0.1058
 8128SOL    HW136017   2.961   3.926   4.093 -1.0215 -2.9411 -0.0051
 8128SOL    HW236018   2.848   3.916   4.002  0.0833 -2.0747  0.7876
 8129SOL     OW36019   3.003   3.897   2.306 -0.1042  0.0296  0.2006
 8129SOL    HW136020   3.001   3.850   2.223  1.1239 -0.4465  0.4304
 8129SOL    HW236021   2.941   3.968   2.290 -0.1037  0.3537  1.6199
 8130SOL     OW36022   3.733   3.442   7.402  0.6719  0.3030 -0.6076
 8130SOL    HW136023   3.659   3.497   7.426 -0.9630 -1.0428 -2.6128
 8130SOL    HW236024   3.760   3.491   7.324 -0.3316  3.4452  1.0164
 8131SOL     OW36025   0.633   1.078   9.941 -0.2059  0.0566  0.1620
 8131SOL    HW136026   0.708   1.032   9.903  0.6948  0.4968  1.4410
 8131SOL    HW236027   0.664   1.124  10.018 -0.4979  1.0514 -0.3200
 8132SOL     OW36028   3.695   3.170   2.549 -0.4052  0.1435  0.9146
 8132SOL    HW136029   3.669   3.079   2.536 -0.5999  0.3171  0.0681
 8132SOL    HW236030   3.693   3.197   2.457 -0.8019  0.3618  0.9904
 8133SOL     OW36031   2.253   2.009   2.329 -0.1481  0.0644 -0.1218
 8133SOL    HW136032   2.216   1.935   2.378 -0.0643  1.5971  2.2875
 8133SOL    HW236033   2.291   2.066   2.396  0.7904 -0.1971 -0.4363
 8134SOL     OW36034   0.107   1.492  17.232  0.7097  0.3126  0.0974
 8134SOL    HW136035   0.035   1.489  17.169  0.2134 -0.0524  0.6802
 8134SOL    HW236036   0.084   1.576  17.271 -0.0926  0.9046 -1.6551
 8135SOL     OW36037   1.912   3.604   1.167 -0.2255 -0.2297 -0.1182
 8135SOL    HW136038   1.973   3.663   1.210 -1.3422  0.6168  0.3326
 8135SOL    HW236039   1.828   3.639   1.198  0.3434  1.1688 -0.1199
 8136SOL     OW36040   1.368   4.392   8.082  0.0200 -0.0508  0.7850
 8136SOL    HW136041   1.441   4.339   8.114  0.8827 -0.0093 -1.0538
 8136SOL    HW236042   1.375   4.476   8.127  2.4743  0.1536  0.0282
 8137SOL     OW36043   3.535   3.290   0.467  0.0989 -0.0358 -0.0550
 8137SOL    HW136044   3.524   3.384   0.450 -1.2079 -0.0346  0.7479
 8137SOL    HW236045   3.467   3.287   0.534 -0.0584  2.2471 -0.1197
 8138SOL     OW36046   3.314   4.385  15.386  0.4151 -0.2788  0.1391
 8138SOL    HW136047   3.302   4.449  15.315  2.8261 -1.1477 -1.0552
 8138SOL    HW236048   3.362   4.310  15.351 -0.4492  0.3513 -2.4393
 8139SOL     OW36049   0.086   2.320   6.861 -0.4237  0.9657 -0.1888
 8139SOL    HW136050   0.180   2.319   6.878 -0.4595 -2.4181 -0.1861
 8139SOL    HW236051   0.053   2.361   6.941 -0.5053  0.8529 -0.1641
 8140SOL     OW36052   2.682   3.539   9.406 -0.1002  0.3828 -0.1440
 8140SOL    HW136053   2.724   3.566   9.324 -1.5220 -1.9082 -1.6373
 8140SOL    HW236054   2.754   3.523   9.467 -1.7929  0.1079  1.7594
 8141SOL     OW36055   3.094   1.807   6.629  0.6389 -0.0950 -0.3546
 8141SOL    HW136056   3.016   1.763   6.662  1.3053 -1.7497 -0.9741
 8141SOL    HW236057   3.057   1.839   6.547 -0.7818  0.2388  0.4248
 8142SOL     OW36058   4.169   4.408   8.743  0.7849  0.4214 -0.6317
 8142SOL    HW136059   4.147   4.317   8.760  2.7559  0.0255 -0.1085
 8142SOL    HW236060   4.095   4.432   8.687 -1.8328 -1.4990  2.0732
 8143SOL     OW36061   0.665   1.410   5.067  0.2904  0.2873 -0.0678
 8143SOL    HW136062   0.748   1.363   5.058  1.3088  1.8625  0.9984
 8143SOL    HW236063   0.604   1.344   5.037 -2.1053  1.8658  1.3540
 8144SOL     OW36064   0.347   0.086   8.422 -0.1001 -0.2987  0.6116
 8144SOL    HW136065   0.437   0.119   8.411 -0.4276  0.0906 -0.8445
 8144SOL    HW236066   0.370   4.733   8.423 -0.8346 -0.4610  2.0367
 8145SOL     OW36067   3.925   4.498   6.626  0.2059  0.0946 -0.2698
 8145SOL    HW136068   3.891   4.429   6.569 -0.3837  1.1978 -1.2525
 8145SOL    HW236069   3.848   4.508   6.683 -0.2899  0.7991 -1.0510
 8146SOL     OW36070   0.332   4.694   2.143 -0.2307  0.4022  0.4794
 8146SOL    HW136071   0.319   0.039   2.100  0.9732  0.3906  0.0771
 8146SOL    HW236072   0.291   4.635   2.080  2.3890  1.7006 -2.4384
 8147SOL     OW36073   4.480   0.959   6.693  0.2866  0.2341 -0.4367
 8147SOL    HW136074   4.520   1.045   6.680  0.8578  0.1232  0.6018
 8147SOL    HW236075   4.454   0.961   6.785 -0.9419 -0.9174 -0.7594
 8148SOL     OW36076   3.962   3.873   9.426 -0.7357  0.1400 -0.0394
 8148SOL    HW136077   4.022   3.872   9.352  0.8939  3.5546  1.2520
 8148SOL    HW236078   3.938   3.966   9.427  0.7718  0.5052  1.0652
 8149SOL     OW36079   1.083   3.014   4.034 -0.0773  0.5193 -0.6833
 8149SOL    HW136080   1.021   3.051   4.097  0.0187  2.0393 -1.4971
 8149SOL    HW236081   1.083   2.923   4.064  1.2143  0.7382 -0.0034
 8150SOL     OW36082   1.173   3.936   5.444  0.0621  0.0212 -0.5583
 8150SOL    HW136083   1.241   3.903   5.503  0.1230 -0.0864 -0.6905
 8150SOL    HW236084   1.113   3.974   5.508  2.2100 -0.4645  1.7711
 8151SOL     OW36085   4.648   4.409   4.773 -0.4937 -0.1190  0.3342
 8151SOL    HW136086   4.626   4.316   4.770 -1.1446  0.0038  1.1454
 8151SOL    HW236087   4.681   4.410   4.863  1.8223 -1.3726 -0.5024
 8152SOL     OW36088   4.661   1.761  13.953  0.1811 -0.1418 -0.3807
 8152SOL    HW136089   4.706   1.677  13.943 -0.0043 -0.4962  1.7545
 8152SOL    HW236090   4.615   1.749  14.036 -0.5366  1.4309 -0.5655
 8153SOL     OW36091   2.863   4.030   7.446 -0.1090 -0.4033  0.2420
 8153SOL    HW136092   2.956   4.012   7.459 -0.2192 -1.8776 -0.9818
 8153SOL    HW236093   2.850   4.118   7.481 -2.0486 -0.9618  0.9141
 8154SOL     OW36094   1.476   2.974   6.627 -0.4880  0.1172 -0.5278
 8154SOL    HW136095   1.529   3.047   6.595  0.4040 -0.5745 -0.6269
 8154SOL    HW236096   1.451   2.931   6.545 -2.2040  0.0781  0.0230
 8155SOL     OW36097   0.241   2.704   9.538  0.0832  0.1044 -0.2936
 8155SOL    HW136098   0.164   2.651   9.557 -0.4855  0.7404 -0.8325
 8155SOL    HW236099   0.268   2.666   9.454  1.1689 -0.7290  0.4284
 8156SOL     OW36100   0.333   4.156   7.313 -0.2624  0.4883 -0.1377
 8156SOL    HW136101   0.303   4.093   7.247  0.2973  0.9810 -0.8588
 8156SOL    HW236102   0.362   4.225   7.253  0.9147 -1.2499 -1.5636
 8157SOL     OW36103   0.202   2.424   2.918  0.5254 -0.0750 -0.4416
 8157SOL    HW136104   0.275   2.392   2.863  1.1224 -1.0459  0.9220
 8157SOL    HW236105   0.239   2.511   2.928  0.4488 -0.0457 -0.4162
 8158SOL     OW36106   4.575   2.759   7.751  0.1267 -0.2928  0.3609
 8158SOL    HW136107   4.626   2.747   7.671 -0.4865  0.4785 -0.1467
 8158SOL    HW236108   4.607   2.694   7.813 -1.7095 -1.1418  0.3936
 8159SOL     OW36109   1.236   2.699   2.387 -0.4680  0.1436 -0.2157
 8159SOL    HW136110   1.222   2.787   2.352 -0.7054 -0.6453 -2.1071
 8159SOL    HW236111   1.327   2.688   2.361 -0.2733 -0.7788  0.8481
 8160SOL     OW36112   1.652   1.428   6.748 -0.0664  0.0564 -0.3813
 8160SOL    HW136113   1.600   1.488   6.802 -0.0157  1.9531 -2.4635
 8160SOL    HW236114   1.601   1.347   6.752 -2.3892  1.5376  0.4197
 8161SOL     OW36115   3.412   3.544  14.209 -0.5745  0.0742  0.2713
 8161SOL    HW136116   3.329   3.502  14.187 -0.0939 -0.6635 -0.1123
 8161SOL    HW236117   3.424   3.608  14.139  2.8288 -0.0559  0.7304
 8162SOL     OW36118   3.828   1.892   1.913  0.4472 -0.2590  0.9857
 8162SOL    HW136119   3.798   1.936   1.833  0.4892 -1.3832  0.3593
 8162SOL    HW236120   3.841   1.961   1.978  0.6146 -1.1422  1.8752
 8163SOL     OW36121   4.042   2.645   7.817  0.2695  0.5982  0.9560
 8163SOL    HW136122   4.057   2.729   7.859  1.3609  1.0416 -0.3128
 8163SOL    HW236123   4.129   2.640   7.776 -0.3041 -2.7527  0.1157
 8164SOL     OW36124   0.748   2.977   4.048 -0.0824  0.4937  0.8927
 8164SOL    HW136125   0.804   3.045   4.085 -1.2602  1.5792  0.6980
 8164SOL    HW236126   0.663   3.005   4.083  0.0249  1.3735  0.4382
 8165SOL     OW36127   0.854   3.706   5.106 -0.2395 -0.3722 -0.1797
 8165SOL    HW136128   0.911   3.644   5.153  0.1713 -0.3979 -0.7154
 8165SOL    HW236129   0.815   3.744   5.184  1.9470 -1.2483  1.3478
 8166SOL     OW36130   1.943   0.806   5.122  0.5334  0.7202 -0.2500
 8166SOL    HW136131   1.852   0.785   5.144  0.2774  1.9216 -0.1346
 8166SOL    HW236132   1.990   0.739   5.172  0.0794  0.6478  0.0827
 8167SOL     OW36133   0.789   4.673   6.591 -0.1243  0.2994  0.2266
 8167SOL    HW136134   0.716   4.648   6.535  1.4127 -0.4203 -1.4522
 8167SOL    HW236135   0.807   0.025   6.570  0.1818  0.2520  0.2815
 8168SOL     OW36136   0.179   0.787  17.520  0.5187 -0.3493  0.5308
 8168SOL    HW136137   0.191   0.882  17.528 -0.1121 -0.2860  0.7362
 8168SOL    HW236138   0.157   0.790  17.427 -0.8900 -2.1489  0.8090
 8169SOL     OW36139   1.297   0.966   9.735 -0.2985  0.2005  0.1260
 8169SOL    HW136140   1.378   0.952   9.785  1.0097 -2.8395 -2.8462
 8169SOL    HW236141   1.235   0.909   9.781 -0.2278  0.2284  0.2566
 8170SOL     OW36142   4.735   0.567   6.417  0.1225  0.4998  0.2609
 8170SOL    HW136143   4.733   0.650   6.368  1.2347  0.5067  0.2317
 8170SOL    HW236144   4.690   0.591   6.498 -3.6784 -1.5947 -1.2361
 8171SOL     OW36145   4.497   1.878   3.523 -0.1931 -0.5275  0.0080
 8171SOL    HW136146   4.515   1.949   3.462  2.5946 -0.5690  0.8080
 8171SOL    HW236147   4.408   1.895   3.555  0.4076 -1.6646  2.2634
 8172SOL     OW36148   0.336   3.528   5.125 -0.2814  0.6446  0.2000
 8172SOL    HW136149   0.249   3.502   5.155  0.8307 -1.9929  1.1418
 8172SOL    HW236150   0.311   3.615   5.094 -1.5218  0.4084  0.5338
 8173SOL     OW36151   4.459   2.194   9.779  0.2990 -0.2403  0.3179
 8173SOL    HW136152   4.547   2.192   9.815  0.9544  0.4306 -1.2385
 8173SOL    HW236153   4.409   2.129   9.827  1.0590 -1.0932 -0.0487
 8174SOL     OW36154   4.632   2.773   8.849  0.2511 -0.0376 -0.8266
 8174SOL    HW136155   4.651   2.708   8.916 -0.9014  0.1568 -0.2921
 8174SOL    HW236156   4.649   2.856   8.894  1.0857  0.6711 -2.4400
 8175SOL     OW36157   3.720   0.231   3.701 -0.7854  0.0064 -0.1501
 8175SOL    HW136158   3.799   0.258   3.655  0.1298 -3.8066 -0.8094
 8175SOL    HW236159   3.700   0.153   3.650  1.2910 -0.1245 -0.7496
 8176SOL     OW36160   0.501   1.935  12.646  0.3701  0.2779  0.5458
 8176SOL    HW136161   0.566   1.934  12.716  0.6550 -0.4457  0.2650
 8176SOL    HW236162   0.558   1.923  12.570  1.6502 -1.2599  1.7547
 8177SOL     OW36163   4.194   2.712  15.539  0.3273  0.0901 -0.0069
 8177SOL    HW136164   4.197   2.652  15.614 -0.0754  0.0300 -0.0390
 8177SOL    HW236165   4.101   2.709  15.516  0.7073  1.2288 -1.6495
 8178SOL     OW36166   2.655   0.867   1.222  0.5437  0.1032 -0.4190
 8178SOL    HW136167   2.598   0.843   1.150 -0.1701 -2.3820  0.9748
 8178SOL    HW236168   2.651   0.963   1.226  0.1995  0.1195 -1.1429
 8179SOL     OW36169   3.688   1.990   6.633  0.1492  0.0085  0.0820
 8179SOL    HW136170   3.640   1.965   6.712 -0.8316  1.9367  0.0928
 8179SOL    HW236171   3.760   1.927   6.635 -0.6260 -0.7779  2.3467
 8180SOL     OW36172   3.852   1.834  11.188  0.6527  0.3413 -0.3451
 8180SOL    HW136173   3.772   1.873  11.152  0.3429  0.6218  0.6474
 8180SOL    HW236174   3.873   1.800  11.101 -0.4422 -1.7876  0.1995
 8181SOL     OW36175   4.644   2.133   6.438 -0.1216 -0.2721 -0.7147
 8181SOL    HW136176   4.670   2.109   6.527 -2.7011  2.8578  0.8566
 8181SOL    HW236177   4.611   2.222   6.447 -0.0248 -0.3303  0.1787
 8182SOL     OW36178   3.616   0.905   7.360 -0.4811 -0.2128  0.2773
 8182SOL    HW136179   3.609   0.989   7.315 -0.6491 -0.1117  0.4919
 8182SOL    HW236180   3.624   0.848   7.283 -0.1614 -0.2502  0.3413
 8183SOL     OW36181   0.978   1.604  10.839  0.2602 -0.5666 -0.1790
 8183SOL    HW136182   1.029   1.627  10.762  0.5990 -0.3589  0.1070
 8183SOL    HW236183   0.889   1.634  10.819 -0.0088 -2.3596 -1.7583
 8184SOL     OW36184   0.213   4.271   4.554 -0.1583 -0.1944 -0.0323
 8184SOL    HW136185   0.162   4.224   4.619 -1.2515 -0.3487 -1.0028
 8184SOL    HW236186   0.235   4.347   4.608 -0.9608 -0.9250  1.3022
 8185SOL     OW36187   4.393   1.030   3.754 -0.6838  0.2542 -0.0710
 8185SOL    HW136188   4.319   0.989   3.710 -1.2675  1.9827 -0.6902
 8185SOL    HW236189   4.372   1.123   3.759 -0.0555  0.5385 -2.7651
 8186SOL     OW36190   3.939   1.571  12.726  0.4908 -0.2519  0.6812
 8186SOL    HW136191   3.863   1.550  12.672  0.2659 -0.3408  1.0319
 8186SOL    HW236192   4.015   1.552  12.672 -1.7193 -3.4315 -1.3008
 8187SOL     OW36193   3.014   2.390   2.116  0.2069  0.2783  0.1808
 8187SOL    HW136194   2.943   2.360   2.172  1.7200  1.4995  2.7389
 8187SOL    HW236195   2.953   2.409   2.045 -3.1773  0.8412  3.2592
 8188SOL     OW36196   3.366   1.331  16.290  0.4191 -0.0009  0.3080
 8188SOL    HW136197   3.369   1.306  16.197 -2.6439  0.0247  0.2081
 8188SOL    HW236198   3.460   1.347  16.293  0.7181 -1.3826 -1.3647
 8189SOL     OW36199   1.804   2.185   6.408  0.0031 -0.9031 -0.1185
 8189SOL    HW136200   1.834   2.143   6.488  0.1542  0.5033  0.5684
 8189SOL    HW236201   1.748   2.254   6.444  1.8492  0.6258 -0.1903
 8190SOL     OW36202   0.520   1.514   1.160 -0.2806 -0.0216 -0.2248
 8190SOL    HW136203   0.615   1.506   1.169 -0.0735 -0.0373 -2.3620
 8190SOL    HW236204   0.522   1.559   1.076  1.7113  0.3328  0.0241
 8191SOL     OW36205   0.107   2.760   7.958 -0.3823 -0.0734  0.6802
 8191SOL    HW136206   0.073   2.675   7.985 -0.3330  0.5085  2.5592
 8191SOL    HW236207   0.042   2.818   7.996 -0.2498 -0.0146  0.8182
 8192SOL     OW36208   2.193   2.824   6.701  0.2706  0.0074  0.3295
 8192SOL    HW136209   2.147   2.907   6.706  1.2247  0.4162  2.7656
 8192SOL    HW236210   2.142   2.769   6.761  0.5482  1.4231  1.8554
 8193SOL     OW36211   1.803   3.696   8.583 -0.2809  0.0105  0.0691
 8193SOL    HW136212   1.833   3.619   8.632  1.2788 -0.0971 -1.0797
 8193SOL    HW236213   1.787   3.746   8.664  0.0523  0.6926 -0.2909
 8194SOL     OW36214   4.680   4.046  17.612  0.4132  0.5551 -0.3703
 8194SOL    HW136215   4.584   4.045  17.611  0.4092  1.9095 -2.2840
 8194SOL    HW236216   4.698   4.120  17.554  1.4212  2.0451  1.8409
 8195SOL     OW36217   3.041   2.019   2.494  0.8239 -0.5928  0.2320
 8195SOL    HW136218   3.038   2.044   2.401  0.4133 -1.5004 -0.0070
 8195SOL    HW236219   3.080   1.931   2.492  2.5132  0.1640  0.1841
 8196SOL     OW36220   4.502   3.488   3.424  0.1501 -0.3730 -0.2577
 8196SOL    HW136221   4.529   3.563   3.478 -1.0400 -0.6669  0.7456
 8196SOL    HW236222   4.543   3.521   3.345  1.1242  0.4197  0.5698
 8197SOL     OW36223   3.773   0.935   1.958 -0.5577 -1.3567  1.0518
 8197SOL    HW136224   3.735   1.023   1.959  3.9470  0.5799  3.0801
 8197SOL    HW236225   3.863   0.958   1.935 -0.6195 -1.3454  0.8182
 8198SOL     OW36226   2.468   1.409   8.810  0.4273 -0.0604 -0.0362
 8198SOL    HW136227   2.402   1.368   8.865  0.8203  0.3845  0.7670
 8198SOL    HW236228   2.416   1.448   8.740  0.7870  0.2168 -0.1487
 8199SOL     OW36229   3.187   3.960  15.532 -0.7891 -0.3477  0.5536
 8199SOL    HW136230   3.142   3.976  15.448  1.6212  0.5660 -0.5491
 8199SOL    HW236231   3.222   4.043  15.564 -1.9144  1.1715 -2.0892
 8200SOL     OW36232   4.501   4.693   3.179 -0.1565 -0.6250 -0.5631
 8200SOL    HW136233   4.503   4.612   3.128  2.2871  0.6141 -2.4161
 8200SOL    HW236234   4.588   4.681   3.217  0.3670  3.0178 -0.6167
 8201SOL     OW36235   2.990   2.987  14.016 -0.4296  0.0537  0.2436
 8201SOL    HW136236   2.979   3.008  14.108  0.6790 -0.0864  0.4153
 8201SOL    HW236237   2.964   2.895  14.011  1.1225 -0.6355  5.1121
 8202SOL     OW36238   4.337   2.495   7.324  1.3358  0.5716 -0.4321
 8202SOL    HW136239   4.260   2.497   7.380  1.8503 -0.5253  0.3146
 8202SOL    HW236240   4.309   2.424   7.266 -0.4823 -1.0670  2.4629
 8203SOL     OW36241   0.678   1.918   9.563 -0.0621 -0.3314 -0.2578
 8203SOL    HW136242   0.634   1.910   9.648  0.1559 -3.0722 -0.4076
 8203SOL    HW236243   0.615   1.970   9.513  0.3352  0.3985 -0.0046
 8204SOL     OW36244   0.487   2.611  16.333 -0.4032 -0.1225 -0.4228
 8204SOL    HW136245   0.526   2.620  16.246 -1.1270 -0.1061 -0.7480
 8204SOL    HW236246   0.396   2.628  16.311 -0.5550  0.6693  0.8473
 8205SOL     OW36247   2.013   3.354  16.171 -0.7948  0.0594 -0.7417
 8205SOL    HW136248   1.996   3.379  16.262  1.7738  0.2706 -0.3113
 8205SOL    HW236249   2.093   3.406  16.164  1.2278 -3.3550 -3.0905
 8206SOL     OW36250   3.696   2.599   4.414  0.2744 -0.7255  0.2543
 8206SOL    HW136251   3.694   2.519   4.466  0.7105 -1.3069 -0.6286
 8206SOL    HW236252   3.785   2.599   4.378  0.3171 -0.4572  0.3556
 8207SOL     OW36253   4.324   2.593   1.602  0.2923 -0.5977 -0.2909
 8207SOL    HW136254   4.230   2.575   1.596  0.3215 -0.3269 -1.6483
 8207SOL    HW236255   4.339   2.552   1.687 -1.4460 -0.6396 -0.0112
 8208SOL     OW36256   0.148   4.310  16.593 -0.8575 -0.3309  0.0134
 8208SOL    HW136257   0.073   4.274  16.546 -1.1510  1.7424 -1.0863
 8208SOL    HW236258   0.212   4.240  16.578 -0.3129 -0.3278  2.3854
 8209SOL     OW36259   3.539   2.130   7.332  0.3759 -0.4051 -0.7827
 8209SOL    HW136260   3.580   2.111   7.417  0.0488  2.5823  0.0470
 8209SOL    HW236261   3.457   2.167   7.363 -0.0232 -0.7690 -1.4267
 8210SOL     OW36262   2.102   0.710   2.473  0.0429 -0.0875  0.1216
 8210SOL    HW136263   2.197   0.703   2.465  0.0609 -1.2439  1.4495
 8210SOL    HW236264   2.072   0.627   2.509 -0.9557 -0.3866 -1.3915
 8211SOL     OW36265   3.027   0.300   7.916 -0.1623  0.3985 -0.3390
 8211SOL    HW136266   2.979   0.247   7.979  2.9925  0.3183  2.0333
 8211SOL    HW236267   3.110   0.255   7.933 -0.4932 -1.2717 -3.0851
 8212SOL     OW36268   2.540   0.133   6.920 -0.5774 -0.2828 -0.1488
 8212SOL    HW136269   2.591   0.208   6.888 -1.1488 -1.3204 -3.4800
 8212SOL    HW236270   2.527   0.091   6.835  0.5364  1.1050 -1.0188
 8213SOL     OW36271   2.914   1.359  10.302 -0.3435 -0.6008  0.1577
 8213SOL    HW136272   2.994   1.332  10.257 -1.6490 -1.4407 -1.6364
 8213SOL    HW236273   2.882   1.276  10.336  0.3892 -0.6342  0.7721
 8214SOL     OW36274   3.577   3.352  14.235 -0.5830 -0.0455  0.1147
 8214SOL    HW136275   3.525   3.433  14.238 -0.9695 -0.3239  0.9002
 8214SOL    HW236276   3.546   3.328  14.323 -1.4509 -0.6397 -0.3597
 8215SOL     OW36277   0.052   3.934   7.807  0.2307 -0.4014 -0.3541
 8215SOL    HW136278   0.043   3.971   7.895  0.3703 -3.0112  0.7755
 8215SOL    HW236279   0.095   4.009   7.767  1.6208 -0.7740  0.4372
 8216SOL     OW36280   3.883   4.307   2.408 -0.5459 -0.3495 -0.1009
 8216SOL    HW136281   3.831   4.387   2.405 -0.6865 -0.3572  2.0531
 8216SOL    HW236282   3.846   4.248   2.342 -2.3827 -0.1865  0.7620
 8217SOL     OW36283   2.243   1.313  13.776  0.1736 -0.5198  0.4990
 8217SOL    HW136284   2.302   1.281  13.844  1.4853 -3.4688 -2.0134
 8217SOL    HW236285   2.295   1.389  13.750 -0.0946  0.4572  2.8931
 8218SOL     OW36286   0.024   2.127   4.257  0.1875  0.1320 -0.0283
 8218SOL    HW136287   0.087   2.143   4.328 -0.2719  1.1039  0.1651
 8218SOL    HW236288   0.053   2.189   4.190  0.1991  0.0225 -0.1242
 8219SOL     OW36289   0.621   0.577   8.548 -0.5210 -0.2423  0.0859
 8219SOL    HW136290   0.697   0.528   8.516 -1.0241  0.1223 -1.7155
 8219SOL    HW236291   0.609   0.636   8.474  2.3561 -0.9608 -0.9552
 8220SOL     OW36292   3.722   0.589   6.487  0.6149 -0.2414 -0.0136
 8220SOL    HW136293   3.732   0.659   6.423 -0.9941  0.5143  0.5570
 8220SOL    HW236294   3.686   0.643   6.558  0.6615  0.6178 -0.6510
 8221SOL     OW36295   0.548   2.437   3.845  0.6000  0.5313  0.0228
 8221SOL    HW136296   0.543   2.408   3.754  0.1565 -1.4238  0.6535
 8221SOL    HW236297   0.559   2.356   3.896 -1.1274  0.4740  0.3068
 8222SOL     OW36298   1.335   2.068   5.889  0.0211 -0.2054  0.0003
 8222SOL    HW136299   1.257   2.059   5.835  0.3262  0.7704 -0.5941
 8222SOL    HW236300   1.305   2.119   5.964  1.2687 -0.8970  0.9733
 8223SOL     OW36301   1.105   2.867   5.875 -0.9949  0.0991  0.0965
 8223SOL    HW136302   1.073   2.780   5.898  0.5462 -0.3409  0.6285
 8223SOL    HW236303   1.034   2.918   5.837 -0.8188  2.5590  3.0198
 8224SOL     OW36304   1.056   0.814   1.543  0.2789 -0.0253  0.0435
 8224SOL    HW136305   1.041   0.833   1.636  5.3159 -0.9746  1.0317
 8224SOL    HW236306   1.030   0.722   1.538  0.6164 -0.0051 -2.2118
 8225SOL     OW36307   0.887   4.416   6.264  0.7536  0.7663 -0.8745
 8225SOL    HW136308   0.867   4.508   6.247 -0.2393  0.3476 -1.9905
 8225SOL    HW236309   0.982   4.413   6.249  0.7086 -0.7146 -0.8884
 8226SOL     OW36310   4.244   1.574  15.742  0.0412 -0.0332  0.1538
 8226SOL    HW136311   4.338   1.574  15.762 -0.0497 -1.3766  0.5906
 8226SOL    HW236312   4.224   1.666  15.758  0.9486 -0.2832  2.8120
 8227SOL     OW36313   1.736   3.580   7.866 -0.4965  0.1319 -0.9098
 8227SOL    HW136314   1.793   3.619   7.799  1.3465  0.7717  0.9967
 8227SOL    HW236315   1.655   3.556   7.822 -0.2021  0.0653 -1.4203
 8228SOL     OW36316   0.546   2.855   3.052  0.1187  0.0076  0.6851
 8228SOL    HW136317   0.633   2.890   3.035  1.0420 -1.4676  2.3224
 8228SOL    HW236318   0.503   2.938   3.071  0.2539 -0.7557  4.3750
 8229SOL     OW36319   2.745   0.866  10.661 -0.2498 -0.4294 -0.0102
 8229SOL    HW136320   2.695   0.948  10.654  0.2777  0.0225  1.4168
 8229SOL    HW236321   2.837   0.881  10.643 -0.5167  0.3838 -0.6986
 8230SOL     OW36322   1.791   1.599  10.713  0.0923  0.4627 -0.2363
 8230SOL    HW136323   1.885   1.612  10.703  0.8483 -2.6436  3.0178
 8230SOL    HW236324   1.777   1.546  10.634  0.0174  1.4695 -0.9095
 8231SOL     OW36325   3.885   0.678  11.312  0.6792  0.0895 -0.1143
 8231SOL    HW136326   3.925   0.740  11.251  3.1026  1.0414  2.4606
 8231SOL    HW236327   3.906   0.599  11.263 -1.4366 -1.2815  1.2194
 8232SOL     OW36328   4.535   2.462   8.241  0.0872 -0.1858 -0.1391
 8232SOL    HW136329   4.575   2.547   8.257  0.0730 -0.0748 -0.6783
 8232SOL    HW236330   4.616   2.413   8.257 -1.1121 -1.1571  3.0002
 8233SOL     OW36331   1.281   4.226   7.085 -0.0640 -0.3478  0.0552
 8233SOL    HW136332   1.300   4.302   7.141 -2.9344  1.9099 -2.0306
 8233SOL    HW236333   1.240   4.279   7.017  0.0997 -0.1166  0.1344
 8234SOL     OW36334   3.513   3.486   7.807  0.1473  0.3204 -0.1912
 8234SOL    HW136335   3.579   3.469   7.740  0.0627 -0.1323 -0.1606
 8234SOL    HW236336   3.516   3.579   7.826  0.6042  0.4956 -1.1290
 8235SOL     OW36337   2.673   2.581   7.727  0.3612  0.0821  0.2838
 8235SOL    HW136338   2.717   2.502   7.760 -1.3854 -1.0375 -0.0491
 8235SOL    HW236339   2.617   2.598   7.803  0.3507 -0.2194  0.3443
 8236SOL     OW36340   0.019   1.261   8.870 -0.0920 -0.1188 -0.1659
 8236SOL    HW136341   4.691   1.305   8.922  1.7497  1.5926  0.8211
 8236SOL    HW236342   0.076   1.338   8.861 -0.1027 -0.0011  0.7115
 8237SOL     OW36343   2.856   4.276   1.751 -0.0665 -0.2050  0.6361
 8237SOL    HW136344   2.871   4.328   1.671  0.8398 -1.6459 -0.1239
 8237SOL    HW236345   2.923   4.209   1.746 -0.0098 -0.1501  0.6611
 8238SOL     OW36346   4.702   2.810   3.822 -0.0404  0.5564 -0.3838
 8238SOL    HW136347   4.678   2.759   3.899  1.7491 -0.0913 -0.2555
 8238SOL    HW236348   4.626   2.865   3.806  0.1741  0.9235 -0.1696
 8239SOL     OW36349   2.247   0.963   3.192 -0.0275  0.2466  0.1850
 8239SOL    HW136350   2.195   0.948   3.113 -2.6593 -0.4995  2.0857
 8239SOL    HW236351   2.290   0.878   3.187 -0.7933 -0.1652  0.7563
 8240SOL     OW36352   2.083   1.838   6.661  0.2170 -0.0908  0.5827
 8240SOL    HW136353   2.093   1.744   6.673  1.5174 -0.0125  0.0946
 8240SOL    HW236354   2.048   1.851   6.573  0.9059 -1.2156  0.1417
 8241SOL     OW36355   0.255   4.417   9.174  0.1481  0.0002 -0.0713
 8241SOL    HW136356   0.279   4.485   9.110  0.9775 -1.1631 -0.9979
 8241SOL    HW236357   0.173   4.446   9.213  0.2169  0.0224  0.0566
 8242SOL     OW36358   3.390   4.062   6.727  0.0228 -0.0370 -0.2945
 8242SOL    HW136359   3.424   3.978   6.757  1.5387  0.8766  0.5766
 8242SOL    HW236360   3.444   4.133   6.761 -1.6580  2.1346 -2.1608
 8243SOL     OW36361   4.723   3.048   5.151  0.0852  0.1797  0.4782
 8243SOL    HW136362   4.735   3.130   5.198  1.4279  1.3180 -1.8671
 8243SOL    HW236363   4.714   3.097   5.069  1.4693  2.2936  1.5994
 8244SOL     OW36364   2.087   3.057   8.298  0.1894 -0.8100 -0.2601
 8244SOL    HW136365   2.042   3.108   8.365  1.3431  0.6028 -0.5569
 8244SOL    HW236366   2.178   3.085   8.309 -0.7747  1.1834  2.6510
 8245SOL     OW36367   3.373   2.113   4.087 -0.3309  0.1965  0.7205
 8245SOL    HW136368   3.438   2.050   4.054 -0.2716  1.4155 -1.5049
 8245SOL    HW236369   3.328   2.051   4.144 -1.2022 -0.3458 -0.5611
 8246SOL     OW36370   3.182   4.173   1.312 -0.1871 -0.2991  0.0493
 8246SOL    HW136371   3.203   4.079   1.317 -0.5609 -0.5450 -3.0796
 8246SOL    HW236372   3.182   4.182   1.217 -1.2664  1.7862  0.2580
 8247SOL     OW36373   2.074   1.468   5.178  0.6053 -0.0162  0.2133
 8247SOL    HW136374   2.091   1.518   5.099  0.3744  1.4160  1.0656
 8247SOL    HW236375   1.980   1.466   5.164  0.8586 -2.4851 -1.2193
 8248SOL     OW36376   1.490   3.091   2.732  0.0693 -0.2705  0.0647
 8248SOL    HW136377   1.536   3.065   2.652  3.5004 -0.9196  2.2202
 8248SOL    HW236378   1.489   3.185   2.712 -1.6360 -0.0937  0.9669
 8249SOL     OW36379   2.201   3.482   8.885 -0.4787 -0.2398 -0.2200
 8249SOL    HW136380   2.270   3.417   8.893 -0.3488 -0.2211 -1.2060
 8249SOL    HW236381   2.244   3.565   8.863  1.4627 -1.0194  0.6461
 8250SOL     OW36382   2.222   3.150   7.398 -0.1068  0.5034  0.1495
 8250SOL    HW136383   2.143   3.203   7.412 -0.5424 -0.2719  0.6542
 8250SOL    HW236384   2.262   3.140   7.484  1.4850 -1.0241 -0.7746
 8251SOL     OW36385   2.303   1.845   8.328 -0.5741 -0.0255  0.8661
 8251SOL    HW136386   2.394   1.821   8.345  0.2493  0.7052 -2.6898
 8251SOL    HW236387   2.281   1.790   8.253  2.3167  0.5802 -0.4286
 8252SOL     OW36388   4.048   2.619  11.123  0.0061 -0.3828  0.4138
 8252SOL    HW136389   4.079   2.694  11.072 -1.2661  0.3775  0.7575
 8252SOL    HW236390   4.003   2.670  11.191 -0.0093  0.5145 -0.2749
 8253SOL     OW36391   0.048   3.244   3.266  0.0987 -0.0810  0.5864
 8253SOL    HW136392   0.106   3.174   3.297 -1.2178 -1.3238  0.2663
 8253SOL    HW236393   4.715   3.192   3.230 -0.3807  0.7769  0.3174
 8254SOL     OW36394   2.505   0.576   7.223  0.0637  0.3357 -0.3703
 8254SOL    HW136395   2.425   0.625   7.244  0.7162  1.1805  0.1319
 8254SOL    HW236396   2.571   0.606   7.286 -0.4325  1.7373 -0.5321
 8255SOL     OW36397   3.790   3.655   4.822 -0.1805  0.0586 -0.6459
 8255SOL    HW136398   3.780   3.593   4.749 -1.4500 -0.8291  0.2795
 8255SOL    HW236399   3.841   3.600   4.882 -0.6978  0.3202  0.0310
 8256SOL     OW36400   3.100   1.738   1.702 -0.2934 -0.6031  0.2499
 8256SOL    HW136401   3.015   1.706   1.733  0.6039  0.1062  3.3909
 8256SOL    HW236402   3.159   1.667   1.679  1.5683  1.2166 -0.5795
 8257SOL     OW36403   3.087   3.426  17.501 -0.6180 -0.1842  0.4047
 8257SOL    HW136404   3.170   3.460  17.534 -1.2397  1.2054  0.5592
 8257SOL    HW236405   3.065   3.347  17.549  1.9841 -1.2746 -0.2184
 8258SOL     OW36406   2.484   2.373   0.198 -0.0632  0.1770  0.0104
 8258SOL    HW136407   2.531   2.328   0.128  0.0389  0.7708 -0.3031
 8258SOL    HW236408   2.557   2.412   0.246  0.0618 -0.7658  0.5921
 8259SOL     OW36409   2.454   4.358   2.141 -0.7944  0.1969 -1.2156
 8259SOL    HW136410   2.492   4.332   2.057 -0.7083 -0.7440 -0.8828
 8259SOL    HW236411   2.532   4.372   2.194 -1.2492  1.4008 -0.8575
 8260SOL     OW36412   4.083   1.740   5.880  0.3061  0.0863 -0.3266
 8260SOL    HW136413   4.091   1.828   5.917  3.5849  0.0848 -1.0470
 8260SOL    HW236414   4.120   1.771   5.797 -0.4228  3.2207  0.5062
 8261SOL     OW36415   3.086   2.544   8.779 -0.5972 -0.1474  0.2064
 8261SOL    HW136416   3.078   2.600   8.856  1.3288  2.2156 -1.3119
 8261SOL    HW236417   3.175   2.567   8.755 -0.8363 -0.1961 -0.7512
 8262SOL     OW36418   3.377   2.976   5.126 -0.2264  0.1197 -0.6193
 8262SOL    HW136419   3.455   3.004   5.173 -0.2125 -0.6627 -0.1772
 8262SOL    HW236420   3.315   3.048   5.136  0.9268  1.1710 -1.0937
 8263SOL     OW36421   3.231   0.526   3.345  0.2222 -0.2505 -0.0950
 8263SOL    HW136422   3.270   0.498   3.263 -0.2427  2.3375 -1.2136
 8263SOL    HW236423   3.146   0.487   3.324  1.1882 -1.9323 -0.9003
 8264SOL     OW36424   0.491   3.105   1.834 -0.1993 -0.1823 -0.2129
 8264SOL    HW136425   0.427   3.103   1.906  2.5458  3.2095  2.3572
 8264SOL    HW236426   0.496   3.200   1.825 -1.6801 -0.0845 -0.0272
 8265SOL     OW36427   3.967   2.083   6.869  0.5118  0.0343  0.0902
 8265SOL    HW136428   3.966   2.122   6.781 -0.5990 -1.6484 -0.6489
 8265SOL    HW236429   4.016   2.003   6.850  1.2140  0.9631 -1.9692
 8266SOL     OW36430   3.367   2.061  12.421  0.7612 -1.0877 -0.1161
 8266SOL    HW136431   3.299   2.103  12.369 -0.9559 -3.3002  0.3388
 8266SOL    HW236432   3.368   2.134  12.483 -0.4672 -0.3691 -0.9311
 8267SOL     OW36433   3.398   2.481  13.968  0.4318  0.2676  0.4164
 8267SOL    HW136434   3.394   2.528  14.052 -1.9351 -0.7372  0.8670
 8267SOL    HW236435   3.355   2.396  13.984  0.9397 -0.4542 -2.1231
 8268SOL     OW36436   4.083   2.833   7.003 -0.3711 -0.0628  0.3163
 8268SOL    HW136437   4.036   2.774   6.945 -0.3073  0.3632 -0.1592
 8268SOL    HW236438   4.104   2.908   6.948  3.9239 -1.7334 -0.3138
 8269SOL     OW36439   4.402   2.120   7.512  0.2786 -0.1854  0.2953
 8269SOL    HW136440   4.363   2.137   7.426 -0.4058 -0.5169  0.5339
 8269SOL    HW236441   4.330   2.122   7.575 -0.0872  0.0508 -0.1286
 8270SOL     OW36442   3.991   3.198   7.318 -0.0173  0.0316 -0.0041
 8270SOL    HW136443   3.947   3.123   7.278 -0.1382 -0.3773  0.9020
 8270SOL    HW236444   3.965   3.188   7.409  1.9194 -3.2503  0.1788
 8271SOL     OW36445   2.716   2.932   4.446  0.2324 -0.7603  0.4488
 8271SOL    HW136446   2.640   2.886   4.411 -1.8244  2.5047  0.5940
 8271SOL    HW236447   2.778   2.910   4.376 -1.7652 -0.2597 -1.4533
 8272SOL     OW36448   2.199   1.927  10.488  0.1812 -0.3050  0.1623
 8272SOL    HW136449   2.196   1.848  10.433 -1.0074 -0.6476  0.7257
 8272SOL    HW236450   2.294   1.925  10.501  0.5239 -1.5091 -2.4452
 8273SOL     OW36451   0.770   2.237   2.878 -0.0319 -0.1312 -0.2738
 8273SOL    HW136452   0.823   2.214   2.954  0.2105 -0.6392 -0.5941
 8273SOL    HW236453   0.688   2.195   2.902  0.2818  0.0886  1.1801
 8274SOL     OW36454   1.088   1.806   3.927 -0.4343  0.4965 -0.0215
 8274SOL    HW136455   1.174   1.844   3.912 -1.0681  2.2339  0.7661
 8274SOL    HW236456   1.037   1.871   3.879 -0.4639  0.7031  0.2834
 8275SOL     OW36457   1.785   0.141   7.234 -0.3191  0.0010 -0.3648
 8275SOL    HW136458   1.833   0.189   7.302 -1.3064 -1.3472  1.3054
 8275SOL    HW236459   1.708   0.138   7.291 -0.4449 -2.6526 -0.6869
 8276SOL     OW36460   0.194   3.753   5.771  0.9144  0.0202  0.5915
 8276SOL    HW136461   0.202   3.723   5.681 -1.9747 -0.0415  0.3560
 8276SOL    HW236462   0.262   3.821   5.775  2.5269 -1.4863 -1.3520
 8277SOL     OW36463   0.947   2.888   6.279  0.1414  0.4326  0.6378
 8277SOL    HW136464   0.868   2.838   6.297 -1.1071  0.9855 -3.3105
 8277SOL    HW236465   0.922   2.974   6.313 -0.8298  0.7618 -0.8737
 8278SOL     OW36466   1.239   3.377  14.862  0.2051 -0.2741 -0.2990
 8278SOL    HW136467   1.315   3.356  14.915  0.8898  0.3925 -1.0173
 8278SOL    HW236468   1.257   3.305  14.800 -2.7044 -0.2098 -1.2554
 8279SOL     OW36469   2.060   4.264   1.973 -0.6527  0.3416  0.1499
 8279SOL    HW136470   2.022   4.340   2.016 -1.6927 -0.8817  1.4210
 8279SOL    HW236471   2.138   4.305   1.936 -1.6442  0.3956 -1.8819
 8280SOL     OW36472   0.060   0.664   9.526 -0.4549  0.1009  0.2453
 8280SOL    HW136473   0.063   0.609   9.448  1.0138  0.3273  0.1478
 8280SOL    HW236474   0.154   0.655   9.542 -0.6159 -0.4159  0.8847
 8281SOL     OW36475   4.302   3.731   4.049  0.2953  0.0908 -0.5799
 8281SOL    HW136476   4.380   3.781   4.070 -1.1451  2.0457  0.1337
 8281SOL    HW236477   4.276   3.767   3.964  1.7174  2.0247 -0.1753
 8282SOL     OW36478   1.327   4.396   9.789 -0.8777  0.6115  0.0049
 8282SOL    HW136479   1.311   4.447   9.709 -0.8039 -0.6795 -0.8401
 8282SOL    HW236480   1.356   4.313   9.752 -1.5040  0.3885  0.0109
 8283SOL     OW36481   0.018   0.926   5.806  0.6361  0.2371 -0.1782
 8283SOL    HW136482   0.098   0.911   5.855  0.7740  1.8480  0.0723
 8283SOL    HW236483   0.040   0.927   5.712 -0.7344  2.0138 -0.4813
 8284SOL     OW36484   1.162   2.054   6.870 -0.0939  0.0847 -0.0992
 8284SOL    HW136485   1.215   2.055   6.790 -1.5983 -1.6640 -1.1101
 8284SOL    HW236486   1.094   2.110   6.832  1.0838  1.4477 -0.1924
 8285SOL     OW36487   2.449   4.721   4.596 -0.0650  0.0302 -0.4685
 8285SOL    HW136488   2.437   4.643   4.541  3.3331 -0.9434  0.1808
 8285SOL    HW236489   2.368   4.730   4.647  0.3033  1.2019 -0.0931
 8286SOL     OW36490   1.766   4.294   8.221 -0.3267  0.3662 -0.3808
 8286SOL    HW136491   1.800   4.312   8.134 -0.1660 -3.9767 -1.2117
 8286SOL    HW236492   1.810   4.362   8.272  1.2952 -1.2417  0.3874
 8287SOL     OW36493   0.925   2.357   5.402 -0.1463  0.1484  0.6391
 8287SOL    HW136494   0.839   2.350   5.360  0.7481 -2.2716 -0.7448
 8287SOL    HW236495   0.900   2.317   5.486 -1.3070 -0.8992 -0.2091
 8288SOL     OW36496   0.812   3.284   9.285 -0.0011 -0.3764  0.0341
 8288SOL    HW136497   0.766   3.199   9.288  0.5235 -0.7025 -1.0279
 8288SOL    HW236498   0.745   3.350   9.300  1.2583  0.0346  3.7653
 8289SOL     OW36499   1.298   0.888  10.875  0.1276 -0.1661  0.5133
 8289SOL    HW136500   1.266   0.977  10.859  0.2882 -0.5195 -1.7109
 8289SOL    HW236501   1.254   0.875  10.959  1.0188  0.9568  1.1553
 8290SOL     OW36502   3.636   1.357  17.500  0.0418  0.2045  0.0981
 8290SOL    HW136503   3.658   1.277  17.547 -0.3792 -0.6218 -1.1271
 8290SOL    HW236504   3.649   1.330  17.409 -1.2514  2.4348 -0.7528
 8291SOL     OW36505   2.070   3.819  11.477 -0.0680  0.3510 -0.0267
 8291SOL    HW136506   2.147   3.859  11.516  1.5311 -1.9213 -0.8782
 8291SOL    HW236507   2.079   3.733  11.519  1.4545  1.0216  0.9937
 8292SOL     OW36508   2.064   0.450   1.732 -0.6642  0.1225 -0.1001
 8292SOL    HW136509   2.062   0.524   1.671 -1.5060  1.0069  0.9994
 8292SOL    HW236510   2.073   0.501   1.813  0.5327 -1.5371  0.8215
 8293SOL     OW36511   4.493   3.237   6.500 -0.0679 -0.5797 -0.9512
 8293SOL    HW136512   4.570   3.187   6.475 -1.5877 -2.7759 -1.2610
 8293SOL    HW236513   4.474   3.216   6.592  2.1886  1.2005 -0.1059
 8294SOL     OW36514   2.294   2.182   6.860  0.5518  0.0827 -0.1983
 8294SOL    HW136515   2.366   2.244   6.860 -0.0697  0.7984 -0.6446
 8294SOL    HW236516   2.288   2.150   6.770 -2.7000  1.7756 -0.5694
 8295SOL     OW36517   3.242   3.472   6.293 -0.1141 -0.2441  0.0323
 8295SOL    HW136518   3.180   3.469   6.221  0.0200 -0.9065 -0.0532
 8295SOL    HW236519   3.239   3.378   6.311 -1.6349 -0.3993 -1.0873
 8296SOL     OW36520   1.168   4.178  11.542 -0.2724 -0.1186 -0.0104
 8296SOL    HW136521   1.165   4.269  11.572 -0.1588  0.3864 -1.5187
 8296SOL    HW236522   1.253   4.147  11.571 -0.0952  1.8423  1.5449
 8297SOL     OW36523   1.489   2.192   3.769  0.3720  0.2257 -0.0595
 8297SOL    HW136524   1.440   2.131   3.713  0.3577 -1.7684  2.1353
 8297SOL    HW236525   1.507   2.259   3.703 -0.6051 -0.9485 -1.5304
 8298SOL     OW36526   0.373   1.566   2.876  0.0175  0.0448  0.3685
 8298SOL    HW136527   0.357   1.612   2.959  2.4810  1.0192  0.2971
 8298SOL    HW236528   0.381   1.476   2.906  0.4146 -0.0816 -0.1273
 8299SOL     OW36529   0.451   3.338  17.388  0.5946  0.3455  0.1412
 8299SOL    HW136530   0.492   3.261  17.349 -0.1556 -0.5479  1.1417
 8299SOL    HW236531   0.421   3.386  17.311 -1.6227  1.0250  1.4235
 8300SOL     OW36532   3.833   3.828   2.287  0.0499  0.2710 -0.2742
 8300SOL    HW136533   3.756   3.882   2.273 -0.0100  0.3348  0.2882
 8300SOL    HW236534   3.884   3.854   2.210  2.6368  1.7173  1.9325
 8301SOL     OW36535   1.318   0.212   5.098 -0.2004 -0.2335  0.3297
 8301SOL    HW136536   1.245   0.236   5.155 -0.6645  1.4623 -0.9739
 8301SOL    HW236537   1.389   0.226   5.160 -0.1070  2.8981 -0.4530
 8302SOL     OW36538   2.455   3.386   0.861  0.3420  0.4237 -0.1794
 8302SOL    HW136539   2.440   3.477   0.838 -1.9655 -0.1882 -1.1468
 8302SOL    HW236540   2.371   3.343   0.843  0.3788  0.4442 -0.4043
 8303SOL     OW36541   4.466   2.943  16.902  0.4683  0.0193  0.7279
 8303SOL    HW136542   4.551   2.983  16.881 -1.1702  3.4936  0.6979
 8303SOL    HW236543   4.481   2.876  16.836  0.5975  0.7033  0.0598
 8304SOL     OW36544   2.168   3.561  14.639  0.1414  0.3798 -0.5423
 8304SOL    HW136545   2.111   3.484  14.641  1.9312 -0.9192  0.7424
 8304SOL    HW236546   2.254   3.525  14.616 -0.3266 -0.8038 -0.4277
 8305SOL     OW36547   3.698   3.361   3.282 -0.6170 -0.5234 -0.5380
 8305SOL    HW136548   3.653   3.366   3.366 -3.3189  1.7956 -2.0708
 8305SOL    HW236549   3.749   3.281   3.289 -0.0858 -0.3109 -1.9068
 8306SOL     OW36550   0.869   3.739   8.984  0.5601  0.0371 -0.6602
 8306SOL    HW136551   0.788   3.725   8.936  1.9263  0.2219 -2.9961
 8306SOL    HW236552   0.925   3.764   8.911 -2.0960  1.1091 -2.3275
 8307SOL     OW36553   4.018   3.508   2.008 -0.4258 -0.5629  0.3339
 8307SOL    HW136554   4.090   3.454   1.976  0.1046 -0.3187  1.1206
 8307SOL    HW236555   3.984   3.556   1.932 -0.8104 -1.1902  0.1164
 8308SOL     OW36556   4.598   3.467   6.410 -1.1355  0.1998 -0.0368
 8308SOL    HW136557   4.604   3.460   6.314  0.4398  0.5263  0.0341
 8308SOL    HW236558   4.535   3.400   6.436 -1.0196  0.0434 -0.1578
 8309SOL     OW36559   0.393   3.346   1.061  0.3108 -0.1170 -0.1526
 8309SOL    HW136560   0.397   3.438   1.032  0.5401 -0.6623 -1.8804
 8309SOL    HW236561   0.448   3.303   0.996  1.6017  1.0559  0.1721
 8310SOL     OW36562   2.785   1.084  14.432 -0.0578  0.0788 -0.7654
 8310SOL    HW136563   2.822   1.154  14.486 -0.8746 -1.2600  1.5399
 8310SOL    HW236564   2.833   1.006  14.461 -0.6047  0.2538  0.5732
 8311SOL     OW36565   3.155   3.169  12.208 -0.0529  0.3523 -0.8965
 8311SOL    HW136566   3.108   3.106  12.262  1.7088 -2.5971 -2.8082
 8311SOL    HW236567   3.110   3.252  12.226  0.3180 -0.0754  1.9538
 8312SOL     OW36568   2.998   3.486   0.083  0.3748 -0.0080  0.9051
 8312SOL    HW136569   3.077   3.484   0.029 -0.5907 -1.7696 -0.4798
 8312SOL    HW236570   3.019   3.547   0.153  1.8584 -1.2808  1.5724
 8313SOL     OW36571   3.513   2.629   3.541 -0.2306  0.5206  0.3434
 8313SOL    HW136572   3.547   2.702   3.489 -0.5229  0.8878  0.6701
 8313SOL    HW236573   3.572   2.560   3.511  1.2288  2.9572 -2.3526
 8314SOL     OW36574   1.387   1.548   1.687 -0.2614  0.4392 -0.6867
 8314SOL    HW136575   1.437   1.623   1.719 -0.2929  0.5087 -0.8016
 8314SOL    HW236576   1.377   1.576   1.596  0.5181  1.3590 -0.4917
 8315SOL     OW36577   0.816   3.271  16.203 -0.6814 -0.1040  0.4809
 8315SOL    HW136578   0.836   3.358  16.170 -2.5833  0.2774  0.3049
 8315SOL    HW236579   0.735   3.287  16.251 -0.2757  0.2231  1.0486
 8316SOL     OW36580   2.026   3.050  11.255 -0.9051 -0.1328  0.4804
 8316SOL    HW136581   1.983   3.100  11.186 -1.6604 -1.7689 -0.2540
 8316SOL    HW236582   2.050   3.121  11.314 -2.4434  1.1887 -0.4926
 8317SOL     OW36583   3.918   3.054   7.744 -0.5701  0.0260 -0.2711
 8317SOL    HW136584   3.877   3.042   7.658 -1.8103  1.1999  0.1596
 8317SOL    HW236585   3.846   3.036   7.804  1.1599 -0.4909  1.6322
 8318SOL     OW36586   4.566   3.265  15.743  0.4220  0.4017 -0.3998
 8318SOL    HW136587   4.635   3.308  15.794 -1.5808  1.7074  1.2111
 8318SOL    HW236588   4.560   3.192  15.806 -0.5596  2.9995  2.5241
 8319SOL     OW36589   3.795   0.776  14.240 -0.4553  0.1583 -0.2283
 8319SOL    HW136590   3.708   0.735  14.245 -0.3659  0.1705  1.5551
 8319SOL    HW236591   3.807   0.783  14.335  0.5581 -1.1521 -0.2735
 8320SOL     OW36592   4.292   1.774  11.826 -0.2097 -0.3044  0.1012
 8320SOL    HW136593   4.249   1.689  11.827  0.3748 -0.5990 -0.2864
 8320SOL    HW236594   4.379   1.762  11.789 -0.7450 -1.2227 -0.8537
 8321SOL     OW36595   3.213   1.530   1.311  0.4973 -0.0520  0.6726
 8321SOL    HW136596   3.249   1.549   1.398  3.7136 -0.0027 -0.6894
 8321SOL    HW236597   3.286   1.546   1.251  1.2584 -0.9209  1.3583
 8322SOL     OW36598   3.435   1.506   6.117  0.4103 -0.0256 -0.7369
 8322SOL    HW136599   3.365   1.484   6.055 -0.2184 -0.5916  0.1817
 8322SOL    HW236600   3.509   1.474   6.065  0.6504 -0.5459 -0.0687
 8323SOL     OW36601   0.578   0.522   3.993 -0.4439  0.3139  0.6740
 8323SOL    HW136602   0.489   0.540   4.021 -0.4547  0.9459  0.2255
 8323SOL    HW236603   0.608   0.612   3.980 -1.7372  0.5562 -0.7027
 8324SOL     OW36604   1.619   0.132   6.657  0.3748 -0.0304 -0.2557
 8324SOL    HW136605   1.689   0.168   6.602  0.1263 -1.7955 -1.7452
 8324SOL    HW236606   1.537   0.161   6.618 -0.1445 -2.7481 -1.2430
 8325SOL     OW36607   2.206   2.318   6.211 -0.9619  0.0149 -0.1017
 8325SOL    HW136608   2.143   2.249   6.232  0.3249 -0.6560  1.4909
 8325SOL    HW236609   2.136   2.384   6.211 -1.4276 -0.4606 -1.9514
 8326SOL     OW36610   4.010   0.219   7.387 -0.5019  0.1242 -0.2293
 8326SOL    HW136611   3.972   0.143   7.430 -1.8256 -0.1345 -1.8614
 8326SOL    HW236612   3.966   0.295   7.426 -1.6252 -0.6109 -0.0510
 8327SOL     OW36613   1.721   1.063   1.997  0.8544 -0.5292 -0.1300
 8327SOL    HW136614   1.794   1.015   1.959  0.1204 -1.5514 -0.2605
 8327SOL    HW236615   1.667   1.103   1.928 -0.9596 -0.7673  1.1428
 8328SOL     OW36616   1.623   3.340   1.487 -0.1728  0.2751 -0.1897
 8328SOL    HW136617   1.610   3.430   1.458 -0.3617  0.6196  0.9705
 8328SOL    HW236618   1.577   3.336   1.570 -0.3094  2.3206 -0.1608
 8329SOL     OW36619   3.944   2.262   6.637 -0.1191 -0.1573  0.2803
 8329SOL    HW136620   3.886   2.338   6.634  0.1439  0.0453  0.2575
 8329SOL    HW236621   3.963   2.236   6.547 -1.9032 -0.4749  0.0047
 8330SOL     OW36622   0.834   4.106   5.394 -0.6578  0.3562 -0.5920
 8330SOL    HW136623   0.861   4.165   5.324  1.4248  1.4538  1.1776
 8330SOL    HW236624   0.877   4.148   5.468 -0.6795 -2.9043  1.2582
 8331SOL     OW36625   4.661   3.960   2.411  0.1671  0.1545 -0.3087
 8331SOL    HW136626   4.615   3.898   2.468  1.6232 -0.1426  0.5159
 8331SOL    HW236627   4.586   4.020   2.403  1.0086  1.0445 -1.5427
 8332SOL     OW36628   2.155   4.070   6.775  0.0305  0.4559  0.4386
 8332SOL    HW136629   2.125   4.134   6.840 -1.5333 -0.9863  1.1586
 8332SOL    HW236630   2.073   4.032   6.744  0.4447 -0.1193  0.0470
 8333SOL     OW36631   3.301   4.470   5.152 -0.2079  0.2903  0.3683
 8333SOL    HW136632   3.232   4.531   5.179  1.9886  2.5051  1.0014
 8333SOL    HW236633   3.363   4.536   5.121  1.2522 -1.7435 -1.0644
 8334SOL     OW36634   0.541   4.485   3.477  0.7794  0.1244 -0.2010
 8334SOL    HW136635   0.530   4.390   3.478 -1.9769  0.4285 -1.6439
 8334SOL    HW236636   0.536   4.504   3.571  1.2711 -1.3115  0.1123
 8335SOL     OW36637   1.499   0.761   9.299 -0.2425  0.4469 -0.4708
 8335SOL    HW136638   1.410   0.734   9.320 -0.7503  1.2605 -1.5615
 8335SOL    HW236639   1.522   0.820   9.370 -0.0899  0.8059 -0.8157
 8336SOL     OW36640   2.836   4.434   3.526 -0.2236  0.1411 -0.2273
 8336SOL    HW136641   2.896   4.360   3.516 -0.3452  0.2057 -1.4369
 8336SOL    HW236642   2.897   4.504   3.549 -0.8827  1.3580 -2.1772
 8337SOL     OW36643   1.945   4.704   4.014 -0.2588 -0.4756 -0.1332
 8337SOL    HW136644   1.882   4.649   4.061 -0.2479  0.6736  1.2607
 8337SOL    HW236645   2.024   4.656   4.040  1.3978  2.2273 -0.1109
 8338SOL     OW36646   3.854   0.056   4.174 -0.4467  0.1066  0.3540
 8338SOL    HW136647   3.882   4.715   4.131 -0.9578  0.0646  0.1026
 8338SOL    HW236648   3.868   0.036   4.267  3.6548  0.9735 -0.0676
 8339SOL     OW36649   2.822   0.068   8.025 -0.1149  0.2298 -0.1924
 8339SOL    HW136650   2.907   0.035   7.997  0.1597  0.9562 -0.2323
 8339SOL    HW236651   2.761   0.007   7.985 -1.3975  0.7120  1.0406
 8340SOL     OW36652   3.402   4.729  13.363 -0.5925  0.0073  0.3919
 8340SOL    HW136653   3.362   4.645  13.340 -0.4934  0.0839 -0.0711
 8340SOL    HW236654   3.375   0.030  13.280  2.4050  2.2534  0.5288
 8341SOL     OW36655   2.563   3.294   2.781  0.0561 -0.1314 -0.0949
 8341SOL    HW136656   2.525   3.341   2.707  1.7977  2.3815  0.5757
 8341SOL    HW236657   2.623   3.233   2.739  0.9261 -0.6910  1.9354
 8342SOL     OW36658   1.117   2.136   8.223 -0.0602 -0.5052 -0.5493
 8342SOL    HW136659   1.163   2.204   8.272 -2.1563 -0.7410  1.7867
 8342SOL    HW236660   1.196   2.085   8.207 -0.8461 -2.4335  1.7204
 8343SOL     OW36661   1.265   4.622   7.680  0.4548  0.1570  0.7168
 8343SOL    HW136662   1.263   4.673   7.599  1.6852 -1.3177 -0.2492
 8343SOL    HW236663   1.359   4.606   7.690  0.9348  3.6297  1.6604
 8344SOL     OW36664   1.653   2.925   9.228 -0.0052 -0.5111 -0.5889
 8344SOL    HW136665   1.562   2.935   9.255  0.4096 -0.8530  0.9004
 8344SOL    HW236666   1.704   2.925   9.309 -0.9859 -1.2603  0.0265
 8345SOL     OW36667   1.019   0.382   9.149  0.7046  0.3476 -0.6043
 8345SOL    HW136668   1.104   0.408   9.115 -1.2545  4.7769 -2.1580
 8345SOL    HW236669   0.960   0.408   9.078 -1.0838  0.8540  1.0599
 8346SOL     OW36670   0.973   1.677   3.257 -0.7889 -0.0117  0.0022
 8346SOL    HW136671   0.895   1.677   3.200  0.0485 -2.2766 -1.1812
 8346SOL    HW236672   0.974   1.587   3.291  0.2489 -0.3049 -0.8007
 8347SOL     OW36673   0.549   0.731  14.721  0.8045 -0.5128  0.1951
 8347SOL    HW136674   0.497   0.666  14.674 -1.2591 -0.6138  2.6386
 8347SOL    HW236675   0.617   0.676  14.761  0.5652 -0.9179  0.0453
 8348SOL     OW36676   0.384   3.663   7.134 -0.0132 -0.1706  0.5426
 8348SOL    HW136677   0.466   3.669   7.085 -1.0667  1.1772 -1.0826
 8348SOL    HW236678   0.315   3.672   7.067 -0.3344  1.4601  1.0908
 8349SOL     OW36679   1.446   0.190   8.933  0.2294 -0.5879  1.1044
 8349SOL    HW136680   1.473   0.275   8.966  0.5884 -0.0546 -0.5745
 8349SOL    HW236681   1.366   0.206   8.884 -0.1584 -1.7225  1.3727
 8350SOL     OW36682   4.152   1.146  10.495 -0.0232  0.3348 -0.0907
 8350SOL    HW136683   4.097   1.122  10.421  0.7466 -1.1836 -0.1594
 8350SOL    HW236684   4.208   1.069  10.508 -2.3727 -1.0334  1.8887
 8351SOL     OW36685   2.748   0.360  11.028  0.0835 -0.2955 -0.3937
 8351SOL    HW136686   2.668   0.318  11.058  0.3817 -3.2804 -3.8636
 8351SOL    HW236687   2.744   0.439  11.083 -0.0525  0.0632 -0.9181
 8352SOL     OW36688   2.433   3.642   8.807  0.2150  0.0174 -0.0763
 8352SOL    HW136689   2.467   3.675   8.890 -1.6953  2.2373 -0.1645
 8352SOL    HW236690   2.516   3.606   8.776  0.7622  2.2975 -1.2921
 8353SOL     OW36691   3.604   1.187   6.861  0.0969  0.3329  0.8817
 8353SOL    HW136692   3.522   1.163   6.819  0.3487 -1.2730  1.3101
 8353SOL    HW236693   3.663   1.182   6.785  0.7455 -0.9591  1.4748
 8354SOL     OW36694   0.904   0.828   3.262  0.0360  0.0847  0.0725
 8354SOL    HW136695   0.922   0.920   3.247  0.3689  0.0777  0.4476
 8354SOL    HW236696   0.878   0.834   3.353  1.0601  0.5349  0.3359
 8355SOL     OW36697   1.719   2.510   1.726 -0.2521  0.2722  0.4026
 8355SOL    HW136698   1.696   2.494   1.817 -0.8879  1.1441  0.3977
 8355SOL    HW236699   1.810   2.540   1.732  0.0871 -0.7205  0.2111
 8356SOL     OW36700   4.524   3.699   8.612  0.5745  0.0131  0.2057
 8356SOL    HW136701   4.494   3.650   8.535  0.0513  1.4893 -0.5280
 8356SOL    HW236702   4.489   3.787   8.596  3.8363  1.2670 -0.0319
 8357SOL     OW36703   3.720   0.533   2.776  0.2509 -0.3184  0.2166
 8357SOL    HW136704   3.745   0.465   2.839 -1.4110 -5.5596 -4.7739
 8357SOL    HW236705   3.695   0.604   2.835  0.7009  0.6052 -0.7030
 8358SOL     OW36706   1.468   2.358   3.509 -0.1194  0.2568 -0.4073
 8358SOL    HW136707   1.377   2.361   3.540 -0.7982 -1.3713 -2.2256
 8358SOL    HW236708   1.470   2.278   3.456  0.0413  1.5224 -2.3114
 8359SOL     OW36709   0.393   0.294  12.040 -0.1778  0.2904  0.1391
 8359SOL    HW136710   0.391   0.200  12.023  1.2089  0.7724 -2.6842
 8359SOL    HW236711   0.322   0.313  11.978  1.1140 -0.8069 -1.6774
 8360SOL     OW36712   2.989   4.043   1.742  0.1064 -0.3213  0.3730
 8360SOL    HW136713   3.033   3.965   1.708 -0.0859  0.2160 -1.0708
 8360SOL    HW236714   2.958   4.002   1.823 -0.8573  0.1940  0.2655
 8361SOL     OW36715   4.634   3.927   8.074 -0.0177 -0.3162  0.3334
 8361SOL    HW136716   4.546   3.943   8.040 -0.0788 -2.7058 -0.6001
 8361SOL    HW236717   4.629   3.832   8.079  1.8066 -0.4994 -1.3090
 8362SOL     OW36718   3.628   4.627  10.030 -1.1432 -0.5973  0.2869
 8362SOL    HW136719   3.577   4.558  10.072  0.8466 -1.3815  1.4132
 8362SOL    HW236720   3.701   4.643  10.089  1.7290 -1.8811 -2.8898
 8363SOL     OW36721   0.119   0.920   2.719  0.1183  0.4419 -0.7935
 8363SOL    HW136722   0.100   0.828   2.701 -0.3830  0.3810  0.0569
 8363SOL    HW236723   0.209   0.917   2.686 -0.1692 -0.6101 -1.4963
 8364SOL     OW36724   2.387   4.372   1.106  0.3064 -0.0109  0.2150
 8364SOL    HW136725   2.483   4.363   1.109  0.4838  2.6059  2.1718
 8364SOL    HW236726   2.360   4.285   1.076  0.2210  0.0732  0.0516
 8365SOL     OW36727   4.543   3.125   3.052  0.4195 -0.1175 -0.5209
 8365SOL    HW136728   4.462   3.111   3.102  0.1615 -3.9182 -2.0387
 8365SOL    HW236729   4.508   3.196   2.998  1.6259 -1.0029 -2.4289
 8366SOL     OW36730   1.926   4.553   7.901 -0.3199  0.4619 -0.0217
 8366SOL    HW136731   1.993   4.489   7.879  0.0385 -0.0785  2.7201
 8366SOL    HW236732   1.849   4.497   7.885 -1.0133  1.3565  0.1706
 8367SOL     OW36733   2.382   0.910   0.215 -0.3308  0.5635 -0.0122
 8367SOL    HW136734   2.438   0.940   0.144 -0.2324 -2.9004 -1.3741
 8367SOL    HW236735   2.348   0.829   0.178 -1.1145  1.6423 -1.6570
 8368SOL     OW36736   0.690   1.019   3.441 -0.3403  0.4866  0.0805
 8368SOL    HW136737   0.613   1.060   3.478 -0.4751  0.8884 -0.6384
 8368SOL    HW236738   0.754   1.079   3.479 -1.0392  1.8154 -0.8761
 8369SOL     OW36739   1.017   2.017   5.390  0.1078 -0.0041 -0.0698
 8369SOL    HW136740   1.105   2.009   5.427 -0.0396  2.3408  0.7951
 8369SOL    HW236741   1.026   2.080   5.319 -2.1960 -2.2282 -2.3190
 8370SOL     OW36742   2.833   1.832   1.109 -0.1954 -0.3370  0.2319
 8370SOL    HW136743   2.922   1.861   1.089 -0.2944  1.1072  1.8407
 8370SOL    HW236744   2.774   1.902   1.081 -1.2773 -1.9372 -1.5383
 8371SOL     OW36745   1.500   1.047   7.562 -0.3123  0.3982 -0.0119
 8371SOL    HW136746   1.410   1.080   7.562 -0.7783 -0.8946 -0.0646
 8371SOL    HW236747   1.521   1.060   7.655  2.5370 -0.5904 -0.5369
 8372SOL     OW36748   2.646   1.143  10.601 -0.0468 -0.0957  0.8147
 8372SOL    HW136749   2.675   1.184  10.683 -2.3629  0.7155  1.2408
 8372SOL    HW236750   2.554   1.169  10.608 -0.2924 -0.1042 -2.7923
 8373SOL     OW36751   3.454   1.624   5.337  0.0805 -0.1359  0.0348
 8373SOL    HW136752   3.446   1.532   5.312 -1.3440  0.3140 -1.1385
 8373SOL    HW236753   3.382   1.661   5.287  0.6824  3.0838  1.5325
 8374SOL     OW36754   1.931   4.256   3.142  0.3643  0.1305 -0.4411
 8374SOL    HW136755   1.846   4.248   3.099  0.0599 -1.4560  0.4370
 8374SOL    HW236756   1.923   4.173   3.190  1.1457  0.3071 -0.0095
 8375SOL     OW36757   0.105   0.609   7.945 -0.3419  0.4323  0.2769
 8375SOL    HW136758   0.118   0.514   7.943  0.0202  0.5113 -1.0647
 8375SOL    HW236759   0.135   0.629   8.033 -0.0097  0.3149  0.1927
 8376SOL     OW36760   0.913   2.757   3.943  0.0278 -0.2829 -0.1525
 8376SOL    HW136761   0.852   2.692   3.978 -2.2936  1.3667 -1.1696
 8376SOL    HW236762   0.871   2.837   3.973  0.7353  1.2767 -3.2685
 8377SOL     OW36763   3.334   0.867   8.209  0.3491 -0.0681 -0.2898
 8377SOL    HW136764   3.363   0.832   8.293 -0.6006 -1.6329 -0.6062
 8377SOL    HW236765   3.419   0.883   8.169  0.9375  3.1424  2.2317
 8378SOL     OW36766   0.795   4.383   8.165 -0.2837  0.2680 -0.0087
 8378SOL    HW136767   0.869   4.379   8.225  0.6855 -0.2038 -1.2134
 8378SOL    HW236768   0.742   4.317   8.211 -1.7116  1.1975 -0.3280
 8379SOL     OW36769   3.417   1.801   3.240 -0.3168 -0.2840  0.0735
 8379SOL    HW136770   3.455   1.721   3.276  1.2177  0.2804 -0.2856
 8379SOL    HW236771   3.494   1.856   3.252  0.4579 -1.6366  1.2486
 8380SOL     OW36772   2.637   3.226   5.647 -0.3440  0.4176 -0.0328
 8380SOL    HW136773   2.726   3.246   5.673 -0.7296  0.6732  1.0845
 8380SOL    HW236774   2.615   3.158   5.711  0.2356  0.8682  0.6352
 8381SOL     OW36775   0.207   4.632   1.902 -0.4893 -0.3114 -0.5581
 8381SOL    HW136776   0.244   4.575   1.835 -0.9696  0.0050 -1.0876
 8381SOL    HW236777   0.114   4.615   1.890 -0.5847 -0.8045  0.9102
 8382SOL     OW36778   0.278   0.893   4.040  0.0811  0.1332  0.4781
 8382SOL    HW136779   0.279   0.917   3.947 -1.3047  0.9298  0.6762
 8382SOL    HW236780   0.258   0.800   4.026 -0.2014  0.0178  1.6552
 8383SOL     OW36781   2.949   2.554   3.496 -0.0881  0.2145  0.2348
 8383SOL    HW136782   2.967   2.528   3.406 -0.5853  2.2411 -0.4653
 8383SOL    HW236783   3.031   2.594   3.525 -0.0896  0.0095  0.5224
 8384SOL     OW36784   4.329   2.726   5.567  0.7111  0.2105 -0.6500
 8384SOL    HW136785   4.335   2.708   5.473 -0.5528  1.7231 -1.0243
 8384SOL    HW236786   4.406   2.782   5.573 -1.3555  2.8221  1.7068
 8385SOL     OW36787   4.337   0.923   2.502 -0.3784  0.9904 -0.0755
 8385SOL    HW136788   4.266   0.985   2.524  0.6564  2.1778 -0.0992
 8385SOL    HW236789   4.390   0.977   2.444  1.0266 -1.7883 -1.3815
 8386SOL     OW36790   0.609   2.706   3.779  0.1980  0.2189  0.4885
 8386SOL    HW136791   0.542   2.766   3.812 -1.0437 -1.0328  0.2578
 8386SOL    HW236792   0.570   2.622   3.803  1.0717 -0.4017 -0.2799
 8387SOL     OW36793   4.675   1.244   7.731 -0.4992  0.4484  0.6220
 8387SOL    HW136794   4.695   1.230   7.638 -1.5539 -1.3256  0.6755
 8387SOL    HW236795   4.725   1.177   7.778 -1.0088 -1.6108 -1.7952
 8388SOL     OW36796   1.671   0.742   5.215 -0.1794 -0.5790 -0.8010
 8388SOL    HW136797   1.636   0.665   5.258  1.1524 -0.8256 -0.1508
 8388SOL    HW236798   1.596   0.745   5.155 -1.0494  0.7509  0.3654
 8389SOL     OW36799   3.335   4.257   6.311 -0.6903 -0.1052 -0.1301
 8389SOL    HW136800   3.281   4.220   6.241 -1.7209 -1.9561  1.6459
 8389SOL    HW236801   3.277   4.262   6.387 -0.4879 -0.0094  0.0178
 8390SOL     OW36802   0.738   2.965   4.507 -0.0467 -0.4826  0.3009
 8390SOL    HW136803   0.653   3.006   4.526 -0.0231 -1.0490  1.6189
 8390SOL    HW236804   0.781   2.975   4.592 -0.7303 -0.8777  0.6919
 8391SOL     OW36805   0.889   4.149  13.497 -0.2410 -0.2729  0.2116
 8391SOL    HW136806   0.906   4.221  13.559  0.8397  1.2490 -1.8701
 8391SOL    HW236807   0.794   4.140  13.505 -0.3816  0.9468 -0.0514
 8392SOL     OW36808   3.551   3.911   1.174 -0.4582 -0.3553  0.2597
 8392SOL    HW136809   3.476   3.960   1.142  0.6815  0.5497 -1.0058
 8392SOL    HW236810   3.575   3.872   1.090  1.7852  0.3742  0.5732
 8393SOL     OW36811   2.046   4.185   9.034 -0.5263 -0.0755 -0.1321
 8393SOL    HW136812   2.037   4.270   8.990 -1.1046  1.2552  2.5453
 8393SOL    HW236813   2.139   4.170   9.016 -0.4184 -1.5641  1.6610
 8394SOL     OW36814   4.667   0.114  14.020 -0.1618 -0.3115 -0.0678
 8394SOL    HW136815   4.605   0.171  13.974  0.2649  2.0654  2.2484
 8394SOL    HW236816   4.715   0.178  14.073 -2.5619  1.4715 -0.0542
 8395SOL     OW36817   1.072   2.058   6.263  0.5737 -0.6126 -0.0496
 8395SOL    HW136818   1.046   2.111   6.339  2.4066 -1.5528  1.2355
 8395SOL    HW236819   1.039   1.974   6.295 -2.0014  0.1042 -0.8187
 8396SOL     OW36820   2.590   0.990   3.311 -0.4458  0.2068  0.0371
 8396SOL    HW136821   2.611   1.072   3.265  4.4127 -0.1567  1.5526
 8396SOL    HW236822   2.514   1.027   3.355 -0.1225  1.1291 -0.1673
 8397SOL     OW36823   0.686   4.651   1.589  0.4442 -0.2226 -0.6678
 8397SOL    HW136824   0.678   4.595   1.512  0.3659 -2.1798  0.7684
 8397SOL    HW236825   0.774   4.626   1.617  0.8226  0.1743 -1.4991
 8398SOL     OW36826   0.382   2.615   3.494  0.3374  0.2198 -0.2031
 8398SOL    HW136827   0.304   2.660   3.528  1.1321  0.9977  0.6010
 8398SOL    HW236828   0.362   2.629   3.402  1.4785  3.3059 -0.0047
 8399SOL     OW36829   4.156   4.128   6.752 -0.2460 -0.0618 -0.3624
 8399SOL    HW136830   4.105   4.101   6.676 -0.9459 -1.7757  0.6865
 8399SOL    HW236831   4.234   4.072   6.747  0.5115  1.1138 -1.3953
 8400SOL     OW36832   2.929   4.057   6.553 -0.2966 -0.5443 -0.1123
 8400SOL    HW136833   2.859   3.991   6.553 -0.5763 -0.2501  0.3800
 8400SOL    HW236834   3.002   4.002   6.584  0.4282 -0.0976 -1.0552
 8401SOL     OW36835   4.661   1.506   1.593  0.0234 -0.2503  0.2717
 8401SOL    HW136836   4.571   1.512   1.626  0.0099 -1.7088  0.4905
 8401SOL    HW236837   4.683   1.418   1.623 -0.5771  0.3932  2.5852
 8402SOL     OW36838   4.057   3.192   7.036  0.4699  0.3550  0.2509
 8402SOL    HW136839   4.030   3.220   7.124  1.2239 -1.2140  0.9798
 8402SOL    HW236840   4.131   3.137   7.063  1.1707  0.7073 -0.9725
 8403SOL     OW36841   2.161   0.878   6.776  0.2486  0.1265 -0.1765
 8403SOL    HW136842   2.210   0.896   6.856  0.3428  2.5592 -0.7741
 8403SOL    HW236843   2.134   0.962   6.739 -2.0764 -0.3301  0.4697
 8404SOL     OW36844   0.616   2.657  16.101 -0.0071 -0.0684 -0.0636
 8404SOL    HW136845   0.541   2.622  16.054  0.5420 -1.1292 -0.1476
 8404SOL    HW236846   0.691   2.613  16.061 -1.2596 -0.3542 -2.1145
 8405SOL     OW36847   3.739   0.846  17.135 -0.6800 -0.1606 -0.3810
 8405SOL    HW136848   3.762   0.912  17.199 -0.6930  1.0964 -1.6717
 8405SOL    HW236849   3.824   0.816  17.104 -0.0331  1.0984  0.2205
 8406SOL     OW36850   2.922   2.510   3.019 -0.0077  0.6538 -0.2689
 8406SOL    HW136851   2.848   2.548   2.972 -1.7456 -0.8952  1.2269
 8406SOL    HW236852   2.991   2.577   3.011 -0.8027  1.6382  1.0788
 8407SOL     OW36853   2.909   4.038   7.151  0.5025 -0.2337  0.8336
 8407SOL    HW136854   2.891   4.036   7.245 -1.7636 -1.9969  0.3667
 8407SOL    HW236855   2.855   3.960   7.140  1.6612 -1.0643  1.0212
 8408SOL     OW36856   2.628   4.184   3.820  0.2788 -0.3123  0.0805
 8408SOL    HW136857   2.641   4.095   3.789  1.4177 -0.0895 -0.1004
 8408SOL    HW236858   2.722   4.202   3.823  0.3789 -0.8729  0.2752
 8409SOL     OW36859   0.491   4.664   8.223  0.2625 -0.0756  0.2017
 8409SOL    HW136860   0.560   4.642   8.160 -0.9460 -0.3603 -1.0159
 8409SOL    HW236861   0.445   4.738   8.183 -0.5302 -1.0593 -0.6908
 8410SOL     OW36862   3.144   0.717   1.632 -0.4753  0.0557  0.1161
 8410SOL    HW136863   3.131   0.728   1.726 -1.1055 -0.5294  0.1014
 8410SOL    HW236864   3.094   0.636   1.623  3.0724 -2.1976  0.5511
 8411SOL     OW36865   1.905   3.756   2.177 -0.1864  0.4848 -0.0378
 8411SOL    HW136866   1.909   3.847   2.204  1.1738  0.0954  1.0489
 8411SOL    HW236867   1.847   3.719   2.243  0.2093 -2.6291 -1.3879
 8412SOL     OW36868   3.244   2.210   3.863 -0.3443  0.8430 -0.0169
 8412SOL    HW136869   3.194   2.135   3.896  0.1415  1.7376  2.7254
 8412SOL    HW236870   3.296   2.225   3.943  0.1936  0.0352 -0.2141
 8413SOL     OW36871   1.057   0.848   6.027  0.1678 -0.2289  0.0392
 8413SOL    HW136872   1.005   0.769   6.015 -1.5366  1.0602 -1.0829
 8413SOL    HW236873   1.009   0.908   5.970  0.5423 -0.2465 -0.2972
 8414SOL     OW36874   3.331   3.077   5.983  0.2578  0.3714  0.0816
 8414SOL    HW136875   3.411   3.116   5.947  0.5080 -1.4154 -1.3249
 8414SOL    HW236876   3.298   3.023   5.911  1.9941  0.3402 -0.7098
 8415SOL     OW36877   0.457   2.093  11.472 -0.2025  0.2005 -0.4298
 8415SOL    HW136878   0.391   2.102  11.541 -0.2028 -1.4474 -0.2207
 8415SOL    HW236879   0.450   1.998  11.465  1.6888  0.0355  0.0860
 8416SOL     OW36880   0.305   0.617   9.876  0.5331 -0.2469  0.2198
 8416SOL    HW136881   0.356   0.540   9.904 -2.5769 -1.0956  3.5286
 8416SOL    HW236882   0.226   0.592   9.924 -1.0023  2.3500 -0.9688
 8417SOL     OW36883   2.264   2.696   3.152 -0.0786  0.0731  0.2061
 8417SOL    HW136884   2.307   2.729   3.073 -1.1081  4.7042  1.5823
 8417SOL    HW236885   2.175   2.729   3.142 -0.4120 -1.4812 -1.9481
 8418SOL     OW36886   0.303   1.570   4.142 -0.2051  0.6422  0.3927
 8418SOL    HW136887   0.237   1.501   4.135 -1.0266  1.5850 -1.2320
 8418SOL    HW236888   0.379   1.520   4.114  0.1270  0.5060  1.5337
 8419SOL     OW36889   0.222   3.213  10.596  0.4151  0.6864 -0.1389
 8419SOL    HW136890   0.200   3.179  10.509  1.4085  2.3324 -1.0327
 8419SOL    HW236891   0.251   3.132  10.639  1.0943  0.6244 -0.7259
 8420SOL     OW36892   0.358   4.321   4.835 -0.7406  0.2398  0.0012
 8420SOL    HW136893   0.414   4.388   4.796  0.8921 -0.2272  1.5533
 8420SOL    HW236894   0.407   4.239   4.825  1.7067  1.6615  0.2773
 8421SOL     OW36895   0.152   2.717   3.008  0.2211  0.0493  0.0687
 8421SOL    HW136896   0.105   2.731   2.926 -2.5033 -1.5022  1.3584
 8421SOL    HW236897   0.180   2.801   3.044  0.6526  0.4904 -1.2856
 8422SOL     OW36898   3.266   4.595  14.378 -0.3304  0.1969 -0.0791
 8422SOL    HW136899   3.257   4.502  14.397  3.2795 -0.4804 -1.6323
 8422SOL    HW236900   3.216   4.627  14.453 -0.8870  0.7525 -0.6829
 8423SOL     OW36901   0.833   2.930  11.547  0.7328  0.5777 -0.2361
 8423SOL    HW136902   0.741   2.955  11.555 -0.3707 -2.6125 -2.9849
 8423SOL    HW236903   0.860   2.944  11.457  1.9648  0.3098  0.0890
 8424SOL     OW36904   2.480   2.285   4.170  0.6770  0.3164  0.2691
 8424SOL    HW136905   2.470   2.200   4.214 -0.2573  0.7649  0.9309
 8424SOL    HW236906   2.385   2.298   4.163  0.8669  0.8339 -1.2765
 8425SOL     OW36907   2.564   1.053   5.071  0.4230 -0.1460  0.0707
 8425SOL    HW136908   2.520   0.969   5.079  1.1466 -0.7189 -2.0738
 8425SOL    HW236909   2.488   1.108   5.050  1.1317  0.7374 -0.1762
 8426SOL     OW36910   0.495   3.116  14.070  0.5413 -0.3358 -0.4427
 8426SOL    HW136911   0.463   3.054  14.004  1.9224  0.7278 -2.1300
 8426SOL    HW236912   0.469   3.066  14.147  3.3103  0.7952  1.2198
 8427SOL     OW36913   4.221   2.955   8.609 -0.0771 -0.6819  0.0623
 8427SOL    HW136914   4.289   2.892   8.628  0.7848  1.1964  3.1798
 8427SOL    HW236915   4.280   3.029   8.621 -3.6337  2.5246 -1.8990
 8428SOL     OW36916   4.276   0.594  11.120  0.3027  0.3853 -0.2210
 8428SOL    HW136917   4.184   0.609  11.142  0.1943 -0.8224  0.1044
 8428SOL    HW236918   4.299   0.510  11.158 -1.9965 -0.1895 -0.1241
 8429SOL     OW36919   0.520   3.083   7.620  0.4062 -0.1978 -0.2436
 8429SOL    HW136920   0.440   3.127   7.593  0.2013  0.3291  1.2133
 8429SOL    HW236921   0.521   3.003   7.569  0.2794  1.0538 -2.2242
 8430SOL     OW36922   2.982   0.950   5.192 -0.2419  0.2967 -0.1467
 8430SOL    HW136923   2.949   0.948   5.282 -0.5922 -0.6369 -0.2945
 8430SOL    HW236924   2.937   1.026   5.156 -2.1847 -1.5108 -1.5510
 8431SOL     OW36925   2.648   4.433   5.428  0.2576 -0.3596  0.3742
 8431SOL    HW136926   2.595   4.422   5.507 -1.4355  1.8385 -0.4840
 8431SOL    HW236927   2.641   4.341   5.400 -1.0762 -0.3289  0.6030
 8432SOL     OW36928   1.497   0.101   0.587  0.3534 -0.5475  0.0256
 8432SOL    HW136929   1.467   0.029   0.531  1.5180 -1.5063  0.6421
 8432SOL    HW236930   1.565   0.066   0.645 -0.0907 -0.4274  0.6182
 8433SOL     OW36931   4.138   0.709  13.874 -0.6820  0.7710 -0.1137
 8433SOL    HW136932   4.062   0.712  13.931  1.1576 -0.4682  2.3791
 8433SOL    HW236933   4.115   0.778  13.811  1.8721  0.3605 -1.5254
 8434SOL     OW36934   0.755   0.449  17.444  0.3217  0.0706  0.1102
 8434SOL    HW136935   0.741   0.524  17.386  2.2696 -1.2537 -2.0767
 8434SOL    HW236936   0.780   0.377  17.386  1.0477  0.8079 -0.4895
 8435SOL     OW36937   3.562   1.770   3.587 -0.1374 -0.0771  0.0734
 8435SOL    HW136938   3.611   1.704   3.635 -1.5726 -2.2765 -1.4881
 8435SOL    HW236939   3.633   1.834   3.582 -1.7163  1.8223  1.9298
 8436SOL     OW36940   2.095   1.493   3.942 -0.0492 -0.4283  0.6986
 8436SOL    HW136941   2.005   1.516   3.919 -0.2177  0.5988  2.3619
 8436SOL    HW236942   2.128   1.434   3.874 -3.2039 -0.7865 -0.5194
 8437SOL     OW36943   2.151   1.780  17.118  0.4661 -0.0344 -0.4186
 8437SOL    HW136944   2.234   1.775  17.070  2.2298 -2.1046  2.8392
 8437SOL    HW236945   2.186   1.815  17.200 -4.1920  0.6457  1.2717
 8438SOL     OW36946   4.580   0.834   0.950 -0.1017  0.2781 -0.1081
 8438SOL    HW136947   4.486   0.850   0.952  0.1612  1.6446  1.3611
 8438SOL    HW236948   4.597   0.778   0.874 -0.1281  0.3056 -0.1346
 8439SOL     OW36949   3.887   0.534   7.890 -0.1787 -0.4105 -0.1329
 8439SOL    HW136950   3.863   0.537   7.982 -1.5318  0.3669 -0.5130
 8439SOL    HW236951   3.797   0.532   7.859  0.4213 -3.0489 -1.7470
 8440SOL     OW36952   3.357   0.678  12.489  0.0212 -0.6576 -0.0412
 8440SOL    HW136953   3.369   0.634  12.572  2.2680 -0.6686 -0.3758
 8440SOL    HW236954   3.405   0.612  12.439  0.2654 -1.1107  0.7960
 8441SOL     OW36955   3.387   1.932   8.043  0.2776  0.4179 -0.6712
 8441SOL    HW136956   3.455   1.865   8.045  0.6507  0.8445  1.7595
 8441SOL    HW236957   3.431   2.009   8.006  1.1119  0.9460  1.3498
 8442SOL     OW36958   0.654   1.748  11.683 -0.4196  0.3416  0.0527
 8442SOL    HW136959   0.666   1.789  11.768 -1.1270  0.5494  0.0545
 8442SOL    HW236960   0.595   1.676  11.706 -0.6861  0.6250  0.2665
 8443SOL     OW36961   3.882   3.410   9.067 -0.3532  0.2555 -0.9717
 8443SOL    HW136962   3.824   3.333   9.062  0.7273 -0.7462  2.2593
 8443SOL    HW236963   3.883   3.412   9.163  1.2765 -0.5187 -0.9733
 8444SOL     OW36964   2.175   4.583   4.074 -0.5423 -0.2589  0.5232
 8444SOL    HW136965   2.206   4.505   4.119  0.3395  0.8301  1.7814
 8444SOL    HW236966   2.200   4.573   3.982 -0.9892  3.2053  0.0171
 8445SOL     OW36967   2.835   2.308   5.384 -0.4379 -0.2460  0.1975
 8445SOL    HW136968   2.891   2.231   5.372  2.0124  1.8938 -2.0464
 8445SOL    HW236969   2.783   2.278   5.459 -0.0820  0.4294  0.7130
 8446SOL     OW36970   2.543   3.531  10.503  0.0204  0.3825  0.0401
 8446SOL    HW136971   2.472   3.568  10.555 -0.3641  1.7914 -1.4792
 8446SOL    HW236972   2.503   3.447  10.480 -1.2664  1.1388 -0.4760
 8447SOL     OW36973   3.486   2.033   3.042  0.2372 -0.2303 -0.0204
 8447SOL    HW136974   3.550   2.084   2.992  0.8862  2.0092  3.0581
 8447SOL    HW236975   3.534   2.014   3.123 -1.7617 -1.1088  0.9425
 8448SOL     OW36976   1.093   0.367   2.400 -0.1731 -0.1558 -0.3323
 8448SOL    HW136977   1.165   0.418   2.437  0.3646 -1.0897 -0.0760
 8448SOL    HW236978   1.023   0.388   2.460 -1.2356 -0.5946 -1.4140
 8449SOL     OW36979   3.628   1.962  11.021 -0.3357 -0.0181  0.1966
 8449SOL    HW136980   3.696   2.028  11.014  0.6603 -1.1319 -0.6744
 8449SOL    HW236981   3.592   1.969  11.109  0.2473 -0.7087  0.4863
 8450SOL     OW36982   1.094   3.913   7.991 -0.2104  0.2127  0.0812
 8450SOL    HW136983   1.064   3.894   7.902 -0.0789  1.4009 -0.2277
 8450SOL    HW236984   1.128   3.999   7.966  0.0734  0.0667 -0.0351
 8451SOL     OW36985   3.247   0.785  12.257 -0.5761  0.5582  0.6053
 8451SOL    HW136986   3.199   0.852  12.306  1.4210  1.9006  0.7086
 8451SOL    HW236987   3.311   0.762  12.324 -0.6885 -1.5185  0.0158
 8452SOL     OW36988   2.141   0.715   5.528 -0.7819 -0.1937 -0.4818
 8452SOL    HW136989   2.173   0.675   5.609 -1.7253 -0.0654 -0.0359
 8452SOL    HW236990   2.049   0.690   5.524 -0.3683 -2.1765  2.3591
 8453SOL     OW36991   4.157   3.471   2.337  0.2486 -0.0200 -0.2647
 8453SOL    HW136992   4.211   3.539   2.298  2.1562 -0.8611  0.9256
 8453SOL    HW236993   4.090   3.526   2.377  0.1587 -1.0838  1.0724
 8454SOL     OW36994   4.674   3.489   8.767  0.2201  0.0944  0.9024
 8454SOL    HW136995   4.601   3.428   8.777 -0.2841  0.4285 -0.7811
 8454SOL    HW236996   4.639   3.552   8.705  1.1640  0.6140  0.9033
 8455SOL     OW36997   2.234   4.426  15.057  0.6319  0.4140 -0.2060
 8455SOL    HW136998   2.313   4.384  15.090  0.6119 -0.0580 -0.7649
 8455SOL    HW236999   2.271   4.465  14.978  0.4756  0.1087 -0.4277
 8456SOL     OW37000   4.260   4.185   4.396 -0.6575  0.6018  0.2596
 8456SOL    HW137001   4.320   4.165   4.468 -0.1416 -1.1910 -0.6535
 8456SOL    HW237002   4.323   4.232   4.342 -0.2228  0.3208  0.5111
 8457SOL     OW37003   3.256   3.459   4.599  0.0755  0.2172 -0.0155
 8457SOL    HW137004   3.313   3.416   4.663  0.1750 -0.9662 -0.8867
 8457SOL    HW237005   3.172   3.473   4.642 -0.7542 -1.3301 -1.1468
 8458SOL     OW37006   2.850   3.196   0.631  0.3091  0.3407 -0.3870
 8458SOL    HW137007   2.892   3.117   0.664  0.8485  0.4324 -0.8515
 8458SOL    HW237008   2.866   3.186   0.537  0.8904  0.7013 -0.3244
 8459SOL     OW37009   1.336   1.915   3.884 -0.5368 -0.1194 -0.1636
 8459SOL    HW137010   1.421   1.890   3.921 -0.9060 -1.2881 -0.1227
 8459SOL    HW237011   1.337   2.008   3.908 -4.0734 -0.0614 -0.3020
 8460SOL     OW37012   0.420   1.099   9.780  0.0518  0.2513 -0.0373
 8460SOL    HW137013   0.492   1.081   9.840 -1.9517 -0.8383  2.0752
 8460SOL    HW237014   0.465   1.137   9.704 -0.7552  0.1721 -0.5573
 8461SOL     OW37015   1.699   1.699   8.507  0.5063 -0.0512  0.0372
 8461SOL    HW137016   1.731   1.718   8.419  0.0032 -0.8948 -0.3258
 8461SOL    HW237017   1.608   1.685   8.482  0.4643  0.5182 -0.1124
 8462SOL     OW37018   0.203   4.589  16.588 -0.2772 -0.0946  0.1899
 8462SOL    HW137019   0.138   4.658  16.579 -0.2374 -0.0433  0.2886
 8462SOL    HW237020   0.147   4.513  16.607 -0.7452  0.7574  2.2602
 8463SOL     OW37021   4.083   2.147  15.315  0.0826 -0.1707 -0.0541
 8463SOL    HW137022   3.997   2.105  15.325  0.3546 -0.3772  1.3925
 8463SOL    HW237023   4.054   2.213  15.252  3.0209 -1.8549 -3.1411
 8464SOL     OW37024   3.682   2.983   6.959  0.3359  0.1319  0.4134
 8464SOL    HW137025   3.648   2.958   7.045 -0.5403  0.6635  0.2206
 8464SOL    HW237026   3.704   3.075   6.978 -2.6910  1.0264 -0.3842
 8465SOL     OW37027   4.283   2.016   9.922  0.3689  0.6231 -0.5230
 8465SOL    HW137028   4.221   2.053   9.985  0.3964  0.9755 -0.7043
 8465SOL    HW237029   4.288   1.927   9.956 -0.7322  0.9147  0.4120
 8466SOL     OW37030   3.141   1.604  14.476 -0.2347 -0.2985 -0.4724
 8466SOL    HW137031   3.141   1.604  14.380  2.6625 -0.9966 -0.4699
 8466SOL    HW237032   3.076   1.539  14.502  0.3679 -0.7819 -0.1890
 8467SOL     OW37033   0.290   4.067  17.544  0.1365  0.0490  0.3373
 8467SOL    HW137034   0.325   4.082  17.456 -1.8305 -0.9532 -0.6234
 8467SOL    HW237035   0.242   4.145  17.571  0.9558  0.5421  0.3714
 8468SOL     OW37036   3.237   2.347  15.099  0.8632 -0.1713  0.1545
 8468SOL    HW137037   3.246   2.442  15.101 -0.9156  0.0741 -3.7895
 8468SOL    HW237038   3.157   2.331  15.148  0.0341  0.7638 -0.8935
 8469SOL     OW37039   4.178   4.545   1.875 -0.1727 -0.2824 -0.1385
 8469SOL    HW137040   4.203   4.478   1.811 -1.7907 -1.9466  0.9526
 8469SOL    HW237041   4.090   4.509   1.891 -0.4618  0.1842 -0.7173
 8470SOL     OW37042   2.302   4.114  14.023 -0.2010 -0.0642  0.0233
 8470SOL    HW137043   2.296   4.019  14.011  2.6057 -0.1871 -0.2246
 8470SOL    HW237044   2.365   4.130  13.952  1.0703 -1.5415  0.8311
 8471SOL     OW37045   0.271   2.127   1.432  0.0963 -0.4292  0.7748
 8471SOL    HW137046   0.272   2.133   1.527 -1.5202  3.0180  0.5525
 8471SOL    HW237047   0.211   2.055   1.410 -0.7421  0.4239  0.2688
 8472SOL     OW37048   0.285   1.728   6.696 -0.0686 -0.3465  0.3749
 8472SOL    HW137049   0.195   1.704   6.672  0.3538  0.7500 -2.4013
 8472SOL    HW237050   0.303   1.651   6.750 -0.2025 -1.1653 -0.7471
 8473SOL     OW37051   3.833   2.087   3.460 -0.1360 -0.4632 -0.2831
 8473SOL    HW137052   3.913   2.036   3.477  0.5696  0.3139 -1.2448
 8473SOL    HW237053   3.785   2.072   3.542  0.5394 -1.1302 -0.0089
 8474SOL     OW37054   3.745   4.360   7.837  0.5398 -0.1552 -0.4847
 8474SOL    HW137055   3.703   4.283   7.798  0.4775 -0.3818  0.0220
 8474SOL    HW237056   3.724   4.343   7.929  1.0828 -1.0954 -0.5320
 8475SOL     OW37057   0.235   1.525   2.647 -0.0518  0.0167  0.5842
 8475SOL    HW137058   0.306   1.527   2.583 -0.0820  0.0607  0.5521
 8475SOL    HW237059   0.270   1.544   2.734 -0.6194  0.2333  0.7689
 8476SOL     OW37060   0.680   3.314  10.930 -0.3870 -0.8551  0.3204
 8476SOL    HW137061   0.614   3.376  10.899 -0.2184 -0.9883 -0.2925
 8476SOL    HW237062   0.643   3.255  10.996 -2.9738  1.4561  0.9167
 8477SOL     OW37063   1.851   2.319  11.730  0.0683 -0.1668  0.0483
 8477SOL    HW137064   1.907   2.297  11.656  1.1070  0.4782  0.6516
 8477SOL    HW237065   1.803   2.242  11.761 -2.8522  2.0308  0.9898
 8478SOL     OW37066   1.410   0.950  14.589  0.4486  0.5961 -0.2490
 8478SOL    HW137067   1.397   0.957  14.494 -0.1698  1.0694 -0.1278
 8478SOL    HW237068   1.445   1.037  14.605  0.6867  1.0284 -3.1138
 8479SOL     OW37069   3.303   3.419   6.750  0.4154  0.1628  0.3138
 8479SOL    HW137070   3.212   3.447   6.750  0.6674  0.9653  0.6704
 8479SOL    HW237071   3.341   3.455   6.669 -1.8953 -0.5109 -1.0662
 8480SOL     OW37072   0.084   3.239   1.215  0.5381  0.1442 -0.1505
 8480SOL    HW137073   0.095   3.162   1.159  2.1158  1.6342 -1.8443
 8480SOL    HW237074   0.147   3.233   1.287  0.0236 -1.0931  0.2037
 8481SOL     OW37075   3.558   4.535  11.632  0.0422  0.3576 -0.2953
 8481SOL    HW137076   3.613   4.613  11.647  0.3055 -0.2733  1.9565
 8481SOL    HW237077   3.492   4.569  11.572  1.2804  1.6568 -0.9299
 8482SOL     OW37078   0.027   4.383  16.174  0.5928 -0.4732 -0.2894
 8482SOL    HW137079   0.044   4.476  16.161 -2.2393 -0.0103 -0.5213
 8482SOL    HW237080   4.696   4.356  16.116  1.6660 -1.6541 -1.0564
 8483SOL     OW37081   0.566   4.427  10.028 -0.0644 -0.2522  0.0463
 8483SOL    HW137082   0.647   4.477  10.037 -0.1567 -0.1347  0.2093
 8483SOL    HW237083   0.595   4.351   9.978  2.7497 -0.7426  2.3949
 8484SOL     OW37084   2.395   3.397  14.612 -0.3739  0.2986 -0.4650
 8484SOL    HW137085   2.334   3.325  14.624 -3.9920  3.3439 -0.6186
 8484SOL    HW237086   2.455   3.381  14.685  1.4149  2.3407 -1.4856
 8485SOL     OW37087   1.961   2.647   8.867  0.4666  0.2418  0.3816
 8485SOL    HW137088   1.958   2.663   8.962 -0.2808 -1.2075  0.6033
 8485SOL    HW237089   1.907   2.568   8.873 -0.2790  0.5941 -2.0137
 8486SOL     OW37090   2.588   4.629   1.617  0.0185 -0.7975 -0.0732
 8486SOL    HW137091   2.636   4.589   1.544  1.2174 -2.0769  1.4129
 8486SOL    HW237092   2.501   4.658   1.590  1.2159 -0.3924 -3.4830
 8487SOL     OW37093   2.644   3.834   4.204  0.3560  0.6893 -0.6180
 8487SOL    HW137094   2.709   3.765   4.216  0.4216  0.8003 -0.3487
 8487SOL    HW237095   2.709   3.904   4.205  0.7500  0.3449 -2.1696
 8488SOL     OW37096   2.173   2.732   7.899 -0.4658 -0.3758  0.7663
 8488SOL    HW137097   2.159   2.825   7.886 -0.9800 -0.6649 -0.8545
 8488SOL    HW237098   2.128   2.725   7.983  1.3265 -2.1597  1.5710
 8489SOL     OW37099   4.410   0.591  10.879  0.9768  0.1835 -0.4447
 8489SOL    HW137100   4.351   0.604  10.954  0.6831  0.4916 -0.7294
 8489SOL    HW237101   4.496   0.578  10.919  0.0505 -0.8384  1.2265
 8490SOL     OW37102   2.966   3.850   5.517  0.2854  0.1401 -0.5392
 8490SOL    HW137103   2.878   3.823   5.489  1.1964 -3.3980  0.0751
 8490SOL    HW237104   3.024   3.786   5.477 -0.8074  0.0653 -1.9917
 8491SOL     OW37105   1.216   1.993   2.125 -0.3673  0.4659 -0.2060
 8491SOL    HW137106   1.243   1.933   2.194  1.9034 -1.4844 -2.8111
 8491SOL    HW237107   1.122   1.991   2.144 -0.9572 -2.7536 -3.4727
 8492SOL     OW37108   0.334   1.137   8.383  0.0501 -0.5576 -0.3195
 8492SOL    HW137109   0.278   1.157   8.308 -1.8229  1.7429  1.7100
 8492SOL    HW237110   0.416   1.176   8.351 -0.1003 -1.4520 -1.7942
 8493SOL     OW37111   2.178   0.859   4.962 -0.3028 -0.2979 -0.7616
 8493SOL    HW137112   2.253   0.831   5.014  0.1471  1.8765 -0.2568
 8493SOL    HW237113   2.101   0.854   5.018  1.8607  3.1953  2.4879
 8494SOL     OW37114   0.979   0.718   7.074  0.2533 -0.4970  0.1049
 8494SOL    HW137115   0.990   0.625   7.054  1.5722 -0.0611 -1.2288
 8494SOL    HW237116   0.942   0.752   6.992 -1.1355 -1.2935  0.4091
 8495SOL     OW37117   4.116   2.840   4.618  0.6393  0.0456  0.0678
 8495SOL    HW137118   4.171   2.762   4.614 -1.8030 -1.5615 -2.6610
 8495SOL    HW237119   4.027   2.809   4.599 -0.5454  2.2908  1.9199
 8496SOL     OW37120   4.168   1.996   2.989 -0.0265  0.4202 -0.4596
 8496SOL    HW137121   4.082   2.037   2.997  0.0872  0.4015  0.7996
 8496SOL    HW237122   4.227   2.060   3.029 -0.2695 -1.1402  2.3726
 8497SOL     OW37123   3.892   0.844   7.995  0.1280  0.1683  1.1059
 8497SOL    HW137124   3.837   0.778   8.039 -1.6009 -0.5958 -2.2556
 8497SOL    HW237125   3.838   0.923   8.000 -0.8497 -0.5425  1.7814
 8498SOL     OW37126   1.670   2.767   0.539 -0.6385 -0.3400  0.6903
 8498SOL    HW137127   1.719   2.746   0.617 -2.7215 -0.7020  1.9068
 8498SOL    HW237128   1.585   2.759   0.582 -1.1898 -3.2347 -0.9460
 8499SOL     OW37129   3.598   4.310   4.290 -0.0499 -0.0649  0.1624
 8499SOL    HW137130   3.517   4.260   4.297 -0.1930 -0.1774 -2.4220
 8499SOL    HW237131   3.564   4.384   4.241  0.8667  0.1422 -0.1607
 8500SOL     OW37132   0.315   2.028   5.719  0.3404  0.2438  0.3825
 8500SOL    HW137133   0.305   2.075   5.636 -0.5241 -1.3796 -0.4234
 8500SOL    HW237134   0.356   1.948   5.685 -0.0986 -0.1461  0.7663
 8501SOL     OW37135   2.739   1.917   4.717  0.5450 -0.1567 -0.0486
 8501SOL    HW137136   2.813   1.924   4.776 -0.5599  3.9364  0.8634
 8501SOL    HW237137   2.668   1.888   4.775  0.0346  0.0771 -0.5541
 8502SOL     OW37138   2.939   0.924  16.247  0.4118  0.0905 -0.5994
 8502SOL    HW137139   3.022   0.937  16.200  0.3863 -0.4529 -0.7970
 8502SOL    HW237140   2.888   0.873  16.184  0.2010 -3.5299  2.5365
 8503SOL     OW37141   3.491   2.407   1.724  0.4363  0.1096  0.1622
 8503SOL    HW137142   3.409   2.396   1.772  0.4835 -0.4163  0.1159
 8503SOL    HW237143   3.459   2.492   1.694 -1.9396 -0.0825  2.1668
 8504SOL     OW37144   0.077   0.195   9.423 -0.0520  0.1026  0.2060
 8504SOL    HW137145   0.145   0.170   9.360 -0.9200  1.2132 -1.1834
 8504SOL    HW237146   0.127   0.192   9.504 -0.4853  1.9312  0.5538
 8505SOL     OW37147   4.252   1.712   1.252  0.3630  0.3762  0.0576
 8505SOL    HW137148   4.261   1.780   1.186  1.2212 -0.0723 -0.2898
 8505SOL    HW237149   4.343   1.692   1.274  0.2061 -0.7565 -0.3042
 8506SOL     OW37150   1.120   2.846   1.152  0.0004 -0.3519  0.3747
 8506SOL    HW137151   1.203   2.823   1.194  1.5183 -0.7402 -2.8586
 8506SOL    HW237152   1.150   2.845   1.061 -0.7913  0.7870  0.1024
 8507SOL     OW37153   1.235   1.447   6.788 -0.0885 -0.4850 -0.6327
 8507SOL    HW137154   1.175   1.441   6.863 -1.6795 -0.4749 -1.9130
 8507SOL    HW237155   1.278   1.531   6.804 -3.1687  1.0376 -0.3129
 8508SOL     OW37156   2.079   2.349  13.181 -0.5292  0.0133  0.4555
 8508SOL    HW137157   2.082   2.432  13.133 -1.3555  0.4279  1.1165
 8508SOL    HW237158   2.033   2.378  13.260  0.7646  2.1155  0.4367
 8509SOL     OW37159   4.037   2.075   8.580 -0.1829 -0.2241 -0.0942
 8509SOL    HW137160   3.975   2.004   8.595  0.2053 -0.5013  0.2080
 8509SOL    HW237161   4.120   2.029   8.571 -0.6288 -0.8084 -1.3026
 8510SOL     OW37162   3.402   2.904   3.490  0.5607  0.6017  0.5035
 8510SOL    HW137163   3.467   2.931   3.425  0.5758  0.2972  0.3932
 8510SOL    HW237164   3.328   2.962   3.472  0.8823  0.2474 -1.9799
 8511SOL     OW37165   2.834   0.043  11.801  0.1070  0.2454 -0.0759
 8511SOL    HW137166   2.835   4.711  11.738  0.7211 -0.7889  1.1053
 8511SOL    HW237167   2.745   0.033  11.834  0.3539  1.1760  0.8548
 8512SOL     OW37168   2.762   2.923   5.729  0.5754 -0.3908 -0.7997
 8512SOL    HW137169   2.725   2.893   5.812 -0.3754 -2.9207 -2.1317
 8512SOL    HW237170   2.791   3.012   5.751 -0.1701 -0.3418 -0.0050
 8513SOL     OW37171   3.654   4.579   4.731  0.1082 -0.3890  0.6801
 8513SOL    HW137172   3.708   4.529   4.670 -0.8873  0.1548 -0.6444
 8513SOL    HW237173   3.600   4.511   4.772 -0.2730 -0.0983  0.6538
 8514SOL     OW37174   1.935   0.223   3.847 -0.0143  0.0270 -0.1529
 8514SOL    HW137175   1.929   0.130   3.871  0.7607  0.1108  0.3626
 8514SOL    HW237176   1.923   0.207   3.754 -2.5346  0.3016  0.1097
 8515SOL     OW37177   3.566   3.813  15.267  0.0112  0.4490  0.0806
 8515SOL    HW137178   3.575   3.754  15.192 -1.4549 -0.6102  0.7419
 8515SOL    HW237179   3.598   3.894  15.228  3.0516 -1.1937 -0.8547
 8516SOL     OW37180   1.744   0.203   7.898  0.5891 -0.3488  0.5347
 8516SOL    HW137181   1.838   0.185   7.896  0.9216  1.4793  0.0406
 8516SOL    HW237182   1.720   0.192   7.990 -1.0857  1.7383  0.3314
 8517SOL     OW37183   0.408   3.576  16.030 -0.0893  0.1680 -0.0586
 8517SOL    HW137184   0.418   3.625  16.112 -0.9951  1.4596 -0.7107
 8517SOL    HW237185   0.379   3.493  16.067 -0.5478  1.0239  1.5236
 8518SOL     OW37186   0.136   3.035   3.810  0.0386  0.1234 -0.5111
 8518SOL    HW137187   0.078   2.959   3.807 -2.9559  2.2418  3.8070
 8518SOL    HW237188   0.172   3.033   3.899  1.1600  0.0057 -0.9625
 8519SOL     OW37189   2.350   3.635  15.870  0.5350 -0.1199 -0.6899
 8519SOL    HW137190   2.420   3.627  15.805  1.4795  0.1753  0.2888
 8519SOL    HW237191   2.276   3.642  15.810  0.3012  1.2615 -0.2138
 8520SOL     OW37192   2.007   0.262   4.155  0.1688 -0.3872  0.0513
 8520SOL    HW137193   2.059   0.340   4.134  0.2856  0.0002  1.7563
 8520SOL    HW237194   2.030   0.214   4.076 -2.0816 -2.5727  0.7467
 8521SOL     OW37195   4.174   2.222   3.760 -0.0167 -0.1127 -0.0674
 8521SOL    HW137196   4.116   2.241   3.834  0.4695 -1.9842  0.7892
 8521SOL    HW237197   4.253   2.236   3.813 -0.6040 -1.4631  1.1540
 8522SOL     OW37198   3.596   1.645  13.359  0.1855  0.6130  0.3794
 8522SOL    HW137199   3.648   1.590  13.300  0.2892  0.9921  0.1175
 8522SOL    HW237200   3.515   1.596  13.342 -0.8443  2.8684 -1.2829
 8523SOL     OW37201   2.092   4.511   2.860 -0.0847  0.0860  0.0119
 8523SOL    HW137202   1.998   4.523   2.845  0.1138 -0.5643 -1.6820
 8523SOL    HW237203   2.084   4.498   2.955  1.9222 -0.4365  0.1054
 8524SOL     OW37204   1.379   3.841   5.575 -0.2569  0.2556  0.2597
 8524SOL    HW137205   1.395   3.895   5.651  2.8331  1.3729 -1.1809
 8524SOL    HW237206   1.467   3.821   5.542 -0.5837 -1.7016  0.5550
 8525SOL     OW37207   1.477   4.330   2.344 -0.3164 -0.2266 -0.1370
 8525SOL    HW137208   1.465   4.377   2.261  1.9899 -0.6289 -0.7096
 8525SOL    HW237209   1.416   4.381   2.397  1.0494  2.2634 -0.9130
 8526SOL     OW37210   2.825   0.365   3.006  0.0995  0.3258 -0.5715
 8526SOL    HW137211   2.851   0.404   2.923  4.0309  2.3241  1.5813
 8526SOL    HW237212   2.806   0.443   3.058  3.8446  0.1834  1.0183
 8527SOL     OW37213   2.759   0.453   3.358 -0.1199 -0.2129  0.3042
 8527SOL    HW137214   2.761   0.375   3.413  0.9254 -0.3979  0.0009
 8527SOL    HW237215   2.686   0.448   3.297 -0.3210  0.9153  0.4486
 8528SOL     OW37216   1.318   0.053  16.911 -0.8233  0.7271 -0.3281
 8528SOL    HW137217   1.407   0.064  16.945 -0.2598  2.4651 -2.3972
 8528SOL    HW237218   1.314   0.124  16.847  0.9551  0.1299 -1.0914
 8529SOL     OW37219   3.725   3.844   7.315 -0.3664 -0.0154 -0.8064
 8529SOL    HW137220   3.636   3.864   7.284  0.3503  1.4279 -1.9099
 8529SOL    HW237221   3.753   3.926   7.355  0.1420 -2.8671  4.7070
 8530SOL     OW37222   3.108   2.079  12.650 -0.5907  0.3770  0.0896
 8530SOL    HW137223   3.049   2.154  12.659 -0.6106  0.2498  0.9886
 8530SOL    HW237224   3.056   2.012  12.605 -2.9427  0.5020  2.6587
 8531SOL     OW37225   1.236   0.190   6.840 -0.3453 -0.2029  0.4366
 8531SOL    HW137226   1.279   0.187   6.755 -1.6982 -1.7844 -0.1903
 8531SOL    HW237227   1.256   0.281   6.860 -1.3274  0.1500 -0.2084
 8532SOL     OW37228   4.007   2.519   0.648  0.0141 -0.4577 -0.5851
 8532SOL    HW137229   4.095   2.495   0.620 -0.2680 -2.2532  0.0661
 8532SOL    HW237230   3.955   2.490   0.574 -0.5686  1.4113 -0.9230
 8533SOL     OW37231   2.559   0.874   7.510 -0.6262 -0.6405  0.1776
 8533SOL    HW137232   2.534   0.781   7.505 -0.5357 -0.5406 -2.1069
 8533SOL    HW237233   2.479   0.919   7.536 -0.9681 -1.4021  0.4552
 8534SOL     OW37234   0.903   4.208   6.913 -0.4324 -0.1475  0.2840
 8534SOL    HW137235   0.922   4.228   7.004 -0.9811  1.4232  0.0664
 8534SOL    HW237236   0.862   4.122   6.922  2.0606 -1.3140  0.3275
 8535SOL     OW37237   1.162   4.275   4.378 -0.4435  0.0832 -0.2821
 8535SOL    HW137238   1.095   4.243   4.317  0.2222  0.4319 -1.2090
 8535SOL    HW237239   1.116   4.285   4.461  1.4280  1.5134  0.5869
 8536SOL     OW37240   2.954   3.050   8.921  0.1685  0.2671  0.2632
 8536SOL    HW137241   2.961   3.020   9.011 -1.1115 -1.2512 -0.1321
 8536SOL    HW237242   2.905   2.974   8.887  1.5366  0.2812 -1.7800
 8537SOL     OW37243   4.190   0.857  17.013  0.3207  0.7641 -0.4989
 8537SOL    HW137244   4.163   0.902  17.093  1.7918 -1.5387  1.2956
 8537SOL    HW237245   4.189   0.764  17.032 -0.4428  0.4473 -2.0891
 8538SOL     OW37246   2.245   4.564   3.476  0.9471 -0.0325  0.2631
 8538SOL    HW137247   2.281   4.485   3.437 -2.3082 -1.2848 -0.2462
 8538SOL    HW237248   2.280   4.575   3.564 -0.7692  0.8463  0.8433
 8539SOL     OW37249   1.693   0.874  16.969 -0.2549 -0.1295  0.1976
 8539SOL    HW137250   1.645   0.873  17.052 -0.3328 -0.7454  0.1447
 8539SOL    HW237251   1.656   0.797  16.926 -0.0042 -0.1956  0.1047
 8540SOL     OW37252   3.227   3.833   9.293 -0.3464  0.2954 -0.4847
 8540SOL    HW137253   3.147   3.780   9.300 -0.3555  0.4702  0.6985
 8540SOL    HW237254   3.275   3.780   9.229  1.6444  1.6083 -0.0706
 8541SOL     OW37255   1.116   2.248   3.276  0.0101  0.2321 -0.0667
 8541SOL    HW137256   1.194   2.247   3.221  1.0098  0.0287  1.3537
 8541SOL    HW237257   1.146   2.208   3.358 -0.0553 -0.7921 -0.5380
 8542SOL     OW37258   0.023   2.799   7.549 -0.1501  0.3330 -0.4116
 8542SOL    HW137259   0.086   2.866   7.521  0.6334 -0.5924 -0.8746
 8542SOL    HW237260   0.058   2.729   7.493  0.4997  1.3999 -1.3244
 8543SOL     OW37261   1.779   3.981   9.188 -0.0823 -0.0259 -0.2576
 8543SOL    HW137262   1.843   3.977   9.258  0.0413  0.4409 -0.3449
 8543SOL    HW237263   1.723   4.038   9.241 -0.6350 -0.1078 -0.7413
 8544SOL     OW37264   1.150   4.435   6.220  0.0127 -0.6526  0.5068
 8544SOL    HW137265   1.239   4.464   6.200 -0.0887 -1.1688 -0.6682
 8544SOL    HW237266   1.160   4.405   6.310  0.7543  0.6995  0.8715
 8545SOL     OW37267   2.394   4.144  11.330  0.2143 -0.2534  0.0781
 8545SOL    HW137268   2.457   4.202  11.288 -2.2871  0.9319 -2.0674
 8545SOL    HW237269   2.317   4.180  11.285 -0.3758  1.3713  2.3231
 8546SOL     OW37270   3.737   4.703   2.603 -0.2288  0.1982 -0.0928
 8546SOL    HW137271   3.718   4.668   2.516  1.7440 -0.4130 -0.2857
 8546SOL    HW237272   3.728   4.623   2.655 -0.2890  0.3170  0.0794
 8547SOL     OW37273   3.298   1.096  16.826  0.0254  0.5438 -0.0891
 8547SOL    HW137274   3.273   1.164  16.764 -1.8321  0.5106  0.6378
 8547SOL    HW237275   3.263   1.022  16.775  1.0138 -1.0750  1.5730
 8548SOL     OW37276   1.400   4.484   7.215 -0.2117  0.0739  0.5139
 8548SOL    HW137277   1.426   4.446   7.299 -1.1145 -0.0026  0.7536
 8548SOL    HW237278   1.490   4.501   7.185 -1.1630  2.4919 -0.9600
 8549SOL     OW37279   0.434   1.307   4.747  0.0387 -0.5703  0.0873
 8549SOL    HW137280   0.419   1.386   4.695  0.9114 -0.5419 -0.1136
 8549SOL    HW237281   0.383   1.327   4.826 -1.1433 -0.7810 -0.6225
 8550SOL     OW37282   3.394   1.940   7.568  0.5215  0.5469  0.2965
 8550SOL    HW137283   3.336   1.946   7.644  1.0305  0.3260  0.7022
 8550SOL    HW237284   3.477   1.956   7.613  0.1128 -0.3582  1.3818
 8551SOL     OW37285   0.148   2.909  16.139 -0.3852 -0.4483 -0.4028
 8551SOL    HW137286   0.070   2.916  16.194 -0.4631 -2.9702 -0.1988
 8551SOL    HW237287   0.198   2.988  16.159  0.0014 -0.6990 -0.3619
 8552SOL     OW37288   3.643   2.412  10.085 -0.4350 -0.0514  0.5623
 8552SOL    HW137289   3.557   2.454  10.079  0.7705  2.4563  0.8714
 8552SOL    HW237290   3.673   2.415   9.994 -0.2333 -0.1659  0.6239
 8553SOL     OW37291   2.388   0.996   4.758  0.5253  0.7219 -0.8346
 8553SOL    HW137292   2.322   1.006   4.827  0.1420 -1.0667 -0.9351
 8553SOL    HW237293   2.370   0.903   4.742  0.4448  0.6328 -0.2221
 8554SOL     OW37294   2.691   0.238  15.082  0.9389 -0.0383  0.0931
 8554SOL    HW137295   2.663   0.321  15.042 -0.4013 -0.3118  0.4643
 8554SOL    HW237296   2.716   0.195  15.000  0.2779  1.1126 -0.7284
 8555SOL     OW37297   3.137   3.967   7.025 -0.1014 -0.0217 -0.2944
 8555SOL    HW137298   3.063   3.971   7.086 -0.8020  0.0880 -1.1557
 8555SOL    HW237299   3.162   4.058   7.008  1.7644 -0.7009 -1.2042
 8556SOL     OW37300   0.683   4.174   8.299 -0.9227 -1.0459 -0.0165
 8556SOL    HW137301   0.688   4.152   8.392 -0.3278 -0.7626  0.0196
 8556SOL    HW237302   0.743   4.115   8.254 -0.3565  0.4464 -1.2489
 8557SOL     OW37303   4.269   3.930  13.766  0.4564 -0.0538  0.3581
 8557SOL    HW137304   4.306   3.913  13.853 -0.0425 -0.8544  0.4100
 8557SOL    HW237305   4.191   3.875  13.772 -1.8286  3.3806  2.5008
 8558SOL     OW37306   2.799   2.413   3.263 -0.1751 -0.1590  0.0195
 8558SOL    HW137307   2.895   2.415   3.255 -0.2205 -1.3244 -0.7884
 8558SOL    HW237308   2.785   2.465   3.184 -1.4902  2.1952  1.7854
 8559SOL     OW37309   2.827   4.551   3.860 -0.2118 -0.4624 -0.3691
 8559SOL    HW137310   2.737   4.556   3.893  0.7692  0.2335  2.1402
 8559SOL    HW237311   2.834   4.470   3.810  2.1777 -0.4676 -0.0201
 8560SOL     OW37312   4.732   4.239   2.028  0.1866  0.1752  0.0664
 8560SOL    HW137313   4.739   4.330   2.056 -0.0413 -0.1128  1.0626
 8560SOL    HW237314   0.081   4.229   1.993 -0.2104 -1.0273 -0.6073
 8561SOL     OW37315   1.135   0.158   0.581  0.5208  0.0324  0.1987
 8561SOL    HW137316   1.101   0.218   0.648  1.6298  0.8045  0.0687
 8561SOL    HW237317   1.202   0.217   0.547 -0.7091  1.8960  0.9603
 8562SOL     OW37318   4.104   2.915   7.912 -0.0809  0.0419  0.6619
 8562SOL    HW137319   4.185   2.966   7.905 -0.1359  0.2831  1.8207
 8562SOL    HW237320   4.049   2.963   7.849 -0.6246  0.7134  1.6409
 8563SOL     OW37321   2.417   2.434   1.136  0.4399  0.2019  0.2836
 8563SOL    HW137322   2.477   2.392   1.075 -0.4163  1.9250 -1.7552
 8563SOL    HW237323   2.441   2.526   1.123 -0.7546  0.8322  2.5003
 8564SOL     OW37324   2.877   1.845   3.513 -0.3104 -0.6582 -0.2221
 8564SOL    HW137325   2.794   1.846   3.561  0.5966  0.5372  1.3390
 8564SOL    HW237326   2.895   1.751   3.515  2.8623 -0.0277  1.3562
 8565SOL     OW37327   1.245   2.803   6.159  0.2853  0.3083  0.1452
 8565SOL    HW137328   1.155   2.837   6.163  0.4198  0.6798  0.0142
 8565SOL    HW237329   1.275   2.836   6.074  0.2468 -0.5233 -0.1865
 8566SOL     OW37330   0.700   4.272   3.041 -0.2481 -0.3906 -0.2203
 8566SOL    HW137331   0.702   4.295   2.948  1.0433  1.3924  0.2494
 8566SOL    HW237332   0.766   4.337   3.066  0.5962 -0.9427 -0.9836
 8567SOL     OW37333   1.619   4.005  16.767  0.5295  0.1642 -0.0534
 8567SOL    HW137334   1.551   4.070  16.785 -1.6308 -2.4206  1.1069
 8567SOL    HW237335   1.626   4.004  16.671 -0.2029 -1.7794 -0.0830
 8568SOL     OW37336   3.830   2.833  16.529  0.0828  0.1570  0.2286
 8568SOL    HW137337   3.819   2.806  16.438  2.1448  0.6519 -0.1725
 8568SOL    HW237338   3.754   2.888  16.548 -0.6160 -0.7613  0.1065
 8569SOL     OW37339   2.599   2.817   5.304 -1.0047 -0.5879 -0.8076
 8569SOL    HW137340   2.580   2.747   5.241 -0.3574 -1.1810 -0.3459
 8569SOL    HW237341   2.636   2.764   5.375  0.8959  1.5965 -0.1876
 8570SOL     OW37342   2.672   2.599   2.407  0.3017  0.2969  0.2646
 8570SOL    HW137343   2.692   2.649   2.328 -0.1111 -4.0605 -2.5411
 8570SOL    HW237344   2.640   2.672   2.461  3.8768  1.1472  1.2057
 8571SOL     OW37345   1.978   0.315  10.975  0.1023  0.0705  0.2301
 8571SOL    HW137346   1.949   0.407  10.975 -0.7511 -0.2003 -0.0147
 8571SOL    HW237347   1.951   0.298  11.065 -1.3650 -0.2888 -0.2759
 8572SOL     OW37348   0.882   0.962   9.192 -0.5094  0.1526 -0.4003
 8572SOL    HW137349   0.796   0.930   9.218  0.5630 -1.6497  1.0015
 8572SOL    HW237350   0.905   0.903   9.119  1.7548 -0.4553  0.7914
 8573SOL     OW37351   3.676   0.914  10.701 -0.0894 -0.0404  0.8624
 8573SOL    HW137352   3.762   0.888  10.735  0.9929  1.8674 -0.4071
 8573SOL    HW237353   3.623   0.917  10.780 -2.4738  1.2253 -0.7644
 8574SOL     OW37354   2.530   3.019   6.286 -0.3782 -0.8995  0.3528
 8574SOL    HW137355   2.473   2.943   6.296 -2.5153  0.9040  1.9583
 8574SOL    HW237356   2.603   3.011   6.347 -0.5486 -1.9630  0.4026
 8575SOL     OW37357   3.273   4.725   1.869 -0.0360  0.4456 -0.4659
 8575SOL    HW137358   3.187   4.688   1.853  0.0313 -0.0728  0.3211
 8575SOL    HW237359   3.281   0.045   1.795 -2.6299  1.0624 -0.2526
 8576SOL     OW37360   4.512   4.153   9.238 -0.7370 -0.0604  0.7603
 8576SOL    HW137361   4.593   4.103   9.226 -0.1530  0.9780  0.3732
 8576SOL    HW237362   4.453   4.080   9.259  1.2581 -1.3089  2.0739
 8577SOL     OW37363   4.541   3.223   1.195 -0.2311 -0.3027  0.2645
 8577SOL    HW137364   4.635   3.233   1.212 -0.1035  0.7706 -1.0976
 8577SOL    HW237365   4.509   3.179   1.274 -1.6235 -1.4872 -0.9712
 8578SOL     OW37366   2.842   1.864   2.019 -0.1769 -0.1979 -0.3266
 8578SOL    HW137367   2.782   1.791   2.004 -0.5513  0.4708 -2.1486
 8578SOL    HW237368   2.909   1.824   2.073 -0.2781 -0.1113 -0.1337
 8579SOL     OW37369   1.208   3.534   3.331 -0.4302  0.4557  0.1912
 8579SOL    HW137370   1.279   3.478   3.364  0.9680  1.7489 -0.6422
 8579SOL    HW237371   1.147   3.462   3.316  0.9027 -0.9714  1.6082
 8580SOL     OW37372   2.747   3.830   6.536  0.1120  0.2733  0.6853
 8580SOL    HW137373   2.741   3.749   6.486 -1.0031 -0.6266  2.2621
 8580SOL    HW237374   2.761   3.790   6.622  2.5972 -1.4862 -0.5454
 8581SOL     OW37375   3.297   0.506  12.928  0.4514  0.4329 -0.1170
 8581SOL    HW137376   3.357   0.559  12.979  0.7690  2.1255 -2.2558
 8581SOL    HW237377   3.342   0.516  12.844 -0.6506  2.4271 -0.4592
 8582SOL     OW37378   2.490   3.882   4.817 -0.3482  0.6020 -0.3197
 8582SOL    HW137379   2.558   3.819   4.793 -1.4183 -0.6107 -0.1979
 8582SOL    HW237380   2.499   3.905   4.909 -0.4967  0.9329 -0.3904
 8583SOL     OW37381   1.558   0.331   6.084 -0.0899  1.1223  0.2036
 8583SOL    HW137382   1.628   0.266   6.094 -2.0747 -1.0908 -0.3301
 8583SOL    HW237383   1.476   0.289   6.109  0.1059  1.2586  1.0691
 8584SOL     OW37384   4.213   2.090  12.371 -0.0672  0.8301 -0.3806
 8584SOL    HW137385   4.206   1.999  12.341  1.9870  0.7622 -0.6242
 8584SOL    HW237386   4.238   2.074  12.462  1.0126 -0.5797 -0.9260
 8585SOL     OW37387   0.239   2.146   4.471  0.5468  0.1431 -0.0104
 8585SOL    HW137388   0.206   2.229   4.506  0.7327  0.3274 -0.2724
 8585SOL    HW237389   0.263   2.099   4.551 -0.8583  1.1752  1.0218
 8586SOL     OW37390   0.553   0.481  16.883  0.1490 -0.2085 -0.2087
 8586SOL    HW137391   0.519   0.395  16.860 -0.3870 -0.6808  2.3079
 8586SOL    HW237392   0.510   0.547  16.829 -0.3432  1.1466  1.8541
 8587SOL     OW37393   4.631   3.874   4.956 -0.4641  0.5410 -0.0693
 8587SOL    HW137394   4.707   3.923   4.987  0.0499  0.0130 -0.4980
 8587SOL    HW237395   4.596   3.840   5.039 -0.1098 -1.4229 -0.7167
 8588SOL     OW37396   4.364   3.988   7.183 -0.8372  1.1053  0.2027
 8588SOL    HW137397   4.443   4.030   7.149 -0.7330 -1.1381 -2.3728
 8588SOL    HW237398   4.301   4.031   7.124 -0.2592  2.0994  0.3103
 8589SOL     OW37399   2.101   3.079   6.713  0.7267  0.1601 -0.0417
 8589SOL    HW137400   2.061   3.149   6.661 -3.1646 -0.4642  2.1578
 8589SOL    HW237401   2.148   3.130   6.779 -1.3123 -0.7257  2.0836
 8590SOL     OW37402   0.656   4.344   6.147  0.1748 -0.2901  0.0570
 8590SOL    HW137403   0.737   4.344   6.198 -0.7481  1.6438  1.5091
 8590SOL    HW237404   0.684   4.403   6.076  0.0480 -0.3100 -0.0100
 8591SOL     OW37405   1.270   0.905   6.185 -0.7144  0.2933 -0.1325
 8591SOL    HW137406   1.184   0.905   6.142 -0.4328  1.2549 -0.7002
 8591SOL    HW237407   1.335   0.881   6.118  0.7030 -0.2801  1.4554
 8592SOL     OW37408   4.181   3.473   4.575 -0.4681 -0.2909  0.5548
 8592SOL    HW137409   4.174   3.494   4.482 -1.3662 -0.5992  0.5554
 8592SOL    HW237410   4.243   3.399   4.576  0.6455  0.6206 -0.6564
 8593SOL     OW37411   2.200   3.594   6.542  0.1350  0.0809 -0.6085
 8593SOL    HW137412   2.295   3.598   6.534 -0.0223 -0.1277 -2.7596
 8593SOL    HW237413   2.196   3.499   6.538 -0.0367  0.0749 -0.3030
 8594SOL     OW37414   2.073   3.592  14.945  1.0588  0.2772  0.0005
 8594SOL    HW137415   2.160   3.630  14.934  1.7440 -0.1255  3.8636
 8594SOL    HW237416   2.046   3.621  15.032 -1.7541  2.4228 -1.5760
 8595SOL     OW37417   0.976   0.463   5.701 -0.1559 -0.1503 -0.0919
 8595SOL    HW137418   0.964   0.558   5.700  0.1982 -0.1251 -1.3312
 8595SOL    HW237419   1.072   0.464   5.702 -0.1688  2.5208 -2.3455
 8596SOL     OW37420   2.120   0.272   5.807  0.3880 -0.0870  0.2583
 8596SOL    HW137421   2.101   0.302   5.896  1.0685  0.1005  0.3368
 8596SOL    HW237422   2.194   0.217   5.829  0.0874 -0.4095  0.4586
 8597SOL     OW37423   4.079   3.917   3.620  0.1151  0.2102 -0.2927
 8597SOL    HW137424   4.144   3.876   3.563  0.0689  0.3907 -0.4754
 8597SOL    HW237425   4.004   3.933   3.563 -2.4425 -0.7821  2.7993
 8598SOL     OW37426   4.209   3.147   9.095 -0.0481 -0.4127  0.3779
 8598SOL    HW137427   4.177   3.210   9.159 -0.6638 -0.0004 -0.3346
 8598SOL    HW237428   4.264   3.207   9.045 -3.1050  0.5458 -1.8432
 8599SOL     OW37429   0.239   0.848   6.401  0.2235 -0.4659  0.3394
 8599SOL    HW137430   0.221   0.814   6.489 -0.5207  1.5581  0.9941
 8599SOL    HW237431   0.153   0.835   6.361  1.1714 -1.4842 -1.3425
 8600SOL     OW37432   1.503   3.451   6.926 -0.2960  0.2226 -0.3975
 8600SOL    HW137433   1.446   3.402   6.867  0.0807 -0.5222 -0.1489
 8600SOL    HW237434   1.439   3.513   6.961  1.5238  0.1696  3.1028
 8601SOL     OW37435   4.178   0.182  15.732 -0.4944 -0.0607  0.2535
 8601SOL    HW137436   4.111   0.251  15.736  0.0706  0.4712  0.4403
 8601SOL    HW237437   4.251   0.216  15.783  0.2778  0.7948 -1.4408
 8602SOL     OW37438   0.959   2.628   4.767  0.0498  0.1516  0.2558
 8602SOL    HW137439   0.903   2.553   4.789 -1.0168  0.3678 -1.7541
 8602SOL    HW237440   0.907   2.695   4.811 -0.2360  0.1464 -0.0746
 8603SOL     OW37441   0.961   0.126   9.225  0.3729  0.2369 -0.9310
 8603SOL    HW137442   0.986   0.212   9.192 -0.2717  1.5294  1.9493
 8603SOL    HW237443   1.045   0.080   9.236 -0.3695 -0.7565  0.5915
 8604SOL     OW37444   0.320   3.199   7.490 -0.8430  0.6110  0.0499
 8604SOL    HW137445   0.241   3.220   7.540 -1.2223  2.2739 -1.2470
 8604SOL    HW237446   0.296   3.260   7.420 -0.8545  1.9228  1.1850
 8605SOL     OW37447   3.250   2.187   9.273  0.0378 -0.6052 -0.1986
 8605SOL    HW137448   3.342   2.177   9.299  0.5900 -1.5077 -2.5318
 8605SOL    HW237449   3.213   2.111   9.318 -1.0821  0.8840  1.3801
 8606SOL     OW37450   3.508   2.910   7.169  0.1220 -0.2471  0.0870
 8606SOL    HW137451   3.514   2.825   7.126 -1.0617  0.3644 -1.2721
 8606SOL    HW237452   3.468   2.886   7.253  0.1115 -1.6202 -0.2973
 8607SOL     OW37453   2.224   2.846   3.411 -0.1778 -0.4985 -0.0971
 8607SOL    HW137454   2.290   2.826   3.345  0.0757 -1.8190  0.5578
 8607SOL    HW237455   2.171   2.767   3.421 -1.1707 -0.1041 -2.2208
 8608SOL     OW37456   3.792   1.689   7.499  0.0992  0.1582  0.1205
 8608SOL    HW137457   3.748   1.604   7.490 -0.5915  0.5925 -0.5560
 8608SOL    HW237458   3.879   1.664   7.468  0.4636  1.6426 -0.0152
 8609SOL     OW37459   3.921   4.153   3.381 -0.3700 -0.3236 -0.9683
 8609SOL    HW137460   3.968   4.144   3.298 -1.3970  0.1708 -1.5993
 8609SOL    HW237461   3.900   4.246   3.384  2.7230  0.4030 -1.6388
 8610SOL     OW37462   4.271   1.515   5.300  0.2197  0.2622  0.1011
 8610SOL    HW137463   4.197   1.541   5.245 -0.4969  0.4800  1.1635
 8610SOL    HW237464   4.222   1.461   5.362 -0.4120  0.9453  0.2001
 8611SOL     OW37465   2.729   1.242   4.335 -0.2544 -0.0394  0.0019
 8611SOL    HW137466   2.721   1.210   4.245 -1.1200 -0.3011  0.1710
 8611SOL    HW237467   2.811   1.289   4.320  0.0063 -0.3612  0.4249
 8612SOL     OW37468   4.691   4.306   6.754  0.2753 -0.2803  0.4595
 8612SOL    HW137469   0.021   4.349   6.805  0.3676  0.3862 -0.2360
 8612SOL    HW237470   4.612   4.349   6.786  0.8587  1.3009 -0.2565
 8613SOL     OW37471   2.906   2.781  10.157  0.4562 -0.1220 -0.1493
 8613SOL    HW137472   2.935   2.763  10.068  0.3171 -1.5463  0.0865
 8613SOL    HW237473   2.812   2.764  10.155  0.5619 -0.7050 -0.1483
 8614SOL     OW37474   3.925   0.137   1.032  0.1164  0.2298 -0.0227
 8614SOL    HW137475   4.014   0.157   1.002  1.0534 -2.8419  0.6486
 8614SOL    HW237476   3.934   0.052   1.076  1.9752  1.0958  1.2780
 8615SOL     OW37477   3.375   3.019   2.083 -0.0030 -0.5475 -0.6028
 8615SOL    HW137478   3.461   3.047   2.051 -0.2842  1.1139  0.1052
 8615SOL    HW237479   3.406   2.940   2.129 -1.8623 -0.6110  0.5535
 8616SOL     OW37480   0.844   1.179   1.672  0.3910 -0.2869  0.6162
 8616SOL    HW137481   0.766   1.138   1.708  0.0533  1.1253  1.4632
 8616SOL    HW237482   0.804   1.211   1.591  1.0490  0.2271  0.4839
 8617SOL     OW37483   1.413   2.576   4.810  0.3015  0.0305  0.2219
 8617SOL    HW137484   1.470   2.589   4.885  2.2227 -1.1905 -1.0400
 8617SOL    HW237485   1.447   2.632   4.741 -1.0500 -1.4428 -1.6355
 8618SOL     OW37486   4.115   2.440   3.073  0.1096 -0.7525 -0.2784
 8618SOL    HW137487   4.060   2.405   3.144 -0.7165 -0.9178 -0.9988
 8618SOL    HW237488   4.203   2.452   3.109  0.4796  0.6509 -1.6957
 8619SOL     OW37489   2.282   2.015   7.084 -0.4173 -0.5847 -0.5239
 8619SOL    HW137490   2.209   1.967   7.046 -1.8440  2.3804 -1.5732
 8619SOL    HW237491   2.301   2.079   7.015 -2.3482  0.3066 -0.2128
 8620SOL     OW37492   3.896   2.767   9.520 -0.0518  0.0739 -0.7559
 8620SOL    HW137493   3.924   2.695   9.464 -0.5595 -0.2663 -0.5756
 8620SOL    HW237494   3.883   2.735   9.610 -0.3962  0.5159 -0.6418
 8621SOL     OW37495   1.110   3.807   9.118 -0.2887  0.2702  0.3580
 8621SOL    HW137496   1.015   3.798   9.109 -0.2499  0.8574 -0.5719
 8621SOL    HW237497   1.133   3.852   9.037 -1.0412  0.2750  0.1517
 8622SOL     OW37498   1.096   3.215   7.372 -0.0861  0.3116 -0.0320
 8622SOL    HW137499   1.027   3.152   7.351 -0.1297  0.4763 -0.3905
 8622SOL    HW237500   1.126   3.180   7.455 -0.2872  0.9929  0.3258
 8623SOL     OW37501   0.661   3.695  16.148  0.0070  0.1355 -0.1034
 8623SOL    HW137502   0.666   3.788  16.127  0.9065 -0.3462 -1.9717
 8623SOL    HW237503   0.663   3.658  16.060  0.2576 -1.3297  0.5167
 8624SOL     OW37504   1.852   4.633  17.699 -0.0199 -0.4266  0.5799
 8624SOL    HW137505   1.837   4.628   0.037 -0.8933 -2.3325  0.3511
 8624SOL    HW237506   1.939   4.672  17.707 -0.9590  1.6825  0.6058
 8625SOL     OW37507   0.289   3.357   1.564 -0.1144 -0.1936  0.5070
 8625SOL    HW137508   0.216   3.296   1.576  0.5295 -0.6418  2.0574
 8625SOL    HW237509   0.302   3.335   1.472 -1.0125 -0.0424  0.3391
 8626SOL     OW37510   0.468   1.029   1.572 -0.2648 -0.0474  0.4938
 8626SOL    HW137511   0.509   1.064   1.651  1.4471 -1.3117  0.1836
 8626SOL    HW237512   0.434   1.109   1.532  1.7782 -0.0239 -1.1911
 8627SOL     OW37513   4.632   0.202  12.045 -0.2696  0.4861 -0.6890
 8627SOL    HW137514   4.643   0.202  11.950  0.4820  0.1413 -0.6060
 8627SOL    HW237515   4.592   0.117  12.061  0.1316  0.3469 -0.4166
 8628SOL     OW37516   3.984   1.251  14.951 -0.2018  0.5308 -0.2640
 8628SOL    HW137517   4.001   1.307  14.875  0.6602 -1.4438 -1.5230
 8628SOL    HW237518   4.025   1.297  15.024  2.1797 -1.2158 -0.5230
 8629SOL     OW37519   2.865   2.269   2.908  0.2451 -0.0326  0.4143
 8629SOL    HW137520   2.865   2.350   2.958  2.0076  0.8533 -0.9866
 8629SOL    HW237521   2.961   2.264   2.902  0.0832 -0.6917 -1.7993
 8630SOL     OW37522   3.470   0.903   5.349  0.2082  0.0371  0.2813
 8630SOL    HW137523   3.497   0.984   5.306 -0.1950  0.7293  1.3530
 8630SOL    HW237524   3.553   0.855   5.355  1.9705  3.0805  0.5396
 8631SOL     OW37525   1.555   2.896  13.022  1.2590  0.1210  0.1164
 8631SOL    HW137526   1.544   2.952  12.945  0.2202 -0.9244 -0.5027
 8631SOL    HW237527   1.598   2.956  13.083  1.7296 -0.1309  0.0359
 8632SOL     OW37528   1.037   1.171   5.287  0.0999  0.0275 -0.2141
 8632SOL    HW137529   1.064   1.196   5.198  1.2524  1.0944  0.4438
 8632SOL    HW237530   0.974   1.101   5.271 -1.1377  1.0878  0.1350
 8633SOL     OW37531   0.237   2.145  14.869 -0.2675 -0.1570 -0.2065
 8633SOL    HW137532   0.183   2.200  14.812  0.9353  1.4675  0.2014
 8633SOL    HW237533   0.165   2.104  14.916 -1.2735  1.9437  0.1119
 8634SOL     OW37534   1.904   3.875  15.120 -0.0630  0.0023  0.1888
 8634SOL    HW137535   1.901   3.860  15.215 -2.8647 -1.3726 -0.0971
 8634SOL    HW237536   1.853   3.799  15.093 -0.9987  0.7851 -0.2266
 8635SOL     OW37537   3.320   0.123   4.954  0.4632 -0.4791 -0.3586
 8635SOL    HW137538   3.340   0.184   4.883  1.5918  0.3270  0.6520
 8635SOL    HW237539   3.239   0.082   4.923  0.2104  0.9292 -1.5402
 8636SOL     OW37540   2.014   2.961   5.367 -0.4591 -0.2312  0.2111
 8636SOL    HW137541   2.002   2.951   5.461  1.2621 -0.1631  0.4472
 8636SOL    HW237542   2.087   2.900   5.351 -0.1801  0.4184 -1.0384
 8637SOL     OW37543   0.736   2.413   2.479 -0.2806  0.2335  0.4267
 8637SOL    HW137544   0.793   2.344   2.514 -0.1300 -0.1904 -0.6532
 8637SOL    HW237545   0.747   2.482   2.545  1.0760  0.9009 -0.4944
 8638SOL     OW37546   3.779   3.370   4.945  0.3787 -0.1951 -0.3076
 8638SOL    HW137547   3.688   3.347   4.961  0.4180 -0.9197 -1.1674
 8638SOL    HW237548   3.778   3.318   4.865 -0.9394 -0.1118 -0.3462
 8639SOL     OW37549   1.424   3.809   8.114 -0.4580 -0.4806 -0.0238
 8639SOL    HW137550   1.414   3.832   8.022  1.4528 -1.4177 -0.4835
 8639SOL    HW237551   1.519   3.821   8.119 -0.6322  1.8381 -2.9468
 8640SOL     OW37552   0.879   2.601  14.604  0.6420 -0.2192 -0.0782
 8640SOL    HW137553   0.910   2.512  14.587  1.2050 -0.5374  2.6015
 8640SOL    HW237554   0.840   2.595  14.690 -0.2157 -0.4514 -0.4898
 8641SOL     OW37555   2.017   0.238   4.846  0.4379  0.2793 -0.3272
 8641SOL    HW137556   2.089   0.296   4.821 -0.0480 -0.1875 -2.7342
 8641SOL    HW237557   1.957   0.237   4.772 -0.5334 -1.5658  0.4748
 8642SOL     OW37558   3.628   3.873   7.580  0.2730  0.3456 -0.1535
 8642SOL    HW137559   3.648   3.807   7.514 -0.5497  0.5551 -0.6250
 8642SOL    HW237560   3.552   3.833   7.622  0.0180  0.7394 -0.2369
 8643SOL     OW37561   2.756   4.618   7.846 -0.1300  0.1460 -0.2511
 8643SOL    HW137562   2.833   4.591   7.796 -0.0807  0.1942 -0.2012
 8643SOL    HW237563   2.709   4.653   7.770  0.7965 -1.5121 -1.5919
 8644SOL     OW37564   2.796   4.619   2.155  0.4640  0.2223  0.6260
 8644SOL    HW137565   2.742   4.599   2.232 -2.9918  1.9659 -1.3700
 8644SOL    HW237566   2.820   4.537   2.113  0.4370  1.0364 -0.9693
 8645SOL     OW37567   2.690   2.125   1.245  0.4819  0.0917 -0.1384
 8645SOL    HW137568   2.782   2.110   1.266  0.6226 -0.8469 -1.4772
 8645SOL    HW237569   2.645   2.055   1.291  1.4322  1.4764  2.9296
 8646SOL     OW37570   2.984   2.939  17.647  0.6800 -0.2221 -0.1386
 8646SOL    HW137571   3.031   2.890  17.714 -0.2570 -2.0268 -0.8206
 8646SOL    HW237572   2.921   2.871  17.624  0.2216  1.1373 -2.9857
 8647SOL     OW37573   1.701   4.178   2.997  0.1784  0.1974  0.6423
 8647SOL    HW137574   1.624   4.128   2.971  0.0178  0.8013 -0.0520
 8647SOL    HW237575   1.732   4.201   2.910  1.0794  2.1498  1.4779
 8648SOL     OW37576   1.742   3.114  17.467 -0.4840  0.0794 -0.1009
 8648SOL    HW137577   1.773   3.037  17.514 -1.1318  0.6752  1.3027
 8648SOL    HW237578   1.652   3.126  17.496 -0.3512  1.5614 -0.3152
 8649SOL     OW37579   2.991   2.868   8.148 -0.5380  0.0121 -0.1018
 8649SOL    HW137580   2.905   2.853   8.188 -1.4127  0.7719 -1.7050
 8649SOL    HW237581   3.031   2.785   8.174  0.0422 -0.2455 -1.8166
 8650SOL     OW37582   4.295   4.522   5.271 -0.0833  0.8383 -0.1192
 8650SOL    HW137583   4.257   4.565   5.348  1.4624  0.3772  0.9074
 8650SOL    HW237584   4.227   4.492   5.210  2.1393 -2.9014 -0.7331
 8651SOL     OW37585   0.421   0.281   3.765 -0.5592  0.0188 -0.0487
 8651SOL    HW137586   0.423   0.221   3.691  1.2130  0.5167 -0.3894
 8651SOL    HW237587   0.512   0.310   3.760 -0.5906  0.2573  0.6718
 8652SOL     OW37588   0.506   2.002   6.029  0.0651 -0.0773  0.1187
 8652SOL    HW137589   0.501   2.093   5.998 -1.8854 -0.5709 -0.9877
 8652SOL    HW237590   0.543   2.008   6.117 -2.4490 -1.8119  1.2785
 8653SOL     OW37591   1.850   4.195  10.480 -0.3191  0.5353  0.0143
 8653SOL    HW137592   1.819   4.105  10.494 -0.8873  0.9011  1.1611
 8653SOL    HW237593   1.770   4.235  10.446 -1.4756 -2.1109 -0.4361
 8654SOL     OW37594   1.863   4.239  13.694  0.1486 -0.3691 -0.0844
 8654SOL    HW137595   1.854   4.334  13.690 -0.1621 -0.5081 -2.6112
 8654SOL    HW237596   1.955   4.228  13.719 -0.0752 -1.9012  0.0417
 8655SOL     OW37597   0.897   2.222   2.207 -0.3877 -0.1218 -0.6878
 8655SOL    HW137598   0.814   2.270   2.219 -0.1294 -0.1128  1.1213
 8655SOL    HW237599   0.939   2.241   2.291 -2.6876 -2.1047  0.9026
 8656SOL     OW37600   3.388   2.825   7.394 -0.4200  0.3118 -0.1915
 8656SOL    HW137601   3.318   2.869   7.442  0.1535  0.4048  0.5708
 8656SOL    HW237602   3.446   2.800   7.466 -0.5438  2.9488  0.8487
 8657SOL     OW37603   2.132   1.345   8.969  0.4894  0.6665  0.0326
 8657SOL    HW137604   2.158   1.435   8.948 -3.2700  2.1186  1.5851
 8657SOL    HW237605   2.049   1.332   8.923  0.5691 -3.1265  1.0222
 8658SOL     OW37606   0.305   1.427   6.819  0.2753  1.4549 -0.1384
 8658SOL    HW137607   0.213   1.426   6.792  0.2270 -1.5449  0.0429
 8658SOL    HW237608   0.297   1.401   6.911 -2.6847  1.4898 -0.3884
 8659SOL     OW37609   4.490   3.249   3.559  0.0549 -0.2783 -1.0352
 8659SOL    HW137610   4.471   3.325   3.504 -0.0034  0.7399  0.4034
 8659SOL    HW237611   4.486   3.193   3.481  1.6597 -0.1185 -1.2383
 8660SOL     OW37612   0.948   4.319  13.697  0.1812  0.2158  0.7922
 8660SOL    HW137613   0.993   4.390  13.743  1.0121  0.3902 -0.2937
 8660SOL    HW237614   0.916   4.282  13.779  0.3088 -1.2643  0.1796
 8661SOL     OW37615   0.321   3.382   1.892 -0.4560 -0.4823 -0.1953
 8661SOL    HW137616   0.275   3.353   1.813 -1.0932  1.3014 -0.4703
 8661SOL    HW237617   0.269   3.454   1.928  0.2982 -0.6085  1.1679
 8662SOL     OW37618   2.904   2.618   8.599 -0.5365 -1.1327  0.1525
 8662SOL    HW137619   2.960   2.593   8.673  0.5840 -3.3300 -1.4443
 8662SOL    HW237620   2.823   2.567   8.612  0.5755 -2.6336  1.2431
 8663SOL     OW37621   3.082   0.856   0.669  0.5179 -0.4905  0.4886
 8663SOL    HW137622   3.166   0.813   0.654  0.5367 -0.9625  1.9054
 8663SOL    HW237623   3.068   0.889   0.580 -0.4046 -1.5618  0.2513
 8664SOL     OW37624   0.770   4.550   4.072  0.1072  0.5141 -0.1309
 8664SOL    HW137625   0.680   4.558   4.104 -0.4093 -2.3903 -0.8584
 8664SOL    HW237626   0.771   4.465   4.028 -1.8972  0.9825 -1.0827
 8665SOL     OW37627   3.981   0.149   8.283 -0.1568 -0.1634  0.0473
 8665SOL    HW137628   4.058   0.201   8.306 -0.3043 -0.5569  1.4318
 8665SOL    HW237629   3.967   0.104   8.366  2.0983 -1.1466 -0.0977
 8666SOL     OW37630   2.357   3.840   0.589 -0.3843 -0.2676  0.3052
 8666SOL    HW137631   2.374   3.869   0.499 -0.1262 -0.9565  0.1287
 8666SOL    HW237632   2.268   3.807   0.578 -0.7777  0.6817  0.6056
 8667SOL     OW37633   3.657   2.237  12.507  0.5948  1.0654 -0.3233
 8667SOL    HW137634   3.720   2.197  12.566  0.0025  0.2782 -0.2247
 8667SOL    HW237635   3.714   2.279  12.442  2.7974  0.4444  1.2207
 8668SOL     OW37636   2.629   3.271  11.697 -0.0670 -0.1058  0.3692
 8668SOL    HW137637   2.668   3.220  11.626  0.2947 -0.7749  1.0435
 8668SOL    HW237638   2.631   3.210  11.771  0.3204  0.4280  0.7989
 8669SOL     OW37639   2.081   2.161   3.680  0.3406  1.0229 -0.5756
 8669SOL    HW137640   2.014   2.199   3.736  1.0804 -2.2216  2.5152
 8669SOL    HW237641   2.136   2.131   3.752  0.0216  0.2378 -0.6633
 8670SOL     OW37642   0.849   1.369   8.453 -0.0928  0.4444 -0.7948
 8670SOL    HW137643   0.906   1.392   8.527 -1.8667  1.6058  0.2102
 8670SOL    HW237644   0.886   1.281   8.443  0.7694  0.7905 -0.6582
 8671SOL     OW37645   3.496   4.059   2.602  0.3473  0.6369 -0.5502
 8671SOL    HW137646   3.478   4.153   2.607  1.1239  0.7799 -0.5917
 8671SOL    HW237647   3.451   4.033   2.521 -0.9669 -2.2131  1.1055
 8672SOL     OW37648   3.888   4.164  13.227 -0.5944  0.0431 -0.0742
 8672SOL    HW137649   3.869   4.224  13.300  4.8925  0.8768  0.6692
 8672SOL    HW237650   3.871   4.076  13.260  0.1565  0.2893  0.9924
 8673SOL     OW37651   1.643   3.988  16.503 -0.2407  0.0971  0.5517
 8673SOL    HW137652   1.637   3.934  16.425 -0.4197  0.5306  0.2695
 8673SOL    HW237653   1.717   3.941  16.541  0.7600  0.3531 -1.0909
 8674SOL     OW37654   2.478   2.586  16.062  0.2194 -0.4228  0.2725
 8674SOL    HW137655   2.435   2.510  16.023  1.5511 -1.6018  1.1076
 8674SOL    HW237656   2.545   2.541  16.113 -0.2198 -2.9005 -1.3444
 8675SOL     OW37657   0.352   1.182   7.196  0.5071  0.3883 -0.2625
 8675SOL    HW137658   0.327   1.274   7.210 -1.4946 -0.0933 -0.6782
 8675SOL    HW237659   0.324   1.149   7.282  1.0504 -0.1854 -0.3054
 8676SOL     OW37660   2.634   2.074  15.999  0.0403  0.1706 -0.0651
 8676SOL    HW137661   2.707   2.113  16.047 -0.2547 -0.0574  0.5699
 8676SOL    HW237662   2.675   2.083  15.913 -0.1693 -0.3891 -0.2226
 8677SOL     OW37663   0.968   2.568   1.757  0.5008 -0.4335 -0.1397
 8677SOL    HW137664   0.948   2.647   1.706  1.0424  0.9251  1.7605
 8677SOL    HW237665   0.888   2.518   1.745  1.1825 -1.9117  1.4222
 8678SOL     OW37666   0.492   1.030   4.601 -0.6430 -0.4371  0.7217
 8678SOL    HW137667   0.486   1.089   4.676  0.7460  0.9619 -0.2673
 8678SOL    HW237668   0.467   0.944   4.634  2.2809 -1.9650 -1.0782
 8679SOL     OW37669   4.120   3.565   1.497 -0.2616  0.2466 -0.0959
 8679SOL    HW137670   4.162   3.636   1.545 -0.2871  1.3751 -1.7174
 8679SOL    HW237671   4.112   3.493   1.560 -1.8030 -0.6219 -1.2786
 8680SOL     OW37672   1.668   4.304  10.287  0.5961 -0.0200  0.0044
 8680SOL    HW137673   1.744   4.294  10.230 -0.8096  1.4981 -2.1273
 8680SOL    HW237674   1.652   4.399  10.289 -0.2597 -0.1731  0.4639
 8681SOL     OW37675   0.042   1.856   1.483 -0.4263 -0.2224  0.5561
 8681SOL    HW137676   4.689   1.874   1.467 -0.0245  0.6206 -0.7938
 8681SOL    HW237677   0.047   1.918   1.556 -1.0203  0.3871  0.0821
 8682SOL     OW37678   3.342   4.010  12.871  0.1353  0.6570  0.0322
 8682SOL    HW137679   3.435   4.004  12.850  0.1330 -0.2996  0.2715
 8682SOL    HW237680   3.339   4.080  12.936 -0.4299  0.0508  0.6600
 8683SOL     OW37681   4.195   4.679   4.670 -0.5239  0.7697 -0.6077
 8683SOL    HW137682   4.282   4.666   4.707 -0.6730 -0.2771 -0.6454
 8683SOL    HW237683   4.221   0.012   4.612  0.5104  0.7453 -0.1761
 8684SOL     OW37684   2.906   1.972   8.904 -0.1147 -0.2412  0.1522
 8684SOL    HW137685   2.936   2.010   8.986  0.4826 -0.1723 -0.0918
 8684SOL    HW237686   2.985   1.928   8.870 -0.6409 -2.9833  2.5112
 8685SOL     OW37687   4.497   2.318   4.100  0.3818  0.4488 -0.1197
 8685SOL    HW137688   4.567   2.353   4.156  0.5252 -1.4894  0.9209
 8685SOL    HW237689   4.448   2.393   4.067 -1.6439 -1.4495 -1.3906
 8686SOL     OW37690   1.197   0.953  16.031  0.6721  0.4307 -0.0188
 8686SOL    HW137691   1.153   1.038  16.030  0.5095  0.3444 -0.7174
 8686SOL    HW237692   1.282   0.987  16.003  0.8066  0.7824  0.8459
 8687SOL     OW37693   2.645   4.337   2.594 -0.3547  0.1080 -0.1569
 8687SOL    HW137694   2.555   4.316   2.616 -0.7673  0.5867 -1.3867
 8687SOL    HW237695   2.678   4.379   2.674 -0.6297 -0.1353  0.0800
 8688SOL     OW37696   0.077   0.206   8.473  0.6243  0.1079  0.0218
 8688SOL    HW137697   0.102   0.194   8.565 -0.6949  1.3625  0.5442
 8688SOL    HW237698   0.156   0.161   8.443 -0.2708 -0.5291 -1.3599
 8689SOL     OW37699   3.214   1.306  16.650  0.0215 -0.0384  0.2989
 8689SOL    HW137700   3.242   1.389  16.687 -0.2062 -0.7409  2.0500
 8689SOL    HW237701   3.176   1.347  16.573  2.4863 -0.0003 -0.8967
 8690SOL     OW37702   4.527   2.370  14.075 -0.2780  0.4335 -0.2800
 8690SOL    HW137703   4.447   2.416  14.051  0.1567 -0.0640 -2.6875
 8690SOL    HW237704   4.559   2.422  14.149  0.1077 -0.8178  0.4300
 8691SOL     OW37705   1.161   3.530  14.638  0.0371 -0.3277  0.2236
 8691SOL    HW137706   1.208   3.497  14.714 -0.5767 -1.2125  0.2222
 8691SOL    HW237707   1.219   3.590  14.591 -0.3508 -0.4364 -0.4062
 8692SOL     OW37708   0.683   2.932   6.686 -0.3542  0.4051  0.1012
 8692SOL    HW137709   0.619   2.915   6.755 -0.1233 -2.6889 -0.4412
 8692SOL    HW237710   0.745   2.982   6.738 -0.7157  1.1344 -0.1735
 8693SOL     OW37711   2.942   3.178   5.751  0.1673 -0.2268  0.2889
 8693SOL    HW137712   2.999   3.109   5.716  0.0217 -0.6393  0.8689
 8693SOL    HW237713   3.008   3.221   5.806  0.7158 -4.4591  2.8928
 8694SOL     OW37714   0.610   1.369   5.812  0.0674  0.1752  0.4759
 8694SOL    HW137715   0.551   1.442   5.792  0.5416 -0.0102 -1.5913
 8694SOL    HW237716   0.574   1.345   5.897 -0.0542 -1.1556  0.0539
 8695SOL     OW37717   4.684   0.376   0.937 -0.3588  0.5550 -0.1971
 8695SOL    HW137718   0.009   0.306   0.930 -0.1407  0.8206 -0.8701
 8695SOL    HW237719   4.708   0.421   0.856  1.3875  1.5851  0.8930
 8696SOL     OW37720   2.314   2.024  13.999 -0.4979 -0.2511 -0.6056
 8696SOL    HW137721   2.382   2.043  14.063  1.8550 -0.9481 -2.8783
 8696SOL    HW237722   2.307   2.113  13.963 -2.0420 -1.3280 -3.0464
 8697SOL     OW37723   4.188   2.238   2.071 -0.1161  0.3624  0.1226
 8697SOL    HW137724   4.203   2.154   2.115  2.3646  0.9557  0.3913
 8697SOL    HW237725   4.121   2.280   2.125 -0.5835  0.1612 -0.3001
 8698SOL     OW37726   0.841   0.741   9.017  0.1324  0.0701  0.2802
 8698SOL    HW137727   0.837   0.722   8.923 -2.8960 -0.0394  0.4374
 8698SOL    HW237728   0.776   0.674   9.036 -0.8294  0.6708 -0.8266
 8699SOL     OW37729   0.216   3.203   0.236  0.4098  0.1546 -0.3794
 8699SOL    HW137730   0.195   3.267   0.304 -0.3000  0.1869 -0.6267
 8699SOL    HW237731   0.223   3.125   0.292  0.3798  0.7198  0.4145
 8700SOL     OW37732   0.311   2.267   2.587  0.4678  0.1458 -0.0390
 8700SOL    HW137733   0.356   2.224   2.515 -0.0069  1.1127 -0.9141
 8700SOL    HW237734   0.378   2.261   2.655  0.8085 -0.6770 -0.4455
 8701SOL     OW37735   2.780   2.095   2.574  0.4067  0.6888 -0.0035
 8701SOL    HW137736   2.802   2.107   2.482  2.0756  0.6724  0.3782
 8701SOL    HW237737   2.858   2.047   2.602 -0.1999 -1.2214 -1.6416
 8702SOL     OW37738   2.906   3.777   4.426 -0.1878 -0.6956  0.0926
 8702SOL    HW137739   2.966   3.711   4.460  0.4281  0.0586  0.4888
 8702SOL    HW237740   2.853   3.722   4.368 -1.1305  0.9739 -0.6283
 8703SOL     OW37741   4.203   4.310   3.053  0.3766 -0.1463 -0.4082
 8703SOL    HW137742   4.228   4.224   3.086 -1.7022 -0.8506 -0.6907
 8703SOL    HW237743   4.223   4.366   3.129 -0.2931 -2.1659  1.2538
 8704SOL     OW37744   0.907   3.256   8.735  0.1683  0.0036 -0.7016
 8704SOL    HW137745   0.899   3.324   8.802  1.1527  2.1825 -2.7657
 8704SOL    HW237746   1.003   3.252   8.733  0.2603  1.6278  0.2955
 8705SOL     OW37747   2.489   0.487   9.861  0.2447  0.4955  0.6102
 8705SOL    HW137748   2.472   0.464   9.770  3.1005 -0.9482  0.4239
 8705SOL    HW237749   2.429   0.425   9.904 -0.1205  2.4818  2.9385
 8706SOL     OW37750   0.511   1.337   1.952 -0.0836  0.2242  0.0401
 8706SOL    HW137751   0.423   1.356   1.983  0.9835  3.2419  1.1770
 8706SOL    HW237752   0.570   1.337   2.027  1.5959  1.0701 -1.2886
 8707SOL     OW37753   3.648   2.304   9.086 -0.0686 -0.7417  0.3632
 8707SOL    HW137754   3.650   2.340   9.174 -2.5763  1.5315 -0.5239
 8707SOL    HW237755   3.729   2.329   9.040 -0.2632 -0.5431  0.1226
 8708SOL     OW37756   3.339   0.774   3.266 -0.5245  0.3290 -0.2483
 8708SOL    HW137757   3.253   0.733   3.270 -0.5479  0.2461 -1.7345
 8708SOL    HW237758   3.330   0.850   3.323 -1.4884 -0.8417  1.1441
 8709SOL     OW37759   1.947   2.731   9.140 -0.2325 -0.4036 -0.2070
 8709SOL    HW137760   2.037   2.763   9.148  0.1153 -2.1724  3.1061
 8709SOL    HW237761   1.896   2.812   9.147 -1.0403 -0.8870 -0.5132
 8710SOL     OW37762   2.251   0.384   2.143 -0.2008 -0.3930 -0.5161
 8710SOL    HW137763   2.311   0.448   2.105  1.1789 -1.5365 -0.2548
 8710SOL    HW237764   2.307   0.308   2.157 -0.3494 -0.2465  0.8857
 8711SOL     OW37765   1.508   1.670   3.154  0.4384  0.2952  0.0404
 8711SOL    HW137766   1.522   1.638   3.065 -0.0768  0.6910 -0.1829
 8711SOL    HW237767   1.416   1.690   3.139  0.6248  0.1679 -1.2180
 8712SOL     OW37768   0.206   2.175   3.738  0.4339 -0.2928 -0.1971
 8712SOL    HW137769   0.132   2.184   3.677  1.5624  0.8394 -1.3922
 8712SOL    HW237770   0.228   2.268   3.738  0.8942 -0.3981 -1.7601
 8713SOL     OW37771   4.228   3.042   1.571 -0.4150 -0.2038  0.3302
 8713SOL    HW137772   4.159   2.986   1.606 -0.1355 -1.0301 -0.4498
 8713SOL    HW237773   4.274   3.059   1.654 -0.8804  0.1101  0.5287
 8714SOL     OW37774   3.644   3.951   4.573  0.1401 -0.2146  0.2657
 8714SOL    HW137775   3.609   3.902   4.499 -3.1416  4.0255 -0.9415
 8714SOL    HW237776   3.727   3.979   4.534 -1.0563  1.9868 -0.6657
 8715SOL     OW37777   1.048   0.162   4.266  0.3672  0.3417 -0.6513
 8715SOL    HW137778   1.136   0.136   4.240  0.4413  1.1345 -1.2083
 8715SOL    HW237779   1.060   0.257   4.255  1.0578  0.3922  0.5185
 8716SOL     OW37780   4.398   1.529   3.432  0.0692  0.1100  0.1100
 8716SOL    HW137781   4.384   1.481   3.514 -2.8942 -0.3974 -0.6846
 8716SOL    HW237782   4.436   1.455   3.385  0.8684  0.2573  0.5175
 8717SOL     OW37783   2.809   1.872   1.384 -0.8935  0.4891  0.1775
 8717SOL    HW137784   2.812   1.860   1.289  2.2026 -1.7837  0.5931
 8717SOL    HW237785   2.901   1.884   1.409 -0.7882 -1.0348  0.5139
 8718SOL     OW37786   2.387   1.812   9.188  0.1577  0.1772  0.3792
 8718SOL    HW137787   2.297   1.784   9.205  0.6896 -1.5678  0.3492
 8718SOL    HW237788   2.423   1.736   9.142  1.9759  1.0181  0.4130
 8719SOL     OW37789   0.716   4.208   3.758  0.5278 -0.9908  0.1275
 8719SOL    HW137790   0.642   4.244   3.807 -0.3150 -1.5387 -0.7423
 8719SOL    HW237791   0.776   4.281   3.739  2.2782 -2.6250 -0.6459
 8720SOL     OW37792   3.645   2.434   9.317 -0.0888  0.1159  0.6475
 8720SOL    HW137793   3.591   2.511   9.301 -0.3790 -0.1733  0.2437
 8720SOL    HW237794   3.658   2.435   9.412  1.3474  0.7860  0.4575
 8721SOL     OW37795   3.325   0.810   5.804 -0.6668 -0.0537 -0.5195
 8721SOL    HW137796   3.338   0.895   5.846 -0.0147 -0.9562  1.1256
 8721SOL    HW237797   3.387   0.822   5.733 -0.4562 -1.7214 -0.6339
 8722SOL     OW37798   0.270   3.938   8.248 -0.2906 -0.1929 -0.2167
 8722SOL    HW137799   0.211   4.009   8.224 -1.0067 -0.8991 -0.5585
 8722SOL    HW237800   0.255   3.869   8.184 -1.6362 -0.8493  0.7866
 8723SOL     OW37801   1.005   4.463   7.706  0.0519 -0.4386 -0.8807
 8723SOL    HW137802   1.050   4.548   7.703 -2.0856  0.7005 -0.3182
 8723SOL    HW237803   1.010   4.448   7.800  1.0303  0.8530 -0.7352
 8724SOL     OW37804   1.158   3.359   1.356  0.0592  0.0597  0.0827
 8724SOL    HW137805   1.200   3.427   1.303  2.2828 -1.3460  0.0639
 8724SOL    HW237806   1.193   3.287   1.303 -0.4055  0.9744 -1.4462
 8725SOL     OW37807   0.335   4.304   1.536  0.1731  0.4171 -0.0444
 8725SOL    HW137808   0.317   4.211   1.523 -0.5176  0.1761  2.4490
 8725SOL    HW237809   0.426   4.308   1.508 -0.8769 -2.4994 -3.7378
 8726SOL     OW37810   4.219   4.594  12.444 -0.9578  0.4478 -0.2418
 8726SOL    HW137811   4.285   4.615  12.510 -0.8789 -1.9730  0.4681
 8726SOL    HW237812   4.158   4.665  12.462  0.2274  1.4229 -0.0878
 8727SOL     OW37813   4.395   1.917   3.838  0.2121  0.2016 -0.3682
 8727SOL    HW137814   4.353   1.931   3.753 -0.9755  0.5993  0.2792
 8727SOL    HW237815   4.486   1.930   3.812  0.4287  1.1322  0.8667
 8728SOL     OW37816   1.529   0.811  15.497  0.3451 -0.0181  0.3338
 8728SOL    HW137817   1.467   0.738  15.489  1.8215 -1.3267  0.5914
 8728SOL    HW237818   1.587   0.786  15.569 -0.7054  0.5982  1.3923
 8729SOL     OW37819   2.319   2.239   7.897  0.7454 -0.2172  0.1342
 8729SOL    HW137820   2.337   2.293   7.974  1.1116 -1.1789  0.7253
 8729SOL    HW237821   2.274   2.307   7.847  1.0645  0.4450  0.7539
 8730SOL     OW37822   2.074   1.305   0.491  0.0556 -0.3334 -0.1877
 8730SOL    HW137823   2.119   1.309   0.407  0.0664  1.2699 -0.1116
 8730SOL    HW237824   2.138   1.272   0.554  1.1032 -1.8671 -2.0550
 8731SOL     OW37825   2.765   0.698   8.674 -0.3648  0.0006  0.1890
 8731SOL    HW137826   2.751   0.631   8.607 -0.7327  1.7076 -1.4366
 8731SOL    HW237827   2.712   0.658   8.743  0.3285  1.1142  1.3736
 8732SOL     OW37828   3.808   1.427   9.127  0.3089  0.2626  0.0428
 8732SOL    HW137829   3.756   1.385   9.197  0.6248 -1.0302 -0.4887
 8732SOL    HW237830   3.798   1.519   9.149  1.2504  0.5097 -0.5893
 8733SOL     OW37831   1.491   0.654   7.249  0.3530 -0.1353 -0.5087
 8733SOL    HW137832   1.555   0.722   7.269 -1.4438  1.2423  0.5380
 8733SOL    HW237833   1.517   0.590   7.315 -0.0701  0.0699 -0.1431
 8734SOL     OW37834   2.243   1.662  16.730 -0.3937 -0.0394 -0.1643
 8734SOL    HW137835   2.224   1.582  16.779  0.1915 -0.7468 -1.0781
 8734SOL    HW237836   2.293   1.706  16.799  1.5997 -0.8205 -1.1045
 8735SOL     OW37837   1.556   1.685   8.863 -0.3586 -0.1800  0.3235
 8735SOL    HW137838   1.484   1.703   8.924  0.6980  0.7771  1.2770
 8735SOL    HW237839   1.505   1.678   8.782  0.7851 -0.7798 -0.3364
 8736SOL     OW37840   3.238   4.139   8.536 -0.1808  0.0324  0.0680
 8736SOL    HW137841   3.331   4.121   8.522  0.0772 -0.1443  2.0207
 8736SOL    HW237842   3.208   4.135   8.445  0.5576  2.7767 -0.2926
 8737SOL     OW37843   1.813   1.865   1.795  0.0270  0.0996 -0.5453
 8737SOL    HW137844   1.766   1.879   1.877 -1.6193 -3.0161 -0.9748
 8737SOL    HW237845   1.857   1.783   1.817  3.5445  2.2479  0.4781
 8738SOL     OW37846   1.708   3.466   2.541  0.2544  0.2319 -0.1016
 8738SOL    HW137847   1.749   3.386   2.572 -1.6322 -0.3007  1.0053
 8738SOL    HW237848   1.616   3.464   2.567  0.8282  3.2243  2.1799
 8739SOL     OW37849   2.033   4.720   8.407 -0.2164 -0.4449  0.3465
 8739SOL    HW137850   2.013   4.660   8.336  2.1857 -0.7183 -0.0914
 8739SOL    HW237851   1.969   0.048   8.383 -0.4011 -0.9325 -0.5231
 8740SOL     OW37852   3.026   4.044  17.254 -0.0827  0.4380 -0.0615
 8740SOL    HW137853   2.986   3.984  17.191 -1.0052 -0.1384  1.0573
 8740SOL    HW237854   2.953   4.072  17.310  0.5993  1.8767  0.1122
 8741SOL     OW37855   3.953   3.282   9.502  0.0730 -0.3993  0.1398
 8741SOL    HW137856   3.929   3.203   9.453  0.7912 -0.6045  0.1289
 8741SOL    HW237857   4.040   3.288   9.464 -0.0477 -2.7323 -0.5203
 8742SOL     OW37858   1.586   3.499   4.673 -0.0475  0.4976 -0.0826
 8742SOL    HW137859   1.557   3.463   4.589  0.9840 -1.2084  0.2933
 8742SOL    HW237860   1.521   3.568   4.684  1.1748  1.2504  2.5339
 8743SOL     OW37861   0.075   1.103   5.477  0.5974 -0.4171  0.4588
 8743SOL    HW137862   0.122   1.176   5.518  0.7447 -1.0494  1.4481
 8743SOL    HW237863   0.148   1.054   5.438 -0.0283  0.0130 -1.2039
 8744SOL     OW37864   4.151   3.421   6.174 -0.1881  0.5765 -0.1846
 8744SOL    HW137865   4.181   3.358   6.239 -2.2689 -0.8485 -0.5948
 8744SOL    HW237866   4.069   3.449   6.215  0.7224  1.5557  0.9771
 8745SOL     OW37867   3.042   3.497   3.376 -0.2941 -0.2114  0.1650
 8745SOL    HW137868   3.115   3.550   3.409  0.4087 -0.0404 -1.6458
 8745SOL    HW237869   2.975   3.550   3.419 -0.9238 -1.7417  1.0669
 8746SOL     OW37870   4.582   0.520   3.919  0.4425  0.3613  0.3111
 8746SOL    HW137871   4.491   0.522   3.950  0.4679  2.6274  0.2638
 8746SOL    HW237872   4.568   0.459   3.846 -1.4249  1.6230 -0.3839
 8747SOL     OW37873   0.552   3.963   9.465 -0.0166 -0.7351  0.3420
 8747SOL    HW137874   0.578   3.882   9.420  1.4080 -0.3130  0.4105
 8747SOL    HW237875   0.598   4.033   9.419 -2.6183 -0.2902 -1.5908
 8748SOL     OW37876   4.283   2.456   9.839 -0.3986  0.2834  0.4072
 8748SOL    HW137877   4.266   2.491   9.751  3.1490  1.9093  0.3847
 8748SOL    HW237878   4.357   2.397   9.823 -2.5556 -2.0647 -1.0170
 8749SOL     OW37879   0.065   0.629   2.705 -0.2010 -0.4876  0.0174
 8749SOL    HW137880   4.732   0.611   2.764  1.2937  1.1010  2.2931
 8749SOL    HW237881   0.019   0.613   2.622 -1.8468  1.7632  0.5175
 8750SOL     OW37882   0.057   3.529   5.938 -0.6151  0.2681 -0.2490
 8750SOL    HW137883   0.133   3.478   5.965  0.2120 -0.5955 -4.2220
 8750SOL    HW237884   0.100   3.589   5.877  0.0123  0.8413  0.7607
 8751SOL     OW37885   0.835   0.363   5.902 -0.0204  0.6409  1.0050
 8751SOL    HW137886   0.900   0.394   5.838 -0.3156  0.2908  0.5363
 8751SOL    HW237887   0.771   0.324   5.843 -0.3134  1.4246  0.8046
 8752SOL     OW37888   1.894   4.685  14.837 -0.0250 -0.0948  0.5762
 8752SOL    HW137889   1.836   4.674  14.912  0.5223 -0.5692  0.9324
 8752SOL    HW237890   1.947   4.606  14.847 -0.4076 -0.6588 -1.9642
 8753SOL     OW37891   2.548   3.714  11.394 -0.3071 -0.4973  0.6089
 8753SOL    HW137892   2.604   3.643  11.427  1.3714 -0.3643 -1.8718
 8753SOL    HW237893   2.509   3.675  11.315 -0.8728  1.4520 -0.0768
 8754SOL     OW37894   3.000   3.190  17.639  0.0559 -0.0087 -0.2516
 8754SOL    HW137895   2.992   3.094  17.640 -1.2327  0.1285  0.7843
 8754SOL    HW237896   3.075   3.194  17.699  2.6890  2.5247 -3.6664
 8755SOL     OW37897   4.298   2.594   9.543 -0.6901  0.1327  0.4245
 8755SOL    HW137898   4.304   2.541   9.464 -0.3614  2.8623 -1.3762
 8755SOL    HW237899   4.206   2.577   9.562 -0.5866  0.1333  0.9248
 8756SOL     OW37900   3.274   1.164   2.297 -0.5465 -0.1035  0.6746
 8756SOL    HW137901   3.299   1.085   2.248  0.0337 -1.3601  2.9845
 8756SOL    HW237902   3.336   1.165   2.370  0.1102 -0.5056  0.1182
 8757SOL     OW37903   3.808   2.978   4.884  0.6504 -0.4232  0.3089
 8757SOL    HW137904   3.737   2.918   4.861  0.6178 -0.1324 -0.3305
 8757SOL    HW237905   3.863   2.920   4.938  1.0711  1.4776  1.8987
 8758SOL     OW37906   4.007   4.574  17.271 -0.2323 -0.1712 -0.1120
 8758SOL    HW137907   3.973   4.536  17.352  0.4566 -0.1858  0.1698
 8758SOL    HW237908   3.928   4.599  17.224  0.6780  0.6153 -1.2343
 8759SOL     OW37909   2.480   1.616   7.819 -0.3439 -0.3392  0.0158
 8759SOL    HW137910   2.564   1.611   7.864 -0.3536  2.1639  0.2893
 8759SOL    HW237911   2.458   1.525   7.843 -0.0935  0.1917  2.2686
 8760SOL     OW37912   3.076   2.078  14.792 -0.1175 -0.0796  0.2483
 8760SOL    HW137913   3.036   2.163  14.775 -0.1953 -0.3736 -1.0128
 8760SOL    HW237914   3.075   2.091  14.887  0.9749  1.2493  0.0653
 8761SOL     OW37915   0.401   1.817   5.590 -0.3604  0.0801 -0.3986
 8761SOL    HW137916   0.490   1.802   5.557 -0.8975 -2.0162 -0.9182
 8761SOL    HW237917   0.356   1.786   5.511 -1.7453 -0.0232  0.4424
 8762SOL     OW37918   0.031   4.206   1.309 -0.5115 -0.3620 -0.0548
 8762SOL    HW137919   0.125   4.223   1.299 -0.2883 -0.8556  1.1944
 8762SOL    HW237920   4.735   4.288   1.275  0.7509 -0.4684 -1.6145
 8763SOL     OW37921   3.166   1.291   5.460  0.1203  0.2890  0.3722
 8763SOL    HW137922   3.077   1.268   5.434 -0.8721  2.9900  1.3695
 8763SOL    HW237923   3.183   1.382   5.435 -0.2102  0.5918  1.2571
 8764SOL     OW37924   2.350   4.328   5.007  0.3070 -0.6342  0.5027
 8764SOL    HW137925   2.258   4.335   4.982  0.4300 -0.3883  0.1018
 8764SOL    HW237926   2.329   4.344   5.099  0.3255  2.3296 -0.0133
 8765SOL     OW37927   4.565   0.090   2.722 -0.2311 -0.0652  0.0977
 8765SOL    HW137928   4.637   0.133   2.675 -0.5268 -1.5561 -1.7347
 8765SOL    HW237929   4.575   0.128   2.809  1.6220  0.6855 -0.4269
 8766SOL     OW37930   2.894   0.387   7.027  0.5094  0.6363  0.4103
 8766SOL    HW137931   2.931   0.463   7.072  1.2825  1.2760 -1.2942
 8766SOL    HW237932   2.974   0.358   6.983  0.2132 -0.9003  0.8661
 8767SOL     OW37933   2.324   2.426   6.660 -0.4859  0.4106 -0.0201
 8767SOL    HW137934   2.297   2.496   6.600 -0.4155  2.1672  2.0190
 8767SOL    HW237935   2.252   2.365   6.648  0.6234 -0.4852 -2.1081
 8768SOL     OW37936   3.863   4.709   4.442  0.5274  0.5657 -0.2543
 8768SOL    HW137937   3.827   0.033   4.504  1.4266  1.2857 -0.4853
 8768SOL    HW237938   3.858   4.630   4.496  0.0827  0.0963 -0.9811
 8769SOL     OW37939   1.030   4.245  15.960 -1.0828  0.2625 -0.3821
 8769SOL    HW137940   0.952   4.233  16.014 -0.8963  2.9868  0.5189
 8769SOL    HW237941   0.998   4.319  15.907  0.1835  0.1889 -1.2468
 8770SOL     OW37942   4.373   1.587   4.187  0.7584 -0.8801 -0.0033
 8770SOL    HW137943   4.284   1.624   4.186  1.5022  0.9119 -0.6074
 8770SOL    HW237944   4.361   1.528   4.113  1.4627 -0.7087 -0.2481
 8771SOL     OW37945   2.058   1.766   1.366 -0.5978 -0.4787 -0.0287
 8771SOL    HW137946   2.099   1.794   1.448  0.8680 -0.6777 -0.6888
 8771SOL    HW237947   2.048   1.671   1.372 -0.2540 -0.4900  0.3761
 8772SOL     OW37948   0.783   1.979   5.807  0.5739  0.1965  0.4427
 8772SOL    HW137949   0.743   1.892   5.813 -0.1336  0.3879 -1.6133
 8772SOL    HW237950   0.718   2.023   5.752 -1.8905 -0.4228  2.8834
 8773SOL     OW37951   2.420   0.673   2.389 -0.0843 -0.1269  0.4292
 8773SOL    HW137952   2.447   0.688   2.298 -2.1997  1.0963  0.0015
 8773SOL    HW237953   2.504   0.669   2.434 -0.1421 -0.7171  0.4739
 8774SOL     OW37954   2.475   0.332  10.085 -0.3273  0.1464  0.0630
 8774SOL    HW137955   2.532   0.408  10.098  1.8029 -1.4940  0.1737
 8774SOL    HW237956   2.523   0.254  10.111 -1.8261 -0.5964  0.6614
 8775SOL     OW37957   1.521   3.286   4.224 -0.3435 -0.5566 -0.5544
 8775SOL    HW137958   1.434   3.248   4.234 -0.7295  0.5632  0.3901
 8775SOL    HW237959   1.567   3.214   4.267  0.0255 -1.1441 -1.9241
 8776SOL     OW37960   1.611   2.959   3.964  0.5014  0.5782 -0.2792
 8776SOL    HW137961   1.551   2.911   4.021  2.5802 -0.3092  1.1466
 8776SOL    HW237962   1.676   2.969   4.033 -0.6849  1.1993  0.7521
 8777SOL     OW37963   1.579   3.743   9.233 -0.1977  0.0893 -0.0840
 8777SOL    HW137964   1.560   3.744   9.327  3.3743  1.2919  0.6018
 8777SOL    HW237965   1.667   3.780   9.235 -1.0012  2.1023 -1.4271
 8778SOL     OW37966   1.514   1.818   6.699 -0.4863  0.2233 -0.2283
 8778SOL    HW137967   1.585   1.881   6.703  1.0351 -1.2282 -4.6772
 8778SOL    HW237968   1.463   1.839   6.620  0.7032  0.7036 -0.8601
 8779SOL     OW37969   2.209   2.414   9.967 -0.3582 -0.2255  0.5691
 8779SOL    HW137970   2.258   2.340   9.933  2.4392  0.4077  3.2636
 8779SOL    HW237971   2.275   2.483   9.962 -0.2522 -0.3930 -0.3917
 8780SOL     OW37972   0.388   1.374   5.493 -0.6276  0.2746  0.8856
 8780SOL    HW137973   0.473   1.405   5.525 -0.4244 -0.2713  0.8698
 8780SOL    HW237974   0.412   1.291   5.453  0.8501  1.2930 -0.3117
 8781SOL     OW37975   2.325   0.141   3.931  0.0154 -0.3248 -0.1167
 8781SOL    HW137976   2.420   0.137   3.919 -0.1864 -2.2107 -1.0320
 8781SOL    HW237977   2.307   0.050   3.910  3.0274 -1.0991  0.7687
 8782SOL     OW37978   1.692   2.018  13.548 -0.4530 -0.1481  0.0966
 8782SOL    HW137979   1.607   2.043  13.584 -0.2591 -1.4976  1.4890
 8782SOL    HW237980   1.730   1.982  13.628 -0.9702  1.9882  1.2910
 8783SOL     OW37981   4.153   3.497   8.996  0.6438  0.2025  0.2122
 8783SOL    HW137982   4.179   3.548   9.073 -0.7015 -1.7507  1.9340
 8783SOL    HW237983   4.067   3.464   9.021  1.5274 -1.6410  0.7743
 8784SOL     OW37984   1.245   1.217   7.489  0.1608  0.4717  0.3566
 8784SOL    HW137985   1.297   1.296   7.472 -0.0298  0.5264  0.0354
 8784SOL    HW237986   1.200   1.198   7.407 -1.3364  2.1369  0.7801
 8785SOL     OW37987   4.179   3.013   6.040  0.1591 -0.3181 -0.6234
 8785SOL    HW137988   4.150   2.944   5.981 -1.7947  0.0763 -0.1397
 8785SOL    HW237989   4.114   2.998   6.109  0.7682  0.5442  0.1494
 8786SOL     OW37990   1.102   4.207   2.525  0.1886 -0.0844 -0.3742
 8786SOL    HW137991   1.149   4.291   2.522  1.3763 -0.7921 -1.4954
 8786SOL    HW237992   1.069   4.209   2.614 -0.9459 -0.2863 -0.7959
 8787SOL     OW37993   3.099   1.177   4.024 -0.2138 -0.6706  0.0955
 8787SOL    HW137994   3.069   1.207   4.110  0.1524 -1.4714  0.5056
 8787SOL    HW237995   3.103   1.082   4.035  1.2468 -0.6647 -0.3872
 8788SOL     OW37996   2.170   0.937  11.768  0.4461  0.3042  0.3571
 8788SOL    HW137997   2.175   0.864  11.830  1.1451  0.7933  0.8904
 8788SOL    HW237998   2.108   0.905  11.704 -0.5423 -0.3121  1.6242
 8789SOL     OW37999   4.497   0.189   4.684  0.2421 -0.1020 -0.2202
 8789SOL    HW138000   4.457   0.133   4.618  0.6924  1.5912 -1.9275
 8789SOL    HW238001   4.555   0.239   4.627 -0.2607  0.5639 -0.1525
 8790SOL     OW38002   2.999   2.066   5.360 -0.7228  0.2232 -0.4501
 8790SOL    HW138003   2.934   1.996   5.353  0.2845 -1.0237  2.8607
 8790SOL    HW238004   3.057   2.040   5.289 -0.3947  1.9577 -0.8175
 8791SOL     OW38005   0.773   3.393   8.542 -0.4602  0.3153  0.5725
 8791SOL    HW138006   0.838   3.344   8.593 -1.2834 -0.9545  0.4056
 8791SOL    HW238007   0.696   3.377   8.597 -0.7044  1.9956  0.7164
 8792SOL     OW38008   2.369   4.050   1.043 -0.3508 -0.0906 -0.1276
 8792SOL    HW138009   2.453   4.033   1.084  1.1797 -0.4301 -3.3953
 8792SOL    HW238010   2.348   3.968   0.999  1.3347 -0.3192 -0.5123
 8793SOL     OW38011   4.609   1.483   4.372  0.1415  0.0589 -0.2931
 8793SOL    HW138012   4.541   1.457   4.310  1.1619 -0.6553 -1.1180
 8793SOL    HW238013   4.662   1.555   4.338 -0.5420  0.2617 -0.9131
 8794SOL     OW38014   1.021   4.364   5.947 -0.4019  0.1249 -0.0636
 8794SOL    HW138015   1.019   4.349   6.042  1.5025  0.2130 -0.0057
 8794SOL    HW238016   1.057   4.453   5.944 -1.1682  0.4398  0.2646
 8795SOL     OW38017   0.089   0.164   3.875  0.1769 -0.3500 -0.8881
 8795SOL    HW138018   0.058   0.215   3.801 -1.5877 -0.1256  0.0030
 8795SOL    HW238019   0.066   0.074   3.852 -0.0701 -0.1195 -1.5267
 8796SOL     OW38020   0.913   1.094   8.932  0.2579 -0.1721 -0.5246
 8796SOL    HW138021   0.892   1.187   8.922  0.1343 -0.1669 -0.2055
 8796SOL    HW238022   0.952   1.082   9.018  0.8195  1.5909 -0.5366
 8797SOL     OW38023   3.871   2.932  17.728 -0.2386 -0.3770 -0.1984
 8797SOL    HW138024   3.880   2.983   0.052 -0.2416 -1.1177  0.2764
 8797SOL    HW238025   3.897   2.851   0.016 -0.9498  0.0818  1.0289
 8798SOL     OW38026   4.429   1.333   3.980  0.0218 -0.1214 -0.3358
 8798SOL    HW138027   4.465   1.315   4.067 -0.0014  2.5709  0.2485
 8798SOL    HW238028   4.335   1.334   3.999  0.6106 -0.8719  2.6513
 8799SOL     OW38029   2.163   0.858  15.134 -0.2670  0.2015  0.3774
 8799SOL    HW138030   2.083   0.861  15.186 -1.7497  0.2826 -1.8952
 8799SOL    HW238031   2.211   0.930  15.173  0.2122  0.9600 -1.5887
 8800SOL     OW38032   1.968   0.479   7.813  0.0941 -0.1709  0.2791
 8800SOL    HW138033   1.873   0.492   7.811  0.0261 -0.3470  2.6901
 8800SOL    HW238034   1.987   0.555   7.759 -0.0314 -0.3391 -0.0021
 8801SOL     OW38035   3.188   1.927   6.098 -0.3665  0.1726 -0.1064
 8801SOL    HW138036   3.193   2.020   6.076  1.6186 -0.1593 -1.0653
 8801SOL    HW238037   3.227   1.935   6.185  1.7658  0.2997 -1.0588
 8802SOL     OW38038   0.711   0.284   2.618 -0.6088 -0.3990  0.1818
 8802SOL    HW138039   0.655   0.275   2.695  0.4515  0.8932  1.1104
 8802SOL    HW238040   0.704   0.379   2.607 -1.0125 -0.4515 -0.0308
 8803SOL     OW38041   4.139   0.604   3.880 -0.0230 -0.4762  0.1755
 8803SOL    HW138042   4.148   0.523   3.830  0.2008 -0.5318  0.3086
 8803SOL    HW238043   4.177   0.587   3.966  0.3208  0.3911  0.1939
 8804SOL     OW38044   4.266   2.483  14.029  0.7764 -0.5240 -0.1036
 8804SOL    HW138045   4.251   2.452  13.939 -1.2170 -2.2160  0.8159
 8804SOL    HW238046   4.230   2.570  14.044  1.1136 -0.5314  0.7090
 8805SOL     OW38047   2.723   0.460   4.565 -0.4339 -0.1936 -0.3753
 8805SOL    HW138048   2.644   0.474   4.617  0.2052  1.9295 -0.0047
 8805SOL    HW238049   2.701   0.376   4.525  0.3139  0.0064 -1.2111
 8806SOL     OW38050   2.946   1.557   4.424 -0.0589  0.3383  0.0049
 8806SOL    HW138051   2.896   1.559   4.505  1.6852 -2.1265  1.1421
 8806SOL    HW238052   2.882   1.538   4.355 -0.9370  2.8644  0.1098
 8807SOL     OW38053   0.471   4.457   6.871 -0.2296  0.1687 -0.2606
 8807SOL    HW138054   0.553   4.460   6.822 -1.5254 -1.4032 -2.5825
 8807SOL    HW238055   0.444   4.370   6.840  0.6542 -0.2905  0.2841
 8808SOL     OW38056   1.479   3.678   6.672 -0.5424  0.0116  0.1307
 8808SOL    HW138057   1.570   3.661   6.649 -0.1556  0.7059  1.1872
 8808SOL    HW238058   1.431   3.602   6.637 -4.1456  1.6054  1.6501
 8809SOL     OW38059   4.051   4.360   4.356 -0.4909 -0.0167  0.4868
 8809SOL    HW138060   4.139   4.324   4.363 -0.3985 -0.2617 -1.8454
 8809SOL    HW238061   4.070   4.454   4.351 -0.2125 -0.0611  0.7681
 8810SOL     OW38062   3.524   1.326  13.301 -0.5927 -0.2934 -0.0145
 8810SOL    HW138063   3.525   1.274  13.221  3.2622  0.3444 -0.3761
 8810SOL    HW238064   3.507   1.403  13.247  0.0655  0.3123  0.6351
 8811SOL     OW38065   3.878   4.423   8.627  0.2469  0.1868  0.4024
 8811SOL    HW138066   3.831   4.505   8.624  1.4688  0.9751  2.3064
 8811SOL    HW238067   3.833   4.378   8.556  1.6617 -0.5086 -0.0589
 8812SOL     OW38068   0.169   1.870   5.152 -0.9561  0.2054  0.5856
 8812SOL    HW138069   0.135   1.918   5.227 -0.3643 -0.4421  1.2622
 8812SOL    HW238070   0.240   1.824   5.196 -1.1553 -1.8252 -1.2346
 8813SOL     OW38071   2.025   4.646  13.824 -0.4322 -0.0033  0.2579
 8813SOL    HW138072   2.081   4.695  13.884 -2.0699  0.1471  1.6655
 8813SOL    HW238073   2.088   4.608  13.763 -0.1703  0.5671  0.1777
 8814SOL     OW38074   4.310   4.056   3.096 -0.5870 -0.1427  0.0554
 8814SOL    HW138075   4.366   4.101   3.033  0.9565  0.7022  2.0306
 8814SOL    HW238076   4.354   3.972   3.107 -0.6526 -0.5863 -3.1361
 8815SOL     OW38077   2.077   1.786   1.085  0.5582  0.3073  0.0494
 8815SOL    HW138078   2.073   1.781   1.180 -2.0264  1.2369 -0.0245
 8815SOL    HW238079   2.106   1.876   1.069 -0.3130 -0.0597 -3.5435
 8816SOL     OW38080   2.741   1.072   8.280  0.6146 -0.1335  0.4288
 8816SOL    HW138081   2.802   1.056   8.351  0.7759 -0.2484  0.2650
 8816SOL    HW238082   2.772   1.020   8.206 -1.5301  1.5408 -1.6495
 8817SOL     OW38083   2.784   2.611   2.753  0.7264  0.2422 -0.8334
 8817SOL    HW138084   2.707   2.614   2.810  1.7989  2.0138  0.5245
 8817SOL    HW238085   2.769   2.523   2.718 -0.0081 -0.8485  2.1819
 8818SOL     OW38086   2.320   3.987   0.065  0.2088  0.0665 -0.2482
 8818SOL    HW138087   2.289   4.051   0.001 -0.7755  0.3127  0.4608
 8818SOL    HW238088   2.371   3.940  17.756  0.9173 -0.5479  0.7370
 8819SOL     OW38089   3.289   4.060  10.714 -0.6350  0.4402  0.4008
 8819SOL    HW138090   3.377   4.078  10.747 -0.4257 -0.4137  0.3276
 8819SOL    HW238091   3.260   4.000  10.783 -1.2655 -1.7744 -1.7567
 8820SOL     OW38092   2.342   2.012   2.751  0.1692 -0.0334 -0.2890
 8820SOL    HW138093   2.335   2.077   2.681  0.0686  1.6674  1.3011
 8820SOL    HW238094   2.421   1.968   2.720 -0.4921 -2.4973  1.5527
 8821SOL     OW38095   2.433   3.957   0.354  0.4083 -0.2549 -0.2705
 8821SOL    HW138096   2.484   4.037   0.343  0.3073 -0.3966 -1.8211
 8821SOL    HW238097   2.385   3.952   0.271  1.5549 -1.9591 -0.8462
 8822SOL     OW38098   2.644   3.877   8.231 -0.3626  0.4304 -0.2242
 8822SOL    HW138099   2.627   3.865   8.137 -0.1033 -2.5255  0.0813
 8822SOL    HW238100   2.650   3.785   8.257  1.9650  0.6783  0.0591
 8823SOL     OW38101   2.966   0.472   3.576 -0.1591 -0.6861  0.0866
 8823SOL    HW138102   2.923   0.422   3.645 -0.1770 -1.0884 -0.2119
 8823SOL    HW238103   2.896   0.510   3.523 -0.3092 -0.7818  0.2165
 8824SOL     OW38104   0.123   4.120   2.358  0.1231 -0.4167 -0.3407
 8824SOL    HW138105   0.037   4.085   2.380 -0.2949  1.4571  1.0939
 8824SOL    HW238106   0.118   4.213   2.379  0.8819 -0.7863  1.5635
 8825SOL     OW38107   2.367   2.466   7.082  0.2918  0.1846 -0.1398
 8825SOL    HW138108   2.398   2.553   7.105 -0.7957  0.6159 -0.2788
 8825SOL    HW238109   2.436   2.445   7.020  1.7729 -0.3001  1.6745
 8826SOL     OW38110   1.903   1.514   6.094  0.3756 -0.1611  0.7664
 8826SOL    HW138111   1.983   1.558   6.067  0.0723 -0.0036  0.1243
 8826SOL    HW238112   1.880   1.577   6.162  0.6175  0.1346  0.5732
 8827SOL     OW38113   3.187   1.734  12.459 -0.3833  0.2284 -0.7873
 8827SOL    HW138114   3.210   1.765  12.546 -1.8601 -1.8955  0.3872
 8827SOL    HW238115   3.100   1.774  12.459  0.0312  1.1108 -0.6277
 8828SOL     OW38116   0.421   3.461   7.790  0.4021  0.1555 -0.3843
 8828SOL    HW138117   0.366   3.540   7.793  0.6160  0.2963 -0.2203
 8828SOL    HW238118   0.429   3.448   7.696 -0.7723 -2.3221 -0.1498
 8829SOL     OW38119   1.577   0.538   7.007 -0.6227  0.2849  0.0363
 8829SOL    HW138120   1.572   0.447   7.036  0.0838  0.1938 -0.1300
 8829SOL    HW238121   1.545   0.575   7.089  2.2172  0.0927  1.2519
 8830SOL     OW38122   3.999   2.357   1.783 -0.1063 -0.1011 -0.2887
 8830SOL    HW138123   4.050   2.277   1.795 -0.4707 -0.2251  0.4651
 8830SOL    HW238124   3.916   2.318   1.753 -1.0963  0.9308  1.0837
 8831SOL     OW38125   4.475   3.969  13.933  0.0140 -0.4743 -0.0718
 8831SOL    HW138126   4.468   4.062  13.956 -0.8975 -0.9906  1.7687
 8831SOL    HW238127   4.431   3.930  14.008 -0.8673 -1.7856 -1.2739
 8832SOL     OW38128   1.117   1.237   2.072 -0.5315  0.1120 -0.1797
 8832SOL    HW138129   1.152   1.317   2.110 -1.2926  0.5085 -0.3167
 8832SOL    HW238130   1.195   1.205   2.027 -0.7762  0.7191 -1.0455
 8833SOL     OW38131   3.764   0.917   2.300 -0.1232 -0.0405  0.0593
 8833SOL    HW138132   3.851   0.954   2.292  0.2046 -0.6414  0.8807
 8833SOL    HW238133   3.718   0.997   2.274 -0.2565 -0.1739 -0.1165
 8834SOL     OW38134   1.040   3.036   7.148 -0.6388 -0.3199  0.1102
 8834SOL    HW138135   0.968   3.004   7.093 -0.8232  1.4882 -0.6877
 8834SOL    HW238136   1.086   2.956   7.172 -0.4260 -0.6947 -1.5330
 8835SOL     OW38137   0.802   0.370   8.490 -0.6447 -0.2325  0.5146
 8835SOL    HW138138   0.738   0.325   8.435  0.3956  0.8372 -1.5440
 8835SOL    HW238139   0.813   0.299   8.554  0.5856  1.1246  1.8223
 8836SOL     OW38140   2.528   3.152   5.411  0.5844  0.5910  0.0201
 8836SOL    HW138141   2.539   3.232   5.360  2.4804 -0.9607 -1.9800
 8836SOL    HW238142   2.562   3.177   5.497 -1.5456  0.0305  1.0218
 8837SOL     OW38143   3.675   0.130  12.006  0.0543 -0.6899 -0.2727
 8837SOL    HW138144   3.664   0.211  12.057  2.3888  0.3873 -1.5119
 8837SOL    HW238145   3.707   0.151  11.919 -1.3969  0.3476 -0.5660
 8838SOL     OW38146   1.614   3.088  14.715  0.2911 -0.1145  0.4447
 8838SOL    HW138147   1.700   3.063  14.682 -0.0287 -3.8759  2.4673
 8838SOL    HW238148   1.590   3.011  14.767 -3.0775  0.5703 -0.1130
 8839SOL     OW38149   0.662   3.948  16.063  0.2873 -0.4088  0.2114
 8839SOL    HW138150   0.649   3.974  15.971 -1.6343 -0.1841  0.5587
 8839SOL    HW238151   0.714   4.025  16.086  3.1704 -1.6892 -1.8288
 8840SOL     OW38152   3.646   1.225  17.267  0.0905 -0.3273 -0.0785
 8840SOL    HW138153   3.638   1.136  17.301  0.2136 -0.4089 -0.2715
 8840SOL    HW238154   3.668   1.203  17.177  0.6557  0.2082 -0.0719
 8841SOL     OW38155   1.405   4.020   5.772  0.0901 -0.3423  0.4456
 8841SOL    HW138156   1.338   4.064   5.825  0.2157  1.4153 -0.8418
 8841SOL    HW238157   1.474   4.086   5.780 -1.8288  1.7346  0.1693
 8842SOL     OW38158   1.450   4.226   3.281  0.0071 -0.2755 -0.0913
 8842SOL    HW138159   1.455   4.131   3.268 -0.6561 -0.5858  1.8784
 8842SOL    HW238160   1.375   4.259   3.233  0.0879  0.4060  0.2576
 8843SOL     OW38161   0.655   0.084   7.360 -0.8953  0.0010  0.6273
 8843SOL    HW138162   0.697   0.003   7.329 -0.2923  0.2380  0.8302
 8843SOL    HW238163   0.594   0.039   7.419 -0.5989  0.4409  1.2604
 8844SOL     OW38164   4.440   2.135   5.390 -0.2148  0.1780  1.0123
 8844SOL    HW138165   4.347   2.154   5.380 -0.3034 -0.8303 -0.1245
 8844SOL    HW238166   4.458   2.075   5.317  3.3671  0.7438  1.4587
 8845SOL     OW38167   3.347   3.150   6.821  0.0553  0.2142 -0.3995
 8845SOL    HW138168   3.353   3.182   6.911 -2.5764  1.1891 -0.5815
 8845SOL    HW238169   3.315   3.235   6.790 -0.2003  0.1958 -0.1855
 8846SOL     OW38170   1.228   0.885  16.316  0.0679 -0.4085  0.0593
 8846SOL    HW138171   1.199   0.867  16.226 -3.3023  2.1500  0.6460
 8846SOL    HW238172   1.268   0.970  16.300 -2.2185  0.9140  1.3158
 8847SOL     OW38173   2.193   2.973   8.720  0.2197  0.5410 -0.1221
 8847SOL    HW138174   2.139   2.992   8.796 -0.0504 -0.7177  0.0015
 8847SOL    HW238175   2.197   3.062   8.687  0.0496 -0.6312 -3.2843
 8848SOL     OW38176   1.356   0.532   6.667 -0.1674  0.0346  0.1254
 8848SOL    HW138177   1.316   0.525   6.754  2.2066 -0.2411  1.1989
 8848SOL    HW238178   1.413   0.608   6.672 -1.5716  0.9676  1.8739
 8849SOL     OW38179   3.931   0.613   9.300  0.1206  0.4746  0.2126
 8849SOL    HW138180   3.950   0.519   9.305  0.5060  0.6289  1.9289
 8849SOL    HW238181   3.999   0.640   9.239  1.0848 -2.5505 -0.0696
 8850SOL     OW38182   0.403   0.478  13.121 -0.3234  0.2560 -0.0541
 8850SOL    HW138183   0.400   0.571  13.143  2.5997  0.8149 -2.1549
 8850SOL    HW238184   0.469   0.441  13.181  1.0301  0.4560 -1.4296
 8851SOL     OW38185   3.035   0.915   3.697 -0.1019 -0.4812 -0.5691
 8851SOL    HW138186   3.074   0.829   3.707  3.1021  1.2157  1.4815
 8851SOL    HW238187   3.095   0.962   3.756  1.1110  0.9061 -2.9073
 8852SOL     OW38188   1.283   2.985  14.861  0.0593 -0.1197 -0.1996
 8852SOL    HW138189   1.331   3.010  14.939 -0.9646 -0.6027  0.5752
 8852SOL    HW238190   1.209   2.938  14.900  0.5838 -2.7968 -2.3868
 8853SOL     OW38191   1.432   3.951  15.912  0.0551 -0.1322 -0.2233
 8853SOL    HW138192   1.414   4.007  15.988  3.1751 -0.2226  0.5553
 8853SOL    HW238193   1.519   3.979  15.884  0.2326 -0.6907 -0.2297
 8854SOL     OW38194   0.170   3.621   8.367  0.6018 -0.6952  0.1747
 8854SOL    HW138195   0.104   3.552   8.355  0.4807 -0.4280 -0.7245
 8854SOL    HW238196   0.207   3.590   8.449  0.8352  2.3926  1.2313
 8855SOL     OW38197   0.603   0.349  13.410 -0.4080 -0.0663  0.1387
 8855SOL    HW138198   0.667   0.412  13.443  1.5599 -0.4296 -2.9255
 8855SOL    HW238199   0.664   0.278  13.389 -0.3413 -0.6344  2.2880
 8856SOL     OW38200   1.203   2.624  12.625 -0.7870  0.1663  0.0674
 8856SOL    HW138201   1.233   2.689  12.562 -1.3743 -0.7049 -1.1310
 8856SOL    HW238202   1.285   2.619  12.674 -2.1619  0.5345  2.4103
 8857SOL     OW38203   4.267   2.558   4.078  0.4939  0.0929 -0.0004
 8857SOL    HW138204   4.245   2.644   4.042 -0.5797  0.9781  2.8392
 8857SOL    HW238205   4.241   2.569   4.169  0.7662  2.0292 -0.1638
 8858SOL     OW38206   0.340   4.003  11.064  0.1833  0.2280 -0.0988
 8858SOL    HW138207   0.381   4.027  10.980 -1.6452 -0.7172 -1.2703
 8858SOL    HW238208   0.390   4.065  11.117 -0.9022 -0.3236  1.5460
 8859SOL     OW38209   2.200   2.254   2.174  0.1175  0.1785 -1.0844
 8859SOL    HW138210   2.243   2.177   2.211 -0.6096  1.0380  1.5764
 8859SOL    HW238211   2.182   2.300   2.257 -0.6584 -1.7223 -0.2080
 8860SOL     OW38212   4.285   0.263   1.867 -0.2720  0.6101 -0.1013
 8860SOL    HW138213   4.190   0.275   1.867 -0.5466 -1.5365 -2.6976
 8860SOL    HW238214   4.287   0.178   1.823 -0.5071  0.8347 -0.5437
 8861SOL     OW38215   1.855   2.271   3.773  0.0832 -0.4441 -0.8494
 8861SOL    HW138216   1.802   2.302   3.699 -0.5286 -0.9061 -0.6127
 8861SOL    HW238217   1.799   2.286   3.849 -0.0332 -0.7199 -0.8792
 8862SOL     OW38218   0.114   1.150   6.140  0.6519 -0.4052  0.6232
 8862SOL    HW138219   0.193   1.180   6.184 -0.7263  0.4331  2.5179
 8862SOL    HW238220   0.106   1.219   6.073 -0.7186 -1.0672  0.1024
 8863SOL     OW38221   1.595   2.566   5.094 -0.0665  0.1744 -0.1129
 8863SOL    HW138222   1.614   2.635   5.030  0.7424 -0.2261 -0.2999
 8863SOL    HW238223   1.601   2.621   5.172  0.6056  0.9689 -0.7268
 8864SOL     OW38224   0.247   2.105   9.885  0.2153  0.1801  1.0452
 8864SOL    HW138225   0.302   2.146   9.953  1.5346  0.5790 -0.2724
 8864SOL    HW238226   0.260   2.013   9.910  0.0879 -0.3699 -0.8974
 8865SOL     OW38227   3.349   1.327   8.781  0.2980 -0.3937  0.9748
 8865SOL    HW138228   3.328   1.235   8.798  0.3969 -1.0293 -2.4148
 8865SOL    HW238229   3.400   1.343   8.860  3.0674  0.2260 -0.9509
 8866SOL     OW38230   3.612   3.071   9.564  0.5360  0.0318  0.5127
 8866SOL    HW138231   3.675   3.068   9.491 -1.7546  0.6883 -1.5103
 8866SOL    HW238232   3.555   3.146   9.547 -1.3818 -1.0111  2.4697
 8867SOL     OW38233   2.359   3.371   7.262 -0.2811 -0.8302 -0.1240
 8867SOL    HW138234   2.288   3.311   7.286  1.0956 -2.2458  0.3431
 8867SOL    HW238235   2.340   3.450   7.313  0.1528 -0.0618 -1.1528
 8868SOL     OW38236   2.597   1.098  11.681 -0.0245  0.0921 -0.0144
 8868SOL    HW138237   2.658   1.106  11.608 -0.2955 -0.6143 -0.3165
 8868SOL    HW238238   2.514   1.086  11.634 -0.0806 -0.1644  0.1485
 8869SOL     OW38239   4.261   3.251   6.357  0.0632  0.1331  0.2012
 8869SOL    HW138240   4.345   3.258   6.401  0.8385 -1.0974 -1.0645
 8869SOL    HW238241   4.225   3.175   6.404  1.9814  1.1454  3.3079
 8870SOL     OW38242   2.044   0.402   6.044  0.6246  0.5134 -0.5522
 8870SOL    HW138243   2.121   0.392   6.100 -0.7176  0.2314  1.2878
 8870SOL    HW238244   2.018   0.494   6.041  1.0688  0.7341  2.3889
 8871SOL     OW38245   2.809   3.941   4.614 -0.6901 -0.8273 -0.0490
 8871SOL    HW138246   2.859   3.902   4.542  2.0952  1.0298  0.9067
 8871SOL    HW238247   2.762   3.864   4.647 -1.2615 -0.8588 -0.9151
 8872SOL     OW38248   3.352   3.107  15.678  0.1716  0.2106 -0.0586
 8872SOL    HW138249   3.303   3.164  15.737  1.0556 -0.5725  1.4317
 8872SOL    HW238250   3.422   3.166  15.649  0.3418 -0.1151 -0.3095
 8873SOL     OW38251   2.063   4.681   4.368  0.1309 -0.1665 -0.8005
 8873SOL    HW138252   2.099   4.695   4.280  0.1653  1.0383 -0.6002
 8873SOL    HW238253   2.065   4.586   4.373 -0.5173 -0.1871 -0.9282
 8874SOL     OW38254   1.834   1.197  13.627  0.4862  0.4943  0.5114
 8874SOL    HW138255   1.892   1.258  13.581  1.7113 -0.6984  0.4777
 8874SOL    HW238256   1.788   1.258  13.684 -0.0255 -1.5253  2.2271
 8875SOL     OW38257   1.591   3.453   5.508 -0.2657  0.0075 -0.4064
 8875SOL    HW138258   1.666   3.428   5.453 -0.2949  0.3256 -0.5891
 8875SOL    HW238259   1.546   3.510   5.446 -0.9930 -0.1142  0.0109
 8876SOL     OW38260   4.448   2.504   5.043 -0.6537  0.5042 -0.2061
 8876SOL    HW138261   4.447   2.415   5.009  0.6795 -0.2451  1.7028
 8876SOL    HW238262   4.417   2.559   4.971 -1.8488 -0.7931 -0.6960
 8877SOL     OW38263   4.404   0.710  13.470 -0.1124 -0.2110 -0.4285
 8877SOL    HW138264   4.432   0.661  13.393 -0.0297 -1.2071  0.2379
 8877SOL    HW238265   4.319   0.749  13.448 -0.7181 -1.9501 -1.1700
 8878SOL     OW38266   3.632   1.921   1.378 -0.0842  0.0772 -0.1353
 8878SOL    HW138267   3.680   1.839   1.390 -0.9712 -0.4051  0.1607
 8878SOL    HW238268   3.689   1.985   1.420 -0.0998 -0.1331  0.2063
 8879SOL     OW38269   2.575   1.855   4.219 -0.4939  0.6671  0.4653
 8879SOL    HW138270   2.664   1.871   4.184 -0.1470 -1.9937  0.1690
 8879SOL    HW238271   2.604   1.828   4.306  0.1832 -0.7924 -0.2156
 8880SOL     OW38272   0.517   3.684  13.961  0.0709 -0.1748  0.2415
 8880SOL    HW138273   0.457   3.611  13.977  0.4756  0.0886  2.9315
 8880SOL    HW238274   0.586   3.684  14.027 -0.1098 -0.4511  0.4263
 8881SOL     OW38275   2.993   3.634   3.097 -0.3685  0.0672  0.2467
 8881SOL    HW138276   3.084   3.663   3.099  0.1921 -1.3640 -4.3596
 8881SOL    HW238277   2.982   3.589   3.181  2.0931 -1.6237 -0.3505
 8882SOL     OW38278   1.960   0.538   5.708  0.6569 -0.1053 -0.3006
 8882SOL    HW138279   1.963   0.591   5.788  1.9007 -0.9221  0.2020
 8882SOL    HW238280   2.049   0.505   5.721  1.3408  1.6289 -0.6758
 8883SOL     OW38281   0.406   3.761  10.823 -0.5226 -0.2613 -0.0228
 8883SOL    HW138282   0.361   3.777  10.740  0.8452 -0.4401 -0.7954
 8883SOL    HW238283   0.487   3.808  10.801 -1.4523  1.7755  0.8763
 8884SOL     OW38284   4.212   1.143   3.361 -0.1528 -0.0901  0.1092
 8884SOL    HW138285   4.210   1.220   3.304 -1.4697 -0.4663 -0.3402
 8884SOL    HW238286   4.151   1.087   3.313 -0.5174 -1.2476  1.9343
 8885SOL     OW38287   3.150   1.859   0.373 -0.4452 -0.1290  0.5046
 8885SOL    HW138288   3.113   1.818   0.451 -1.1032  1.2328  0.9066
 8885SOL    HW238289   3.214   1.791   0.351 -1.9636 -1.5250  0.3932
 8886SOL     OW38290   3.158   3.686  15.343  0.2655 -0.2110  0.0899
 8886SOL    HW138291   3.175   3.659  15.433 -0.2455  0.8111  0.4893
 8886SOL    HW238292   3.066   3.711  15.346  0.7544  1.6855 -0.5007
 8887SOL     OW38293   3.656   0.972   4.491 -0.6301  0.5887  0.3554
 8887SOL    HW138294   3.656   0.996   4.583 -0.0743  1.2082  0.1935
 8887SOL    HW238295   3.585   1.034   4.476 -1.1252 -0.4431 -1.5524
 8888SOL     OW38296   1.886   2.138  16.917 -0.5961  0.3985 -0.5196
 8888SOL    HW138297   1.918   2.048  16.929 -1.1657  0.1908 -0.5088
 8888SOL    HW238298   1.797   2.130  16.954 -0.6601  0.4552 -0.6618
 8889SOL     OW38299   1.759   0.750   9.672 -0.5144  0.0488 -0.3062
 8889SOL    HW138300   1.706   0.829   9.659 -1.4961 -0.1735  2.2462
 8889SOL    HW238301   1.845   0.785   9.650  0.0910 -2.1438 -1.3658
 8890SOL     OW38302   4.022   2.854   6.258 -0.3880 -0.0880 -0.6627
 8890SOL    HW138303   3.966   2.893   6.325  1.0000 -0.8061  0.9185
 8890SOL    HW238304   3.976   2.772   6.235  0.5797 -1.4884  2.4772
 8891SOL     OW38305   3.046   1.804   7.601 -0.9512 -0.3371  0.3267
 8891SOL    HW138306   3.099   1.725   7.603  0.3973  0.5677  0.2204
 8891SOL    HW238307   3.111   1.857   7.648  1.1618 -1.6254 -1.1779
 8892SOL     OW38308   2.935   2.094   9.201  0.2248 -0.4168 -0.2682
 8892SOL    HW138309   2.839   2.091   9.197  0.1953 -0.4857  0.5326
 8892SOL    HW238310   2.960   2.047   9.280 -0.5764 -0.5987 -0.1214
 8893SOL     OW38311   1.456   0.450   5.628  0.3250  0.0168 -0.5068
 8893SOL    HW138312   1.443   0.537   5.591 -0.0272  0.8940  1.6639
 8893SOL    HW238313   1.530   0.460   5.688  0.2222 -2.7802  0.1060
 8894SOL     OW38314   4.318   2.208   6.728 -0.3987  0.1135  0.2260
 8894SOL    HW138315   4.329   2.149   6.803 -0.0258  0.8592  0.7637
 8894SOL    HW238316   4.238   2.251   6.757 -0.3046 -1.1121  2.2891
 8895SOL     OW38317   3.301   3.956   3.225 -0.3541 -0.0651  0.4375
 8895SOL    HW138318   3.310   3.862   3.240  1.4490 -0.1191 -0.9135
 8895SOL    HW238319   3.311   3.962   3.130 -2.1074  0.2982  0.2859
 8896SOL     OW38320   3.844   4.700  10.202  0.1964 -0.2883 -0.0010
 8896SOL    HW138321   3.915   4.639  10.223  0.2529 -0.4146 -0.5522
 8896SOL    HW238322   3.893   0.026  10.152  1.1528 -0.9697  0.0280
 8897SOL     OW38323   3.109   3.328  13.195 -0.4392  0.0397 -0.1781
 8897SOL    HW138324   3.047   3.381  13.245 -0.1144 -1.0121  1.3095
 8897SOL    HW238325   3.159   3.388  13.139  1.1233 -0.1409  1.0290
 8898SOL     OW38326   0.210   2.599   5.345 -0.1269 -0.1669 -0.1839
 8898SOL    HW138327   0.258   2.658   5.287 -1.0497  2.3328  1.6026
 8898SOL    HW238328   0.122   2.632   5.324 -0.4965 -0.2702  1.1910
 8899SOL     OW38329   3.919   1.803  12.068  0.4077  0.7118  0.1550
 8899SOL    HW138330   4.011   1.819  12.089 -0.6360  2.7628  3.2560
 8899SOL    HW238331   3.885   1.875  12.122 -0.9861  0.1372  0.0497
 8900SOL     OW38332   4.104   1.838  15.819  0.5093 -0.1770  0.0928
 8900SOL    HW138333   4.049   1.914  15.801  2.6180  0.9291 -1.7210
 8900SOL    HW238334   4.042   1.766  15.813  2.4611 -1.8113 -0.4812
 8901SOL     OW38335   2.164   4.324  13.864 -0.3273  0.5118  0.0440
 8901SOL    HW138336   2.148   4.243  13.815 -1.3176  0.9439 -0.3332
 8901SOL    HW238337   2.254   4.337  13.832 -0.6649  0.5645 -0.8843
 8902SOL     OW38338   1.671   2.413   3.219  0.1650  0.5248  0.3277
 8902SOL    HW138339   1.673   2.330   3.265  1.3229 -0.1477 -0.9366
 8902SOL    HW238340   1.649   2.461   3.298 -0.2373  0.8822 -0.0014
 8903SOL     OW38341   1.624   0.865   0.215  0.2085  0.3423  0.2023
 8903SOL    HW138342   1.573   0.838   0.291  2.8915 -3.2349  0.7429
 8903SOL    HW238343   1.695   0.803   0.232 -1.7204 -1.1556  2.8796
 8904SOL     OW38344   0.117   3.694   9.106  0.1653 -0.5423  0.8440
 8904SOL    HW138345   0.168   3.744   9.043  1.0361 -1.2203  1.0172
 8904SOL    HW238346   0.149   3.703   9.196  1.4255  1.2905  0.2184
 8905SOL     OW38347   4.725   3.424   8.372 -0.4459 -0.3139 -0.5990
 8905SOL    HW138348   0.020   3.335   8.371  1.2737  0.3496 -0.3406
 8905SOL    HW238349   4.660   3.422   8.441 -0.9639 -1.0889 -1.1038
 8906SOL     OW38350   2.183   3.388   5.227 -0.0725  0.2050 -0.1246
 8906SOL    HW138351   2.214   3.387   5.318 -2.0845 -0.6426  0.5683
 8906SOL    HW238352   2.229   3.318   5.181  1.4687  1.6364 -0.7255
 8907SOL     OW38353   2.863   3.444  12.040 -0.3841 -0.0661 -0.2494
 8907SOL    HW138354   2.811   3.371  12.006  0.8063 -1.9269  1.9132
 8907SOL    HW238355   2.802   3.486  12.100  1.2067  1.6994  0.1466
 8908SOL     OW38356   0.263   0.530   7.482 -0.3767  0.2014  0.3744
 8908SOL    HW138357   0.187   0.474   7.494  1.5331 -2.1707  1.3342
 8908SOL    HW238358   0.321   0.489   7.546 -0.6220 -1.1471 -0.2785
 8909SOL     OW38359   2.385   4.212   4.757 -0.0606 -0.2274 -0.5033
 8909SOL    HW138360   2.392   4.208   4.852 -0.6620  1.1292 -0.3988
 8909SOL    HW238361   2.291   4.232   4.755 -0.5078 -2.2972  0.1995
 8910SOL     OW38362   0.971   3.429   3.777  0.5706 -0.1236  0.0077
 8910SOL    HW138363   1.030   3.387   3.715  1.0771  0.0203  0.3891
 8910SOL    HW238364   0.933   3.355   3.823  1.4971 -0.1285  0.7689
 8911SOL     OW38365   2.093   3.803   7.794  0.0663  0.3320 -0.4916
 8911SOL    HW138366   2.128   3.715   7.781  0.4464  0.8123 -2.7830
 8911SOL    HW238367   2.070   3.797   7.886 -2.3629 -1.6589 -1.2203
 8912SOL     OW38368   2.290   2.257   8.619  0.3272 -0.2527  0.2677
 8912SOL    HW138369   2.321   2.168   8.638 -0.5152 -0.9980 -1.7402
 8912SOL    HW238370   2.299   2.311   8.697 -1.8452  0.6740 -0.1139
 8913SOL     OW38371   0.731   0.163   8.106 -0.1152  0.1192  0.1787
 8913SOL    HW138372   0.711   0.193   8.018  0.3042 -1.3856 -0.4190
 8913SOL    HW238373   0.712   0.069   8.098  0.6760 -0.0313  0.1083
 8914SOL     OW38374   0.012   3.751   3.030 -0.1894  0.0381 -0.3649
 8914SOL    HW138375   4.687   3.718   3.093  1.2041 -1.0650  0.4785
 8914SOL    HW238376   4.725   3.701   2.953 -0.2959 -1.7207  0.8061
 8915SOL     OW38377   0.441   0.653  16.729  0.0667  0.3991  0.0821
 8915SOL    HW138378   0.395   0.737  16.718  3.6258  2.2698 -0.4350
 8915SOL    HW238379   0.384   0.590  16.685  0.5270  0.3707 -0.4695
 8916SOL     OW38380   0.564   1.803   0.335 -0.0992  0.0345  0.6810
 8916SOL    HW138381   0.524   1.717   0.347  0.3193 -0.0556  1.4266
 8916SOL    HW238382   0.514   1.847   0.404 -2.1219 -0.3123 -0.5632
 8917SOL     OW38383   0.122   0.614   8.846 -0.6401  0.4419  0.2174
 8917SOL    HW138384   0.059   0.542   8.858 -1.3734  1.1694  0.7187
 8917SOL    HW238385   0.166   0.564   8.777 -1.8957 -0.8027  0.3080
 8918SOL     OW38386   0.246   2.889   8.775 -0.1777  0.3626 -0.4342
 8918SOL    HW138387   0.239   2.849   8.862 -0.6802  0.4778 -0.4237
 8918SOL    HW238388   0.340   2.900   8.787 -0.0764 -0.8407 -0.0572
 8919SOL     OW38389   4.556   1.074   4.420 -0.4453  0.5452  0.3176
 8919SOL    HW138390   4.524   1.035   4.501  1.0522 -1.9204 -0.2666
 8919SOL    HW238391   4.639   1.114   4.444 -0.4526  0.7355  0.0240
 8920SOL     OW38392   3.302   0.272   4.722 -0.0226  0.4783 -0.0652
 8920SOL    HW138393   3.289   0.188   4.678 -0.7154 -0.4772  1.9457
 8920SOL    HW238394   3.278   0.324   4.646  0.0470  0.4653 -0.0964
 8921SOL     OW38395   3.165   2.726   7.116  0.0695 -0.7446  0.4948
 8921SOL    HW138396   3.177   2.821   7.108 -0.2170 -0.7159  0.4281
 8921SOL    HW238397   3.253   2.689   7.112 -0.0892 -1.0768  0.0597
 8922SOL     OW38398   2.705   2.411  15.649 -0.1563 -0.1587  0.4990
 8922SOL    HW138399   2.616   2.447  15.650  0.4644  1.4499 -3.0972
 8922SOL    HW238400   2.748   2.485  15.692 -0.4920  0.0261  0.5162
 8923SOL     OW38401   0.913   1.292   6.041  0.0675 -0.4488  0.1939
 8923SOL    HW138402   0.879   1.273   6.128 -1.5866 -1.0678 -0.5846
 8923SOL    HW238403   1.006   1.290   6.063  0.1516 -0.4912 -0.1553
 8924SOL     OW38404   1.501   2.249  15.631  0.2453  0.4049 -0.4564
 8924SOL    HW138405   1.511   2.289  15.718  1.6931 -1.0793  0.0631
 8924SOL    HW238406   1.432   2.309  15.604 -0.6746 -0.4093  0.0764
 8925SOL     OW38407   1.681   2.188   8.195  0.5219  0.2062 -0.3797
 8925SOL    HW138408   1.639   2.129   8.258  1.2318 -1.0137 -1.0422
 8925SOL    HW238409   1.652   2.151   8.112 -1.0041 -0.5352  0.4946
 8926SOL     OW38410   0.661   1.669   1.559  0.0447 -0.2016  0.0043
 8926SOL    HW138411   0.698   1.700   1.642  0.7358  2.6974 -1.3807
 8926SOL    HW238412   0.610   1.596   1.594 -0.5000  0.2020  0.0684
 8927SOL     OW38413   2.178   3.320   2.004  0.0396 -0.1095  0.6093
 8927SOL    HW138414   2.166   3.253   2.071  2.5976  1.6632  2.7982
 8927SOL    HW238415   2.130   3.388   2.050  2.0935  0.3140  2.1079
 8928SOL     OW38416   1.321   2.036   1.060  0.6474  0.2036 -0.6530
 8928SOL    HW138417   1.292   2.008   0.974  1.6198 -1.0184 -0.5876
 8928SOL    HW238418   1.243   2.074   1.101 -0.0263 -2.7611  0.7932
 8929SOL     OW38419   3.691   0.762   5.353  0.0103 -0.2690  0.0969
 8929SOL    HW138420   3.659   0.741   5.266  0.3540 -0.2953 -0.0238
 8929SOL    HW238421   3.757   0.696   5.372 -1.4433 -1.9155 -0.5778
 8930SOL     OW38422   2.499   0.931  17.747  0.1913  0.5702  0.9462
 8930SOL    HW138423   2.559   0.906  17.677  2.7588  0.3608  3.2275
 8930SOL    HW238424   2.412   0.933  17.706  0.5954 -1.1050  0.0277
 8931SOL     OW38425   0.375   4.649   7.874  0.2893 -0.0389 -0.0502
 8931SOL    HW138426   0.319   4.624   7.800  1.7896  0.5759 -1.4160
 8931SOL    HW238427   0.396   4.561   7.906 -2.1249 -0.8577 -0.7322
 8932SOL     OW38428   4.161   1.370   7.633 -0.5638 -0.0406 -0.5900
 8932SOL    HW138429   4.252   1.364   7.605 -1.1146 -0.3607 -2.3067
 8932SOL    HW238430   4.176   1.391   7.725  1.1732 -1.2195 -0.6012
 8933SOL     OW38431   1.278   0.699   8.087 -0.0044 -0.1100  0.5482
 8933SOL    HW138432   1.224   0.620   8.081 -1.3121  0.8128  0.4054
 8933SOL    HW238433   1.304   0.709   7.996 -0.1492  2.0562  0.7421
 8934SOL     OW38434   2.660   4.631   7.012  0.5496 -0.6354 -0.3807
 8934SOL    HW138435   2.695   4.677   7.088 -0.4286  0.9649 -0.9008
 8934SOL    HW238436   2.603   4.695   6.969  0.1694 -1.0919 -0.5597
 8935SOL     OW38437   1.389   2.097   9.001 -0.1210  0.0327  0.2601
 8935SOL    HW138438   1.441   2.093   9.081 -0.1333  1.1119  0.3127
 8935SOL    HW238439   1.315   2.041   9.027 -1.6130  2.1936  0.6062
 8936SOL     OW38440   0.071   2.118   3.154  0.3414 -0.3724 -0.5815
 8936SOL    HW138441   0.056   2.168   3.234  0.9944 -0.3816 -0.4529
 8936SOL    HW238442   0.155   2.079   3.177  0.2878  0.1603  0.4978
 8937SOL     OW38443   3.581   4.408   6.307 -0.3743 -0.3766 -0.6561
 8937SOL    HW138444   3.510   4.345   6.300 -0.3328 -0.5172  0.2111
 8937SOL    HW238445   3.589   4.430   6.214  1.4424 -0.1199 -0.4337
 8938SOL     OW38446   2.454   0.132   5.751  0.3310 -0.0507 -0.3605
 8938SOL    HW138447   2.514   0.058   5.752 -0.8533 -1.0159 -0.5516
 8938SOL    HW238448   2.481   0.176   5.671  0.7881 -0.9585 -0.7083
 8939SOL     OW38449   3.226   4.497  17.179  0.0225  0.0225 -0.2537
 8939SOL    HW138450   3.208   4.403  17.171  0.9531 -0.2807  1.1771
 8939SOL    HW238451   3.147   4.528  17.135 -0.0455  1.9855  1.2411
 8940SOL     OW38452   2.485   1.476  15.845  0.3484 -0.1952 -0.0024
 8940SOL    HW138453   2.562   1.511  15.891  0.8240  2.0044 -2.5121
 8940SOL    HW238454   2.489   1.527  15.764 -2.0124  1.4738  0.9240
 8941SOL     OW38455   0.882   1.357   8.950 -0.4439  0.2987  0.0144
 8941SOL    HW138456   0.841   1.413   9.016  0.5354  0.8706  0.1234
 8941SOL    HW238457   0.976   1.363   8.964 -0.6757  1.9260  0.8589
 8942SOL     OW38458   3.696   1.335   8.752 -0.3341 -0.4649  0.1558
 8942SOL    HW138459   3.643   1.314   8.674 -3.9210  1.3124  2.1173
 8942SOL    HW238460   3.781   1.312   8.716 -0.0472 -0.1752  0.6554
 8943SOL     OW38461   3.224   0.711   5.410  0.2015  0.4495  0.4206
 8943SOL    HW138462   3.241   0.805   5.404  1.4456  0.3048  1.7610
 8943SOL    HW238463   3.216   0.705   5.506  0.7468 -1.1807  0.3680
 8944SOL     OW38464   2.880   3.723   6.793  0.2965 -0.3533  0.3870
 8944SOL    HW138465   2.922   3.665   6.857  0.8980  0.2783  0.5717
 8944SOL    HW238466   2.794   3.731   6.834  0.0096 -0.9790 -0.1057
 8945SOL     OW38467   3.206   1.681   6.041  0.2152 -0.4108 -0.3000
 8945SOL    HW138468   3.278   1.672   6.103 -0.8825 -3.0627  0.6097
 8945SOL    HW238469   3.178   1.768   6.067  1.0872 -0.1535 -0.2313
 8946SOL     OW38470   0.623   4.094   3.223  0.5375  0.7252  0.3937
 8946SOL    HW138471   0.702   4.043   3.204 -0.0218 -0.4733  1.2524
 8946SOL    HW238472   0.625   4.149   3.145 -0.5780 -0.8017 -0.7028
 8947SOL     OW38473   4.624   2.315   3.269 -0.0063 -0.3179 -0.4343
 8947SOL    HW138474   4.652   2.390   3.216  0.5384 -0.2527 -0.0556
 8947SOL    HW238475   4.567   2.353   3.335  0.8135  0.8280 -0.3793
 8948SOL     OW38476   3.566   0.087   6.447  0.3810 -0.3311 -0.1127
 8948SOL    HW138477   3.488   0.067   6.500 -0.6099 -0.7225 -1.6965
 8948SOL    HW238478   3.574   0.180   6.463  0.0295 -0.3042 -0.0808
 8949SOL     OW38479   4.640   1.576  10.989  0.0073  0.2099  0.0379
 8949SOL    HW138480   4.708   1.539  10.933 -0.1071 -0.0971  0.1071
 8949SOL    HW238481   4.671   1.667  10.981 -1.2027  0.8991  2.9917
 8950SOL     OW38482   1.574   0.453   3.654 -0.1848  0.2867 -0.0265
 8950SOL    HW138483   1.553   0.443   3.747  1.0867 -0.8668  0.1245
 8950SOL    HW238484   1.550   0.362   3.636 -1.5392  0.2083  2.1563
 8951SOL     OW38485   4.374   2.301   1.689 -0.6214 -0.4387  0.0192
 8951SOL    HW138486   4.342   2.237   1.753 -0.3181  0.2977  0.8991
 8951SOL    HW238487   4.348   2.379   1.739 -2.2190 -0.2385 -1.1186
 8952SOL     OW38488   0.415   0.773   4.696 -0.4605  0.0721  0.4331
 8952SOL    HW138489   0.466   0.791   4.775 -0.9860  1.3771  0.4629
 8952SOL    HW238490   0.451   0.685   4.684  1.3390  0.4401  2.8589
 8953SOL     OW38491   2.508   4.731  12.298  0.1882  0.0017  0.2626
 8953SOL    HW138492   2.499   0.010  12.205 -1.6399  0.8787  0.6238
 8953SOL    HW238493   2.481   0.075  12.337 -0.9616 -0.6343  0.8374
 8954SOL     OW38494   1.806   1.897   9.015  0.1703  0.1202  0.3606
 8954SOL    HW138495   1.815   1.894   8.920 -0.2707  0.0870  0.3205
 8954SOL    HW238496   1.830   1.987   9.036 -2.6733  0.9548  0.0639
 8955SOL     OW38497   0.152   3.637   2.733 -0.2649 -0.8754 -0.1243
 8955SOL    HW138498   0.212   3.711   2.743 -0.1232 -0.9565 -0.3691
 8955SOL    HW238499   0.110   3.656   2.649 -1.3502  0.1907  0.6579
 8956SOL     OW38500   0.284   3.771   8.040  0.5038  0.1184 -0.1311
 8956SOL    HW138501   0.374   3.744   8.021  1.0056  1.3805  0.4662
 8956SOL    HW238502   0.250   3.796   7.954 -0.6142 -0.3903  0.1641
 8957SOL     OW38503   3.152   1.449  12.000  0.3095  0.6801 -0.3625
 8957SOL    HW138504   3.191   1.361  12.007 -0.0030  0.5398 -0.4101
 8957SOL    HW238505   3.144   1.474  12.092  2.5068 -0.9074  0.2677
 8958SOL     OW38506   1.752   2.963   1.156 -0.0892  0.3739 -0.3865
 8958SOL    HW138507   1.692   3.026   1.195  0.4536  1.4305 -1.2836
 8958SOL    HW238508   1.762   2.998   1.068  3.2853  0.2530 -0.0572
 8959SOL     OW38509   0.819   1.500   1.141  0.6076  0.0518 -0.0169
 8959SOL    HW138510   0.866   1.424   1.107 -0.5157  0.0247 -1.4839
 8959SOL    HW238511   0.835   1.505   1.236  0.6083  0.6134 -0.0470
 8960SOL     OW38512   1.889   2.181   1.795  0.3025 -0.1413  0.5942
 8960SOL    HW138513   1.887   2.087   1.811  1.9585 -0.6249 -2.0117
 8960SOL    HW238514   1.904   2.177   1.701  1.4889 -0.4126  0.7911
 8961SOL     OW38515   2.523   3.462   4.461  0.5807 -0.0083  0.6088
 8961SOL    HW138516   2.611   3.450   4.497  0.4351 -1.9700  0.3223
 8961SOL    HW238517   2.482   3.376   4.466  0.8428 -0.2280 -0.9512
 8962SOL     OW38518   3.563   2.802   0.193 -0.1170 -0.0775 -0.7397
 8962SOL    HW138519   3.500   2.757   0.137  0.5313 -0.4135 -1.1960
 8962SOL    HW238520   3.571   2.885   0.146 -0.1477  0.4100  0.1032
 8963SOL     OW38521   1.791   0.754   2.952 -0.2713  0.2296  0.3281
 8963SOL    HW138522   1.704   0.741   2.990 -0.8079 -0.3212 -1.0932
 8963SOL    HW238523   1.797   0.848   2.967 -2.4276  0.2416  1.0922
 8964SOL     OW38524   3.225   1.611   3.049  0.0387  0.2505  0.6557
 8964SOL    HW138525   3.255   1.550   3.115 -1.7075 -2.0816 -0.7072
 8964SOL    HW238526   3.133   1.587   3.058  0.0899 -0.4966 -0.7799
 8965SOL     OW38527   0.956   4.238   5.622  0.6117 -0.3864 -0.1054
 8965SOL    HW138528   1.037   4.284   5.643  0.4006 -0.1540  0.2007
 8965SOL    HW238529   0.934   4.207   5.710 -0.7423  0.2032 -0.2514
 8966SOL     OW38530   1.740   2.250  16.667  0.3036  0.0686  0.2125
 8966SOL    HW138531   1.821   2.301  16.677  0.6426 -0.5757  0.7584
 8966SOL    HW238532   1.732   2.202  16.750 -1.0162 -0.0987 -0.0208
 8967SOL     OW38533   2.050   1.734   2.710 -0.3221  0.4528  0.0084
 8967SOL    HW138534   1.964   1.695   2.696 -0.4075  0.0448  1.6781
 8967SOL    HW238535   2.074   1.717   2.801  0.8575  1.1147 -0.1724
 8968SOL     OW38536   4.704   2.237   5.176 -0.3389 -0.4503  0.2289
 8968SOL    HW138537   4.678   2.319   5.217 -2.1843 -0.8923 -0.0524
 8968SOL    HW238538   4.644   2.226   5.102  0.3952 -1.0911 -0.2668
 8969SOL     OW38539   4.339   1.650   2.891  0.2778 -0.3277  0.1723
 8969SOL    HW138540   4.366   1.611   2.809  0.7455 -2.5703  1.3974
 8969SOL    HW238541   4.408   1.717   2.895 -0.6839  0.7281 -0.7642
 8970SOL     OW38542   3.222   4.210   1.774 -0.3819 -0.7121  0.2705
 8970SOL    HW138543   3.190   4.134   1.823 -1.0199  0.0187  0.9921
 8970SOL    HW238544   3.316   4.197   1.780 -0.1335  0.1688 -2.0585
 8971SOL     OW38545   3.238   1.857  12.145 -0.5044 -0.0158  0.0626
 8971SOL    HW138546   3.167   1.921  12.154 -1.3519 -0.9724  0.1455
 8971SOL    HW238547   3.260   1.843  12.237 -0.3968  0.8232  0.1703
 8972SOL     OW38548   3.823   0.914   5.627  0.6864 -0.7958  0.0631
 8972SOL    HW138549   3.854   0.834   5.583  1.6789 -0.4595  0.1554
 8972SOL    HW238550   3.879   0.984   5.593 -0.6445  0.4726  0.5217
 8973SOL     OW38551   2.610   4.708   6.448 -0.2200  0.2725  0.2767
 8973SOL    HW138552   2.648   0.052   6.419  1.2219 -0.2482  0.6902
 8973SOL    HW238553   2.691   4.675   6.486 -0.0078 -0.7050 -1.0307
 8974SOL     OW38554   3.260   2.780   5.534  0.6642 -0.0084 -0.5624
 8974SOL    HW138555   3.234   2.809   5.447 -0.3475 -0.1967 -0.3180
 8974SOL    HW238556   3.286   2.690   5.517  0.4465 -0.2906  0.5909
 8975SOL     OW38557   3.172   4.209   7.699  0.2297  0.0505  0.1733
 8975SOL    HW138558   3.233   4.154   7.747 -1.1370  1.4790  3.4980
 8975SOL    HW238559   3.149   4.285   7.753  0.3386 -0.1953  0.5569
 8976SOL     OW38560   0.979   0.677   7.508 -0.2390 -0.4124  0.0947
 8976SOL    HW138561   1.054   0.693   7.450 -0.4273  3.3133  0.8636
 8976SOL    HW238562   0.938   0.601   7.467 -0.8951 -1.3903  2.5195
 8977SOL     OW38563   2.802   4.208  14.480 -0.1199  0.7039  0.4853
 8977SOL    HW138564   2.872   4.196  14.543 -0.3542 -1.5192  0.2979
 8977SOL    HW238565   2.847   4.198  14.396  0.9598  1.2090  1.0039
 8978SOL     OW38566   2.261   0.624  15.210 -0.0474 -0.5244  0.6292
 8978SOL    HW138567   2.204   0.696  15.182 -1.5536 -0.1949  4.5971
 8978SOL    HW238568   2.337   0.681  15.221 -0.6028 -0.1950  2.7193
 8979SOL     OW38569   2.812   3.037   7.235 -0.5221 -0.4729 -0.2259
 8979SOL    HW138570   2.769   3.087   7.305 -0.9142 -1.3405  0.1506
 8979SOL    HW238571   2.900   3.029   7.273 -1.3399 -0.5993  1.6657
 8980SOL     OW38572   3.283   4.303   4.925 -0.5560 -0.3436 -0.8340
 8980SOL    HW138573   3.277   4.375   4.987 -1.2186 -0.2896 -0.9556
 8980SOL    HW238574   3.370   4.311   4.886 -0.2455 -0.6893 -0.2032
 8981SOL     OW38575   4.229   3.327   5.916  0.1146  0.0174  0.2919
 8981SOL    HW138576   4.206   3.373   5.997 -0.4416  0.0989  0.0882
 8981SOL    HW238577   4.249   3.237   5.942  0.0967 -0.9391 -2.9887
 8982SOL     OW38578   4.641   4.182   0.104 -0.2097  0.1889  0.2638
 8982SOL    HW138579   4.611   4.128   0.176  1.9328 -1.6491 -0.2229
 8982SOL    HW238580   4.692   4.115   0.059  1.7751  0.1662  2.5688
 8983SOL     OW38581   0.581   3.515  10.011 -0.3931  0.6892  0.0554
 8983SOL    HW138582   0.638   3.588  10.034 -0.6362  0.9596 -0.1884
 8983SOL    HW238583   0.503   3.556  10.049 -0.7226 -0.6287  0.7917
 8984SOL     OW38584   4.077   2.135   8.293 -0.6883  0.0869 -0.0525
 8984SOL    HW138585   4.050   2.108   8.381  3.6980 -0.8415  1.0078
 8984SOL    HW238586   4.162   2.178   8.305 -1.2722  0.8213  1.4618
 8985SOL     OW38587   4.146   4.689   7.023  0.5681  0.4100  0.4637
 8985SOL    HW138588   4.084   0.021   7.016  1.0074  0.6204 -1.3660
 8985SOL    HW238589   4.096   4.608   7.022  0.5394  0.4510 -1.6527
 8986SOL     OW38590   2.481   2.375   3.093 -0.0631 -0.3703 -0.6432
 8986SOL    HW138591   2.475   2.289   3.135 -4.2069  0.8904  1.3431
 8986SOL    HW238592   2.391   2.369   3.061  0.3620 -0.5807 -1.7872
 8987SOL     OW38593   3.217   1.566   7.570 -1.3460  0.4022  0.2134
 8987SOL    HW138594   3.178   1.493   7.618 -2.2758 -1.1623 -2.9069
 8987SOL    HW238595   3.302   1.569   7.614 -0.7102 -1.1701 -0.9011
 8988SOL     OW38596   4.229   1.755   8.216 -0.2825  0.1181  0.1317
 8988SOL    HW138597   4.245   1.835   8.168  0.3628  0.4266  0.8578
 8988SOL    HW238598   4.134   1.756   8.225 -0.1585  0.4334  1.4147
 8989SOL     OW38599   4.560   1.362   3.266  0.2713 -0.1362 -0.0843
 8989SOL    HW138600   4.558   1.431   3.200  0.7551 -0.3421 -0.3060
 8989SOL    HW238601   4.558   1.282   3.214 -1.3013 -0.9172  1.1807
 8990SOL     OW38602   4.268   3.620   7.798 -0.1774  0.3167  0.3545
 8990SOL    HW138603   4.265   3.583   7.709  0.7531 -1.6112  1.1264
 8990SOL    HW238604   4.363   3.626   7.802 -0.1234 -0.3247  0.1189
 8991SOL     OW38605   3.646   4.123   9.742 -0.3747  0.4276  0.3309
 8991SOL    HW138606   3.551   4.108   9.750 -0.2280 -1.2673 -0.9025
 8991SOL    HW238607   3.638   4.176   9.663  2.6095  0.0633 -0.1992
 8992SOL     OW38608   3.977   0.439   1.817  0.1796 -0.3922 -0.2455
 8992SOL    HW138609   3.912   0.407   1.879  0.5839 -1.6848 -0.4986
 8992SOL    HW238610   3.932   0.451   1.734  2.3386 -0.3203 -1.3967
 8993SOL     OW38611   3.717   3.933  16.143 -0.0046  0.3172 -0.2434
 8993SOL    HW138612   3.711   3.981  16.060  2.0806 -0.4815 -0.8660
 8993SOL    HW238613   3.794   3.982  16.173  0.2424 -0.6284  0.6534
 8994SOL     OW38614   0.514   2.392   5.032  0.2702  0.7288  0.0463
 8994SOL    HW138615   0.517   2.486   5.018  2.2155  1.1709  3.2640
 8994SOL    HW238616   0.430   2.366   4.995  0.2827  0.0845  0.4588
 8995SOL     OW38617   1.845   1.478   3.724 -0.0047  0.1508  0.5005
 8995SOL    HW138618   1.753   1.449   3.724 -0.2419  0.8705 -0.4445
 8995SOL    HW238619   1.839   1.560   3.774  1.2961  1.9703 -2.2866
 8996SOL     OW38620   1.799   4.655   3.017  0.5594  0.2140 -0.1879
 8996SOL    HW138621   1.729   4.601   3.053 -0.6613  2.2298  0.5042
 8996SOL    HW238622   1.812   4.627   2.927 -2.0178  0.7223 -0.7299
 8997SOL     OW38623   4.639   0.535  17.411 -0.2175  0.6555  0.6528
 8997SOL    HW138624   4.696   0.486  17.351 -1.3508  1.5843 -1.1692
 8997SOL    HW238625   4.588   0.588  17.350 -1.2759 -1.4640 -0.2937
 8998SOL     OW38626   3.464   3.566  15.730  0.3966 -0.0137 -0.9861
 8998SOL    HW138627   3.397   3.604  15.787  0.2803 -2.3763  0.4112
 8998SOL    HW238628   3.463   3.635  15.663  0.3687  0.1907 -0.7737
 8999SOL     OW38629   0.044   0.561  17.640  0.8456 -0.2392 -0.5753
 8999SOL    HW138630   4.726   0.536  17.568 -0.8723  0.7571  0.4497
 8999SOL    HW238631   0.100   0.627  17.599 -1.6324  1.2265 -1.5817
 9000SOL     OW38632   0.736   4.510   5.129  0.0784  0.4810  0.2202
 9000SOL    HW138633   0.712   4.422   5.099  0.4275 -0.2915  2.2437
 9000SOL    HW238634   0.789   4.543   5.057  0.9772  1.6045  1.3981
 9001SOL     OW38635   1.164   4.709   3.608 -0.3388  0.3310 -0.1254
 9001SOL    HW138636   1.219   4.666   3.673 -1.0572  1.4191  1.2039
 9001SOL    HW238637   1.105   0.007   3.673 -1.3949  0.2229 -1.0027
 9002SOL     OW38638   0.235   3.620  11.725  0.3797  0.2148  0.5578
 9002SOL    HW138639   0.166   3.560  11.753  0.0790 -0.4623 -1.6581
 9002SOL    HW238640   0.244   3.682  11.798 -1.0536  0.6782  0.3280
 9003SOL     OW38641   2.965   3.178   5.442  0.2156  0.6442 -0.4309
 9003SOL    HW138642   2.985   3.166   5.535  0.2998 -0.8918 -0.6473
 9003SOL    HW238643   2.896   3.114   5.424 -0.5039  1.5737 -1.0115
 9004SOL     OW38644   1.719   0.814  15.719 -0.1259  0.7731  0.5349
 9004SOL    HW138645   1.776   0.746  15.755 -0.2771  1.7743  2.6103
 9004SOL    HW238646   1.786   0.868  15.677 -0.6005 -1.8671 -3.6290
 9005SOL     OW38647   3.228   3.910   1.329 -0.2177 -0.4961  0.1661
 9005SOL    HW138648   3.221   3.826   1.284  1.7109 -0.6242  0.0871
 9005SOL    HW238649   3.302   3.889   1.386 -0.5634 -0.2374  0.7132
 9006SOL     OW38650   4.301   2.604   6.891 -0.5458  0.3813  0.7512
 9006SOL    HW138651   4.253   2.521   6.894  0.0132  0.0988  1.9753
 9006SOL    HW238652   4.324   2.606   6.799 -0.0505 -1.6410  0.8518
 9007SOL     OW38653   3.348   3.956  15.111  0.0383  0.4648 -0.3041
 9007SOL    HW138654   3.437   3.976  15.141 -0.0194  1.8187 -0.9971
 9007SOL    HW238655   3.336   4.035  15.057 -2.4503  0.9611  0.9758
 9008SOL     OW38656   3.486   4.554   2.509  0.0868 -0.4084  0.0606
 9008SOL    HW138657   3.573   4.527   2.482  0.1723 -1.1119  1.0319
 9008SOL    HW238658   3.435   4.473   2.515  0.9479 -0.9009  0.6727
 9009SOL     OW38659   3.492   1.665   8.973  0.1442  0.0787 -0.1394
 9009SOL    HW138660   3.402   1.646   8.999  0.1800 -0.1157 -0.1604
 9009SOL    HW238661   3.534   1.579   8.968  0.1007  0.2029 -2.4111
 9010SOL     OW38662   1.750   4.645   4.994  0.3211 -0.2989 -0.9989
 9010SOL    HW138663   1.772   4.702   4.920  0.0894 -1.7946 -2.2170
 9010SOL    HW238664   1.658   4.671   4.989  0.4325  0.8403  2.9671
 9011SOL     OW38665   3.949   1.835   5.425 -0.0672  0.2186  0.6044
 9011SOL    HW138666   3.868   1.861   5.380 -0.2500 -0.4362  0.5558
 9011SOL    HW238667   3.955   1.897   5.497  0.0275  0.0620  0.7308
 9012SOL     OW38668   3.854   4.443   4.965  0.0097 -0.3301 -0.4566
 9012SOL    HW138669   3.796   4.367   4.970  0.4064 -0.6410 -0.5768
 9012SOL    HW238670   3.795   4.517   4.978 -1.4249 -1.6424  0.5363
 9013SOL     OW38671   3.717   2.306   4.488  0.1033  0.3783 -0.9471
 9013SOL    HW138672   3.649   2.267   4.432 -2.4293 -0.8494  3.0166
 9013SOL    HW238673   3.776   2.232   4.502 -2.4296 -1.4596 -0.0482
 9014SOL     OW38674   1.503   0.692   5.001 -0.0299 -0.2294 -0.1379
 9014SOL    HW138675   1.444   0.627   4.964 -0.0076  0.4086 -1.2862
 9014SOL    HW238676   1.569   0.687   4.932  1.2686 -2.7096  1.2897
 9015SOL     OW38677   1.750   4.327   1.232  0.0335 -0.3206  0.0830
 9015SOL    HW138678   1.833   4.317   1.278  1.3425 -1.0918 -2.4693
 9015SOL    HW238679   1.758   4.254   1.171 -1.1059  0.5913 -1.1694
 9016SOL     OW38680   3.644   1.332  10.653 -0.2263 -0.0349  0.4335
 9016SOL    HW138681   3.594   1.409  10.625  0.0075  0.0711  0.3115
 9016SOL    HW238682   3.583   1.298  10.720 -1.4989  1.7161  0.1666
 9017SOL     OW38683   3.441   1.643  16.449  0.1965 -0.1863 -0.4123
 9017SOL    HW138684   3.387   1.712  16.409  0.7151  1.0753  1.0902
 9017SOL    HW238685   3.460   1.598  16.367  2.6809 -1.2938  0.7806
 9018SOL     OW38686   3.611   0.263   8.635  0.4047  0.2810 -0.3394
 9018SOL    HW138687   3.605   0.288   8.727  0.9954  0.7794 -0.4346
 9018SOL    HW238688   3.530   0.295   8.595  0.0603  0.7932  0.7760
 9019SOL     OW38689   1.491   3.879   6.055  0.4486 -0.2838  0.4545
 9019SOL    HW138690   1.568   3.936   6.059  1.5045 -1.6540 -0.5396
 9019SOL    HW238691   1.457   3.889   5.966 -0.0805  0.4705  0.7415
 9020SOL     OW38692   2.937   3.909   3.101 -0.4129 -0.1616 -0.6036
 9020SOL    HW138693   2.874   3.905   3.029  1.2013 -0.0680 -2.0022
 9020SOL    HW238694   2.971   3.820   3.089  1.2633  0.2961  0.7677
 9021SOL     OW38695   1.413   2.243   1.217  0.1843  0.3775  0.4941
 9021SOL    HW138696   1.410   2.173   1.152 -0.1046 -1.1583  2.1399
 9021SOL    HW238697   1.346   2.297   1.175 -0.2155  0.2236  0.9256
 9022SOL     OW38698   1.956   0.765  11.273 -0.1348 -0.4273 -0.0930
 9022SOL    HW138699   1.952   0.803  11.361  1.6542  0.8548 -0.5662
 9022SOL    HW238700   1.935   0.673  11.283  0.4455 -0.3093  2.1580
 9023SOL     OW38701   2.434   3.325   6.737 -0.3945 -0.4328 -0.9358
 9023SOL    HW138702   2.362   3.266   6.760 -0.5438 -0.3501 -1.1946
 9023SOL    HW238703   2.423   3.375   6.818 -2.9108 -2.0412 -0.2530
 9024SOL     OW38704   2.977   2.094   1.228  1.1094  0.3212  0.6263
 9024SOL    HW138705   3.018   2.050   1.153  0.3846 -2.3688  1.8192
 9024SOL    HW238706   3.052   2.104   1.286 -0.2540 -1.4105  2.6792
 9025SOL     OW38707   3.622   0.700   2.382  0.0601 -0.1410 -0.1268
 9025SOL    HW138708   3.686   0.759   2.342  0.0524 -0.8335 -1.1519
 9025SOL    HW238709   3.536   0.742   2.378  0.2125  0.1890  0.0593
 9026SOL     OW38710   1.754   1.930   1.031 -0.3398 -0.0299  0.4989
 9026SOL    HW138711   1.762   1.863   0.964  1.0314 -1.4064  2.0323
 9026SOL    HW238712   1.726   1.888   1.113 -0.9837 -2.6857 -1.1091
 9027SOL     OW38713   2.873   4.386   0.133 -0.2254 -0.6249 -0.3689
 9027SOL    HW138714   2.950   4.384   0.076 -0.2438 -0.9682 -0.3810
 9027SOL    HW238715   2.871   4.297   0.167  0.3542 -0.9734 -1.2457
 9028SOL     OW38716   1.662   3.490   3.485  0.0041 -0.5577  0.1871
 9028SOL    HW138717   1.723   3.558   3.454 -1.6277  0.8447  0.0817
 9028SOL    HW238718   1.641   3.525   3.571  0.1329  0.0443 -0.0307
 9029SOL     OW38719   0.114   3.952   5.350 -0.5397 -0.5541  0.3060
 9029SOL    HW138720   0.082   3.863   5.338  1.8785 -1.5536  1.1727
 9029SOL    HW238721   0.029   3.995   5.356 -0.2195 -0.1373  1.8537
 9030SOL     OW38722   0.279   1.345   0.647  0.0798  0.2784 -0.0106
 9030SOL    HW138723   0.367   1.320   0.676  0.0091  0.8574  0.7278
 9030SOL    HW238724   0.273   1.428   0.695 -1.0242 -0.6005  1.3903
 9031SOL     OW38725   1.742   3.730   1.961  0.1968  0.0607  0.6660
 9031SOL    HW138726   1.817   3.750   2.017  1.7985 -1.4222 -0.9177
 9031SOL    HW238727   1.787   3.717   1.877 -0.8567  0.0851  0.0983
 9032SOL     OW38728   0.938   0.929   5.198 -0.0043 -0.1603  0.2520
 9032SOL    HW138729   0.913   0.929   5.106 -0.1545  0.5907  0.2880
 9032SOL    HW238730   0.956   0.835   5.200 -3.6249 -0.7972  1.6017
 9033SOL     OW38731   2.407   3.434   6.188 -0.0840  0.3145 -0.3288
 9033SOL    HW138732   2.318   3.468   6.179 -0.5464 -1.2530 -1.5805
 9033SOL    HW238733   2.399   3.404   6.279 -1.2763 -1.7437 -1.1062
 9034SOL     OW38734   3.338   0.854   2.643 -0.3068 -0.2990 -0.0116
 9034SOL    HW138735   3.293   0.935   2.619 -0.4348 -0.4949 -0.4381
 9034SOL    HW238736   3.326   0.807   2.561 -0.0384 -1.6684  0.7207
 9035SOL     OW38737   1.667   0.596   7.489 -0.0004  0.7246 -0.0670
 9035SOL    HW138738   1.676   0.589   7.584 -1.0665 -0.7535 -0.0810
 9035SOL    HW238739   1.751   0.559   7.461  0.0484  0.1938  0.7669
 9036SOL     OW38740   0.635   3.412   4.569  0.5133 -0.0988  0.3515
 9036SOL    HW138741   0.718   3.397   4.614  0.4079 -0.6846  0.3469
 9036SOL    HW238742   0.663   3.485   4.514 -0.2910  0.4015  0.6025
 9037SOL     OW38743   1.395   3.954   2.314  0.5352  0.1146  0.1015
 9037SOL    HW138744   1.312   3.924   2.279  1.1897 -2.1834  0.4929
 9037SOL    HW238745   1.437   3.873   2.344  0.5863 -0.1200 -0.5945
 9038SOL     OW38746   4.449   3.598   8.338 -0.7973 -0.0695 -0.0240
 9038SOL    HW138747   4.496   3.599   8.254 -1.8355 -2.2061 -0.6135
 9038SOL    HW238748   4.450   3.507   8.366 -1.9597  0.7571  2.6359
 9039SOL     OW38749   2.706   2.691   1.730 -0.1512 -0.1750 -0.0282
 9039SOL    HW138750   2.631   2.635   1.710  0.4630 -1.3414  0.9348
 9039SOL    HW238751   2.751   2.674   1.648  1.0336 -0.0313  0.5930
 9040SOL     OW38752   0.876   2.342   4.157  0.0080 -0.3639  0.5156
 9040SOL    HW138753   0.893   2.308   4.069  3.6423  0.3754  0.9119
 9040SOL    HW238754   0.911   2.271   4.211 -3.4092 -1.5592  1.1355
 9041SOL     OW38755   0.085   2.394   1.597 -0.0991 -0.1264  0.4667
 9041SOL    HW138756   0.010   2.394   1.656 -1.5369  0.5784 -1.3605
 9041SOL    HW238757   0.151   2.396   1.666  0.2213  1.8583  0.1082
 9042SOL     OW38758   2.489   4.314   4.034  0.4950  0.0733 -0.2120
 9042SOL    HW138759   2.546   4.270   3.970  3.0899 -0.3988  2.4034
 9042SOL    HW238760   2.513   4.263   4.112 -0.9855  0.7932  0.7135
 9043SOL     OW38761   3.579   2.872   3.924  0.7296 -0.0597 -0.6022
 9043SOL    HW138762   3.516   2.836   3.863 -0.5723 -0.3256  0.8872
 9043SOL    HW238763   3.535   2.910   4.001  1.1778  0.0507 -0.4003
 9044SOL     OW38764   4.248   2.978   7.408  0.4202  0.1682  0.1519
 9044SOL    HW138765   4.240   2.897   7.457 -1.0021  0.4878  0.4603
 9044SOL    HW238766   4.168   2.971   7.355 -0.0941  0.8766  0.8396
 9045SOL     OW38767   3.169   3.841   3.949 -0.8310  0.3054 -0.3681
 9045SOL    HW138768   3.146   3.779   4.017 -0.4568  1.8539  1.1640
 9045SOL    HW238769   3.213   3.776   3.893 -1.3302  1.3361 -1.9733
 9046SOL     OW38770   0.083   2.356   8.276 -0.1426 -0.1858 -0.3449
 9046SOL    HW138771   0.070   2.400   8.360  1.0586 -0.1370 -0.1916
 9046SOL    HW238772   0.163   2.404   8.254 -0.7547 -0.6078 -3.4251
 9047SOL     OW38773   0.940   1.492   4.935  0.0583 -0.1999 -0.1946
 9047SOL    HW138774   1.032   1.513   4.950 -0.1455  1.6040 -1.4565
 9047SOL    HW238775   0.930   1.530   4.848  2.5250 -0.3562 -0.5331
 9048SOL     OW38776   1.286   0.016   8.651 -0.4967 -0.8127 -0.1786
 9048SOL    HW138777   1.208   0.013   8.595  0.1747  1.6460 -1.2351
 9048SOL    HW238778   1.349   4.730   8.584  0.6471  2.7757 -0.4774
 9049SOL     OW38779   0.670   0.373   3.785 -0.1292  0.0634 -0.1845
 9049SOL    HW138780   0.653   0.447   3.843 -0.2385 -0.7501  0.8288
 9049SOL    HW238781   0.753   0.344   3.825 -1.7974 -0.3758  2.9380
 9050SOL     OW38782   3.733   0.184   4.550 -0.2811 -0.5653  0.2763
 9050SOL    HW138783   3.658   0.166   4.606 -1.0608  0.4870 -0.4173
 9050SOL    HW238784   3.682   0.228   4.482  0.3998 -2.9871 -1.7844
 9051SOL     OW38785   0.741   3.903   8.342  0.2612  0.1889 -0.4488
 9051SOL    HW138786   0.680   3.834   8.314 -0.1633 -0.2066  1.4395
 9051SOL    HW238787   0.823   3.859   8.322  1.8675  1.9424  2.2682
 9052SOL     OW38788   3.295   3.627   3.455  0.0280  0.1879 -0.4584
 9052SOL    HW138789   3.356   3.696   3.480 -0.2799 -0.4073  1.9504
 9052SOL    HW238790   3.288   3.583   3.540 -0.3030  0.4461 -0.3519
 9053SOL     OW38791   0.650   2.698   7.594  0.6518 -0.3848 -0.6206
 9053SOL    HW138792   0.744   2.686   7.607  0.6068 -0.1798 -0.1377
 9053SOL    HW238793   0.621   2.650   7.671 -0.5925  1.2072 -0.1145
 9054SOL     OW38794   2.169   0.612   6.676  0.0323 -0.6064 -0.2579
 9054SOL    HW138795   2.180   0.698   6.717 -0.6589 -1.7751  2.3933
 9054SOL    HW238796   2.219   0.620   6.594  1.1499 -2.6629  0.2266
 9055SOL     OW38797   1.917   3.312  11.232  0.3156  0.1839  0.0874
 9055SOL    HW138798   1.904   3.405  11.250 -0.6267  0.6448 -2.9530
 9055SOL    HW238799   1.997   3.289  11.280 -0.5386  0.5720  1.6920
 9056SOL     OW38800   2.108   0.141  14.826  0.5153  0.0185 -0.4726
 9056SOL    HW138801   2.039   0.079  14.850  0.5830  1.2410  2.8417
 9056SOL    HW238802   2.166   0.121  14.900 -0.2727  2.0425  0.6714
 9057SOL     OW38803   1.827   2.116   7.514 -0.3964  0.2420 -0.1728
 9057SOL    HW138804   1.876   2.045   7.472  1.9578  0.3697  2.3447
 9057SOL    HW238805   1.850   2.098   7.605  0.9773  0.5823 -0.4599
 9058SOL     OW38806   3.622   1.336   8.498 -0.3301  0.1710 -0.1076
 9058SOL    HW138807   3.626   1.249   8.458 -1.6093 -0.1969  0.5631
 9058SOL    HW238808   3.530   1.355   8.481  0.2411  1.8662 -1.2121
 9059SOL     OW38809   1.176   1.083   0.811  0.7735 -0.1795  0.8608
 9059SOL    HW138810   1.108   1.027   0.849 -0.6022  0.8939 -0.0165
 9059SOL    HW238811   1.252   1.063   0.865  0.7068 -0.9623  0.6799
 9060SOL     OW38812   0.962   1.089  12.596 -0.2146 -0.2797 -0.1318
 9060SOL    HW138813   0.968   1.058  12.506 -2.5503 -1.5100  0.1365
 9060SOL    HW238814   1.009   1.018  12.638  2.2064 -0.0438 -2.4217
 9061SOL     OW38815   2.070   0.288   8.528  0.8769  0.6230 -0.9231
 9061SOL    HW138816   2.164   0.280   8.517  1.3709  1.2337  2.8420
 9061SOL    HW238817   2.046   0.298   8.436 -0.2487 -1.5207 -0.8632
 9062SOL     OW38818   4.714   3.257   6.959 -0.1769 -0.2364  0.1206
 9062SOL    HW138819   4.655   3.332   6.966 -0.5830 -0.4440 -1.1047
 9062SOL    HW238820   0.050   3.305   6.925 -0.2940  0.8356  1.3671
 9063SOL     OW38821   0.453   2.915   5.957 -0.0163 -0.3805  0.0429
 9063SOL    HW138822   0.448   2.829   5.999  1.6932 -1.3975 -1.8220
 9063SOL    HW238823   0.378   2.905   5.897  1.1384 -2.1340 -1.1275
 9064SOL     OW38824   4.372   3.077   5.400  0.3346 -0.0916  0.1285
 9064SOL    HW138825   4.436   3.141   5.434 -0.3980 -0.0990  1.4979
 9064SOL    HW238826   4.428   2.999   5.405  1.3221  0.6323  0.5126
 9065SOL     OW38827   0.898   1.153   0.441 -0.5387  0.4309  0.4285
 9065SOL    HW138828   0.804   1.159   0.424 -0.7366 -2.2613  0.4818
 9065SOL    HW238829   0.920   1.229   0.494  0.4431  1.4337 -1.4410
 9066SOL     OW38830   3.861   3.163   4.575 -0.6671  0.4721  0.1130
 9066SOL    HW138831   3.776   3.189   4.609 -0.6328  1.9168 -0.9217
 9066SOL    HW238832   3.848   3.181   4.482 -1.2454 -1.2849 -0.1401
 9067SOL     OW38833   3.695   0.900   9.350  0.5205 -0.3648  0.1185
 9067SOL    HW138834   3.664   0.835   9.413 -1.7835 -1.0533 -1.7392
 9067SOL    HW238835   3.755   0.857   9.289 -0.0215 -2.7235  1.2389
 9068SOL     OW38836   0.253   2.469   5.978  0.0409 -0.0201  0.1108
 9068SOL    HW138837   0.322   2.403   5.984 -0.5458 -0.7852 -1.6463
 9068SOL    HW238838   0.223   2.445   5.890 -0.8694  0.1990  0.3609
 9069SOL     OW38839   1.928   1.961   8.033 -0.5858 -0.4024  0.5319
 9069SOL    HW138840   1.897   1.871   8.041  0.7721 -0.9068  0.1327
 9069SOL    HW238841   2.011   1.956   8.080  0.0427 -0.2804 -0.5558
 9070SOL     OW38842   1.705   1.823   1.560 -0.1819  0.2926 -0.2683
 9070SOL    HW138843   1.759   1.824   1.639 -0.4078 -1.7698 -0.0863
 9070SOL    HW238844   1.623   1.835   1.608 -0.9314  0.9782 -1.7459
 9071SOL     OW38845   1.704   3.360  15.479  0.2297 -0.4550 -0.1998
 9071SOL    HW138846   1.715   3.268  15.453  0.1776  0.0055 -1.8640
 9071SOL    HW238847   1.706   3.345  15.574 -0.0886 -1.1174 -0.2914
 9072SOL     OW38848   0.883   2.773   7.389  0.1907 -0.6288 -0.6418
 9072SOL    HW138849   0.928   2.852   7.420 -1.6584  0.6983 -1.3773
 9072SOL    HW238850   0.893   2.702   7.453  0.1992  0.5487  0.6693
 9073SOL     OW38851   1.565   0.947   9.494 -0.6606  0.0304  0.1252
 9073SOL    HW138852   1.576   0.961   9.588 -2.0833  2.7202 -0.1025
 9073SOL    HW238853   1.655   0.942   9.462 -0.4253 -0.9350  0.9246
 9074SOL     OW38854   1.592   0.786  11.315 -0.0606  0.4952  0.4501
 9074SOL    HW138855   1.579   0.722  11.385  0.8991 -1.0345 -0.7692
 9074SOL    HW238856   1.671   0.823  11.352  0.4992  2.2154 -2.4854
 9075SOL     OW38857   0.826   2.673  11.636 -0.1308  0.0896  0.0061
 9075SOL    HW138858   0.818   2.760  11.598  0.6546  1.2475  2.5633
 9075SOL    HW238859   0.744   2.630  11.610 -0.7257 -0.0234  2.1110
 9076SOL     OW38860   1.818   4.112   8.664 -0.1344 -0.0563 -0.1038
 9076SOL    HW138861   1.782   4.129   8.751 -0.6320  2.6648 -0.8281
 9076SOL    HW238862   1.896   4.168   8.661 -0.5214  0.6326  2.3741
 9077SOL     OW38863   1.174   4.637   6.026 -0.0100  0.6254 -0.3897
 9077SOL    HW138864   1.145   4.602   6.110  0.9663 -0.6215 -0.5786
 9077SOL    HW238865   1.207   4.723   6.053 -1.5297  1.3029 -0.6884
 9078SOL     OW38866   3.527   0.004   4.431 -0.1101 -0.1939  0.2929
 9078SOL    HW138867   3.605   4.694   4.405 -0.3135 -0.1142 -0.4754
 9078SOL    HW238868   3.559   0.094   4.429 -1.8843  0.4996  3.0729
 9079SOL     OW38869   3.479   2.107   8.916  0.2066 -0.5005  0.7082
 9079SOL    HW138870   3.392   2.090   8.952  0.9529 -1.4287  2.0974
 9079SOL    HW238871   3.514   2.152   8.992  0.0666 -1.3673  1.2945
 9080SOL     OW38872   1.921   4.317  12.922  0.4846  0.0343  0.5041
 9080SOL    HW138873   1.915   4.332  12.827 -0.7626 -0.3019  0.5260
 9080SOL    HW238874   1.838   4.280  12.952 -0.6665  3.6059  1.7192
 9081SOL     OW38875   2.278   3.996   6.412 -0.3406 -0.6781 -0.4731
 9081SOL    HW138876   2.288   4.091   6.423 -0.7617 -0.7874  0.9422
 9081SOL    HW238877   2.340   3.966   6.479 -0.4034 -0.4987 -0.3351
 9082SOL     OW38878   2.406   3.491  15.472  0.6912 -0.7013 -0.1588
 9082SOL    HW138879   2.367   3.421  15.524  1.1542 -1.7363 -1.2242
 9082SOL    HW238880   2.477   3.519  15.530 -1.0497  1.2443  1.0507
 9083SOL     OW38881   1.413   3.437  13.542 -0.5489  0.1226 -0.0309
 9083SOL    HW138882   1.492   3.423  13.594  0.0654  0.9256 -0.7481
 9083SOL    HW238883   1.442   3.501  13.477 -2.7338 -0.3042 -1.4120
 9084SOL     OW38884   0.929   2.064  12.405  0.1439 -0.2010  0.4417
 9084SOL    HW138885   0.927   2.030  12.494 -0.0681 -2.1710 -0.3176
 9084SOL    HW238886   0.859   2.128  12.416  0.2769  0.0752 -0.3345
 9085SOL     OW38887   2.789   3.612   4.229  0.1242 -0.3569 -0.0090
 9085SOL    HW138888   2.719   3.574   4.176  0.0663  0.4520 -0.5236
 9085SOL    HW238889   2.844   3.539   4.256 -0.9453 -1.3636 -0.5414
 9086SOL     OW38890   1.655   3.421   6.112 -0.1942  0.0954 -0.3745
 9086SOL    HW138891   1.672   3.440   6.020  2.3165 -0.3476  0.0150
 9086SOL    HW238892   1.560   3.406   6.108 -0.3967  0.9847  1.0338
 9087SOL     OW38893   3.426   1.347   1.425  0.6938 -0.1337 -0.1115
 9087SOL    HW138894   3.356   1.283   1.420  1.7878 -1.2038 -1.5653
 9087SOL    HW238895   3.370   1.416   1.461 -0.1980 -0.0532 -1.6546
 9088SOL     OW38896   1.350   0.907  16.940  0.7091 -0.1548 -0.4075
 9088SOL    HW138897   1.440   0.885  16.965  0.9108  0.2961 -0.7310
 9088SOL    HW238898   1.307   0.829  16.973  1.7371 -0.8259 -0.6595
 9089SOL     OW38899   1.056   3.540   5.198 -0.1206 -0.2152  0.8452
 9089SOL    HW138900   1.108   3.583   5.265  0.6576  0.4704 -0.1973
 9089SOL    HW238901   1.055   3.446   5.220  1.9067 -0.6017 -0.7703
 9090SOL     OW38902   0.642   2.441   5.526  0.7175 -0.6144 -0.2663
 9090SOL    HW138903   0.708   2.487   5.474  0.3742  1.3639  1.0335
 9090SOL    HW238904   0.580   2.397   5.467  0.5074 -0.0815 -0.4399
 9091SOL     OW38905   1.381   3.552   9.308  0.0643  0.5095 -0.0447
 9091SOL    HW138906   1.396   3.601   9.227  2.9849  0.0854  0.2264
 9091SOL    HW238907   1.452   3.585   9.365  2.1195  0.3934 -2.5280
 9092SOL     OW38908   2.106   1.880  13.899 -0.1041  0.1658  0.3051
 9092SOL    HW138909   2.185   1.909  13.945  0.1905  0.4754 -0.3915
 9092SOL    HW238910   2.097   1.943  13.827  1.6623  1.4159  1.1655
 9093SOL     OW38911   0.353   2.101   3.484 -0.4446  0.0842  0.0671
 9093SOL    HW138912   0.306   2.057   3.555  0.3528  0.2004  0.6596
 9093SOL    HW238913   0.419   2.145   3.538 -1.4089 -0.5889  1.8054
 9094SOL     OW38914   3.577   3.082   0.156  0.8019  0.4707  0.0035
 9094SOL    HW138915   3.613   3.158   0.109  1.3557  0.8763  1.0841
 9094SOL    HW238916   3.636   3.063   0.229  0.7277  1.1382  0.2372
 9095SOL     OW38917   2.002   0.646   6.925 -0.4057 -0.4918 -0.4107
 9095SOL    HW138918   2.019   0.672   6.834  1.3400 -2.2108 -0.5776
 9095SOL    HW238919   1.907   0.658   6.928 -0.5472 -2.0477  1.2755
 9096SOL     OW38920   3.504   3.703   4.803  0.3759  0.1053  0.4469
 9096SOL    HW138921   3.596   3.706   4.826  1.0725 -3.2108 -2.0106
 9096SOL    HW238922   3.467   3.771   4.860 -0.8058 -1.5611  1.6657
 9097SOL     OW38923   0.237   2.937   1.667 -0.8969  0.4505  0.7442
 9097SOL    HW138924   0.261   3.021   1.707 -1.1999  0.5964  0.6159
 9097SOL    HW238925   0.143   2.944   1.683 -0.9908 -0.5758  0.6425
 9098SOL     OW38926   2.605   0.844   6.671 -0.5516  0.5586  0.5173
 9098SOL    HW138927   2.561   0.910   6.724 -1.2208 -0.7700  1.5991
 9098SOL    HW238928   2.629   0.897   6.594  1.0322 -2.0298 -0.7685
 9099SOL     OW38929   3.835   0.311   0.051  0.1310 -0.2266  0.4360
 9099SOL    HW138930   3.925   0.285   0.029 -0.6350 -2.0704 -0.5039
 9099SOL    HW238931   3.848   0.363   0.131 -0.7975  1.1813 -0.3341
 9100SOL     OW38932   1.490   4.703   9.708 -0.0007 -0.2624  0.4526
 9100SOL    HW138933   1.484   4.609   9.694 -1.8316  0.0721 -1.0313
 9100SOL    HW238934   1.570   4.718   9.658  0.2953  0.8605  1.2613
 9101SOL     OW38935   3.628   1.119   2.985 -0.0150 -0.7958  0.1758
 9101SOL    HW138936   3.552   1.068   3.015 -0.4777  0.2966  0.8773
 9101SOL    HW238937   3.627   1.184   3.056 -0.0119  1.0675 -1.5281
 9102SOL     OW38938   2.594   3.102   5.883 -0.1228 -0.2544  0.2203
 9102SOL    HW138939   2.671   3.082   5.936 -0.0803  1.8614  0.9493
 9102SOL    HW238940   2.537   3.029   5.905 -0.0392 -0.8197 -1.4285
 9103SOL     OW38941   3.779   3.587   9.618 -0.1917 -0.3725  0.6196
 9103SOL    HW138942   3.843   3.642   9.664 -2.2900  0.8349  2.1056
 9103SOL    HW238943   3.750   3.527   9.686 -2.3687  0.7557  0.6807
 9104SOL     OW38944   1.036   0.623   0.363 -0.0350 -0.3804 -0.4690
 9104SOL    HW138945   1.016   0.711   0.332 -1.2108 -0.3537  0.3762
 9104SOL    HW238946   1.036   0.638   0.457 -1.4367 -2.5213 -0.1071
 9105SOL     OW38947   1.028   3.784   8.218 -0.0562  0.0856  0.3762
 9105SOL    HW138948   1.086   3.718   8.255 -0.4134 -0.8973 -0.8578
 9105SOL    HW238949   1.078   3.810   8.141  0.5656 -1.0056  0.4219
 9106SOL     OW38950   1.650   3.854  11.886  0.4583  0.1518  0.2612
 9106SOL    HW138951   1.657   3.877  11.793  0.5170  2.0310  0.7416
 9106SOL    HW238952   1.706   3.916  11.932  1.6361 -0.7520  0.0569
 9107SOL     OW38953   1.280   0.784   3.469  0.7516  0.9388 -0.4170
 9107SOL    HW138954   1.266   0.809   3.378 -0.2143  0.4510 -0.3975
 9107SOL    HW238955   1.371   0.815   3.476  1.2832 -0.6677 -0.1864
 9108SOL     OW38956   1.175   1.058   9.495  0.1442  0.5908  0.8019
 9108SOL    HW138957   1.204   1.031   9.582 -1.6260 -2.7463  0.3572
 9108SOL    HW238958   1.233   1.134   9.487  0.3311  0.2803 -0.6893
 9109SOL     OW38959   1.914   0.441  10.281  0.0377 -0.4030 -0.8438
 9109SOL    HW138960   1.856   0.468  10.352  0.0030 -2.1344 -0.2028
 9109SOL    HW238961   1.962   0.377  10.334 -1.2586  1.1682  2.2276
 9110SOL     OW38962   4.523   4.512   2.985  0.4959  0.3124 -0.0899
 9110SOL    HW138963   4.612   4.497   2.954  0.1253  0.8294 -1.3983
 9110SOL    HW238964   4.482   4.526   2.900 -1.6038 -1.1525  0.7031
 9111SOL     OW38965   1.884   3.743   9.134  0.0112  0.1223 -0.7272
 9111SOL    HW138966   1.846   3.830   9.145  2.9163  1.0107  2.0091
 9111SOL    HW238967   1.969   3.769   9.100 -0.0868 -0.0044 -1.0744
 9112SOL     OW38968   2.532   1.752   3.111 -0.4815  0.0395  0.2425
 9112SOL    HW138969   2.554   1.842   3.087  0.8899 -0.9097 -2.0055
 9112SOL    HW238970   2.458   1.738   3.052  0.2458  0.5399 -0.7826
 9113SOL     OW38971   2.926   4.358   2.940 -0.5853 -0.0159 -0.0178
 9113SOL    HW138972   2.963   4.279   2.979 -1.4591 -0.3445  0.1603
 9113SOL    HW238973   2.955   4.427   3.000 -2.2203  0.6687 -0.0149
 9114SOL     OW38974   3.363   4.110   7.855  0.1674 -0.0862  0.0343
 9114SOL    HW138975   3.370   4.069   7.942  0.3257  2.6326  1.3095
 9114SOL    HW238976   3.452   4.112   7.821 -0.3480 -1.0583 -1.3496
 9115SOL     OW38977   0.058   4.666   5.868 -0.1920  0.6395  0.3896
 9115SOL    HW138978   4.738   4.635   5.936 -1.0609  0.3384 -0.5191
 9115SOL    HW238979   0.081   0.017   5.889 -3.6915  1.4932  0.5892
 9116SOL     OW38980   0.994   1.143   2.299  0.0086  0.0402 -0.0717
 9116SOL    HW138981   1.024   1.143   2.208 -0.0656 -1.5511 -0.0810
 9116SOL    HW238982   0.940   1.065   2.305  0.5125 -0.3077 -0.0819
 9117SOL     OW38983   2.931   0.723  16.732 -0.3244 -0.1101  0.1430
 9117SOL    HW138984   3.024   0.721  16.707 -0.6400 -2.6013 -0.8069
 9117SOL    HW238985   2.902   0.760  16.649 -0.5859  0.3443  0.4385
 9118SOL     OW38986   1.219   2.201   6.091  0.2000  0.2013  0.1970
 9118SOL    HW138987   1.162   2.138   6.135  2.6356 -1.6544  0.7003
 9118SOL    HW238988   1.146   2.247   6.049  1.0650  1.3088 -0.0960
 9119SOL     OW38989   1.232   1.666  10.956 -0.1445 -0.3226 -0.1285
 9119SOL    HW138990   1.255   1.738  10.896  0.8376 -0.5603 -0.0351
 9119SOL    HW238991   1.139   1.659  10.936  0.2331  1.4910 -2.6695
 9120SOL     OW38992   1.275   0.283   8.677  0.0836  0.5667 -0.2876
 9120SOL    HW138993   1.299   0.190   8.676 -0.8020  0.3019  1.9116
 9120SOL    HW238994   1.231   0.285   8.593  1.0076  1.3601 -0.7541
 9121SOL     OW38995   1.538   0.265  11.469 -0.1229  0.4050 -0.2448
 9121SOL    HW138996   1.508   0.270  11.560  1.0324  0.0861  0.1518
 9121SOL    HW238997   1.452   0.276  11.429  0.3518 -0.6838 -1.5476
 9122SOL     OW38998   1.931   4.291   0.835 -0.1210 -0.1777 -0.4674
 9122SOL    HW138999   2.020   4.258   0.851  0.1873  1.3832  1.1637
 9122SOL    HW239000   1.943   4.376   0.878  1.2300 -0.2567 -0.7057
 9123SOL     OW39001   4.191   4.027  12.150  0.3854 -0.2716 -0.1928
 9123SOL    HW139002   4.170   4.077  12.072 -0.8260 -2.3052 -1.1835
 9123SOL    HW239003   4.164   4.088  12.218 -2.3404 -0.3359 -1.2265
 9124SOL     OW39004   3.974   4.133   2.586 -0.0097 -0.1941 -0.7560
 9124SOL    HW139005   3.891   4.132   2.632  0.6048 -0.0673  0.3578
 9124SOL    HW239006   3.953   4.192   2.513  2.6892  0.3000 -1.1374
 9125SOL     OW39007   2.706   2.403   8.486 -0.1603  0.2767 -0.2080
 9125SOL    HW139008   2.679   2.478   8.433 -1.8363 -0.6822 -0.7199
 9125SOL    HW239009   2.638   2.343   8.454 -0.7276  0.0732  1.3768
 9126SOL     OW39010   2.603   2.473   9.325 -0.8648  0.3231  0.5402
 9126SOL    HW139011   2.619   2.544   9.386  0.9913  2.7825 -2.7985
 9126SOL    HW239012   2.686   2.451   9.282 -1.3484  1.2824 -0.8848
 9127SOL     OW39013   2.871   3.485   5.543  0.1692 -0.1139  0.1219
 9127SOL    HW139014   2.920   3.406   5.522 -0.8291 -1.1743  1.8290
 9127SOL    HW239015   2.917   3.517   5.621  0.6228  1.2516 -0.6918
 9128SOL     OW39016   4.556   2.920   2.487 -0.4029  0.3102 -0.5249
 9128SOL    HW139017   4.633   2.869   2.461 -1.6645 -2.3964  1.0215
 9128SOL    HW239018   4.589   2.970   2.562  1.8798 -3.3376  0.9445
 9129SOL     OW39019   4.467   1.269   4.249 -0.0069 -0.1799 -0.0078
 9129SOL    HW139020   4.513   1.204   4.303 -0.6765 -0.6085  0.0424
 9129SOL    HW239021   4.377   1.254   4.277 -0.6813  0.1621 -1.9382
 9130SOL     OW39022   0.814   0.996   2.487  0.0576  0.4394  0.0569
 9130SOL    HW139023   0.802   1.063   2.553  1.3729  1.2360 -0.5073
 9130SOL    HW239024   0.895   0.958   2.521  0.7885  1.1802 -0.8538
 9131SOL     OW39025   1.701   0.494   8.813  0.9098  0.6056 -0.2120
 9131SOL    HW139026   1.664   0.576   8.780 -2.0818 -0.6455  0.0258
 9131SOL    HW239027   1.641   0.433   8.769  0.0270  0.4811  1.1626
 9132SOL     OW39028   1.221   1.166  10.905 -0.3747  0.0224 -0.1784
 9132SOL    HW139029   1.171   1.246  10.921 -1.5314 -0.5743 -0.8297
 9132SOL    HW239030   1.250   1.148  10.995  1.6245  1.7071 -0.4938
 9133SOL     OW39031   1.436   0.945   3.898  0.0487  0.1532  0.6466
 9133SOL    HW139032   1.396   0.907   3.976 -0.4389  0.7473  0.6915
 9133SOL    HW239033   1.371   0.932   3.830  3.5793 -0.5123 -2.5956
 9134SOL     OW39034   4.356   0.641  14.054  0.8723  0.3179 -0.0137
 9134SOL    HW139035   4.275   0.590  14.058  0.9121  0.3327  0.8473
 9134SOL    HW239036   4.342   0.700  13.979 -0.6735  2.2019  1.7790
 9135SOL     OW39037   1.203   3.772   9.374 -0.0072 -0.0677 -0.4303
 9135SOL    HW139038   1.199   3.770   9.279  1.8712 -0.7048 -0.4879
 9135SOL    HW239039   1.230   3.682   9.395 -1.1461 -0.1243  0.8335
 9136SOL     OW39040   0.422   3.407  11.942  0.2559 -0.1767 -0.7139
 9136SOL    HW139041   0.427   3.429  11.849  2.2805 -1.7965 -0.9791
 9136SOL    HW239042   0.470   3.478  11.986  1.4906 -0.5575 -1.4462
 9137SOL     OW39043   2.593   3.966  11.327  0.2523  0.5431 -0.2493
 9137SOL    HW139044   2.526   4.028  11.356 -1.7029 -2.6118  2.0210
 9137SOL    HW239045   2.561   3.879  11.349  1.8426 -0.0971 -0.5079
 9138SOL     OW39046   0.462   1.959   4.424  0.2724 -0.1886 -0.0119
 9138SOL    HW139047   0.438   2.042   4.466  3.0789  0.4129  0.3590
 9138SOL    HW239048   0.382   1.932   4.377  1.1552  0.5997 -1.9851
 9139SOL     OW39049   3.815   3.237   8.345 -0.4820  0.5626 -0.1229
 9139SOL    HW139050   3.757   3.162   8.335 -0.8880  0.9960 -1.0334
 9139SOL    HW239051   3.882   3.196   8.399 -1.0787 -1.6675 -1.0798
 9140SOL     OW39052   2.869   1.122   0.203  0.2460  0.1302 -0.1176
 9140SOL    HW139053   2.827   1.111   0.118  0.1269  0.2873 -0.0771
 9140SOL    HW239054   2.802   1.091   0.265 -2.7152  0.3636 -3.2263
 9141SOL     OW39055   2.862   1.604   8.312  0.1304 -0.0422 -0.1637
 9141SOL    HW139056   2.812   1.612   8.230  1.1683 -0.4525 -0.8319
 9141SOL    HW239057   2.821   1.524   8.345 -0.7345 -0.2343 -1.6944
 9142SOL     OW39058   0.331   0.460  16.076  0.2098 -0.0409  0.0457
 9142SOL    HW139059   0.390   0.522  16.118  0.3454  0.9462 -1.6312
 9142SOL    HW239060   0.298   0.513  16.004  2.2163 -0.2201 -1.0173
 9143SOL     OW39061   2.976   3.019   5.071 -0.2689 -0.4227  0.3278
 9143SOL    HW139062   2.881   3.023   5.079 -0.0236  0.0053  3.0999
 9143SOL    HW239063   2.997   3.069   5.150 -0.0156  1.0571 -0.6819
 9144SOL     OW39064   4.437   2.593   2.478 -0.5189 -0.2114  0.3429
 9144SOL    HW139065   4.459   2.587   2.571  1.1802  1.8885  0.0645
 9144SOL    HW239066   4.507   2.651   2.449 -0.5986  1.1249  2.8331
 9145SOL     OW39067   2.256   2.208   7.486 -0.0027  0.2326 -0.1415
 9145SOL    HW139068   2.225   2.241   7.570  0.3809 -1.2933  0.5899
 9145SOL    HW239069   2.245   2.281   7.425 -2.8535  0.7366  0.9635
 9146SOL     OW39070   3.897   1.666  15.755  0.2029 -0.1527 -0.0413
 9146SOL    HW139071   3.878   1.615  15.677 -0.3785  2.5300 -1.6609
 9146SOL    HW239072   3.834   1.737  15.744 -1.3277 -1.8760 -2.1818
 9147SOL     OW39073   1.989   2.091   5.907  0.3739  0.5434 -0.5228
 9147SOL    HW139074   1.946   2.091   5.992  1.8044  1.3291  0.2188
 9147SOL    HW239075   1.950   2.018   5.860 -0.4133  1.3362 -1.0965
 9148SOL     OW39076   0.792   0.240   3.161 -0.3607 -0.2837  0.7133
 9148SOL    HW139077   0.794   0.336   3.165 -1.3523 -0.2999  1.5398
 9148SOL    HW239078   0.870   0.214   3.211  0.2868  0.5933  0.1788
 9149SOL     OW39079   1.437   2.106   3.419 -0.4233  0.1151 -0.5264
 9149SOL    HW139080   1.401   2.024   3.452  0.0942 -0.5589 -1.6198
 9149SOL    HW239081   1.467   2.073   3.334  1.1406 -1.3556  0.6102
 9150SOL     OW39082   1.751   4.096   6.058  0.1321  0.2255 -0.8207
 9150SOL    HW139083   1.673   4.130   6.101  1.2801  2.6966 -0.7301
 9150SOL    HW239084   1.827   4.135   6.101 -1.9782  2.9056  0.4456
 9151SOL     OW39085   0.586   3.744  15.558 -0.4257  0.0502  0.5133
 9151SOL    HW139086   0.501   3.702  15.546 -0.1320 -0.1807 -0.7208
 9151SOL    HW239087   0.624   3.740  15.470  0.3608  1.3006  0.8008
 9152SOL     OW39088   1.364   4.666  14.353 -0.2386  0.3989 -0.0783
 9152SOL    HW139089   1.417   4.595  14.318 -0.9066 -0.2164  0.1515
 9152SOL    HW239090   1.421   4.701  14.421 -1.2183  0.3259  0.7808
 9153SOL     OW39091   1.148   4.728  14.537 -0.0765 -0.8134  0.7705
 9153SOL    HW139092   1.068   0.013  14.492  0.1695 -1.1832  0.1133
 9153SOL    HW239093   1.198   4.703  14.458  0.5594  1.4045  0.4766
 9154SOL     OW39094   2.466   0.788   7.898  0.0254 -0.1395 -0.5996
 9154SOL    HW139095   2.557   0.809   7.875  0.2033  0.7635  0.8753
 9154SOL    HW239096   2.464   0.695   7.876 -0.5367  0.0844 -1.4648
 9155SOL     OW39097   0.648   3.247   2.210  0.0060 -0.0279 -0.1422
 9155SOL    HW139098   0.694   3.179   2.161 -0.5319 -0.7116  0.2970
 9155SOL    HW239099   0.610   3.197   2.283  0.4675  0.7544  0.6227
 9156SOL     OW39100   1.472   1.144  14.428 -0.5305 -0.5060  0.0293
 9156SOL    HW139101   1.560   1.105  14.427 -0.1850  0.3217 -2.3931
 9156SOL    HW239102   1.482   1.237  14.409  0.1979 -0.7345 -0.7333
 9157SOL     OW39103   2.834   0.021   4.572 -0.5428  0.2228 -0.0955
 9157SOL    HW139104   2.874   0.087   4.515 -0.9364 -0.4971 -1.2076
 9157SOL    HW239105   2.752   0.065   4.597 -1.2045 -0.9552 -0.1938
 9158SOL     OW39106   1.498   3.268  12.242  0.3963 -0.2792  0.7367
 9158SOL    HW139107   1.515   3.232  12.155  1.2719  2.0609 -0.0618
 9158SOL    HW239108   1.574   3.326  12.247 -1.6791  2.1293  4.9174
 9159SOL     OW39109   1.489   3.582   1.451 -0.7383 -0.4244  0.3344
 9159SOL    HW139110   1.502   3.657   1.509 -0.4856 -0.6053  0.5121
 9159SOL    HW239111   1.401   3.592   1.415 -0.2115  0.6544 -0.6728
 9160SOL     OW39112   3.084   1.936   1.020 -0.3618  0.6433  0.3366
 9160SOL    HW139113   3.086   1.982   0.936  0.2128 -0.6995 -0.3776
 9160SOL    HW239114   3.172   1.900   1.019 -1.3641 -1.7199 -2.9454
 9161SOL     OW39115   0.272   3.559   4.063 -0.2225  0.2086  0.2245
 9161SOL    HW139116   0.343   3.613   4.029  1.2368 -0.4373  2.1803
 9161SOL    HW239117   0.266   3.484   4.004 -3.1729  0.6186 -0.0132
 9162SOL     OW39118   4.349   4.332   5.940  0.2363 -0.3801  0.1951
 9162SOL    HW139119   4.319   4.344   6.030 -2.4567 -0.7053 -0.6714
 9162SOL    HW239120   4.385   4.243   5.943  0.8572 -0.1606 -0.6787
 9163SOL     OW39121   0.353   0.904   5.063 -0.0935  0.6968 -0.1431
 9163SOL    HW139122   0.305   0.932   4.985 -0.9213 -1.3667 -0.3588
 9163SOL    HW239123   0.398   0.828   5.026  0.0699 -0.2449  2.0231
 9164SOL     OW39124   0.139   3.036   1.045  0.3105  0.3869 -0.3229
 9164SOL    HW139125   0.155   2.966   1.110  1.8061  0.1323 -0.9616
 9164SOL    HW239126   0.229   3.033   1.013 -0.2232  0.7479 -1.8490
 9165SOL     OW39127   1.200   3.370  17.504 -0.4273  0.6528  0.4788
 9165SOL    HW139128   1.112   3.401  17.524 -1.0651  0.6067 -2.2811
 9165SOL    HW239129   1.244   3.417  17.575 -0.9035 -0.1408  1.2961
 9166SOL     OW39130   3.690   2.795  15.209  0.4899 -0.0483  0.4175
 9166SOL    HW139131   3.628   2.820  15.277 -0.4375  0.3073 -0.5690
 9166SOL    HW239132   3.688   2.884  15.173  3.1477  0.2027  0.8105
 9167SOL     OW39133   1.673   1.929   6.291  0.2342 -0.5035  0.7109
 9167SOL    HW139134   1.631   1.991   6.350 -1.3109 -1.5627  0.7380
 9167SOL    HW239135   1.615   1.951   6.218  0.2290 -2.3867  0.1519
 9168SOL     OW39136   4.442   0.392   8.607  0.5143 -0.0940  0.2684
 9168SOL    HW139137   4.531   0.425   8.598  1.0980 -2.1846 -1.9136
 9168SOL    HW239138   4.438   0.396   8.702 -0.7973  0.0895  0.2070
 9169SOL     OW39139   3.303   0.516   7.643  0.2059  0.5936 -0.0151
 9169SOL    HW139140   3.320   0.549   7.731  0.2801 -0.2613  0.2919
 9169SOL    HW239141   3.221   0.563   7.627 -1.3375 -2.1007 -0.0832
 9170SOL     OW39142   3.294   3.187   0.579  0.0112 -0.1187 -0.5220
 9170SOL    HW139143   3.239   3.157   0.651  1.5941  0.6705  1.0095
 9170SOL    HW239144   3.234   3.254   0.547  1.8847  2.3628  1.2157
 9171SOL     OW39145   4.119   0.066   2.864 -0.3735 -0.1901 -0.1337
 9171SOL    HW139146   4.069   4.732   2.899  0.6451 -1.0918 -0.5850
 9171SOL    HW239147   4.045   0.117   2.830 -1.1463 -0.8591  0.5480
 9172SOL     OW39148   1.129   3.665   2.339 -0.1752  0.5331  0.7572
 9172SOL    HW139149   1.050   3.690   2.289  0.6651 -0.9566 -1.3053
 9172SOL    HW239150   1.091   3.652   2.426  0.5198 -2.4123  0.5971
 9173SOL     OW39151   1.613   0.391   2.869 -0.1381 -0.3255 -0.1145
 9173SOL    HW139152   1.625   0.426   2.957 -2.9307 -0.2103  0.2121
 9173SOL    HW239153   1.689   0.333   2.861 -0.0872 -0.3506  0.5387
 9174SOL     OW39154   4.611   2.880   3.034 -0.6122 -0.3471 -0.2248
 9174SOL    HW139155   4.695   2.889   2.988 -0.9649 -0.8016 -0.9703
 9174SOL    HW239156   4.583   2.970   3.047  0.5451  0.2129 -1.5816
 9175SOL     OW39157   0.079   4.452  11.970  0.4724  0.4156  0.2825
 9175SOL    HW139158   0.062   4.413  12.055  1.7382 -0.8974 -0.0697
 9175SOL    HW239159   0.173   4.435  11.960  0.2699 -0.2977 -0.4020
 9176SOL     OW39160   0.744   3.615   2.699 -0.0560  0.8371  0.0372
 9176SOL    HW139161   0.685   3.615   2.774  1.7920 -1.5809  1.4858
 9176SOL    HW239162   0.799   3.690   2.723  0.5475  0.6238 -0.6854
 9177SOL     OW39163   3.583   0.723   9.518 -0.4509 -0.1445  0.6234
 9177SOL    HW139164   3.514   0.676   9.564  0.5985  0.4412  2.7556
 9177SOL    HW239165   3.660   0.673   9.543 -1.0269 -1.5189 -0.3254
 9178SOL     OW39166   2.615   2.830   2.243  0.2815  0.0839  0.0517
 9178SOL    HW139167   2.609   2.870   2.329 -1.8970  0.3876 -0.2234
 9178SOL    HW239168   2.522   2.841   2.221  0.4981  0.0602 -0.8959
 9179SOL     OW39169   0.273   3.851   3.908  0.3206 -0.8952  0.5913
 9179SOL    HW139170   0.359   3.814   3.927  0.9166  0.0272 -0.3218
 9179SOL    HW239171   0.266   3.906   3.987 -0.8381  0.8931 -0.7517
 9180SOL     OW39172   0.363   0.621   7.817 -0.2134  0.3591  0.0569
 9180SOL    HW139173   0.329   0.691   7.761 -1.8674 -1.2633 -0.9765
 9180SOL    HW239174   0.286   0.573   7.847 -0.0757 -0.3753 -0.7666
 9181SOL     OW39175   0.447   3.676  13.692  0.0395 -0.0589 -0.2488
 9181SOL    HW139176   0.496   3.709  13.767  1.5442 -0.4842 -1.0632
 9181SOL    HW239177   0.507   3.608  13.663  2.2256  1.5563  0.5190
 9182SOL     OW39178   3.636   0.609   4.104  0.8361 -0.2862 -0.2769
 9182SOL    HW139179   3.702   0.560   4.153  0.2770 -0.9649 -0.1995
 9182SOL    HW239180   3.638   0.561   4.021 -1.8543 -3.4261  1.5143
 9183SOL     OW39181   0.900   1.762   5.393 -0.8272 -0.3636  0.4134
 9183SOL    HW139182   0.938   1.850   5.401 -0.8097 -0.1279 -2.1522
 9183SOL    HW239183   0.968   1.721   5.340 -0.5024 -1.4311  1.6664
 9184SOL     OW39184   2.542   0.260   6.055  0.5150  0.0584 -0.2641
 9184SOL    HW139185   2.600   0.185   6.067  1.1491  0.5192 -0.4275
 9184SOL    HW239186   2.605   0.330   6.074  1.9505 -0.6789 -2.3552
 9185SOL     OW39187   0.482   4.446   8.705  0.0568  0.1196  0.0795
 9185SOL    HW139188   0.409   4.436   8.644  0.3583 -0.2100 -0.2305
 9185SOL    HW239189   0.438   4.410   8.782  3.1912  0.3198  1.9858
 9186SOL     OW39190   4.611   4.435   2.600 -0.3665 -0.5029 -0.4140
 9186SOL    HW139191   4.536   4.467   2.549 -1.9869 -1.4794  1.3384
 9186SOL    HW239192   4.640   4.368   2.538  1.9655 -0.4020  0.5714
 9187SOL     OW39193   2.681   0.374  16.857 -0.3926 -0.8468  0.4519
 9187SOL    HW139194   2.636   0.455  16.835 -1.1773 -1.2777  0.4728
 9187SOL    HW239195   2.610   0.326  16.898 -0.7020 -0.4478  0.3831
 9188SOL     OW39196   0.656   3.681   7.089 -0.3278 -0.1994  0.3633
 9188SOL    HW139197   0.720   3.751   7.103 -0.0735 -0.3307 -0.1333
 9188SOL    HW239198   0.709   3.608   7.121  2.0651  2.0975  1.6880
 9189SOL     OW39199   4.495   1.100   2.381  0.0046 -0.2775  0.3067
 9189SOL    HW139200   4.501   1.169   2.448 -1.1675 -2.2272  2.4157
 9189SOL    HW239201   4.485   1.150   2.300  2.2011 -1.2330 -0.5504
 9190SOL     OW39202   1.241   2.861   2.144  0.0871 -0.4424  0.8630
 9190SOL    HW139203   1.155   2.866   2.102  0.9667 -0.8698 -0.9672
 9190SOL    HW239204   1.270   2.946   2.111 -1.8993 -0.2693 -0.4296
 9191SOL     OW39205   3.052   1.668   9.488 -0.0319  0.2323 -0.7773
 9191SOL    HW139206   3.136   1.624   9.505 -0.7535 -0.5238  0.8909
 9191SOL    HW239207   3.020   1.591   9.441  3.4067 -2.5719  1.4790
 9192SOL     OW39208   3.417   3.659   6.168  0.4446 -0.1567  0.5145
 9192SOL    HW139209   3.345   3.603   6.196 -0.0574  0.2258 -0.0076
 9192SOL    HW239210   3.402   3.655   6.073 -0.6313 -1.3540  0.7360
 9193SOL     OW39211   3.964   2.530   4.630 -0.0112 -0.1620  0.1428
 9193SOL    HW139212   3.971   2.486   4.715  0.1267  0.2788  0.3630
 9193SOL    HW239213   3.935   2.618   4.655 -1.1919 -0.4704 -0.1465
 9194SOL     OW39214   0.266   1.872  12.035  0.4056  0.0361 -0.3193
 9194SOL    HW139215   0.181   1.839  12.063  0.9997 -1.1730  0.0306
 9194SOL    HW239216   0.256   1.962  12.067  0.1104 -0.7148  1.6563
 9195SOL     OW39217   1.422   0.131   2.817 -0.0795  0.1253  0.0850
 9195SOL    HW139218   1.329   0.130   2.839  0.4078  0.5593  2.1404
 9195SOL    HW239219   1.436   0.212   2.768  0.8162  1.0540  1.8957
 9196SOL     OW39220   3.518   1.593   3.356 -0.1558 -0.1929 -0.2534
 9196SOL    HW139221   3.592   1.575   3.298  0.3185  1.7501 -0.2458
 9196SOL    HW239222   3.560   1.581   3.441  1.3999 -2.8306 -1.3989
 9197SOL     OW39223   4.395   4.197  13.091 -0.5597 -0.1111 -0.6135
 9197SOL    HW139224   4.458   4.141  13.135  1.9261  2.3531 -1.0077
 9197SOL    HW239225   4.348   4.132  13.039  1.7204 -1.3954 -1.0275
 9198SOL     OW39226   3.047   3.072   6.255  0.4318 -0.3043  0.1128
 9198SOL    HW139227   3.016   3.016   6.325 -0.5907  0.1691  0.0360
 9198SOL    HW239228   3.122   3.115   6.296 -0.1212  0.2959  0.4912
 9199SOL     OW39229   3.873   4.670   5.830  0.2509  0.5240  0.8729
 9199SOL    HW139230   3.890   4.582   5.796  0.5985 -0.1472  2.7656
 9199SOL    HW239231   3.957   4.716   5.820 -0.7072  2.0369 -0.1564
 9200SOL     OW39232   0.367   3.997   3.665  0.3745  0.4682  0.2919
 9200SOL    HW139233   0.292   3.957   3.708 -0.1855  0.2373 -0.9254
 9200SOL    HW239234   0.423   3.920   3.655  0.8970  1.0141 -0.9801
 9201SOL     OW39235   2.980   0.322  10.626  0.0751  0.3382  0.6631
 9201SOL    HW139236   2.967   0.406  10.671 -1.5878  0.1201  0.5775
 9201SOL    HW239237   2.909   0.315  10.562  0.3714 -0.9684  0.4772
 9202SOL     OW39238   1.297   0.789   6.449  0.1108 -0.8494  0.1470
 9202SOL    HW139239   1.213   0.744   6.442 -0.4191 -0.0227  1.1791
 9202SOL    HW239240   1.295   0.830   6.363 -0.5411  0.9876  1.0339
 9203SOL     OW39241   1.856   2.239   8.737 -0.0691 -0.9705  0.0158
 9203SOL    HW139242   1.917   2.287   8.681 -0.3533 -1.3664 -0.6221
 9203SOL    HW239243   1.832   2.312   8.795  0.7120 -0.6790 -0.0195
 9204SOL     OW39244   1.267   1.703   1.125 -0.7759 -0.3745 -0.1933
 9204SOL    HW139245   1.194   1.747   1.167 -0.2116  1.4624 -1.1711
 9204SOL    HW239246   1.220   1.630   1.084  1.0054 -1.1755 -0.8296
 9205SOL     OW39247   4.260   4.075   8.260  0.0318  0.0431  0.0279
 9205SOL    HW139248   4.236   4.133   8.333 -0.4548  0.3878 -0.4071
 9205SOL    HW239249   4.312   4.131   8.202  1.7562 -1.5119  0.0756
 9206SOL     OW39250   0.859   3.454   4.723  0.3186  0.4634 -0.1686
 9206SOL    HW139251   0.840   3.544   4.698  2.8168  1.9076  3.0322
 9206SOL    HW239252   0.928   3.463   4.789 -2.1987  1.0023  2.3480
 9207SOL     OW39253   0.455   2.340   9.511 -0.1356  0.0418 -0.2133
 9207SOL    HW139254   0.360   2.352   9.505 -0.0445  0.5735 -0.5169
 9207SOL    HW239255   0.460   2.295   9.596 -2.2042 -0.9811 -0.6228
 9208SOL     OW39256   1.295   4.328   2.725 -0.0926 -0.5385 -0.3919
 9208SOL    HW139257   1.340   4.395   2.776 -1.7175  1.1599 -1.1909
 9208SOL    HW239258   1.237   4.295   2.793  0.8234  0.6282  0.9559
 9209SOL     OW39259   3.765   4.177  10.869 -0.6763 -0.3873 -0.2886
 9209SOL    HW139260   3.837   4.117  10.848  1.3201  2.1259 -0.7127
 9209SOL    HW239261   3.815   4.214  10.942 -0.9679  1.5039 -1.0462
 9210SOL     OW39262   0.060   0.237  17.726 -0.1127 -0.0442 -0.3882
 9210SOL    HW139263   0.027   0.177   0.037  1.5512 -1.9526 -1.2848
 9210SOL    HW239264   0.128   0.286   0.017  1.0683 -1.2505 -0.8176
 9211SOL     OW39265   2.277   2.371  16.064  0.1099 -0.6816  0.5676
 9211SOL    HW139266   2.188   2.338  16.058  0.0663 -0.4233 -0.1781
 9211SOL    HW239267   2.321   2.295  16.026  0.0464  0.7298 -2.3281
 9212SOL     OW39268   1.577   0.368   4.367 -0.0806  0.2360  0.5487
 9212SOL    HW139269   1.578   0.461   4.344 -1.9356  0.1719  0.1770
 9212SOL    HW239270   1.665   0.346   4.335 -0.0668  0.5401  0.3708
 9213SOL     OW39271   2.942   0.930  13.949 -0.3935 -0.6093 -0.2366
 9213SOL    HW139272   2.931   0.972  14.034  0.1585 -1.6823  0.3687
 9213SOL    HW239273   2.849   0.908  13.945 -0.3509 -1.3816  2.7092
 9214SOL     OW39274   4.436   1.403   6.563  0.9425  0.6448  0.0821
 9214SOL    HW139275   4.457   1.449   6.645 -1.6248 -0.5492  1.4105
 9214SOL    HW239276   4.519   1.414   6.516  1.5834  0.1866  1.0826
 9215SOL     OW39277   0.764   2.429   4.797 -0.1842 -0.1745 -0.2831
 9215SOL    HW139278   0.769   2.412   4.703  0.1864 -0.3752 -0.2265
 9215SOL    HW239279   0.691   2.492   4.796 -0.3667 -0.3866 -0.3287
 9216SOL     OW39280   0.439   3.592   8.220 -0.6910 -0.5843  0.4237
 9216SOL    HW139281   0.446   3.530   8.292  0.1374  0.6923  1.4355
 9216SOL    HW239282   0.367   3.647   8.250  0.4403  0.8729  0.4591
 9217SOL     OW39283   0.833   0.913   0.764  0.5012 -0.1764 -0.3947
 9217SOL    HW139284   0.892   0.890   0.835  1.7536 -0.3078 -1.4821
 9217SOL    HW239285   0.883   0.871   0.694 -1.6924 -2.5752 -0.5209
 9218SOL     OW39286   0.121   3.336   7.656 -0.0527  0.0280 -0.2447
 9218SOL    HW139287   0.070   3.292   7.724  2.3821 -0.6473  1.1476
 9218SOL    HW239288   0.105   3.426   7.683 -1.4180 -0.6236  1.1229
 9219SOL     OW39289   3.928   2.518   9.405  0.2228 -0.0763 -0.0070
 9219SOL    HW139290   3.988   2.491   9.335 -1.9038 -1.1757 -1.4395
 9219SOL    HW239291   3.843   2.509   9.360  0.6907 -0.4998 -0.8059
 9220SOL     OW39292   3.383   1.995  14.967  0.4198 -0.0411 -0.4845
 9220SOL    HW139293   3.340   1.933  14.907  2.0382 -0.4069 -1.2668
 9220SOL    HW239294   3.450   1.944  15.013  1.3183  2.3873  0.8825
 9221SOL     OW39295   3.955   4.340  10.997 -0.3539  0.1990  0.7276
 9221SOL    HW139296   4.021   4.391  10.949 -0.8045  0.3415  0.2655
 9221SOL    HW239297   3.934   4.406  11.063  0.8112  3.2583 -1.9389
 9222SOL     OW39298   3.483   1.837   2.516  0.3965 -0.2160 -0.3855
 9222SOL    HW139299   3.484   1.883   2.600  0.5743 -1.3389  0.2279
 9222SOL    HW239300   3.535   1.760   2.538  2.4162  0.8276 -1.5034
 9223SOL     OW39301   0.791   3.066   6.963  0.5094  0.5448 -0.2434
 9223SOL    HW139302   0.757   2.998   7.022  0.6809  1.0841  0.4809
 9223SOL    HW239303   0.724   3.132   6.980 -0.7088 -0.9935  0.8671
 9224SOL     OW39304   1.993   2.675  13.267 -0.1756  0.2393 -0.2133
 9224SOL    HW139305   2.087   2.688  13.260 -0.1208  0.5899  1.0847
 9224SOL    HW239306   1.987   2.621  13.346  0.4359  2.7927  1.5689
 9225SOL     OW39307   4.272   0.666   7.918 -0.1247  0.0247  0.1302
 9225SOL    HW139308   4.187   0.684   7.959 -1.2278  0.4387 -2.3388
 9225SOL    HW239309   4.246   0.606   7.849  0.5009  0.2121 -0.2663
 9226SOL     OW39310   4.281   4.697  11.183 -1.0231 -0.1692 -0.5863
 9226SOL    HW139311   4.264   4.703  11.277  0.8563  0.2624 -0.2620
 9226SOL    HW239312   4.359   4.641  11.181  0.1639  1.5213 -1.7595
 9227SOL     OW39313   2.543   1.345   1.888  0.5841  0.0146 -0.3177
 9227SOL    HW139314   2.509   1.317   1.973 -1.0147  0.2877 -0.8611
 9227SOL    HW239315   2.465   1.357   1.834  1.1341  2.1668 -0.6602
 9228SOL     OW39316   3.280   4.710   7.378 -0.1061 -0.5734 -0.1130
 9228SOL    HW139317   3.282   0.043   7.440 -1.2055 -0.9216  0.3252
 9228SOL    HW239318   3.238   0.009   7.301 -2.1427 -0.2605  1.1689
 9229SOL     OW39319   0.394   3.931  14.047  0.2215 -0.0676 -0.0605
 9229SOL    HW139320   0.421   3.890  14.129 -0.9981 -0.1855  0.2858
 9229SOL    HW239321   0.441   3.866  13.994  1.0187  0.9005 -0.5296
 9230SOL     OW39322   0.063   4.494   6.922  0.1687  0.0329 -0.4237
 9230SOL    HW139323   0.101   4.463   7.005  2.1598  1.8940 -0.6464
 9230SOL    HW239324   0.133   4.548   6.886 -0.9182  0.5556 -1.7386
 9231SOL     OW39325   2.073   1.878   3.957  0.2343  0.0609  0.0792
 9231SOL    HW139326   1.998   1.928   3.987  0.4578  0.1771  0.4460
 9231SOL    HW239327   2.054   1.870   3.864 -0.4284  1.9111  0.0596
 9232SOL     OW39328   3.451   0.076   2.213  0.3239  0.1840  0.1208
 9232SOL    HW139329   3.479   0.147   2.155 -0.9328  0.0681 -0.6298
 9232SOL    HW239330   3.442   0.008   2.147  0.2803  0.4157 -0.1125
 9233SOL     OW39331   0.389   4.428   7.236  0.3523 -0.3753  0.4413
 9233SOL    HW139332   0.415   4.434   7.328  0.3927  0.4509  0.3760
 9233SOL    HW239333   0.463   4.472   7.192 -0.2024 -0.2826 -0.3841
 9234SOL     OW39334   3.697   4.333   7.384 -0.1382  0.1621 -0.5729
 9234SOL    HW139335   3.767   4.396   7.369  0.1182 -0.0531 -0.2894
 9234SOL    HW239336   3.645   4.377   7.451 -0.8192 -1.9116  0.2657
 9235SOL     OW39337   0.637   0.350   6.245  0.1135 -0.0427  0.5829
 9235SOL    HW139338   0.624   0.259   6.219  0.6883 -0.0783  0.4258
 9235SOL    HW239339   0.639   0.337   6.340 -3.6678  4.0234  1.2137
 9236SOL     OW39340   2.496   3.131   8.634  0.0084  0.3614 -0.1752
 9236SOL    HW139341   2.543   3.111   8.553  0.2233 -0.1506  0.0742
 9236SOL    HW239342   2.412   3.127   8.589  1.1881  1.4329 -2.4322
 9237SOL     OW39343   3.446   4.453   6.949 -0.3487  0.3641 -0.2499
 9237SOL    HW139344   3.352   4.461   6.931 -0.3974 -1.6616 -0.8947
 9237SOL    HW239345   3.476   4.526   6.895  0.3145  0.7211  0.6093
 9238SOL     OW39346   1.730   1.017  14.479  0.2231 -0.2724  0.0959
 9238SOL    HW139347   1.679   1.016  14.560 -0.9741 -0.2086 -0.6600
 9238SOL    HW239348   1.760   0.929  14.460  0.0251 -0.6454  1.5607
 9239SOL     OW39349   2.263   3.668   5.046  0.8114  0.3308 -0.3979
 9239SOL    HW139350   2.217   3.593   5.082  1.9726 -0.7248 -1.0598
 9239SOL    HW239351   2.211   3.739   5.083  0.1317  0.0924 -0.9107
 9240SOL     OW39352   3.894   3.685   5.106  0.4664  0.1338  0.4949
 9240SOL    HW139353   3.860   3.673   5.195  0.3206  1.2636  0.6038
 9240SOL    HW239354   3.819   3.642   5.065 -0.0588  0.7397  0.8096
 9241SOL     OW39355   1.619   2.311   2.679  0.1785 -0.4564  0.1461
 9241SOL    HW139356   1.551   2.378   2.684 -0.5018 -1.0403 -1.1175
 9241SOL    HW239357   1.699   2.361   2.663 -0.8822  0.4528 -2.2813
 9242SOL     OW39358   0.422   2.551  15.938 -0.0195 -0.1987 -0.0418
 9242SOL    HW139359   0.395   2.606  15.864  0.1453  1.0384  0.8015
 9242SOL    HW239360   0.344   2.566  15.992 -0.1598  1.8767 -0.8082
 9243SOL     OW39361   2.401   0.146   8.928  0.4153  0.4374 -0.1396
 9243SOL    HW139362   2.365   0.110   9.009  1.9495 -0.3212  0.1936
 9243SOL    HW239363   2.320   0.171   8.883  2.0522  3.8654 -1.1650
 9244SOL     OW39364   4.165   2.133   1.831  0.1277  0.3304 -0.7412
 9244SOL    HW139365   4.219   2.055   1.843 -2.0879 -0.9858  0.6027
 9244SOL    HW239366   4.190   2.174   1.913 -0.1716 -0.2322 -0.3695
 9245SOL     OW39367   1.947   1.265   1.911 -0.9546 -0.1166 -0.3569
 9245SOL    HW139368   1.927   1.268   2.005 -1.5702 -1.4763 -0.4473
 9245SOL    HW239369   1.855   1.269   1.884 -0.9221  0.6212 -0.3651
 9246SOL     OW39370   3.061   3.421   1.109 -0.6722  0.2639  0.2452
 9246SOL    HW139371   3.081   3.348   1.168 -1.1905 -1.1338 -1.2741
 9246SOL    HW239372   3.046   3.371   1.028 -1.0876 -0.3701  0.7051
 9247SOL     OW39373   3.976   0.701   4.583 -0.5848 -0.5656  0.2314
 9247SOL    HW139374   3.970   0.766   4.513  0.9219 -0.0297  0.6004
 9247SOL    HW239375   3.882   0.686   4.593 -0.6651 -0.9720 -1.0658
 9248SOL     OW39376   4.319   3.254   0.413  0.1332 -0.1405 -0.8241
 9248SOL    HW139377   4.350   3.332   0.368  1.1977 -0.2422 -0.2812
 9248SOL    HW239378   4.364   3.256   0.497  0.6358  2.4032 -1.1635
 9249SOL     OW39379   3.182   0.779   0.169  0.6337  0.1016  0.0988
 9249SOL    HW139380   3.154   0.712   0.231  0.5558  2.5113  2.6080
 9249SOL    HW239381   3.231   0.717   0.115 -0.9244 -0.2802 -0.8943
 9250SOL     OW39382   4.425   4.574   4.725  0.7857 -0.4490 -0.5025
 9250SOL    HW139383   4.507   4.524   4.725  1.3770  0.5183 -0.4955
 9250SOL    HW239384   4.385   4.523   4.654  2.7496  0.2892 -2.1391
 9251SOL     OW39385   2.535   4.090   8.956  0.0737 -0.1172 -0.2221
 9251SOL    HW139386   2.576   4.177   8.959 -0.2747  0.1086 -2.1796
 9251SOL    HW239387   2.585   4.043   8.890  2.6287  2.1670  0.0924
 9252SOL     OW39388   1.324   3.119   2.128  0.3671 -0.1518  0.3451
 9252SOL    HW139389   1.315   3.176   2.052 -0.1176 -0.3278  0.2692
 9252SOL    HW239390   1.292   3.178   2.196  0.9493  3.0737 -2.1557
 9253SOL     OW39391   0.471   1.577   0.439 -0.1903  0.2457  0.3227
 9253SOL    HW139392   0.441   1.493   0.405  0.2730  0.0952  0.2905
 9253SOL    HW239393   0.510   1.546   0.521 -0.2993  0.2357  0.3715
 9254SOL     OW39394   2.506   1.643   7.266 -0.1667  0.2879 -0.2198
 9254SOL    HW139395   2.584   1.697   7.281 -0.1722  0.7083 -1.7015
 9254SOL    HW239396   2.511   1.646   7.170  0.5757  0.8398 -0.1628
 9255SOL     OW39397   0.255   3.224   3.063 -0.6818 -0.5484  0.2710
 9255SOL    HW139398   0.214   3.251   3.145  1.8241  1.5450  0.8336
 9255SOL    HW239399   0.240   3.302   3.010 -0.8208  0.1770  1.3982
 9256SOL     OW39400   2.566   0.506   1.376 -0.4347  0.0340 -0.0160
 9256SOL    HW139401   2.655   0.541   1.370 -0.3721  0.0752  1.2282
 9256SOL    HW239402   2.559   0.461   1.292  0.0326 -1.4367  0.7407
 9257SOL     OW39403   3.718   1.473   5.387 -0.1051 -0.0694  0.0136
 9257SOL    HW139404   3.640   1.471   5.332  0.5977 -0.9175 -0.9693
 9257SOL    HW239405   3.674   1.464   5.471 -0.5608 -0.9544 -0.3212
 9258SOL     OW39406   4.241   0.182   7.664  0.3728  0.7305  0.2854
 9258SOL    HW139407   4.182   0.253   7.687 -0.6890 -0.3433  0.9054
 9258SOL    HW239408   4.307   0.189   7.733  0.6935  2.0311 -0.1531
 9259SOL     OW39409   4.704   1.193   6.767  0.1391  0.5883 -0.0476
 9259SOL    HW139410   4.684   1.119   6.824 -1.8128 -1.0927 -2.9140
 9259SOL    HW239411   0.044   1.168   6.721  0.7517  2.1005  0.1982
 9260SOL     OW39412   1.871   3.724   7.117 -0.3149  0.1770  0.0776
 9260SOL    HW139413   1.854   3.668   7.193  0.2868 -0.0421  0.0535
 9260SOL    HW239414   1.820   3.683   7.048  1.2396  0.1970 -1.0958
 9261SOL     OW39415   1.154   3.069  11.951  0.2092 -0.0989  0.2152
 9261SOL    HW139416   1.172   3.133  12.020  0.0080 -1.8274  1.9031
 9261SOL    HW239417   1.181   2.991  12.000  0.4718  0.0830  0.3637
 9262SOL     OW39418   4.343   4.701   4.172 -0.3010 -0.2692  0.2195
 9262SOL    HW139419   4.323   0.015   4.248  0.5704  0.0248  0.2493
 9262SOL    HW239420   4.306   0.010   4.099  1.0974  0.2143 -0.1742
 9263SOL     OW39421   4.293   4.620   7.933 -0.1055 -0.5078  0.6190
 9263SOL    HW139422   4.335   4.705   7.917 -1.0532  0.2460  2.1782
 9263SOL    HW239423   4.316   4.564   7.859  0.3327  0.1620  0.2512
 9264SOL     OW39424   1.797   1.618  11.323 -0.3333 -1.1950  0.1407
 9264SOL    HW139425   1.859   1.615  11.250 -1.2460  2.7545 -0.7901
 9264SOL    HW239426   1.840   1.552  11.378 -0.6791 -2.2858 -0.9172
 9265SOL     OW39427   2.393   1.713   6.777  0.4791 -0.6517 -0.0568
 9265SOL    HW139428   2.437   1.630   6.756  0.6276 -0.3475 -0.9287
 9265SOL    HW239429   2.300   1.693   6.792  0.6887 -2.7448 -1.5424
 9266SOL     OW39430   3.704   2.560   0.026 -0.1102  0.9616  0.2574
 9266SOL    HW139431   3.714   2.559  17.687 -0.6621  0.1294  0.2050
 9266SOL    HW239432   3.784   2.607   0.049 -0.2007  1.3473 -0.2180
 9267SOL     OW39433   3.277   1.122   1.710  0.2392  0.1774  0.1095
 9267SOL    HW139434   3.266   1.166   1.626 -1.0652 -0.4485 -0.0519
 9267SOL    HW239435   3.182   1.115   1.720  0.2240 -0.9559 -0.8001
 9268SOL     OW39436   4.273   4.152   3.621  0.9627 -0.1655  0.5534
 9268SOL    HW139437   4.211   4.083   3.644  0.6779  0.2169  0.9259
 9268SOL    HW239438   4.354   4.103   3.639  2.0336  1.5504  0.3905
 9269SOL     OW39439   0.213   2.291   5.161  0.1207  0.3854  0.5311
 9269SOL    HW139440   0.124   2.260   5.178 -1.1038  2.5899 -1.9901
 9269SOL    HW239441   0.215   2.293   5.066  0.0963  0.5315  0.5333
 9270SOL     OW39442   3.263   2.489  13.225 -0.2422  0.6618  0.9830
 9270SOL    HW139443   3.272   2.397  13.251  1.1962  0.5805  0.1981
 9270SOL    HW239444   3.208   2.513  13.299 -0.6464  1.1693  0.5209
 9271SOL     OW39445   4.731   4.557   7.314  0.5749 -0.1354 -0.2987
 9271SOL    HW139446   4.699   4.585   7.229 -1.9490 -2.7663 -0.2317
 9271SOL    HW239447   4.647   4.542   7.358  1.7930  0.7478  2.3223
 9272SOL     OW39448   0.583   1.980   1.837  0.9593 -0.0813 -0.0608
 9272SOL    HW139449   0.604   1.886   1.831 -1.2527 -0.7039  1.6911
 9272SOL    HW239450   0.507   1.991   1.894  0.6955 -0.9668 -0.2391
 9273SOL     OW39451   3.079   4.565   1.559 -0.4798 -0.2253  0.7916
 9273SOL    HW139452   3.063   4.587   1.651 -2.1061 -0.7907  0.6540
 9273SOL    HW239453   3.064   4.471   1.565 -0.0731 -0.3570 -0.4568
 9274SOL     OW39454   4.391   0.120   8.976 -0.1136 -0.0761  0.2730
 9274SOL    HW139455   4.381   0.026   8.962  0.2899  0.0823 -1.0613
 9274SOL    HW239456   4.478   0.120   9.016 -0.9135 -0.4262  2.0213
 9275SOL     OW39457   0.001   2.480   6.570 -0.1193 -0.2102  0.5601
 9275SOL    HW139458   0.048   2.552   6.612  2.2496 -2.6898  2.1763
 9275SOL    HW239459   0.071   2.415   6.574  0.1365  0.1304  1.9890
 9276SOL     OW39460   2.698   4.477   4.827 -0.2121  0.2700  0.1585
 9276SOL    HW139461   2.698   4.391   4.868 -0.8587 -0.3556 -1.1571
 9276SOL    HW239462   2.642   4.455   4.753  0.7112  1.6633 -0.9571
 9277SOL     OW39463   4.155   1.469   6.146  0.1189  0.2278 -0.3003
 9277SOL    HW139464   4.171   1.500   6.235 -2.2461  0.3188  0.0887
 9277SOL    HW239465   4.235   1.435   6.107  0.2710 -1.0841  1.1531
 9278SOL     OW39466   1.063   2.213  13.969 -0.8014  0.4836  0.1107
 9278SOL    HW139467   1.068   2.280  14.036 -3.1807 -0.6775  1.4332
 9278SOL    HW239468   0.987   2.244  13.921  0.2719 -2.0569 -3.3293
 9279SOL     OW39469   0.689   2.331   5.237  0.1192  0.1398 -0.8066
 9279SOL    HW139470   0.642   2.249   5.217  2.3981 -1.4323  0.3464
 9279SOL    HW239471   0.624   2.385   5.192  0.1402  0.2459 -0.7090
 9280SOL     OW39472   3.119   3.366   2.939 -0.0691 -0.0796 -0.1045
 9280SOL    HW139473   3.145   3.458   2.944  0.9881 -0.6101  3.9301
 9280SOL    HW239474   3.054   3.366   3.009  0.3120 -1.5909  0.2589
 9281SOL     OW39475   2.615   2.131  13.907  0.4859  0.0455  0.2402
 9281SOL    HW139476   2.571   2.074  13.843  1.5160 -0.5297  0.0396
 9281SOL    HW239477   2.561   2.108  13.983 -0.1101  2.5403  0.5446
 9282SOL     OW39478   2.548   3.596  13.491  0.4780  0.3270  0.4959
 9282SOL    HW139479   2.605   3.650  13.545  2.4884 -0.7789 -0.5146
 9282SOL    HW239480   2.473   3.580  13.548  0.2282  0.3202  0.1712
 9283SOL     OW39481   4.698   2.601   9.043  0.5333  0.0379  0.7850
 9283SOL    HW139482   4.696   2.566   9.132  0.4882 -0.6285  0.5222
 9283SOL    HW239483   4.638   2.538   9.003  2.3367 -0.7620 -0.6453
 9284SOL     OW39484   4.256   2.733   2.317 -0.1008  0.2588 -0.2911
 9284SOL    HW139485   4.180   2.705   2.369  2.0564 -0.0370  2.7605
 9284SOL    HW239486   4.329   2.705   2.373 -0.4084  0.7136  0.3380
 9285SOL     OW39487   1.926   0.141   2.114  0.1184 -0.1171 -0.5664
 9285SOL    HW139488   2.012   0.100   2.103  1.0562  2.4590 -2.6708
 9285SOL    HW239489   1.952   0.229   2.141  2.1520 -1.6432  2.4563
 9286SOL     OW39490   4.301   0.928  10.509  0.0735 -0.3196 -0.0818
 9286SOL    HW139491   4.380   0.898  10.554 -0.5477  0.4376  1.4815
 9286SOL    HW239492   4.301   0.871  10.431  0.2478 -0.6279  0.1431
 9287SOL     OW39493   2.574   1.347   5.694  0.1664 -0.0968 -0.2682
 9287SOL    HW139494   2.514   1.421   5.691 -0.1468 -0.2212  2.3494
 9287SOL    HW239495   2.514   1.286   5.737  2.2624 -0.1220  2.6950
 9288SOL     OW39496   2.176   0.176   8.776  0.5059  0.1752  0.0334
 9288SOL    HW139497   2.128   0.224   8.709  0.7455 -1.7372 -1.5126
 9288SOL    HW239498   2.208   0.102   8.724 -1.4951  0.6137 -1.8349
 9289SOL     OW39499   2.407   2.349   8.382  0.2022  0.2608  0.0260
 9289SOL    HW139500   2.345   2.320   8.449  0.1752 -3.0111 -1.4234
 9289SOL    HW239501   2.422   2.268   8.333  0.4305  1.0682 -1.2334
 9290SOL     OW39502   1.653   3.007  11.754  0.1143  0.4734 -0.1596
 9290SOL    HW139503   1.743   2.987  11.778  0.3296  0.8880 -0.6154
 9290SOL    HW239504   1.609   2.922  11.756  0.7300  0.1597  0.0639
 9291SOL     OW39505   3.045   2.394   6.213 -0.0538 -0.0831 -0.4399
 9291SOL    HW139506   3.072   2.484   6.230 -1.0761 -0.2089  1.8158
 9291SOL    HW239507   2.994   2.402   6.132 -1.4437 -0.1940  0.4177
 9292SOL     OW39508   4.467   3.442  12.497 -0.1712  0.1572 -0.4728
 9292SOL    HW139509   4.490   3.391  12.575  0.9670 -2.2737 -2.4035
 9292SOL    HW239510   4.377   3.465  12.520 -0.1602 -2.3281  2.1546
 9293SOL     OW39511   2.843   2.358   7.175 -0.1541  0.9871 -0.4454
 9293SOL    HW139512   2.842   2.273   7.219  0.1415  0.3759 -1.5917
 9293SOL    HW239513   2.769   2.346   7.115 -0.3992 -0.2264  0.0980
 9294SOL     OW39514   1.255   3.336   9.381  0.5002 -0.0713 -0.0182
 9294SOL    HW139515   1.302   3.318   9.463  2.5702  0.6031 -1.0597
 9294SOL    HW239516   1.303   3.415   9.358  0.3078  0.7842  2.5222
 9295SOL     OW39517   4.519   1.081   2.039  0.3562  0.2260 -0.1706
 9295SOL    HW139518   4.595   1.029   2.014  0.8426  1.2226 -0.7512
 9295SOL    HW239519   4.552   1.171   2.034  0.4698  0.2636  1.1755
 9296SOL     OW39520   1.396   0.916   8.291  0.0978 -0.6037  0.5844
 9296SOL    HW139521   1.322   0.976   8.280  0.8551  0.0779 -0.7867
 9296SOL    HW239522   1.363   0.850   8.229 -0.8760  0.8057 -0.3952
 9297SOL     OW39523   0.086   3.524   8.092 -0.0379 -0.0703 -0.0732
 9297SOL    HW139524   0.123   3.585   8.156  0.6112 -0.2782 -0.2561
 9297SOL    HW239525   0.114   3.440   8.129  1.5012  0.7146  0.5537
 9298SOL     OW39526   2.006   3.535   5.105  0.4053 -0.0223 -0.3865
 9298SOL    HW139527   1.935   3.531   5.169  0.1596 -1.1131 -0.7361
 9298SOL    HW239528   2.072   3.478   5.146  0.9803  1.1847  0.3796
 9299SOL     OW39529   4.375   3.185   1.770  0.3665 -0.1643  0.4311
 9299SOL    HW139530   4.441   3.242   1.810  1.3333 -2.1085  1.6001
 9299SOL    HW239531   4.423   3.103   1.783 -0.0298  0.0877  3.4897
 9300SOL     OW39532   1.210   0.430  15.369  0.0872 -0.5330  0.0469
 9300SOL    HW139533   1.156   0.475  15.303 -2.8357 -1.6407  1.6629
 9300SOL    HW239534   1.138   0.419  15.432  0.1308 -0.2036  0.1539
 9301SOL     OW39535   4.249   4.142  17.085 -0.2197  0.0493 -0.0343
 9301SOL    HW139536   4.217   4.117  16.998 -1.0232 -1.4359  0.6762
 9301SOL    HW239537   4.331   4.093  17.091 -1.0787 -1.4594 -0.4983
 9302SOL     OW39538   3.045   3.649  16.696 -0.0616  0.1318 -0.0713
 9302SOL    HW139539   2.966   3.597  16.713  1.2197 -1.3362  1.3720
 9302SOL    HW239540   3.100   3.630  16.772 -0.4269  1.7604  0.6155
 9303SOL     OW39541   2.074   4.052   4.986  0.3962  0.1321 -0.2850
 9303SOL    HW139542   1.995   4.002   4.967 -0.3406  0.4475  2.0006
 9303SOL    HW239543   2.113   3.994   5.051 -0.6252 -0.6395 -0.3695
 9304SOL     OW39544   0.079   0.119  14.720  0.0111  0.4586 -0.1173
 9304SOL    HW139545   0.035   0.057  14.662  0.1205 -1.3682  1.7021
 9304SOL    HW239546   0.034   0.194  14.682 -1.0578 -0.5904 -0.9022
 9305SOL     OW39547   4.503   2.082   2.170 -0.3874  0.5418 -0.1439
 9305SOL    HW139548   4.504   2.149   2.102 -2.7000 -1.8556 -2.5608
 9305SOL    HW239549   4.417   2.041   2.176  1.4924 -3.4466 -0.3943
 9306SOL     OW39550   0.995   1.592   2.273 -0.0909 -0.2402  0.0674
 9306SOL    HW139551   0.968   1.523   2.333  0.7683 -1.6197 -1.1391
 9306SOL    HW239552   0.953   1.668   2.313  0.5762 -1.0509  2.2809
 9307SOL     OW39553   2.051   2.198   5.632 -0.6432  0.0941  0.4714
 9307SOL    HW139554   2.098   2.128   5.586 -2.5939 -0.4740 -0.6402
 9307SOL    HW239555   2.068   2.171   5.722  0.6272  0.2050  0.2622
 9308SOL     OW39556   1.516   2.567   1.164  0.7779 -0.0826 -0.5053
 9308SOL    HW139557   1.506   2.500   1.232  0.1193 -0.0485 -0.5715
 9308SOL    HW239558   1.444   2.627   1.179 -0.6228 -1.4266 -1.8171
 9309SOL     OW39559   3.681   0.021  11.654  0.0611 -0.1628 -0.3335
 9309SOL    HW139560   3.672   0.105  11.699 -0.9789 -1.0605  1.1111
 9309SOL    HW239561   3.689   0.051  11.563 -0.0273 -0.4785 -0.4467
 9310SOL     OW39562   0.459   2.114  14.521 -0.0021  0.2647  0.0811
 9310SOL    HW139563   0.367   2.115  14.549  0.0385  1.8302  0.1392
 9310SOL    HW239564   0.502   2.158  14.594 -1.3642 -3.1230  2.9055
 9311SOL     OW39565   0.494   2.686  11.357  0.6742 -0.5712 -0.3032
 9311SOL    HW139566   0.425   2.744  11.325 -1.0489 -1.3246  2.0926
 9311SOL    HW239567   0.576   2.729  11.334  0.0490  0.8296  0.0812
 9312SOL     OW39568   1.306   1.051   4.507  0.0492 -0.2680 -0.2875
 9312SOL    HW139569   1.286   0.963   4.474 -1.0924 -0.5583  1.1775
 9312SOL    HW239570   1.334   1.088   4.423 -3.4384  0.2643 -1.2093
 9313SOL     OW39571   4.186   0.256   6.821  0.2463  0.2965  0.2641
 9313SOL    HW139572   4.193   0.168   6.858 -1.6529  0.1067  0.1397
 9313SOL    HW239573   4.104   0.259   6.772  0.1279 -0.2488  0.4224
 9314SOL     OW39574   0.492   2.904   3.579 -0.1122 -0.0801 -0.2053
 9314SOL    HW139575   0.457   2.892   3.667  2.3008 -2.5161  0.4102
 9314SOL    HW239576   0.470   2.819   3.541  1.7463 -1.3847  1.6248
 9315SOL     OW39577   2.541   4.105  17.230  0.3354 -0.0299  0.0500
 9315SOL    HW139578   2.563   4.020  17.269  1.1876  0.8213  1.4217
 9315SOL    HW239579   2.499   4.130  17.312 -1.7842  1.6070 -1.5376
 9316SOL     OW39580   1.981   2.620  10.969 -0.1782 -0.5053  0.3292
 9316SOL    HW139581   1.943   2.697  11.012  1.3351 -0.8675  2.3312
 9316SOL    HW239582   2.066   2.651  10.937  0.7255 -1.4186  1.8466
 9317SOL     OW39583   2.338   1.094  11.593  0.6429  0.1972  0.7443
 9317SOL    HW139584   2.274   1.156  11.628  0.8449  0.5486  0.4913
 9317SOL    HW239585   2.319   1.022  11.653 -3.2721  1.1863  0.6785
 9318SOL     OW39586   4.709   2.090   1.161  0.5379  0.4419 -0.1114
 9318SOL    HW139587   0.060   2.090   1.131  0.9240  0.5845  1.0757
 9318SOL    HW239588   4.729   2.126   1.247  1.1576 -0.9424  0.3375
 9319SOL     OW39589   0.766   0.044  11.236 -0.5813 -0.2069 -0.4770
 9319SOL    HW139590   0.705   0.117  11.227  0.4118  0.8326  1.2898
 9319SOL    HW239591   0.799   0.048  11.325 -2.6798 -0.2054  0.2989
 9320SOL     OW39592   0.439   0.993   6.097 -0.3032 -0.0888  0.3157
 9320SOL    HW139593   0.450   0.902   6.125 -0.2360  0.4943  2.2175
 9320SOL    HW239594   0.529   1.018   6.077  0.6766 -1.7873  2.5334
 9321SOL     OW39595   1.684   1.038   5.155 -0.2973 -0.1316 -0.0630
 9321SOL    HW139596   1.708   0.946   5.162 -1.2183 -0.6469 -3.9501
 9321SOL    HW239597   1.690   1.046   5.060 -0.4976 -0.9345 -0.1345
 9322SOL     OW39598   1.687   0.440   5.793  0.1685  0.1708 -0.2218
 9322SOL    HW139599   1.699   0.410   5.884 -1.0104  0.5406  0.0516
 9322SOL    HW239600   1.768   0.474   5.755  2.6050 -3.1893  1.8636
 9323SOL     OW39601   3.953   3.287   1.081  0.1625 -0.3722  0.6016
 9323SOL    HW139602   4.023   3.225   1.060  1.5515  1.4506 -0.2114
 9323SOL    HW239603   4.004   3.369   1.085  0.3693 -0.4720 -0.0123
 9324SOL     OW39604   4.194   3.285   9.383 -0.5008  0.2969  0.4466
 9324SOL    HW139605   4.257   3.269   9.454  0.5109 -0.3713 -0.6015
 9324SOL    HW239606   4.207   3.373   9.348 -2.0168  0.2192 -0.2984
 9325SOL     OW39607   4.690   3.954   2.753 -0.5107  0.4245  0.0418
 9325SOL    HW139608   0.044   3.934   2.760 -0.7209  0.2165  2.4698
 9325SOL    HW239609   4.665   3.877   2.702  0.8047 -0.3750  0.6122
 9326SOL     OW39610   0.185   2.452   9.930  0.5243  0.8231 -0.2967
 9326SOL    HW139611   0.246   2.421   9.862 -1.0815 -3.2382  0.1299
 9326SOL    HW239612   0.127   2.378   9.948  0.9709  0.1132 -1.7456
 9327SOL     OW39613   2.753   3.432  15.461 -0.1485 -0.0929 -0.6804
 9327SOL    HW139614   2.772   3.470  15.547 -0.6604  0.7785 -0.9566
 9327SOL    HW239615   2.828   3.372  15.456 -1.3513 -1.8562  2.1555
 9328SOL     OW39616   0.099   3.456  12.622 -0.2914 -0.1975  0.0941
 9328SOL    HW139617   0.081   3.430  12.531 -0.1569 -2.3844  0.6743
 9328SOL    HW239618   0.145   3.376  12.648  2.1298  0.6215 -1.6663
 9329SOL     OW39619   1.971   1.125   2.906  0.2018  0.2373  0.2708
 9329SOL    HW139620   1.990   1.203   2.853 -0.3998  0.5387  0.5048
 9329SOL    HW239621   2.059   1.095   2.885  0.4611 -0.5676  2.5760
 9330SOL     OW39622   2.417   1.534   8.529 -0.3885 -1.1017  0.0895
 9330SOL    HW139623   2.376   1.527   8.443  1.4850  1.8797 -1.0343
 9330SOL    HW239624   2.491   1.594   8.520  0.0083 -1.3146  1.8624
 9331SOL     OW39625   4.136   3.085   2.714 -0.7086 -0.2866 -0.7846
 9331SOL    HW139626   4.128   2.993   2.737  2.0128 -0.2564  0.2085
 9331SOL    HW239627   4.207   3.083   2.650  1.0438 -1.1326  1.1919
 9332SOL     OW39628   3.025   3.586   6.444  0.2887 -0.3046  0.0182
 9332SOL    HW139629   2.932   3.569   6.431  0.6953 -1.0960 -1.9271
 9332SOL    HW239630   3.071   3.544   6.371 -0.2762  1.0694 -1.1466
 9333SOL     OW39631   4.511   3.150   1.469  0.2672 -0.6373 -0.3742
 9333SOL    HW139632   4.420   3.119   1.472 -0.2078  0.8170  0.1317
 9333SOL    HW239633   4.518   3.191   1.555  0.5793  0.9159 -1.1425
 9334SOL     OW39634   2.909   0.822   7.349  0.0892  0.0975  0.1793
 9334SOL    HW139635   2.877   0.886   7.287 -1.2109 -0.0473  0.7025
 9334SOL    HW239636   2.990   0.798   7.303  0.4657 -0.0293  0.8926
 9335SOL     OW39637   1.615   1.148   3.919 -0.0624 -0.3807  0.2468
 9335SOL    HW139638   1.564   1.186   3.990  0.7667  0.8663  0.1847
 9335SOL    HW239639   1.551   1.080   3.900 -2.2817  1.9405 -0.6162
 9336SOL     OW39640   0.285   4.007  12.757  0.0115  0.1893 -0.2676
 9336SOL    HW139641   0.215   4.030  12.695 -0.4529 -3.4018 -1.1224
 9336SOL    HW239642   0.351   4.073  12.737  1.7155 -1.8259 -1.3134
 9337SOL     OW39643   2.121   1.860   6.926 -0.5002  0.6012 -0.4009
 9337SOL    HW139644   2.118   1.856   6.830  0.1017 -1.1550 -0.3346
 9337SOL    HW239645   2.027   1.878   6.933 -0.7847 -0.0488 -2.4465
 9338SOL     OW39646   0.576   3.846   8.571  0.2254 -0.5199  0.4909
 9338SOL    HW139647   0.652   3.883   8.526 -1.2324 -0.5269 -1.9902
 9338SOL    HW239648   0.504   3.899   8.536 -1.6978 -2.4879  1.4374
 9339SOL     OW39649   2.829   1.845   3.057 -0.0863  0.6121 -0.4464
 9339SOL    HW139650   2.912   1.885   3.084 -0.2609  1.5175 -1.2320
 9339SOL    HW239651   2.777   1.872   3.132  0.5823 -1.1695  0.6597
 9340SOL     OW39652   2.659   0.600   7.733 -0.0961 -0.0330  0.4309
 9340SOL    HW139653   2.731   0.549   7.694  0.7148  0.1074  1.7546
 9340SOL    HW239654   2.659   0.539   7.807 -0.9907 -0.2415  0.2598
 9341SOL     OW39655   4.073   1.264   5.686 -0.6212  0.1417  0.1221
 9341SOL    HW139656   4.054   1.339   5.743 -1.7444  0.8926 -1.2313
 9341SOL    HW239657   4.164   1.287   5.667 -1.2279  1.0392 -1.6770
 9342SOL     OW39658   4.369   2.785   1.417  0.1335  0.5821  0.0093
 9342SOL    HW139659   4.273   2.788   1.412  0.0769 -1.9235 -0.4267
 9342SOL    HW239660   4.379   2.708   1.472 -0.4978 -0.4444 -1.3128
 9343SOL     OW39661   3.386   1.969   2.756  0.4323  0.0902 -0.5364
 9343SOL    HW139662   3.294   1.942   2.761  0.1713  1.0658 -0.1819
 9343SOL    HW239663   3.401   1.966   2.850  1.5776  1.5902 -0.6828
 9344SOL     OW39664   2.959   2.126  15.511 -0.5288 -0.0467  0.2500
 9344SOL    HW139665   2.920   2.213  15.524 -0.7322 -0.0716 -0.2167
 9344SOL    HW239666   2.883   2.068  15.512 -1.1499  0.7849  3.8419
 9345SOL     OW39667   1.432   4.361   6.210  0.2321  0.2590 -0.2118
 9345SOL    HW139668   1.370   4.316   6.152  0.6342 -0.3202 -0.1840
 9345SOL    HW239669   1.478   4.287   6.248 -1.0729 -0.3268  0.2323
 9346SOL     OW39670   0.540   2.124   2.973  0.6072 -0.3316 -0.2223
 9346SOL    HW139671   0.488   2.123   3.053 -0.2801 -0.3429 -0.7965
 9346SOL    HW239672   0.491   2.057   2.925 -0.1658 -0.9427  1.4085
 9347SOL     OW39673   4.213   0.583   6.805  0.5478  0.9010 -0.4262
 9347SOL    HW139674   4.236   0.652   6.743 -1.5883  0.9189 -1.2034
 9347SOL    HW239675   4.131   0.548   6.768  0.8152 -0.5997  0.4059
 9348SOL     OW39676   0.759   1.331   7.696 -0.4108  0.1382 -0.0160
 9348SOL    HW139677   0.790   1.295   7.779 -0.0684 -0.9157 -0.6062
 9348SOL    HW239678   0.683   1.273   7.700  1.3531 -2.1634 -0.1952
 9349SOL     OW39679   2.030   1.834   6.349  0.5089 -0.3792  0.6376
 9349SOL    HW139680   2.111   1.794   6.316 -0.2309 -0.0683 -1.5257
 9349SOL    HW239681   1.965   1.767   6.327 -0.6736  1.2402 -0.7450
 9350SOL     OW39682   4.041   1.552   7.052  0.3828  0.5885 -0.2475
 9350SOL    HW139683   3.967   1.608   7.031  0.4730  0.0159 -2.1198
 9350SOL    HW239684   3.997   1.468   7.066 -0.0299  0.5235 -1.9980
 9351SOL     OW39685   2.349   2.341   8.854 -0.1204  0.0747  0.4762
 9351SOL    HW139686   2.379   2.350   8.944  1.7955  0.9544 -0.2580
 9351SOL    HW239687   2.432   2.365   8.813  0.4502 -1.7541  0.5541
 9352SOL     OW39688   0.934   0.909  15.882  0.0623 -0.5688 -0.4081
 9352SOL    HW139689   0.883   0.831  15.858  2.3830 -1.6762 -1.6717
 9352SOL    HW239690   0.931   0.915  15.978  0.3705 -0.9290 -0.3762
 9353SOL     OW39691   0.339   4.579   8.974 -0.1127  0.6104  0.1020
 9353SOL    HW139692   0.410   4.635   9.004 -0.4240  1.0864 -0.0552
 9353SOL    HW239693   0.352   4.600   8.881  1.4115  0.2604  0.2352
 9354SOL     OW39694   3.777   3.629   5.364  0.5002  0.4547 -0.3987
 9354SOL    HW139695   3.807   3.538   5.370  0.1820  0.3402 -0.5395
 9354SOL    HW239696   3.685   3.606   5.376  0.0968  1.2198 -2.0334
 9355SOL     OW39697   1.522   1.750   1.235 -0.6861 -0.6404 -0.1601
 9355SOL    HW139698   1.490   1.823   1.288 -1.3282 -1.5316  0.6665
 9355SOL    HW239699   1.469   1.761   1.156 -0.6039  1.9990  0.1446
 9356SOL     OW39700   1.881   3.778   8.847  0.3465 -0.6817  0.2660
 9356SOL    HW139701   1.860   3.871   8.842  0.0406 -0.7755 -0.1589
 9356SOL    HW239702   1.935   3.765   8.925 -0.8132 -1.8043  0.8589
 9357SOL     OW39703   4.003   1.479   8.212 -0.0739 -0.9250  0.2699
 9357SOL    HW139704   4.083   1.443   8.250 -0.7821 -1.0455  1.6474
 9357SOL    HW239705   3.943   1.467   8.286 -1.1942  1.4024 -0.2916
 9358SOL     OW39706   0.920   4.611   4.905 -0.5884  0.2621 -0.6160
 9358SOL    HW139707   0.959   4.697   4.921 -1.8866  0.6686  0.3345
 9358SOL    HW239708   0.997   4.555   4.917  0.2305  1.3928 -0.5539
 9359SOL     OW39709   0.117   3.647  16.005 -0.2874  0.6050 -0.4233
 9359SOL    HW139710   0.201   3.609  16.032 -0.8314  0.5030  1.1573
 9359SOL    HW239711   0.138   3.682  15.919  0.3050 -3.6723 -2.0119
 9360SOL     OW39712   0.307   3.083   4.019 -0.3059  0.1823  0.2962
 9360SOL    HW139713   0.397   3.090   4.051  0.1120  0.7054 -0.9899
 9360SOL    HW239714   0.256   3.103   4.097  0.0769 -0.3279  0.6767
 9361SOL     OW39715   3.389   4.062   9.763 -0.1064  0.8981  0.2377
 9361SOL    HW139716   3.356   3.994   9.704 -1.1100  1.4776  0.1506
 9361SOL    HW239717   3.315   4.122   9.764 -1.4014 -0.7107 -0.9636
 9362SOL     OW39718   0.622   1.945   9.036  0.3118  0.1675  0.2594
 9362SOL    HW139719   0.586   1.857   9.031  1.6655 -0.2873 -1.9351
 9362SOL    HW239720   0.584   1.987   9.112  2.2571 -0.0841  1.3851
 9363SOL     OW39721   2.389   3.910   8.668 -0.4622 -0.0649 -0.1753
 9363SOL    HW139722   2.479   3.935   8.686 -0.7784  1.1586 -0.2777
 9363SOL    HW239723   2.378   3.821   8.700  1.9812  0.5581  2.4269
 9364SOL     OW39724   3.568   2.778   5.455 -0.0937 -0.2905 -0.0351
 9364SOL    HW139725   3.493   2.834   5.436 -0.4175 -0.2401  1.4652
 9364SOL    HW239726   3.586   2.734   5.372 -1.1150  0.7046 -0.7820
 9365SOL     OW39727   3.530   1.483  12.668  0.1277 -0.0502 -0.4901
 9365SOL    HW139728   3.522   1.409  12.729 -3.1288  2.3012  1.9485
 9365SOL    HW239729   3.619   1.467  12.637  0.0233  2.6172 -2.1187
 9366SOL     OW39730   4.737   4.301   6.491 -0.2311  0.1523 -0.2458
 9366SOL    HW139731   0.010   4.208   6.476 -0.4342  0.0502  0.2189
 9366SOL    HW239732   4.719   4.292   6.584  0.5815  0.8871 -0.0156
 9367SOL     OW39733   2.623   0.863   3.543 -0.0069 -0.2092  0.2270
 9367SOL    HW139734   2.596   0.869   3.452  0.4415 -1.1408  0.0343
 9367SOL    HW239735   2.637   0.957   3.554  0.4109 -0.2558  0.1113
 9368SOL     OW39736   0.389   4.709  15.836  0.3480  0.3903 -0.1600
 9368SOL    HW139737   0.410   0.053  15.878 -1.3131  1.4801 -1.5006
 9368SOL    HW239738   0.299   4.729  15.810  0.2041  1.0724  0.8270
 9369SOL     OW39739   4.133   1.350   3.193 -0.1767 -0.4675 -0.0654
 9369SOL    HW139740   4.152   1.440   3.165  2.3335 -1.3578 -1.2422
 9369SOL    HW239741   4.185   1.305   3.127  0.7226  0.7900 -0.2127
 9370SOL     OW39742   4.511   2.765   2.005  0.2055 -0.5695 -1.0283
 9370SOL    HW139743   4.501   2.830   1.935  1.0301 -0.4682 -1.0540
 9370SOL    HW239744   4.533   2.682   1.962 -1.5203 -0.3246 -2.3563
 9371SOL     OW39745   0.623   3.051   1.071  0.0614  0.2208 -0.7417
 9371SOL    HW139746   0.569   2.997   1.128 -1.9841  2.5379 -0.5291
 9371SOL    HW239747   0.703   2.998   1.062 -1.9031 -2.3608 -3.1645
 9372SOL     OW39748   2.470   4.650   4.178 -0.5807 -0.2752  0.2041
 9372SOL    HW139749   2.433   4.599   4.250 -1.0201  2.2179  1.7606
 9372SOL    HW239750   2.538   4.700   4.223 -1.2131  1.4753 -0.7980
 9373SOL     OW39751   0.402   1.736   1.308  0.0532 -0.0575 -0.0899
 9373SOL    HW139752   0.414   1.643   1.287  0.7084 -0.2217  1.0338
 9373SOL    HW239753   0.359   1.728   1.392  3.3172  0.9852  1.7015
 9374SOL     OW39754   2.873   0.011   7.126  0.0726 -0.1938 -0.2482
 9374SOL    HW139755   2.888   4.677   7.185  0.4501  0.9314  1.0624
 9374SOL    HW239756   2.926   0.078   7.170  0.5966 -2.9146  3.2784
 9375SOL     OW39757   3.550   3.862   6.492 -0.0571  0.3702  0.4452
 9375SOL    HW139758   3.466   3.824   6.515 -0.6010  0.6663 -1.0412
 9375SOL    HW239759   3.581   3.888   6.579 -1.1253  0.4891  0.7824
 9376SOL     OW39760   0.756   4.019   2.403  0.0565  0.1709 -0.1787
 9376SOL    HW139761   0.817   4.092   2.393 -0.5371  0.6621 -0.2438
 9376SOL    HW239762   0.705   4.062   2.471  0.9114 -0.7182  1.0132
 9377SOL     OW39763   2.999   3.917  16.333  0.0949  0.1729  0.1859
 9377SOL    HW139764   3.020   3.982  16.400 -1.0767 -0.1597  0.8847
 9377SOL    HW239765   2.944   3.971  16.276  0.5219  1.1594  0.7144
 9378SOL     OW39766   3.608   3.790   9.808  0.0501  0.2513  0.6491
 9378SOL    HW139767   3.577   3.802   9.718  0.6249 -1.7771  0.1686
 9378SOL    HW239768   3.688   3.840   9.790 -1.4309  1.6480 -2.0129
 9379SOL     OW39769   4.119   0.388   7.833 -0.2073 -0.2218  0.1921
 9379SOL    HW139770   4.037   0.437   7.840  0.6518  1.1999  0.3938
 9379SOL    HW239771   4.097   0.311   7.884 -1.0132 -1.4451 -1.9994
 9380SOL     OW39772   3.000   0.471   1.583 -0.0371 -0.2341 -0.0344
 9380SOL    HW139773   2.968   0.438   1.499  1.0675 -0.9924 -0.1628
 9380SOL    HW239774   3.030   0.392   1.628  0.5388 -0.7509 -1.3286
 9381SOL     OW39775   4.411   0.011   9.567  0.4690 -0.3991 -0.3257
 9381SOL    HW139776   4.452   0.015   9.481 -2.3763  1.8628 -1.5457
 9381SOL    HW239777   4.386   0.103   9.579 -1.2044 -1.1348  1.9177
 9382SOL     OW39778   2.241   4.739  13.979  0.0926  0.0673 -0.8612
 9382SOL    HW139779   2.294   4.734  13.899  2.1207  0.1561  0.4864
 9382SOL    HW239780   2.284   4.673  14.033  0.9487  2.0291  0.8174
 9383SOL     OW39781   4.399   4.385   4.190  0.1712  0.3246  0.7148
 9383SOL    HW139782   4.373   4.470   4.225  2.4517  0.4415  2.0957
 9383SOL    HW239783   4.387   4.399   4.096 -0.8050  1.6148  1.0345
 9384SOL     OW39784   2.124   4.701   1.760 -0.3855 -0.2334  0.0032
 9384SOL    HW139785   2.150   0.053   1.750  1.9423 -1.0814 -1.5627
 9384SOL    HW239786   2.094   4.699   1.851 -0.3140 -1.3987  0.0022
 9385SOL     OW39787   4.190   2.533  13.203 -0.2568  0.8069 -0.0843
 9385SOL    HW139788   4.098   2.533  13.226  0.3122 -1.8885  2.2562
 9385SOL    HW239789   4.235   2.508  13.284 -0.6758  2.2224  0.5679
 9386SOL     OW39790   0.485   3.536   3.167  0.5495  0.4031 -0.0493
 9386SOL    HW139791   0.554   3.572   3.112 -0.1110 -0.3611 -1.3925
 9386SOL    HW239792   0.414   3.515   3.106 -1.1878 -0.3477  2.2321
 9387SOL     OW39793   2.625   4.395  14.542 -0.2716 -0.6585 -0.4603
 9387SOL    HW139794   2.587   4.347  14.616  3.6191 -0.3754  1.6995
 9387SOL    HW239795   2.702   4.339  14.538 -0.6367 -1.2574  0.8989
 9388SOL     OW39796   1.322   1.233   8.121 -0.1819  0.2580  0.5071
 9388SOL    HW139797   1.291   1.318   8.090 -1.3907 -0.0908  0.7676
 9388SOL    HW239798   1.398   1.260   8.173  1.2448 -1.0958 -0.8821
 9389SOL     OW39799   4.460   4.220   5.089 -0.3378 -0.5836  0.1517
 9389SOL    HW139800   4.447   4.144   5.033  0.2417 -1.6182  1.4313
 9389SOL    HW239801   4.425   4.284   5.027  2.7459 -0.3006 -1.3370
 9390SOL     OW39802   1.660   1.061   4.559 -0.1768  0.1451 -0.3786
 9390SOL    HW139803   1.603   1.033   4.631 -0.2070  0.0546 -0.4371
 9390SOL    HW239804   1.637   1.152   4.542  3.6877  1.2947  0.4548
 9391SOL     OW39805   4.665   1.181  16.772  0.0916 -0.3127 -0.7281
 9391SOL    HW139806   4.619   1.120  16.830 -2.0746  1.2648 -0.7759
 9391SOL    HW239807   0.003   1.208  16.821 -0.2679 -2.2526  0.9048
 9392SOL     OW39808   2.571   0.708   2.848  0.6074 -0.1065 -0.1433
 9392SOL    HW139809   2.583   0.722   2.942  1.9090  2.2699 -0.6805
 9392SOL    HW239810   2.658   0.736   2.819  0.2372  0.7364 -0.4238
 9393SOL     OW39811   1.871   2.709   2.015 -0.0221  0.0703 -0.4404
 9393SOL    HW139812   1.913   2.684   1.933 -1.1057 -0.3445 -0.8634
 9393SOL    HW239813   1.787   2.663   2.011  0.6284 -1.2841  1.3679
 9394SOL     OW39814   1.831   2.306   5.500  0.3438  0.3001  0.3413
 9394SOL    HW139815   1.901   2.254   5.536 -0.5248  0.5141  2.3165
 9394SOL    HW239816   1.875   2.355   5.430  2.1818 -0.1717  1.1915
 9395SOL     OW39817   3.761   4.189   3.616 -0.2469  0.2949  0.5297
 9395SOL    HW139818   3.682   4.240   3.596 -1.4002 -1.9862 -0.8140
 9395SOL    HW239819   3.817   4.201   3.538 -0.3098  0.1310  0.4582
 9396SOL     OW39820   3.499   1.255   8.045 -0.2689  0.6096 -0.7261
 9396SOL    HW139821   3.570   1.317   8.063  0.2912  0.0567 -1.0472
 9396SOL    HW239822   3.442   1.291   8.113 -0.6934  2.6687 -2.1506
 9397SOL     OW39823   0.754   0.690  17.308  0.3326 -0.1738 -0.4322
 9397SOL    HW139824   0.821   0.758  17.303  1.3924 -1.3443 -2.4483
 9397SOL    HW239825   0.685   0.736  17.355  0.8491  0.3901 -0.2375
 9398SOL     OW39826   4.492   4.709   2.472 -0.2870  0.0638 -0.1527
 9398SOL    HW139827   4.539   0.012   2.544 -0.1390  0.3085 -0.3957
 9398SOL    HW239828   4.512   0.038   2.409  2.0955 -0.1388  0.3863
 9399SOL     OW39829   0.095   0.517   8.598  0.3814 -0.3893 -0.3668
 9399SOL    HW139830   0.187   0.514   8.571  0.1808 -1.0185 -0.9734
 9399SOL    HW239831   0.049   0.535   8.516 -0.4085 -2.0852 -0.2984
 9400SOL     OW39832   1.521   3.911  13.344 -0.0393  0.7685 -0.0119
 9400SOL    HW139833   1.561   3.824  13.343 -1.6653  0.0478 -2.0986
 9400SOL    HW239834   1.431   3.897  13.374  0.2193  1.2972  1.0215
 9401SOL     OW39835   0.139   4.375   3.483  0.1001 -0.5933  0.4095
 9401SOL    HW139836   0.161   4.347   3.572  1.1425  0.2340  0.4105
 9401SOL    HW239837   0.113   4.290   3.448  1.3447 -0.3684 -1.0309
 9402SOL     OW39838   1.308   3.459   2.273  0.1410 -0.2816  0.2240
 9402SOL    HW139839   1.236   3.522   2.284  0.1670 -0.7491  3.0636
 9402SOL    HW239840   1.314   3.438   2.180 -0.4292 -2.3597  0.6711
 9403SOL     OW39841   2.830   2.597   1.501 -0.1005 -0.8958 -0.2127
 9403SOL    HW139842   2.809   2.548   1.421 -1.1322  1.2388 -1.2609
 9403SOL    HW239843   2.919   2.568   1.520 -0.0956 -1.5027 -1.1186
 9404SOL     OW39844   0.261   4.586   6.590 -0.3939 -0.1329 -0.2202
 9404SOL    HW139845   0.268   4.492   6.576  3.2161  0.0724  0.1422
 9404SOL    HW239846   0.295   4.614   6.675 -0.6772 -2.2016  0.5706
 9405SOL     OW39847   2.976   3.740   7.630 -0.4043 -0.1294 -0.2759
 9405SOL    HW139848   2.998   3.823   7.674  1.6072 -1.0492  0.4225
 9405SOL    HW239849   3.051   3.688   7.657 -0.3734  0.4617  0.7806
 9406SOL     OW39850   2.287   0.779  17.019 -0.5656  0.0962  0.1138
 9406SOL    HW139851   2.374   0.741  17.005 -0.6549  0.6703 -2.0399
 9406SOL    HW239852   2.312   0.866  17.051 -1.4697  0.0338  1.0026
 9407SOL     OW39853   2.471   2.417   1.399 -0.2044  0.3491 -0.3399
 9407SOL    HW139854   2.468   2.416   1.303 -2.0764  0.3685 -0.2901
 9407SOL    HW239855   2.542   2.356   1.416  0.3889  1.0397 -0.3683
 9408SOL     OW39856   2.306   1.809   0.068  0.2127 -0.6237 -0.5851
 9408SOL    HW139857   2.227   1.790   0.016  0.9349  1.3119 -2.3819
 9408SOL    HW239858   2.335   1.895   0.039  0.6990  0.3279  2.6849
 9409SOL     OW39859   1.887   3.309   2.239 -0.1353  0.2824  0.5427
 9409SOL    HW139860   1.946   3.382   2.218  0.1847  1.4423  5.5553
 9409SOL    HW239861   1.838   3.306   2.157 -0.5694  2.2981  0.7285
 9410SOL     OW39862   4.025   0.361  16.624 -0.0740  0.5256 -0.6597
 9410SOL    HW139863   3.956   0.423  16.601  2.8144  3.9447 -0.1571
 9410SOL    HW239864   3.985   0.281  16.589  1.9562 -0.2041 -1.3546
 9411SOL     OW39865   1.840   3.666  10.565 -0.0180  0.1264 -0.2141
 9411SOL    HW139866   1.826   3.718  10.485 -0.6649 -1.0469 -0.8662
 9411SOL    HW239867   1.753   3.665  10.604  0.4869 -1.9870  0.8329
 9412SOL     OW39868   3.826   2.317   7.605 -0.2197 -0.6030 -0.4057
 9412SOL    HW139869   3.889   2.275   7.663  1.5733  0.4484 -1.6074
 9412SOL    HW239870   3.811   2.399   7.652 -0.1346 -0.2255 -1.0351
 9413SOL     OW39871   4.207   0.507  10.682 -0.3609 -0.3921 -0.3186
 9413SOL    HW139872   4.268   0.545  10.619  0.9076 -0.9518  0.5878
 9413SOL    HW239873   4.258   0.535  10.758  1.0124 -2.5082 -0.4731
 9414SOL     OW39874   0.508   2.135   8.404 -0.0855 -0.1988 -0.2809
 9414SOL    HW139875   0.562   2.058   8.422 -1.8394 -1.1187  1.1039
 9414SOL    HW239876   0.491   2.163   8.494  1.5938 -1.9193  0.5697
 9415SOL     OW39877   2.827   1.713   8.758  0.4201 -0.2006  0.0774
 9415SOL    HW139878   2.916   1.735   8.784  0.1658  2.5400 -1.3014
 9415SOL    HW239879   2.781   1.789   8.795  0.0165  0.1710 -1.1620
 9416SOL     OW39880   0.521   2.138   3.738 -0.0522  0.2755  0.0867
 9416SOL    HW139881   0.429   2.148   3.763 -0.3361 -0.5193 -0.6440
 9416SOL    HW239882   0.562   2.150   3.823  0.2764  2.4135 -0.3819
 9417SOL     OW39883   1.037   0.670  16.579 -0.0657 -0.1744 -0.1938
 9417SOL    HW139884   0.996   0.590  16.546 -0.5106 -0.7495  1.7524
 9417SOL    HW239885   1.076   0.641  16.662 -0.9922 -1.7089 -0.2997
 9418SOL     OW39886   2.975   3.119   1.942 -0.2634  0.2283 -0.3454
 9418SOL    HW139887   2.927   3.045   1.980 -0.4015 -0.3476 -1.6367
 9418SOL    HW239888   2.945   3.116   1.852  0.0348 -0.7775 -0.4117
 9419SOL     OW39889   3.083   3.886   6.736 -0.1666  0.0252 -0.0100
 9419SOL    HW139890   3.014   3.831   6.773  1.1448 -1.7074 -0.1249
 9419SOL    HW239891   3.133   3.915   6.813  0.8372 -3.4557  0.6284
 9420SOL     OW39892   2.627   4.696   5.422  0.0672  0.3707  0.2220
 9420SOL    HW139893   2.662   4.696   5.510  0.0855  0.2930  0.2145
 9420SOL    HW239894   2.620   4.601   5.411 -2.9065  0.6737 -0.6602
 9421SOL     OW39895   1.622   1.104  10.880 -0.0986 -0.3903  0.1014
 9421SOL    HW139896   1.571   1.077  10.804  3.0857 -1.5471 -1.6014
 9421SOL    HW239897   1.620   1.034  10.945  1.5271 -0.3653  0.1679
 9422SOL     OW39898   1.854   0.549   3.604  0.0038 -0.5463 -0.7416
 9422SOL    HW139899   1.769   0.505   3.611 -0.3150 -0.0818 -1.6738
 9422SOL    HW239900   1.848   0.604   3.682  0.6712  0.5780 -1.4941
 9423SOL     OW39901   4.004   2.510  15.444 -0.1875  0.4608 -0.0237
 9423SOL    HW139902   3.937   2.469  15.389 -1.0338  0.4871  0.9866
 9423SOL    HW239903   3.953   2.494  15.524 -4.1819 -0.6767 -2.7997
 9424SOL     OW39904   3.020   0.000   3.778 -0.4449  0.6098 -0.2869
 9424SOL    HW139905   2.947   4.699   3.826  0.3293  1.2889  1.4739
 9424SOL    HW239906   3.091   4.726   3.840 -3.0647 -1.9934  2.1679
 9425SOL     OW39907   2.739   1.278   4.896  0.0894 -0.1583  0.1458
 9425SOL    HW139908   2.676   1.349   4.882 -1.1762 -1.3321 -0.1256
 9425SOL    HW239909   2.744   1.252   4.804  1.7830 -1.8799  0.7313
 9426SOL     OW39910   0.985   1.378   3.011 -0.2167 -0.4210 -0.2164
 9426SOL    HW139911   1.078   1.352   3.011 -0.5800 -1.6958  0.5508
 9426SOL    HW239912   0.992   1.466   2.973 -1.3964 -0.5611 -0.7616
 9427SOL     OW39913   4.282   4.027   2.093  0.2504 -0.3281  0.2824
 9427SOL    HW139914   4.217   4.093   2.117  0.6286  0.1807 -0.0872
 9427SOL    HW239915   4.352   4.088   2.071  0.0425  1.1042  3.5456
 9428SOL     OW39916   4.368   1.900   1.867  0.0510 -0.4700  0.2336
 9428SOL    HW139917   4.349   1.832   1.802 -0.8879 -2.5502  2.6570
 9428SOL    HW239918   4.430   1.856   1.925 -0.7060  0.0063  1.4032
 9429SOL     OW39919   3.503   2.913  15.351  0.2422  0.1081 -0.1990
 9429SOL    HW139920   3.563   2.986  15.367 -0.4830  0.3182  1.5798
 9429SOL    HW239921   3.417   2.953  15.339  1.5418  2.7607 -0.6839
 9430SOL     OW39922   0.372   2.613   9.313 -0.1102 -0.0201 -0.6524
 9430SOL    HW139923   0.441   2.550   9.335 -1.9039 -1.2761  1.4251
 9430SOL    HW239924   0.372   2.600   9.219 -0.8766  1.4821 -0.8631
 9431SOL     OW39925   3.560   0.562   3.235 -0.1064 -0.0029 -0.0566
 9431SOL    HW139926   3.563   0.503   3.310  2.4976  0.6352  0.3681
 9431SOL    HW239927   3.483   0.614   3.256  1.2282  1.5931  0.8854
 9432SOL     OW39928   4.079   4.296   1.521  0.1458 -0.0797 -0.5215
 9432SOL    HW139929   4.072   4.206   1.489 -0.9396  0.2754 -1.2905
 9432SOL    HW239930   4.018   4.341   1.462 -0.7898 -0.3051  0.2630
 9433SOL     OW39931   2.242   4.160  11.553  0.7745  0.0680 -0.2914
 9433SOL    HW139932   2.286   4.242  11.528  1.0350  0.0140 -0.0154
 9433SOL    HW239933   2.263   4.108  11.475 -0.0089  2.2470 -1.9696
 9434SOL     OW39934   3.470   3.945   7.209 -0.0243 -0.6068  0.2406
 9434SOL    HW139935   3.396   3.920   7.155 -0.9586 -0.9949  1.6949
 9434SOL    HW239936   3.441   3.972   7.296 -0.8679 -0.3536 -0.1205
 9435SOL     OW39937   2.618   2.960   1.427  0.5855  0.4557  0.0289
 9435SOL    HW139938   2.634   3.054   1.428 -0.7079  0.7180 -3.0250
 9435SOL    HW239939   2.561   2.962   1.504 -0.1502  0.1843 -0.4979
 9436SOL     OW39940   4.022   0.477  11.168  0.0478 -0.3708 -0.0068
 9436SOL    HW139941   4.060   0.445  11.086 -0.3080  2.2774 -1.2109
 9436SOL    HW239942   3.932   0.474  11.137 -0.8875 -0.3238  2.7702
 9437SOL     OW39943   0.641   2.947   6.231 -0.0466 -0.1210 -0.5952
 9437SOL    HW139944   0.680   3.022   6.185 -1.8618  1.2226  0.0793
 9437SOL    HW239945   0.607   2.899   6.156 -0.1170 -1.8013  0.5153
 9438SOL     OW39946   4.544   0.155   2.284 -0.4929  0.2910 -0.4033
 9438SOL    HW139947   4.492   0.189   2.211 -2.3366 -0.1656  0.7006
 9438SOL    HW239948   4.534   0.224   2.349 -2.0226  0.7356 -1.1081
 9439SOL     OW39949   3.539   1.645   6.473  0.2270 -0.2971  0.2408
 9439SOL    HW139950   3.558   1.552   6.485 -0.7126 -0.5525 -0.2471
 9439SOL    HW239951   3.445   1.641   6.458  0.1940 -0.1912  0.4293
 9440SOL     OW39952   3.863   0.309   8.975  0.3710 -0.7660 -0.1406
 9440SOL    HW139953   3.932   0.376   8.977 -0.4310  0.0114  1.0234
 9440SOL    HW239954   3.909   0.228   8.951  0.8184 -0.5967  0.1366
 9441SOL     OW39955   0.487   4.627   5.115  0.2540 -0.2478 -0.1668
 9441SOL    HW139956   0.565   4.572   5.119 -0.3449 -1.1710 -1.2284
 9441SOL    HW239957   0.527   4.712   5.096 -1.0834  0.1759 -1.0991
 9442SOL     OW39958   3.508   1.889  13.552  0.2269  0.3548 -0.0269
 9442SOL    HW139959   3.576   1.839  13.597 -2.0960 -1.7410  1.2432
 9442SOL    HW239960   3.550   1.907  13.468 -0.9463  0.6406 -0.5506
 9443SOL     OW39961   3.236   3.818  10.580  0.0112 -0.2075  0.3004
 9443SOL    HW139962   3.263   3.906  10.606 -0.9626 -0.2716  1.4895
 9443SOL    HW239963   3.215   3.838  10.488 -0.4104  0.7074  0.5929
 9444SOL     OW39964   0.591   3.774   1.617  0.9376 -0.2767  0.3388
 9444SOL    HW139965   0.556   3.696   1.573 -0.1012 -0.2541  1.1463
 9444SOL    HW239966   0.600   3.745   1.707 -0.9960  0.3360  0.7296
 9445SOL     OW39967   2.913   1.679   6.065  0.2467 -0.5669  0.3429
 9445SOL    HW139968   2.999   1.678   6.023  0.3886 -1.1778  0.6412
 9445SOL    HW239969   2.905   1.592   6.105 -1.0444 -0.4743  0.2907
 9446SOL     OW39970   1.001   1.811   0.170 -0.0199  0.4065  0.0110
 9446SOL    HW139971   1.060   1.874   0.211  1.7425 -0.0376 -1.8267
 9446SOL    HW239972   0.918   1.858   0.163  0.2376  1.1044  1.6744
 9447SOL     OW39973   1.434   2.145   2.407  0.1962  0.5402  0.7035
 9447SOL    HW139974   1.367   2.160   2.341  1.4609  0.8586 -0.5225
 9447SOL    HW239975   1.421   2.232   2.445 -0.5318  0.2104  1.2197
 9448SOL     OW39976   3.173   0.989  16.092  0.2802 -0.4157 -0.1596
 9448SOL    HW139977   3.173   0.924  16.023 -1.8213 -0.6166  0.0089
 9448SOL    HW239978   3.255   1.037  16.102 -0.2891  0.2576  1.3847
 9449SOL     OW39979   3.361   1.856   1.316  0.4349 -0.0207  0.2782
 9449SOL    HW139980   3.341   1.818   1.230  1.2353  1.1495 -0.4303
 9449SOL    HW239981   3.447   1.896   1.304  0.6370 -0.4305  0.3615
 9450SOL     OW39982   4.736   0.912   8.473  0.5061 -0.2601 -0.5959
 9450SOL    HW139983   0.042   0.996   8.468  1.4684 -0.7262  0.3368
 9450SOL    HW239984   4.702   0.909   8.563  2.4196 -0.7813  0.1059
 9451SOL     OW39985   2.933   1.511   5.166 -0.1573  0.5181  0.5019
 9451SOL    HW139986   2.880   1.484   5.092 -0.1946 -1.8393  1.3767
 9451SOL    HW239987   2.866   1.537   5.229 -1.5961  2.7624 -2.0220
 9452SOL     OW39988   1.785   0.205  13.673 -0.1506 -0.0616 -0.1205
 9452SOL    HW139989   1.737   0.126  13.650 -0.4914  0.2650 -0.5186
 9452SOL    HW239990   1.759   0.217  13.764 -0.9738  1.4384 -0.5449
 9453SOL     OW39991   1.887   1.817   9.694  0.0002  0.5145 -0.5106
 9453SOL    HW139992   1.940   1.825   9.773  1.5408  0.7324 -1.5654
 9453SOL    HW239993   1.827   1.743   9.708 -0.3163  0.8463 -0.0673
 9454SOL     OW39994   3.471   4.619  17.092 -0.5984 -0.1256  0.3819
 9454SOL    HW139995   3.404   4.556  17.118  0.3271 -1.4690 -0.4777
 9454SOL    HW239996   3.482   4.677  17.167 -1.2887  0.9693 -0.3660
 9455SOL     OW39997   1.997   0.857   7.454 -0.0363  0.3684 -0.2807
 9455SOL    HW139998   2.065   0.904   7.405 -0.0451  0.1890 -0.4601
 9455SOL    HW239999   1.943   0.933   7.475 -2.3779 -1.1335 -0.9227
 9456SOL     OW40000   2.003   2.902  17.356 -0.2745  0.3679 -0.0293
 9456SOL    HW140001   1.980   2.939  17.270 -0.0451 -1.3248 -0.8022
 9456SOL    HW240002   1.918   2.869  17.384  0.8575 -0.8429  1.9214
 9457SOL     OW40003   0.078   4.403   5.381  0.2867 -0.3433 -0.4920
 9457SOL    HW140004   0.008   4.428   5.321 -1.2076  1.2064  1.9165
 9457SOL    HW240005   0.032   4.357   5.452 -1.4306  0.8935 -0.8004
 9458SOL     OW40006   4.463   4.191   8.769 -0.5413  0.5240  0.2305
 9458SOL    HW140007   4.400   4.163   8.835  0.3118 -0.2134  0.7304
 9458SOL    HW240008   4.467   4.280   8.804  2.1655  0.5504 -0.0993
 9459SOL     OW40009   3.321   1.881   1.822 -0.7496 -0.0092  0.4171
 9459SOL    HW140010   3.325   1.940   1.898 -0.7963 -0.2803  0.6316
 9459SOL    HW240011   3.228   1.880   1.801 -0.9464  1.4792  1.2371
 9460SOL     OW40012   3.631   2.399   3.423  0.4031  0.0422  0.3038
 9460SOL    HW140013   3.589   2.315   3.408  0.6884 -0.0421 -0.0209
 9460SOL    HW240014   3.622   2.444   3.339  0.0017  0.8241  0.7682
 9461SOL     OW40015   0.217   1.851  12.640  0.1042 -0.1494 -0.7131
 9461SOL    HW140016   0.293   1.909  12.635  0.4205 -0.5798 -0.9605
 9461SOL    HW240017   0.256   1.769  12.609  0.9033  0.2205 -0.6900
 9462SOL     OW40018   3.025   1.609   1.141 -0.4277 -0.2312 -0.7065
 9462SOL    HW140019   3.007   1.665   1.216 -0.6594 -1.1008 -0.1200
 9462SOL    HW240020   3.096   1.563   1.186  0.8247  1.4386 -0.9834
 9463SOL     OW40021   3.381   2.580   7.882  0.1020  0.3776 -0.2333
 9463SOL    HW140022   3.436   2.583   7.961 -0.2300  3.1408 -0.0954
 9463SOL    HW240023   3.367   2.487   7.867 -0.0824  0.4935 -0.7921
 9464SOL     OW40024   1.500   1.581  14.475 -0.0784 -0.4087  0.1077
 9464SOL    HW140025   1.412   1.568  14.509 -0.9016  2.0888 -1.0817
 9464SOL    HW240026   1.501   1.504  14.418  0.6347  0.6399 -1.3026
 9465SOL     OW40027   1.937   0.671   5.953  0.2658 -0.0916  0.0921
 9465SOL    HW140028   1.864   0.728   5.929 -0.0286  0.1982  1.7150
 9465SOL    HW240029   1.972   0.734   6.017 -1.1015 -0.1310  0.8641
 9466SOL     OW40030   3.090   1.888   1.485  0.1091 -0.0609  0.0001
 9466SOL    HW140031   3.177   1.882   1.446  0.3152 -2.0048  0.7448
 9466SOL    HW240032   3.098   1.847   1.571  1.0618  0.3746  0.1134
 9467SOL     OW40033   4.607   2.921   1.312  0.2043  0.5072  0.2930
 9467SOL    HW140034   4.596   3.007   1.353 -1.2035 -0.5290  2.0614
 9467SOL    HW240035   4.532   2.877   1.352 -0.3656  0.1394 -1.1819
 9468SOL     OW40036   3.163   4.587   0.069 -0.0297 -0.7452  0.2215
 9468SOL    HW140037   3.229   4.576   0.137  0.1827 -1.0642 -0.0375
 9468SOL    HW240038   3.193   4.529  17.756  1.4101  1.3990 -0.9471
 9469SOL     OW40039   1.041   1.293  14.425 -0.0697  0.4060  0.0323
 9469SOL    HW140040   0.953   1.304  14.461  0.6808  2.7092  1.1536
 9469SOL    HW240041   1.048   1.380  14.386 -1.4193  0.0387 -1.0260
 9470SOL     OW40042   2.013   4.268  11.787  0.3670  0.1538 -0.1785
 9470SOL    HW140043   1.986   4.315  11.866  2.3864  1.9584 -0.5558
 9470SOL    HW240044   2.094   4.221  11.809 -0.6429 -1.7425 -0.5412
 9471SOL     OW40045   0.616   0.471   1.570 -0.1054  0.4401 -0.2990
 9471SOL    HW140046   0.592   0.483   1.478  1.4155  0.9428 -0.6358
 9471SOL    HW240047   0.577   0.547   1.614  2.8992  1.0134  1.3607
 9472SOL     OW40048   0.854   0.873   1.993 -0.0742 -0.1326  0.4947
 9472SOL    HW140049   0.884   0.827   2.072  0.0321 -0.9429 -0.0203
 9472SOL    HW240050   0.825   0.960   2.021  1.7203  1.9577 -4.0969
 9473SOL     OW40051   2.001   4.260   6.479 -0.4288  0.3290  0.0289
 9473SOL    HW140052   1.980   4.320   6.550  3.1300 -0.7135  1.9697
 9473SOL    HW240053   1.969   4.181   6.522  1.7741 -0.7916 -0.3572
 9474SOL     OW40054   1.901   4.585   5.477  0.1984 -0.0417  0.0391
 9474SOL    HW140055   1.893   4.613   5.385 -1.2622 -0.7751 -0.0525
 9474SOL    HW240056   1.963   4.651   5.508 -0.4226 -0.9439  3.1723
 9475SOL     OW40057   1.664   1.919   9.418  0.5965  0.3426  0.2135
 9475SOL    HW140058   1.738   1.905   9.478 -1.7695  0.1268  3.0929
 9475SOL    HW240059   1.659   1.836   9.371  2.1564  0.3213  0.0876
 9476SOL     OW40060   4.516   2.402   2.288 -0.4902  0.4739  1.1986
 9476SOL    HW140061   4.585   2.467   2.272  1.2781 -1.3396  1.5579
 9476SOL    HW240062   4.471   2.459   2.351 -1.9163  2.1051 -1.2664
 9477SOL     OW40063   0.534   3.148   7.311 -0.3303  0.2766 -0.2000
 9477SOL    HW140064   0.453   3.169   7.357 -1.1900 -1.2548 -0.9960
 9477SOL    HW240065   0.535   3.052   7.311  0.8804  0.2893  0.0277
 9478SOL     OW40066   1.594   2.775   3.746  0.2238  0.2628 -0.1715
 9478SOL    HW140067   1.639   2.841   3.799 -0.7009 -1.4370  2.7280
 9478SOL    HW240068   1.586   2.826   3.666  3.5861  1.9464  0.5504
 9479SOL     OW40069   1.134   0.586  11.668  0.2733  0.1523  0.4547
 9479SOL    HW140070   1.124   0.682  11.668 -0.8902  0.0449  2.2475
 9479SOL    HW240071   1.113   0.567  11.759 -1.3139  1.4985  0.3788
 9480SOL     OW40072   2.876   1.990  16.392  0.1321 -0.1946  0.8398
 9480SOL    HW140073   2.913   1.907  16.362  0.1629  0.8339 -1.9794
 9480SOL    HW240074   2.906   1.985  16.483 -0.9735  0.3301  1.2368
 9481SOL     OW40075   1.433   3.138  11.685  0.3929 -0.0073  0.4214
 9481SOL    HW140076   1.382   3.067  11.724 -0.6942  2.4345  3.4625
 9481SOL    HW240077   1.518   3.103  11.711  0.9015  0.6616 -0.3451
 9482SOL     OW40078   0.351   1.452   7.296  0.2263 -0.0176  0.1742
 9482SOL    HW140079   0.272   1.506   7.289  1.1543  1.1750 -1.0433
 9482SOL    HW240080   0.380   1.472   7.385  1.7888 -1.7218  0.0543
 9483SOL     OW40081   4.072   2.814   1.630 -0.3734 -0.5755  0.0024
 9483SOL    HW140082   4.083   2.824   1.535  1.9310 -0.4265  0.2831
 9483SOL    HW240083   4.037   2.726   1.638  0.3117 -0.7897  0.7137
 9484SOL     OW40084   0.367   0.990   3.745  0.1539  0.2058  0.5500
 9484SOL    HW140085   0.298   1.054   3.765 -0.2221  0.8541 -2.8643
 9484SOL    HW240086   0.382   1.005   3.652 -0.8278  1.3611  0.5790
 9485SOL     OW40087   2.787   0.242  10.430 -0.3399  0.3929  0.2332
 9485SOL    HW140088   2.783   0.195  10.346 -1.2277  2.8285 -1.0811
 9485SOL    HW240089   2.723   0.192  10.480  1.3133 -0.9268  1.0447
 9486SOL     OW40090   1.011   2.271   5.941  0.0182 -0.2737 -0.3161
 9486SOL    HW140091   1.017   2.241   5.850  0.9409  0.2993 -0.4420
 9486SOL    HW240092   0.946   2.340   5.929  0.4572  0.1423 -0.2762
 9487SOL     OW40093   2.371   1.312  14.214  0.6627 -0.3941  0.7663
 9487SOL    HW140094   2.431   1.251  14.256  0.6121 -1.3745 -0.5623
 9487SOL    HW240095   2.313   1.329  14.288 -2.5507 -1.8302 -1.3924
 9488SOL     OW40096   2.817   3.547  17.646  0.7130  0.3769 -0.8412
 9488SOL    HW140097   2.867   3.507  17.717 -0.6987 -2.8267 -1.6672
 9488SOL    HW240098   2.786   3.472  17.595  0.0188  0.1134 -0.0178
 9489SOL     OW40099   0.940   1.919   6.007  0.3411 -0.5453 -0.2008
 9489SOL    HW140100   0.859   1.942   5.960 -0.2472  0.8376  1.4988
 9489SOL    HW240101   1.004   1.953   5.945  1.1153 -0.7227  0.5122
 9490SOL     OW40102   3.251   2.200   6.539  0.0007 -0.1379 -0.2187
 9490SOL    HW140103   3.158   2.215   6.524  0.1137  0.5744 -0.2303
 9490SOL    HW240104   3.252   2.161   6.626  0.7116  0.6573  0.1257
 9491SOL     OW40105   3.459   2.129   3.683 -0.0278 -0.0393 -0.3256
 9491SOL    HW140106   3.374   2.154   3.720  0.6762  1.6132  0.1997
 9491SOL    HW240107   3.509   2.118   3.764 -1.3476  1.1177  0.6517
 9492SOL     OW40108   2.827   2.417   1.295 -0.2034  0.2810  0.1610
 9492SOL    HW140109   2.777   2.348   1.338 -2.1676  1.9470  0.5681
 9492SOL    HW240110   2.910   2.407   1.341  0.5030  1.4095 -0.8537
 9493SOL     OW40111   4.457   3.894  11.815  0.0259 -0.8080  0.3917
 9493SOL    HW140112   4.499   3.814  11.848  1.3185 -0.9268 -1.5239
 9493SOL    HW240113   4.456   3.950  11.893  0.3130  0.1710 -0.3066
 9494SOL     OW40114   1.783   2.453   8.913  0.0616  0.1700 -0.4429
 9494SOL    HW140115   1.712   2.511   8.938  1.2054  1.0542  0.7690
 9494SOL    HW240116   1.774   2.400   8.992  1.4101 -0.1840 -0.5208
 9495SOL     OW40117   2.416   4.081   5.553 -0.9064 -0.2345 -0.3444
 9495SOL    HW140118   2.375   4.000   5.584 -0.9209 -0.7941 -1.8507
 9495SOL    HW240119   2.416   4.131   5.635 -1.3587 -0.6261 -0.1074
 9496SOL     OW40120   4.478   0.546   5.773  0.1829  0.1601 -0.4292
 9496SOL    HW140121   4.425   0.473   5.804  1.1904 -0.6723 -0.6792
 9496SOL    HW240122   4.554   0.514   5.725  0.7726 -2.2313  2.1109
 9497SOL     OW40123   3.203   3.849   9.901 -0.4049  0.3034 -0.0815
 9497SOL    HW140124   3.227   3.824   9.812  0.4425  0.8736 -0.0210
 9497SOL    HW240125   3.181   3.942   9.900  1.0806  0.6513 -0.6284
 9498SOL     OW40126   0.587   2.734   0.925  0.0641  0.4857  0.1115
 9498SOL    HW140127   0.619   2.715   0.837 -0.4764  0.3614 -0.0553
 9498SOL    HW240128   0.494   2.712   0.917 -0.3419  1.5898  1.8295
 9499SOL     OW40129   1.613   3.369   3.897 -0.3303  0.0344 -0.7152
 9499SOL    HW140130   1.699   3.341   3.930  0.1086  1.6009 -0.5063
 9499SOL    HW240131   1.569   3.284   3.892  1.4601 -1.0545  1.5380
 9500SOL     OW40132   3.487   2.395   0.157  0.6807 -0.1896  0.0034
 9500SOL    HW140133   3.507   2.468   0.215  1.5052 -0.3424 -0.0763
 9500SOL    HW240134   3.408   2.428   0.114  0.0211 -0.0186  1.3748
 9501SOL     OW40135   0.233   2.445   4.262  0.1471 -0.1628  0.0949
 9501SOL    HW140136   0.247   2.367   4.209 -0.0339  0.8844 -1.5109
 9501SOL    HW240137   0.257   2.510   4.196  1.6776  1.8216  2.6089
 9502SOL     OW40138   2.375   3.099   4.715 -0.3148 -0.0694  0.1545
 9502SOL    HW140139   2.350   3.108   4.623  0.4049 -1.1654 -0.1421
 9502SOL    HW240140   2.410   3.185   4.739  0.8428 -0.1677 -1.2002
 9503SOL     OW40141   4.073   1.044   5.854 -0.2524 -0.5789 -0.1949
 9503SOL    HW140142   4.161   1.040   5.893 -0.3310  1.8990  0.2242
 9503SOL    HW240143   4.087   1.106   5.783 -1.3576  0.2684  0.3292
 9504SOL     OW40144   2.268   4.587   7.964 -0.7204 -0.2962  0.6051
 9504SOL    HW140145   2.266   4.508   7.911 -2.2815 -0.8963  1.5399
 9504SOL    HW240146   2.320   4.645   7.909 -3.1279  0.8863 -0.4567
 9505SOL     OW40147   0.618   3.263   1.279 -0.2465 -0.3298  0.1167
 9505SOL    HW140148   0.669   3.197   1.233 -0.8071 -0.6254 -0.0913
 9505SOL    HW240149   0.617   3.325   1.206  0.2436 -0.3188  0.1235
 9506SOL     OW40150   2.833   0.875   4.010 -0.3546 -0.0687  0.3192
 9506SOL    HW140151   2.928   0.884   4.015 -0.3459  0.0209 -0.0216
 9506SOL    HW240152   2.820   0.828   3.928 -0.3684  0.5212 -0.0180
 9507SOL     OW40153   2.083   4.325   4.852  0.1472 -0.0675  0.1071
 9507SOL    HW140154   2.048   4.318   4.763 -1.4195  1.2003  0.6138
 9507SOL    HW240155   2.084   4.231   4.871  0.5716  0.0803  0.7988
 9508SOL     OW40156   2.620   2.150   6.106 -0.1729  0.2252  0.2349
 9508SOL    HW140157   2.524   2.152   6.102 -0.3207 -4.4982  1.1416
 9508SOL    HW240158   2.636   2.215   6.175  1.5729 -0.9145  0.9005
 9509SOL     OW40159   0.095   1.298   4.088 -0.0450 -0.0018 -0.3071
 9509SOL    HW140160   0.159   1.287   4.018 -0.1716  0.9006 -0.5602
 9509SOL    HW240161   0.023   1.246   4.052 -1.3381  0.6065  1.3821
 9510SOL     OW40162   3.662   4.061   8.731  0.0253 -0.1042  0.0024
 9510SOL    HW140163   3.595   4.127   8.754  0.2259 -0.1420  0.6941
 9510SOL    HW240164   3.709   4.043   8.812 -2.2065  0.6800  1.4937
 9511SOL     OW40165   2.576   4.191   5.850  0.0729  0.8012 -0.5643
 9511SOL    HW140166   2.495   4.140   5.852  0.8457 -0.4098 -0.0675
 9511SOL    HW240167   2.642   4.134   5.890 -1.6477 -1.4609 -0.9019
 9512SOL     OW40168   3.550   4.371   3.586 -0.6673  0.0496  0.6080
 9512SOL    HW140169   3.550   4.436   3.516 -0.1873 -0.8582 -0.2389
 9512SOL    HW240170   3.489   4.413   3.646 -0.4975 -0.1495  0.9177
 9513SOL     OW40171   2.522   1.142  14.357 -0.5054  0.0719  0.3970
 9513SOL    HW140172   2.475   1.079  14.411 -0.5216 -1.5044 -1.4592
 9513SOL    HW240173   2.609   1.128  14.395 -0.1682 -0.7540 -0.6806
 9514SOL     OW40174   2.464   3.870   6.559 -0.0741 -0.6924 -0.0240
 9514SOL    HW140175   2.483   3.856   6.651 -1.6304  4.6262  1.1087
 9514SOL    HW240176   2.549   3.904   6.531  0.4851  0.6559  3.3195
 9515SOL     OW40177   3.369   0.631   6.021  0.0012  0.1533  0.5235
 9515SOL    HW140178   3.435   0.589   5.967  0.7285  2.0483 -0.0870
 9515SOL    HW240179   3.324   0.676   5.949  2.0890  0.2152 -0.7600
 9516SOL     OW40180   1.727   3.877   9.525 -0.8640 -0.0088  0.1323
 9516SOL    HW140181   1.782   3.926   9.465 -0.1012 -0.6369  0.3191
 9516SOL    HW240182   1.784   3.819   9.575 -1.1325 -0.1319  0.2971
 9517SOL     OW40183   0.032   2.203  11.831  0.0472  0.9070  0.1431
 9517SOL    HW140184   0.064   2.164  11.913 -0.9281  0.8410  0.5009
 9517SOL    HW240185   4.684   2.164  11.830  0.4184  0.0326  1.3575
 9518SOL     OW40186   0.185   3.858   4.840  0.1901  0.0005 -0.0603
 9518SOL    HW140187   0.256   3.797   4.819 -1.1178 -0.8815 -1.9207
 9518SOL    HW240188   0.216   3.893   4.923  2.9494  0.1098 -1.1295
 9519SOL     OW40189   0.046   1.754   3.798  0.5039 -0.2680 -0.8951
 9519SOL    HW140190   4.732   1.712   3.731  1.6098  0.8519 -2.4991
 9519SOL    HW240191   4.734   1.835   3.798  0.3931 -0.3473  0.5784
 9520SOL     OW40192   4.590   1.826  17.592 -0.2016 -0.1854  0.4677
 9520SOL    HW140193   4.561   1.917  17.590 -0.1558 -0.1928 -1.3983
 9520SOL    HW240194   4.677   1.842  17.555  0.6844  1.2304  3.1966
 9521SOL     OW40195   1.802   1.630  15.474  0.1627  0.4667 -0.4858
 9521SOL    HW140196   1.746   1.694  15.518  0.7958 -1.4902  3.1360
 9521SOL    HW240197   1.883   1.623  15.525  0.6498  2.0339 -1.0294
 9522SOL     OW40198   3.125   4.109   3.933 -0.7493  0.7372 -0.2422
 9522SOL    HW140199   3.156   4.134   4.019  0.5266 -2.6335  0.2812
 9522SOL    HW240200   3.154   4.018   3.930 -0.6752  0.7054  1.7061
 9523SOL     OW40201   2.863   2.885  15.423  0.1714  0.8112  0.1091
 9523SOL    HW140202   2.788   2.833  15.452  1.9217 -1.3796  0.6172
 9523SOL    HW240203   2.885   2.832  15.347  1.9805 -0.2719  1.4060
 9524SOL     OW40204   2.175   2.585   8.692  0.0518  0.4097  0.1335
 9524SOL    HW140205   2.135   2.507   8.652  1.7160 -1.1505  1.5200
 9524SOL    HW240206   2.118   2.605   8.766 -0.0341  1.8796 -0.3406
 9525SOL     OW40207   2.785   2.805   7.144  0.2278 -0.1576  0.0326
 9525SOL    HW140208   2.748   2.760   7.220 -0.8065 -4.0299 -2.7667
 9525SOL    HW240209   2.782   2.895   7.174  0.1005  0.2835 -1.3047
 9526SOL     OW40210   0.574   2.598   4.659  0.1771 -0.2847  0.1528
 9526SOL    HW140211   0.515   2.584   4.585  1.0180  0.2988 -0.6357
 9526SOL    HW240212   0.658   2.589   4.613 -1.4015  0.6872 -2.9033
 9527SOL     OW40213   0.874   0.216   5.122 -0.3367  0.3348  0.2414
 9527SOL    HW140214   0.943   0.263   5.167  1.9679 -1.7931 -1.0574
 9527SOL    HW240215   0.929   0.149   5.081  1.4636  0.9973  1.5618
 9528SOL     OW40216   1.490   4.199   1.307 -0.2946  0.2450 -0.2788
 9528SOL    HW140217   1.585   4.209   1.297 -0.4911 -0.3668 -2.7941
 9528SOL    HW240218   1.478   4.243   1.391  0.0222 -0.4736  0.1469
 9529SOL     OW40219   2.566   0.496   3.784  0.1737  0.1691  0.5016
 9529SOL    HW140220   2.593   0.508   3.693 -0.1387  1.6032  0.5925
 9529SOL    HW240221   2.475   0.465   3.788  0.2739 -0.3789 -1.3764
 9530SOL     OW40222   1.091   0.282   9.482 -0.2643 -0.4669  0.1025
 9530SOL    HW140223   1.028   0.333   9.431  0.6403 -0.3861 -0.9276
 9530SOL    HW240224   1.166   0.340   9.500 -1.1243  1.3506 -2.1917
 9531SOL     OW40225   1.226   2.238  16.779  0.0601 -0.0849 -0.2910
 9531SOL    HW140226   1.193   2.293  16.708  1.5280  0.4681 -0.5674
 9531SOL    HW240227   1.321   2.238  16.765  0.1448 -1.4336  0.3089
 9532SOL     OW40228   2.345   1.658   1.876  0.4086 -0.0499 -0.3737
 9532SOL    HW140229   2.271   1.628   1.929 -0.3712  2.4465 -0.0698
 9532SOL    HW240230   2.401   1.582   1.892  1.8249  1.1620  0.3536
 9533SOL     OW40231   2.912   3.648   1.172 -0.4605  0.5756  0.2056
 9533SOL    HW140232   2.987   3.612   1.125  0.3555 -1.8900  3.3776
 9533SOL    HW240233   2.885   3.563   1.206 -1.0540  0.7615  0.2114
 9534SOL     OW40234   2.284   4.341  10.367  0.1134  0.1791 -0.1508
 9534SOL    HW140235   2.216   4.299  10.420 -0.5638  2.4532  0.8238
 9534SOL    HW240236   2.360   4.325  10.423  0.3112 -1.5469 -0.9128
 9535SOL     OW40237   3.487   4.337   9.944 -0.0719 -0.1919  0.0286
 9535SOL    HW140238   3.533   4.407   9.990 -0.3749 -0.6686  1.0648
 9535SOL    HW240239   3.490   4.266  10.008  1.7459  1.6715  2.0373
 9536SOL     OW40240   1.529   3.280   7.750 -0.3993  0.8298  0.2397
 9536SOL    HW140241   1.586   3.292   7.826 -1.1267  2.1308  0.5710
 9536SOL    HW240242   1.525   3.370   7.720 -0.4818  0.3565 -1.1619
 9537SOL     OW40243   3.741   4.460   3.117 -0.5056 -0.0478  0.3264
 9537SOL    HW140244   3.767   4.383   3.067  0.6388 -0.4488  1.5383
 9537SOL    HW240245   3.664   4.416   3.151  0.0468 -2.3185 -1.4029
 9538SOL     OW40246   2.276   1.625  16.462 -0.2564  0.4148  0.0741
 9538SOL    HW140247   2.240   1.705  16.424 -0.4816 -0.2836 -1.1560
 9538SOL    HW240248   2.264   1.647  16.555  1.4454  1.4062  0.0590
 9539SOL     OW40249   3.155   4.034   2.037  0.3699  0.5499 -0.1152
 9539SOL    HW140250   3.166   4.089   2.115 -0.9982 -1.1785  1.2986
 9539SOL    HW240251   3.062   4.037   2.015 -0.0261  0.7465  1.5557
 9540SOL     OW40252   0.550   2.009   2.166 -0.3671  0.2960  0.0261
 9540SOL    HW140253   0.610   2.062   2.114  1.3929 -2.3845 -0.6793
 9540SOL    HW240254   0.572   1.919   2.141 -1.7096  0.0691 -0.3287
 9541SOL     OW40255   3.946   2.872   5.932  0.0019  0.4648  0.2166
 9541SOL    HW140256   3.883   2.931   5.973 -0.7274 -0.8056  0.8973
 9541SOL    HW240257   3.917   2.785   5.959  1.2333  0.2531  0.8529
 9542SOL     OW40258   4.228   0.863   8.732 -0.4612 -0.6478  0.4548
 9542SOL    HW140259   4.297   0.798   8.724 -0.1541 -0.3150  0.4321
 9542SOL    HW240260   4.268   0.940   8.772 -1.1569  0.9908 -1.9727
 9543SOL     OW40261   1.395   3.064  16.196 -0.1703 -0.3314 -0.0898
 9543SOL    HW140262   1.440   3.061  16.112 -0.5730 -3.5825 -0.2036
 9543SOL    HW240263   1.438   3.131  16.249  0.1346 -0.9286  0.4203
 9544SOL     OW40264   2.129   0.046   5.039  0.3242  0.6931  0.4002
 9544SOL    HW140265   2.191   4.719   5.010 -1.5770 -0.3020 -1.4593
 9544SOL    HW240266   2.108   0.098   4.962  1.6939  0.8487  0.1413
 9545SOL     OW40267   1.333   3.551   9.031  0.8307 -0.0067 -0.3193
 9545SOL    HW140268   1.428   3.557   9.029  0.8943 -0.4459  1.5465
 9545SOL    HW240269   1.307   3.643   9.038 -2.2568 -0.9475  0.6016
 9546SOL     OW40270   3.727   1.647  10.416  0.7593 -0.2276 -0.0263
 9546SOL    HW140271   3.801   1.636  10.476  0.7264  1.0028  0.2405
 9546SOL    HW240272   3.732   1.566  10.364  0.3390  0.7371 -1.5671
 9547SOL     OW40273   4.177   2.510   8.424 -0.2767  0.4637  0.0540
 9547SOL    HW140274   4.130   2.593   8.434  1.1401  1.1697  0.9180
 9547SOL    HW240275   4.256   2.541   8.470 -2.4744  1.4910  3.1408
 9548SOL     OW40276   0.818   3.494   8.279 -0.2874  0.0458  0.1227
 9548SOL    HW140277   0.906   3.457   8.288 -1.3096 -2.4241 -0.0577
 9548SOL    HW240278   0.791   3.499   8.371 -0.9751  0.9816 -0.1421
 9549SOL     OW40279   2.616   0.622   5.162 -0.0413 -0.3055 -0.3642
 9549SOL    HW140280   2.666   0.641   5.083 -0.4809 -1.0840 -0.8332
 9549SOL    HW240281   2.668   0.580   5.230  0.7796  0.5831 -0.4416
 9550SOL     OW40282   2.339   2.881   5.062  0.0571  0.3909 -0.2246
 9550SOL    HW140283   2.418   2.881   5.007  0.2697  0.1709  0.0839
 9550SOL    HW240284   2.281   2.825   5.010 -1.5511  1.7850  0.0756
 9551SOL     OW40285   2.516   1.879   5.356  0.4210 -0.3509  0.3257
 9551SOL    HW140286   2.479   1.810   5.412  0.3578 -0.7206 -0.1742
 9551SOL    HW240287   2.570   1.927   5.418 -0.3708 -1.0455  1.5661
 9552SOL     OW40288   0.777   3.925   2.991 -0.2679  0.4055  0.1480
 9552SOL    HW140289   0.773   3.876   2.909  1.4159 -1.3525  1.1321
 9552SOL    HW240290   0.769   3.853   3.053 -0.8410  0.0942 -0.2953
 9553SOL     OW40291   0.864   1.143   2.016  0.2955  0.1776 -0.4633
 9553SOL    HW140292   0.832   1.228   1.985 -1.4062 -0.4385 -0.4093
 9553SOL    HW240293   0.951   1.160   2.052 -0.2145  3.4329 -0.7428
 9554SOL     OW40294   3.990   0.716   7.115 -0.0724 -0.1495 -0.4633
 9554SOL    HW140295   4.006   0.635   7.066 -0.4024  0.3866 -1.4674
 9554SOL    HW240296   4.014   0.786   7.055  0.9502  0.0236  0.1582
 9555SOL     OW40297   1.307   1.715   8.741 -0.0186  0.2753  0.0721
 9555SOL    HW140298   1.309   1.737   8.834 -3.1427  1.3232 -0.1001
 9555SOL    HW240299   1.213   1.703   8.723 -0.1441  1.2841  0.0452
 9556SOL     OW40300   0.610   3.790   0.421  0.4318  0.4070 -0.1661
 9556SOL    HW140301   0.565   3.839   0.352  0.3046 -0.4511 -0.6913
 9556SOL    HW240302   0.539   3.727   0.434  1.3284 -0.6285 -0.2317
 9557SOL     OW40303   4.684   2.494   6.028  0.1039 -0.2447  0.0491
 9557SOL    HW140304   4.663   2.401   6.029 -1.1073  0.0124 -1.2192
 9557SOL    HW240305   0.037   2.488   6.051  0.6224  2.2699 -1.3431
 9558SOL     OW40306   4.324   4.386   4.941 -0.6358  0.0793 -0.1756
 9558SOL    HW140307   4.257   4.445   4.975 -0.0314 -0.1462  1.4408
 9558SOL    HW240308   4.368   4.442   4.877 -3.1670  0.7420 -1.3088
 9559SOL     OW40309   3.799   0.788   2.572 -0.3726 -0.2961 -0.2149
 9559SOL    HW140310   3.766   0.816   2.487  2.3305  0.5822 -0.9739
 9559SOL    HW240311   3.753   0.705   2.571  0.7417 -0.9148 -0.6487
 9560SOL     OW40312   2.532   2.822   2.565 -0.4047 -0.6024  0.1360
 9560SOL    HW140313   2.452   2.872   2.549  2.0072  3.9069  2.1408
 9560SOL    HW240314   2.566   2.855   2.648  2.6777  0.1990 -1.4052
 9561SOL     OW40315   1.978   3.068   9.778  0.0933  1.2432 -0.1924
 9561SOL    HW140316   1.908   3.060   9.843  1.9178 -1.0153  1.5000
 9561SOL    HW240317   1.958   3.155   9.743  1.2740  1.4161 -0.4349
 9562SOL     OW40318   0.720   1.048   4.167 -0.0383  0.6887 -0.7417
 9562SOL    HW140319   0.753   1.117   4.225  2.0010  0.4793 -1.6526
 9562SOL    HW240320   0.638   1.034   4.213 -0.0653 -0.0419 -1.0196
 9563SOL     OW40321   3.809   0.083   8.599  0.8932 -0.3138 -0.0351
 9563SOL    HW140322   3.742   0.146   8.625  0.4145 -0.8455  0.0241
 9563SOL    HW240323   3.777   0.006   8.647  0.6944  0.3383  0.8739
 9564SOL     OW40324   2.648   2.155  15.738 -0.1756 -0.2044  0.6578
 9564SOL    HW140325   2.659   2.126  15.648  2.1099  1.1083  0.5311
 9564SOL    HW240326   2.696   2.238  15.737 -0.3442 -0.1044  0.8127
 9565SOL     OW40327   1.602   1.210   0.494 -0.1377 -0.3306  0.2246
 9565SOL    HW140328   1.626   1.274   0.561  0.8982  1.5441 -1.9370
 9565SOL    HW240329   1.673   1.145   0.492 -2.8678 -3.3561  0.8089
 9566SOL     OW40330   4.337   0.019   7.262 -0.4377  0.6243 -0.2806
 9566SOL    HW140331   4.324   0.033   7.169 -1.1930  1.7029 -0.0173
 9566SOL    HW240332   4.312   0.101   7.306 -2.5284  1.3004 -2.7786
 9567SOL     OW40333   3.892   4.346   8.924  0.0324  0.5923  0.3286
 9567SOL    HW140334   3.930   4.344   8.837  0.2426  1.7341  0.3931
 9567SOL    HW240335   3.814   4.291   8.918  0.2493  0.3466 -0.1999
 9568SOL     OW40336   1.150   0.002   8.401 -0.3805 -0.0490  0.0997
 9568SOL    HW140337   1.097   4.662   8.403  1.7510 -1.5406 -2.9065
 9568SOL    HW240338   1.152   0.012   8.306  1.6783 -0.8206  0.0667
 9569SOL     OW40339   3.534   0.410   0.555 -0.3123  0.0545 -0.3325
 9569SOL    HW140340   3.627   0.425   0.574 -0.1070 -0.5360 -0.8683
 9569SOL    HW240341   3.498   0.387   0.640 -1.1851 -4.9164 -2.0389
 9570SOL     OW40342   3.230   3.309   4.355 -0.1758  0.8204 -0.1284
 9570SOL    HW140343   3.241   3.354   4.438  1.4370  0.4096 -0.1241
 9570SOL    HW240344   3.152   3.256   4.370 -1.5346  2.7400 -0.4902
 9571SOL     OW40345   0.532   1.613   0.697  0.2722  0.5392  0.6880
 9571SOL    HW140346   0.560   1.597   0.787 -0.4372 -0.1021  0.7956
 9571SOL    HW240347   0.472   1.538   0.693  1.1586  0.2523 -6.6473
   4.73968   4.73968  17.75640
